
 Primary working directories    : /tmp/r2666/234628.maple
 Secondary working directories  : /tmp/r2666/234628.maple
 Wavefunction directory         : /ddn/home4/r2666/wfu/
 Main file repository           : /tmp/r2666/234628.maple/

 SHA1      : d5ffa45e93fdbca01ffc919aa182cfdae0147319
 NAME      : 2015.1.35
 ARCHNAME  : linux/x86_64
 FC        : /opt/intel/composer_xe_2015.1.133/bin/intel64/ifort
 BLASLIB   : -Wl,-_start-group /opt/intel/mkl/lib/intel64/libmkl_intel_ilp64.a /opt/intel/mkl/lib/intel64/libmkl_intel_thread.a /opt/intel/mkl/lib/intel64/libmkl_core.a -Wl,-_end-group
 id        : olemiss

 Nodes     nprocs
 cn096        1

 Using customized tuning parameters: mindgm=1; mindgv=20; mindgc=4; mindgr=1; noblas=0; minvec=7
 default implementation of scratch files=df  

 ***,AlONC, CCSD(T)/aug-cc-pV5Z QFF
 memory, 995, m;
 gthresh,energy=1.d-12,zero=1.d-22,oneint=1.d-22,twoint=1.d-22;
 gthresh,optgrad=1.d-8,optstep=1.d-8;
 nocompress;
 geometry={
 N
 O 1 no
 H 1 nh 2 hno
 }
 
  no=1.20786572 ANG
  nh=1.05203411 ANG
  hno=108.1889935 DEG
 
 basis=sto-3g
   {hf,maxit=500;wf,charge=0,spin=0;accu,20;}

 Variables initialized (889), CPU time= 0.00 sec
 Commands  initialized (702), CPU time= 0.01 sec, 572 directives.
 Default parameters read. Elapsed time= 0.04 sec

 Checking input...
 Passed
1


                                         ***  PROGRAM SYSTEM MOLPRO  ***
                                       Copyright, TTI GmbH Stuttgart, 2015
                                    Version 2015.1 linked Jul  9 2018 13:16:40


 **********************************************************************************************************************************
 LABEL *   AlONC, CCSD(T)/aug-cc-pV5Z QFF                                                
  (4 PROC) 64 bit serial version                                                         DATE: 08-Feb-20          TIME: 17:12:27  
 **********************************************************************************************************************************

 SHA1:             d5ffa45e93fdbca01ffc919aa182cfdae0147319
 **********************************************************************************************************************************

 THRESHOLDS:

 ZERO    =  1.00D-22  ONEINT  =  1.00D-22  TWOINT  =  1.00D-22  PREFAC  =  1.00D-14  LOCALI  =  1.00D-09  EORDER  =  1.00D-04
 ENERGY  =  1.00D-12  ETEST   =  0.00D+00  EDENS   =  0.00D+00  THRDEDEF=  1.00D-06  GRADIENT=  1.00D-02  STEP    =  1.00D-03
 ORBITAL =  1.00D-05  CIVEC   =  1.00D-05  COEFF   =  1.00D-04  PRINTCI =  5.00D-02  PUNCHCI =  9.90D+01  OPTGRAD =  3.00D-04
 OPTENERG=  1.00D-06  OPTSTEP =  3.00D-04  THRGRAD =  1.00D-10  COMPRESS=  1.00D-11  VARMIN  =  1.00D-07  VARMAX  =  1.00D-03
 THRDOUB =  0.00D+00  THRDIV  =  1.00D-05  THRRED  =  1.00D-07  THRPSP  =  1.00D+00  THRDC   =  1.00D-10  THRCS   =  1.00D-10
 THRNRM  =  1.00D-08  THREQ   =  0.00D+00  THRDE   =  1.00D+00  THRREF  =  1.00D-05  SPARFAC =  1.00D+00  THRDLP  =  1.00D-07
 THRDIA  =  1.00D-10  THRDLS  =  1.00D-07  THRGPS  =  0.00D+00  THRKEX  =  0.00D+00  THRDIS  =  2.00D-01  THRVAR  =  1.00D-10
 THRLOC  =  1.00D-06  THRGAP  =  1.00D-06  THRLOCT = -1.00D+00  THRGAPT = -1.00D+00  THRORB  =  1.00D-06  THRMLTP =  0.00D+00
 THRCPQCI=  1.00D-10  KEXTA   =  0.00D+00  THRCOARS=  0.00D+00  SYMTOL  =  1.00D-06  GRADTOL =  1.00D-06  THROVL  =  1.00D-08
 THRORTH =  1.00D-08  GRID    =  1.00D-06  GRIDMAX =  1.00D-03  DTMAX   =  0.00D+00  THROCCDE=  1.00D-01  THROCCDE=  1.00D-01



 THRESHOLDS:

 ZERO    =  1.00D-22  ONEINT  =  1.00D-22  TWOINT  =  1.00D-22  PREFAC  =  1.00D-14  LOCALI  =  1.00D-09  EORDER  =  1.00D-04
 ENERGY  =  1.00D-12  ETEST   =  0.00D+00  EDENS   =  0.00D+00  THRDEDEF=  1.00D-06  GRADIENT=  1.00D-02  STEP    =  1.00D-03
 ORBITAL =  1.00D-05  CIVEC   =  1.00D-05  COEFF   =  1.00D-04  PRINTCI =  5.00D-02  PUNCHCI =  9.90D+01  OPTGRAD =  1.00D-08
 OPTENERG=  1.00D-06  OPTSTEP =  1.00D-08  THRGRAD =  1.00D-10  COMPRESS=  1.00D-11  VARMIN  =  1.00D-07  VARMAX  =  1.00D-03
 THRDOUB =  0.00D+00  THRDIV  =  1.00D-05  THRRED  =  1.00D-07  THRPSP  =  1.00D+00  THRDC   =  1.00D-10  THRCS   =  1.00D-10
 THRNRM  =  1.00D-08  THREQ   =  0.00D+00  THRDE   =  1.00D+00  THRREF  =  1.00D-05  SPARFAC =  1.00D+00  THRDLP  =  1.00D-07
 THRDIA  =  1.00D-10  THRDLS  =  1.00D-07  THRGPS  =  0.00D+00  THRKEX  =  0.00D+00  THRDIS  =  2.00D-01  THRVAR  =  1.00D-10
 THRLOC  =  1.00D-06  THRGAP  =  1.00D-06  THRLOCT = -1.00D+00  THRGAPT = -1.00D+00  THRORB  =  1.00D-06  THRMLTP =  0.00D+00
 THRCPQCI=  1.00D-10  KEXTA   =  0.00D+00  THRCOARS=  0.00D+00  SYMTOL  =  1.00D-06  GRADTOL =  1.00D-06  THROVL  =  1.00D-08
 THRORTH =  1.00D-08  GRID    =  1.00D-06  GRIDMAX =  1.00D-03  DTMAX   =  0.00D+00  THROCCDE=  1.00D-01  THROCCDE=  1.00D-01



 Input parameters for SORTINT:

 COMPRESS =    0.000000
 C_FINAL  =    1.000000
 DEBUG    =   -1.000000
 C_SORT1  =    0.000000
 C_SEWARD =    0.000000
 THRESH   =    0.000000
 IO       =  molpro                                                          
 SPRI     =    0.000000
 SETTING NO             =         1.20786572  ANG                             
 SETTING NH             =         1.05203411  ANG                             
 SETTING HNO            =       108.18899350  DEG                             

 Variable memory set to  995000000 words,  buffer space   230000 words

 SETTING BASIS          =    STO-3G


 Recomputing integrals since basis changed


 Using spherical harmonics

 Library entry N      S STO-3G               selected for orbital group  1
 Library entry N      P STO-3G               selected for orbital group  1
 Library entry O      S STO-3G               selected for orbital group  2
 Library entry O      P STO-3G               selected for orbital group  2
 Library entry H      S STO-3G               selected for orbital group  3


 PROGRAM * SEWARD (Integral evaluation for generally contracted gaussian basis sets)     Author: Roland Lindh, 1990

 Geometry written to block  1 of record 700

 Orientation using atomic masses  
 Molecule type: Asymmetric top
 Symmetry elements: X
 Rotational constants:      39.5064760     42.4674579    566.6159558 GHz  (calculated with average atomic masses)

 Point group  Cs  



 ATOMIC COORDINATES

 NR  ATOM    CHARGE       X              Y              Z

   1  N       7.00    0.000000000   -0.161170101   -1.147702354
   2  O       8.00    0.000000000    0.036087348    1.126293552
   3  H       1.00    0.000000000    1.666850543   -1.929180789

 Bond lengths in Bohr (Angstrom)

 1-2  2.282535406  1-3  1.988056342
     ( 1.207865720)     ( 1.052034110)

 Bond angles

  2-1-3  108.18899350

 NUCLEAR CHARGE:                   16
 NUMBER OF PRIMITIVE AOS:          33
 NUMBER OF SYMMETRY AOS:           33
 NUMBER OF CONTRACTIONS:           11   (   9A'  +   2A"  )
 NUMBER OF CORE ORBITALS:           2   (   2A'  +   0A"  )
 NUMBER OF VALENCE ORBITALS:        9   (   7A'  +   2A"  )


 NUCLEAR REPULSION ENERGY   30.36500035

 Eigenvalues of metric

         1 0.276E+00 0.389E+00 0.808E+00 0.843E+00 0.955E+00 0.111E+01 0.120E+01 0.151E+01
         2 0.815E+00 0.119E+01


 Contracted 2-electron integrals neglected if value below      1.0D-22

           1261. INTEGRALS WRITTEN OUT IN       1 BLOCKS ON RECORD 1290 OF FILE 1


 NUMBER OF SORTED TWO-ELECTRON INTEGRALS:       1446.     BUFFER LENGTH:  32768
 NUMBER OF SEGMENTS:   1  SEGMENT LENGTH:       1446      RECORD LENGTH: 524288

 Memory used in sort:       0.56 MW

 SORT1 READ        1261. AND WROTE        1350. INTEGRALS IN      1 RECORDS. CPU TIME:     0.01 SEC, REAL TIME:     0.00 SEC
 SORT2 READ        1350. AND WROTE        1446. INTEGRALS IN      1 RECORDS. CPU TIME:     0.00 SEC, REAL TIME:     0.01 SEC

 FILE SIZES:   FILE 1:    19.9 MBYTE,  FILE 4:     4.2 MBYTE,   TOTAL:     24.2 MBYTE

 OPERATOR DM      FOR CENTER  0  COORDINATES:    0.000000    0.000000    0.000000


 **********************************************************************************************************************************
 DATASETS  * FILE   NREC   LENGTH (MB)   RECORD NAMES
              1      19       19.89       500      610      700      900      950      970     1000      129      960     1100   
                                          VAR    BASINP    GEOM    SYMINP    ZMAT    AOBASIS   BASIS     P2S    ABASIS      S 
                                         1400     1410     1200     1210     1080     1600     1650     1300     1700   
                                           T        V       H0       H01     AOSYM     SMH    MOLCAS    ERIS     OPER   

 PROGRAMS   *        TOTAL       INT
 CPU TIMES  *         0.43      0.35
 REAL TIME  *         0.88 SEC
 DISK USED  *        24.45 MB      
 **********************************************************************************************************************************


 PROGRAM * RHF-SCF (CLOSED SHELL)       Authors: W. Meyer, H.-J. Werner


 NUMBER OF ELECTRONS:       8+    8-
 CONVERGENCE THRESHOLDS:    1.00E-10 (Density)    1.00E-13 (Energy)
 MAX. NUMBER OF ITERATIONS:      500
 INTERPOLATION TYPE:            DIIS
 INTERPOLATION STEPS:              2 (START)      1 (STEP)
 LEVEL SHIFTS:                  0.00 (CLOSED)  0.00 (OPEN) 



 Orbital guess generated from atomic densities. Full valence occupancy:    9   2

 Molecular orbital dump at record        2100.2

 Initial occupancy:   7   1

 ITERATION    DDIFF          GRAD             ENERGY        2-EL.EN.            DIPOLE MOMENTS         DIIS   ORB.
    1      0.000D+00      0.000D+00      -127.99533176    157.224282    0.00000    0.63324   -1.19381    0    start
    2      0.000D+00      0.548D-01      -128.03724553    155.684501    0.00000    0.63316    0.23481    1    diag
    3      0.108D+00      0.385D-01      -128.05993167    155.859449    0.00000    0.54472   -0.22432    2    diag
    4      0.381D-01      0.355D-02      -128.06041606    155.775849    0.00000    0.52850   -0.18986    3    diag
    5      0.660D-02      0.145D-02      -128.06050508    155.770771    0.00000    0.52956   -0.18628    4    diag
    6      0.364D-02      0.457D-03      -128.06051465    155.767630    0.00000    0.52989   -0.18538    5    diag
    7      0.152D-02      0.564D-04      -128.06051481    155.766441    0.00000    0.52971   -0.18499    6    diag
    8      0.199D-03      0.674D-05      -128.06051481    155.766394    0.00000    0.52968   -0.18498    7    diag
    9      0.242D-04      0.826D-06      -128.06051481    155.766396    0.00000    0.52968   -0.18498    8    diag
   10      0.179D-05      0.129D-06      -128.06051481    155.766393    0.00000    0.52968   -0.18498    9    orth
   11      0.420D-06      0.182D-07      -128.06051481    155.766394    0.00000    0.52968   -0.18498    9    diag
   12      0.487D-07      0.220D-08      -128.06051481    155.766394    0.00000    0.52968   -0.18498    9    diag
   13      0.512D-08      0.390D-09      -128.06051481    155.766394    0.00000    0.52968   -0.18498    9    diag
   14      0.916D-09      0.259D-10      -128.06051481    155.766394    0.00000    0.52968   -0.18498    9    diag
   15      0.494D-10      0.255D-11      -128.06051481    155.766394    0.00000    0.52968   -0.18498    0    orth

 Final occupancy:   7   1

 !RHF STATE 1.1 Energy               -128.060514808325
 Nuclear energy                        30.36500035
 One-electron energy                 -236.30871195
 Two-electron energy                   77.88319679
 Virial quotient                       -1.00994700
 !RHF STATE 1.1 Dipole moment           0.00000000     0.52967695    -0.18497614
 Dipole moment /Debye                   0.00000000     1.34621634    -0.47013165

 Orbital energies:

         1.1          2.1          3.1          4.1          5.1          6.1          7.1          8.1          9.1
    -20.386873   -15.468117    -1.463046    -0.917285    -0.652357    -0.554121    -0.329269     0.594780     0.820340

         1.2          2.2
     -0.500092     0.224887

 HOMO      7.1    -0.329269 =      -8.9599eV
 LUMO      2.2     0.224887 =       6.1195eV
 LUMO-HOMO         0.554156 =      15.0793eV


 **********************************************************************************************************************************
 DATASETS  * FILE   NREC   LENGTH (MB)   RECORD NAMES
              1      19       19.89       500      610      700      900      950      970     1000      129      960     1100   
                                          VAR    BASINP    GEOM    SYMINP    ZMAT    AOBASIS   BASIS     P2S    ABASIS      S 
                                         1400     1410     1200     1210     1080     1600     1650     1300     1700   
                                           T        V       H0       H01     AOSYM     SMH    MOLCAS    ERIS     OPER   

              2       4        2.76       700     1000      520     2100   
                                         GEOM     BASIS   MCVARS     RHF  

 PROGRAMS   *        TOTAL        HF       INT
 CPU TIMES  *         0.49      0.06      0.35
 REAL TIME  *         1.00 SEC
 DISK USED  *        24.45 MB      
 **********************************************************************************************************************************

 HF/STO-3G energy=   -128.060514808325

        HF-SCF  
   -128.06051481
 **********************************************************************************************************************************
 Molpro calculation terminated
 Variable memory released
