
 Primary working directories    : /tmp/r2666/232604.maple
 Secondary working directories  : /tmp/r2666/232604.maple
 Wavefunction directory         : /ddn/home4/r2666/wfu/
 Main file repository           : /tmp/r2666/232604.maple/

 SHA1      : d5ffa45e93fdbca01ffc919aa182cfdae0147319
 NAME      : 2015.1.35
 ARCHNAME  : linux/x86_64
 FC        : /opt/intel/composer_xe_2015.1.133/bin/intel64/ifort
 BLASLIB   : -Wl,-_start-group /opt/intel/mkl/lib/intel64/libmkl_intel_ilp64.a /opt/intel/mkl/lib/intel64/libmkl_intel_thread.a /opt/intel/mkl/lib/intel64/libmkl_core.a -Wl,-_end-group
 id        : olemiss

 Nodes     nprocs
 cn083        1

 Using customized tuning parameters: mindgm=1; mindgv=20; mindgc=4; mindgr=1; noblas=0; minvec=7
 default implementation of scratch files=df  

 ***,hcn CCSD(T)/TZ-F12 QFF
 memory, 995, m;
 gthresh,energy=1.d-12,zero=1.d-22,oneint=1.d-22,twoint=1.d-22;
 gthresh,optgrad=1.d-8,optstep=1.d-8;
 nocompress;
 geomtyp=xyz
 bohr
 geometry={
 3
         48        48
 N        0.0000000000        0.0000000000        1.1372995643
 C        0.0000000000        0.0000000000       -1.0604473626
 H        0.0000000000        0.0000000000       -3.0739221836
 }
 
 basis=vtz-dk
 dkroll=0
   {hf,maxit=500;accu,20;}
 {ccsd(t),nocheck,maxit=250;orbital,IGNORE_ERROR;}

 Variables initialized (889), CPU time= 0.00 sec
 Commands  initialized (702), CPU time= 0.02 sec, 572 directives.
 Default parameters read. Elapsed time= 0.05 sec

 Checking input...
 Passed
1


                                         ***  PROGRAM SYSTEM MOLPRO  ***
                                       Copyright, TTI GmbH Stuttgart, 2015
                                    Version 2015.1 linked Jul  9 2018 13:16:40


 **********************************************************************************************************************************
 LABEL *   hcn CCSD(T)/TZ-F12 QFF                                                        
  64 bit serial version                                                                  DATE: 06-Feb-20          TIME: 09:54:36  
 **********************************************************************************************************************************

 SHA1:             d5ffa45e93fdbca01ffc919aa182cfdae0147319
 **********************************************************************************************************************************

 THRESHOLDS:

 ZERO    =  1.00D-22  ONEINT  =  1.00D-22  TWOINT  =  1.00D-22  PREFAC  =  1.00D-14  LOCALI  =  1.00D-09  EORDER  =  1.00D-04
 ENERGY  =  1.00D-12  ETEST   =  0.00D+00  EDENS   =  0.00D+00  THRDEDEF=  1.00D-06  GRADIENT=  1.00D-02  STEP    =  1.00D-03
 ORBITAL =  1.00D-05  CIVEC   =  1.00D-05  COEFF   =  1.00D-04  PRINTCI =  5.00D-02  PUNCHCI =  9.90D+01  OPTGRAD =  3.00D-04
 OPTENERG=  1.00D-06  OPTSTEP =  3.00D-04  THRGRAD =  1.00D-10  COMPRESS=  1.00D-11  VARMIN  =  1.00D-07  VARMAX  =  1.00D-03
 THRDOUB =  0.00D+00  THRDIV  =  1.00D-05  THRRED  =  1.00D-07  THRPSP  =  1.00D+00  THRDC   =  1.00D-10  THRCS   =  1.00D-10
 THRNRM  =  1.00D-08  THREQ   =  0.00D+00  THRDE   =  1.00D+00  THRREF  =  1.00D-05  SPARFAC =  1.00D+00  THRDLP  =  1.00D-07
 THRDIA  =  1.00D-10  THRDLS  =  1.00D-07  THRGPS  =  0.00D+00  THRKEX  =  0.00D+00  THRDIS  =  2.00D-01  THRVAR  =  1.00D-10
 THRLOC  =  1.00D-06  THRGAP  =  1.00D-06  THRLOCT = -1.00D+00  THRGAPT = -1.00D+00  THRORB  =  1.00D-06  THRMLTP =  0.00D+00
 THRCPQCI=  1.00D-10  KEXTA   =  0.00D+00  THRCOARS=  0.00D+00  SYMTOL  =  1.00D-06  GRADTOL =  1.00D-06  THROVL  =  1.00D-08
 THRORTH =  1.00D-08  GRID    =  1.00D-06  GRIDMAX =  1.00D-03  DTMAX   =  0.00D+00  THROCCDE=  1.00D-01  THROCCDE=  1.00D-01



 THRESHOLDS:

 ZERO    =  1.00D-22  ONEINT  =  1.00D-22  TWOINT  =  1.00D-22  PREFAC  =  1.00D-14  LOCALI  =  1.00D-09  EORDER  =  1.00D-04
 ENERGY  =  1.00D-12  ETEST   =  0.00D+00  EDENS   =  0.00D+00  THRDEDEF=  1.00D-06  GRADIENT=  1.00D-02  STEP    =  1.00D-03
 ORBITAL =  1.00D-05  CIVEC   =  1.00D-05  COEFF   =  1.00D-04  PRINTCI =  5.00D-02  PUNCHCI =  9.90D+01  OPTGRAD =  1.00D-08
 OPTENERG=  1.00D-06  OPTSTEP =  1.00D-08  THRGRAD =  1.00D-10  COMPRESS=  1.00D-11  VARMIN  =  1.00D-07  VARMAX  =  1.00D-03
 THRDOUB =  0.00D+00  THRDIV  =  1.00D-05  THRRED  =  1.00D-07  THRPSP  =  1.00D+00  THRDC   =  1.00D-10  THRCS   =  1.00D-10
 THRNRM  =  1.00D-08  THREQ   =  0.00D+00  THRDE   =  1.00D+00  THRREF  =  1.00D-05  SPARFAC =  1.00D+00  THRDLP  =  1.00D-07
 THRDIA  =  1.00D-10  THRDLS  =  1.00D-07  THRGPS  =  0.00D+00  THRKEX  =  0.00D+00  THRDIS  =  2.00D-01  THRVAR  =  1.00D-10
 THRLOC  =  1.00D-06  THRGAP  =  1.00D-06  THRLOCT = -1.00D+00  THRGAPT = -1.00D+00  THRORB  =  1.00D-06  THRMLTP =  0.00D+00
 THRCPQCI=  1.00D-10  KEXTA   =  0.00D+00  THRCOARS=  0.00D+00  SYMTOL  =  1.00D-06  GRADTOL =  1.00D-06  THROVL  =  1.00D-08
 THRORTH =  1.00D-08  GRID    =  1.00D-06  GRIDMAX =  1.00D-03  DTMAX   =  0.00D+00  THROCCDE=  1.00D-01  THROCCDE=  1.00D-01



 Input parameters for SORTINT:

 COMPRESS =    0.000000
 C_FINAL  =    1.000000
 DEBUG    =   -1.000000
 C_SORT1  =    0.000000
 C_SEWARD =    0.000000
 THRESH   =    0.000000
 IO       =  molpro                                                          
 SPRI     =    0.000000
 SETTING GEOMTYP        =    XYZ
 ZUNIT=BOHR
 

 Variable memory set to  995000000 words,  buffer space   230000 words

 SETTING BASIS          =    VTZ-DK
 SETTING DKROLL         =     0.00000000D+00                                  


 Recomputing integrals since basis changed


 Using spherical harmonics

 Library entry N      S cc-pVTZ-DK           selected for orbital group  1
 Library entry N      P cc-pVTZ-DK           selected for orbital group  1
 Library entry N      D cc-pVTZ-DK           selected for orbital group  1
 Library entry N      F cc-pVTZ-DK           selected for orbital group  1
 Library entry C      S cc-pVTZ-DK           selected for orbital group  2
 Library entry C      P cc-pVTZ-DK           selected for orbital group  2
 Library entry C      D cc-pVTZ-DK           selected for orbital group  2
 Library entry C      F cc-pVTZ-DK           selected for orbital group  2
 Library entry H      S cc-pVTZ-DK           selected for orbital group  3
 Library entry H      P cc-pVTZ-DK           selected for orbital group  3
 Library entry H      D cc-pVTZ-DK           selected for orbital group  3


 PROGRAM * SEWARD (Integral evaluation for generally contracted gaussian basis sets)     Author: Roland Lindh, 1990

 Geometry written to block  1 of record 700


 Point group  C2v 



 ATOMIC COORDINATES

 NR  ATOM    CHARGE       X              Y              Z

   1  N       7.00    0.000000000    0.000000000    1.137299564
   2  C       6.00    0.000000000    0.000000000   -1.060447363
   3  H       1.00    0.000000000    0.000000000   -3.073922184

 Bond lengths in Bohr (Angstrom)

 1-2  2.197746927  2-3  2.013474821
     ( 1.162997589)     ( 1.065484990)

 Bond angles

  1-2-3  180.00000000

 NUCLEAR CHARGE:                   14
 NUMBER OF PRIMITIVE AOS:         111
 NUMBER OF SYMMETRY AOS:          100
 NUMBER OF CONTRACTIONS:           74   (  33A1  +  17B1  +  17B2  +   7A2  )
 NUMBER OF CORE ORBITALS:           2   (   2A1  +   0B1  +   0B2  +   0A2  )
 NUMBER OF VALENCE ORBITALS:        9   (   5A1  +   2B1  +   2B2  +   0A2  )


 NUCLEAR REPULSION ENERGY   23.75262909

 EXTRA SYMMETRY OF AOS IN SYMMETRY 1:   1 1 1 1 1 1 1 1 2 1   2 1 2 1 1 1 1 1 1 1   1 2 1 2 1 2 1 1 1 1   1 1 2
 EXTRA SYMMETRY OF AOS IN SYMMETRY 2:   1 1 1 1 1 1 2 1 1 1   1 1 1 2 1 1 1
 EXTRA SYMMETRY OF AOS IN SYMMETRY 3:   1 1 1 1 1 1 2 1 1 1   1 1 1 2 1 1 1

 Eigenvalues of metric

         1 0.109E-02 0.147E-02 0.248E-02 0.636E-02 0.110E-01 0.198E-01 0.294E-01 0.476E-01
         2 0.159E-01 0.364E-01 0.609E-01 0.902E-01 0.134E+00 0.288E+00 0.379E+00 0.431E+00
         3 0.159E-01 0.364E-01 0.609E-01 0.902E-01 0.134E+00 0.288E+00 0.379E+00 0.431E+00
         4 0.296E+00 0.457E+00 0.575E+00 0.848E+00 0.125E+01 0.156E+01 0.202E+01


 Contracted 2-electron integrals neglected if value below      1.0D-22

         874985. INTEGRALS WRITTEN OUT IN     214 BLOCKS ON RECORD 1290 OF FILE 1


 NUMBER OF SORTED TWO-ELECTRON INTEGRALS:    1039939.     BUFFER LENGTH:  32768
 NUMBER OF SEGMENTS:   1  SEGMENT LENGTH:    1039939      RECORD LENGTH: 524288

 Memory used in sort:       1.60 MW

 SORT1 READ      874985. AND WROTE      911271. INTEGRALS IN      3 RECORDS. CPU TIME:     0.02 SEC, REAL TIME:     0.03 SEC
 SORT2 READ      911271. AND WROTE     1039939. INTEGRALS IN      1 RECORDS. CPU TIME:     0.03 SEC, REAL TIME:     0.05 SEC

 FILE SIZES:   FILE 1:    34.1 MBYTE,  FILE 4:    12.6 MBYTE,   TOTAL:     46.7 MBYTE

 OPERATOR DM      FOR CENTER  0  COORDINATES:    0.000000    0.000000    0.000000


 **********************************************************************************************************************************
 DATASETS  * FILE   NREC   LENGTH (MB)   RECORD NAMES
              1      19       27.60       500      610      700      900      950      970     1000      129      960     1100   
                                          VAR    BASINP    GEOM    SYMINP    ZMAT    AOBASIS   BASIS     P2S    ABASIS      S 
                                         1400     1410     1200     1210     1080     1600     1650     1300     1700   
                                           T        V       H0       H01     AOSYM     SMH    MOLCAS    ERIS     OPER   

 PROGRAMS   *        TOTAL       INT
 CPU TIMES  *         0.67      0.57
 REAL TIME  *         1.18 SEC
 DISK USED  *        47.00 MB      
 **********************************************************************************************************************************


 PROGRAM * RHF-SCF (CLOSED SHELL)       Authors: W. Meyer, H.-J. Werner


 NUMBER OF ELECTRONS:       7+    7-
 CONVERGENCE THRESHOLDS:    1.00E-10 (Density)    1.00E-13 (Energy)
 MAX. NUMBER OF ITERATIONS:      500
 INTERPOLATION TYPE:            DIIS
 INTERPOLATION STEPS:              2 (START)      1 (STEP)
 LEVEL SHIFTS:                  0.00 (CLOSED)  0.00 (OPEN) 



 Orbital guess generated from atomic densities. Full valence occupancy:    7   2   2   0

 Molecular orbital dump at record        2100.2

 Initial occupancy:   5   1   1   0

 ITERATION    DDIFF          GRAD             ENERGY        2-EL.EN.            DIPOLE MOMENTS         DIIS   ORB.
    1      0.000D+00      0.000D+00       -92.87941511    111.584174    0.00000    0.00000   -1.77278    0    start
    2      0.000D+00      0.114D-01       -92.88800655    110.813035    0.00000    0.00000   -0.87712    1    diag
    3      0.190D-01      0.104D-01       -92.90329276    111.323170    0.00000    0.00000   -1.29283    2    diag
    4      0.959D-02      0.843D-03       -92.90351751    111.280780    0.00000    0.00000   -1.28391    3    diag
    5      0.152D-02      0.190D-03       -92.90353034    111.293983    0.00000    0.00000   -1.28267    4    diag
    6      0.408D-03      0.531D-04       -92.90353124    111.288575    0.00000    0.00000   -1.28261    5    diag
    7      0.102D-03      0.193D-04       -92.90353133    111.289621    0.00000    0.00000   -1.28275    6    diag
    8      0.341D-04      0.369D-05       -92.90353133    111.289575    0.00000    0.00000   -1.28273    7    diag
    9      0.634D-05      0.400D-06       -92.90353133    111.289583    0.00000    0.00000   -1.28273    8    diag
   10      0.869D-06      0.395D-07       -92.90353133    111.289583    0.00000    0.00000   -1.28273    9    orth
   11      0.770D-07      0.459D-08       -92.90353133    111.289583    0.00000    0.00000   -1.28273    9    diag
   12      0.134D-07      0.412D-09       -92.90353133    111.289583    0.00000    0.00000   -1.28273    9    diag
   13      0.171D-08      0.444D-10       -92.90353133    111.289583    0.00000    0.00000   -1.28273    9    diag
   14      0.256D-09      0.847D-11       -92.90353133    111.289583    0.00000    0.00000   -1.28273    9    diag
   15      0.403D-10      0.122D-11       -92.90353133    111.289583    0.00000    0.00000   -1.28273    9    diag
   16      0.387D-11      0.217D-12       -92.90353133    111.289583    0.00000    0.00000   -1.28273    9    diag
   17      0.557D-12      0.692D-13       -92.90353133    111.289583    0.00000    0.00000   -1.28273    9    diag
   18      0.202D-12      0.379D-13       -92.90353133    111.289583    0.00000    0.00000   -1.28273    9    diag
   19      0.841D-13      0.353D-13       -92.90353133    111.289583    0.00000    0.00000   -1.28273    9    fixocc
   20      0.571D-13      0.271D-13       -92.90353133    111.289583    0.00000    0.00000   -1.28273    0    orth

 Final occupancy:   5   1   1   0

 !RHF STATE 1.1 Energy                -92.903531330299
 Nuclear energy                        23.75262909
 One-electron energy                 -172.30095182
 Two-electron energy                   55.64479140
 Virial quotient                       -1.00149239
 !RHF STATE 1.1 Dipole moment           0.00000000     0.00000000    -1.28272970
 Dipole moment /Debye                   0.00000000     0.00000000    -3.26016015

 Orbital energies:

         1.1          2.1          3.1          4.1          5.1          6.1          7.1
    -15.601033   -11.294032    -1.230676    -0.813269    -0.581459     0.141479     0.240262

         1.2          2.2          3.2
     -0.492608     0.163695     0.446498

         1.3          2.3          3.3
     -0.492608     0.163695     0.446498

         1.4          2.4
      0.810312     1.417356

 HOMO      1.2    -0.492608 =     -13.4045eV
 LUMO      6.1     0.141479 =       3.8498eV
 LUMO-HOMO         0.634087 =      17.2544eV


 **********************************************************************************************************************************
 DATASETS  * FILE   NREC   LENGTH (MB)   RECORD NAMES
              1      19       27.60       500      610      700      900      950      970     1000      129      960     1100   
                                          VAR    BASINP    GEOM    SYMINP    ZMAT    AOBASIS   BASIS     P2S    ABASIS      S 
                                         1400     1410     1200     1210     1080     1600     1650     1300     1700   
                                           T        V       H0       H01     AOSYM     SMH    MOLCAS    ERIS     OPER   

              2       4        2.82       700     1000      520     2100   
                                         GEOM     BASIS   MCVARS     RHF  

 PROGRAMS   *        TOTAL        HF       INT
 CPU TIMES  *         0.77      0.10      0.57
 REAL TIME  *         1.35 SEC
 DISK USED  *        47.00 MB      
 **********************************************************************************************************************************


 PROGRAM * CCSD (Closed-shell coupled cluster)     Authors: C. Hampel, H.-J. Werner, 1991, M. Deegan, P.J. Knowles, 1992


 Convergence thresholds:  THRVAR = 1.00D-08  THRDEN = 1.00D-12

 CCSD(T)     terms to be evaluated (factor= 1.000)


 Number of core orbitals:           2 (   2   0   0   0 )
 Number of closed-shell orbitals:   5 (   3   1   1   0 )
 Number of external orbitals:      67 (  28  16  16   7 )

 Molecular orbitals read from record     2100.2  Type=RHF/CANONICAL (state 1.1)

 Number of N-1 electron functions:               5
 Number of N-2 electron functions:              15
 Number of singly external CSFs:               116
 Number of doubly external CSFs:             15189
 Total number of CSFs:                       15306

 Length of J-op  integral file:               0.00 MB
 Length of K-op  integral file:               0.15 MB
 Length of 3-ext integral record:             0.00 MB

 Memory could be reduced to 0.93 Mwords without degradation in triples

 Integral transformation finished. Total CPU:   0.00 sec, npass=  1  Memory used:   0.18 MW

 Reference energy:                    -92.90353133

 MP2 singlet pair energy:              -0.21908291
 MP2 triplet pair energy:              -0.12804025
 MP2 correlation energy:               -0.34712316
 MP2 total energy:                    -93.25065449

 SCS-MP2 correlation energy:           -0.34256898   (PS=  1.200000  PT=  0.333333)
 SCS-MP2 total energy:                -93.24610031

 ITER.      SQ.NORM     CORR.ENERGY   TOTAL ENERGY   ENERGY CHANGE        DEN1      VAR(S)    VAR(P)  DIIS     TIME  TIME/IT
   1      1.11588011    -0.34996282   -93.25349415    -0.00283966     0.01035136  0.26D-02  0.31D-02  1  1     0.03     0.02
   2      1.12567820    -0.35025581   -93.25378714    -0.00029298    -0.01027028  0.53D-04  0.43D-03  2  2     0.04     0.02
   3      1.13089751    -0.35048916   -93.25402049    -0.00023336    -0.00259402  0.13D-04  0.44D-04  3  3     0.06     0.02
   4      1.13309866    -0.35059152   -93.25412285    -0.00010236    -0.00078966  0.30D-06  0.47D-05  4  4     0.07     0.02
   5      1.13358494    -0.35058787   -93.25411920     0.00000365    -0.00013471  0.10D-06  0.43D-06  5  5     0.09     0.02
   6      1.13368960    -0.35058675   -93.25411808     0.00000112    -0.00002738  0.97D-08  0.32D-07  6  6     0.10     0.02
   7      1.13369800    -0.35058925   -93.25412058    -0.00000250    -0.00000243  0.62D-09  0.27D-08  6  1     0.12     0.02
   8      1.13369848    -0.35058978   -93.25412111    -0.00000052     0.00000071  0.41D-10  0.16D-09  6  2     0.13     0.02
   9      1.13369920    -0.35058981   -93.25412114    -0.00000003    -0.00000041  0.59D-11  0.11D-10  6  3     0.15     0.02
  10      1.13369914    -0.35058983   -93.25412116    -0.00000002     0.00000010  0.33D-12  0.12D-11  6  4     0.16     0.02
  11      1.13369909    -0.35058983   -93.25412116    -0.00000000     0.00000001  0.14D-12  0.94D-13  6  5     0.17     0.02
  12      1.13369903    -0.35058983   -93.25412117    -0.00000000     0.00000003  0.98D-14  0.23D-13  6  6     0.18     0.02
  13      1.13369899    -0.35058984   -93.25412117    -0.00000000     0.00000001  0.31D-14  0.20D-14  6  2     0.19     0.02
  14      1.13369897    -0.35058984   -93.25412117    -0.00000000     0.00000000  0.39D-16  0.12D-15  6  1     0.20     0.02
  15      1.13369897    -0.35058984   -93.25412117    -0.00000000     0.00000000  0.26D-17  0.11D-16  6  4     0.21     0.02
  16      1.13369897    -0.35058984   -93.25412117    -0.00000000     0.00000000  0.10D-17  0.59D-18  6  3     0.22     0.02
  17      1.13369897    -0.35058984   -93.25412117    -0.00000000     0.00000000  0.12D-18  0.12D-18  6  5     0.24     0.02
  18      1.13369897    -0.35058984   -93.25412117    -0.00000000    -0.00000000  0.19D-19  0.95D-20  6  6     0.25     0.02
  19      1.13369897    -0.35058984   -93.25412117     0.00000000    -0.00000000  0.50D-21  0.14D-20  6  2     0.26     0.02
  20      1.13369897    -0.35058984   -93.25412117     0.00000000    -0.00000000  0.45D-22  0.20D-21  6  1     0.27     0.02
  21      1.13369897    -0.35058984   -93.25412117     0.00000000    -0.00000000  0.11D-22  0.43D-22  6  4     0.28     0.02

 Norm of t1 vector:      0.06496450      S-energy:    -0.00000000      T1 diagnostic:  0.01452650
                                                                       D1 diagnostic:  0.02930703

 Doubles amplitudes (print threshold =  0.500E-01):

         I         J         SYM. A    SYM. B    A         B      T(IJ, AB)

         4         4         2         2         1         1     -0.08906422
         5         5         3         3         1         1     -0.08906422
         5         4         3         2         1         1     -0.05561816


 Total CPU time for triples:      0.06 sec


 RESULTS
 =======

  Reference energy                    -92.903531330299
  CCSD singlet pair energy             -0.243959683581
  CCSD triplet pair energy             -0.106630152803
  CCSD correlation energy              -0.350589836384

  Triples (T) contribution             -0.018176320933
  Total correlation energy             -0.368766157317

  CCSD total energy                   -93.254121166683
  CCSD[T] energy                      -93.273156172989
  CCSD-T energy                       -93.271871545116
 !CCSD(T) total energy                -93.272297487615

 Timing summary (sec):

 STEP                 CPU(USER)    SYS     CPU(TOT)    WALL
 CCSD iterations         0.28      0.08      0.36      0.34
 Triples                 0.06      0.00      0.06      0.06

 Program statistics:

 Available memory in ccsd:               994999800
 Min. memory needed in ccsd:                 67993
 Max. memory used in ccsd:                   79450
 Max. memory used in cckext:                107513 (21 integral passes)



 **********************************************************************************************************************************
 DATASETS  * FILE   NREC   LENGTH (MB)   RECORD NAMES
              1      20       29.54       500      610      700      900      950      970     1000      129      960     1100   
                                          VAR    BASINP    GEOM    SYMINP    ZMAT    AOBASIS   BASIS     P2S    ABASIS      S 
                                         1400     1410     1200     1210     1080     1600     1650     1300     1700     1380   
                                           T        V       H0       H01     AOSYM     SMH    MOLCAS    ERIS     OPER     JKOP   

              2       4        2.82       700     1000      520     2100   
                                         GEOM     BASIS   MCVARS     RHF  

 PROGRAMS   *        TOTAL   CCSD(T)        HF       INT
 CPU TIMES  *         1.14      0.35      0.10      0.57
 REAL TIME  *         1.81 SEC
 DISK USED  *        47.00 MB      
 **********************************************************************************************************************************

 CCSD(T)/cc-pVTZ-DK energy=    -93.272297487615

        CCSD(T)         HF-SCF  
    -93.27229749    -92.90353133
 **********************************************************************************************************************************
 Molpro calculation terminated
 Variable memory released
