
 Primary working directories    : /tmp/r2666/232605.maple
 Secondary working directories  : /tmp/r2666/232605.maple
 Wavefunction directory         : /ddn/home4/r2666/wfu/
 Main file repository           : /tmp/r2666/232605.maple/

 SHA1      : d5ffa45e93fdbca01ffc919aa182cfdae0147319
 NAME      : 2015.1.35
 ARCHNAME  : linux/x86_64
 FC        : /opt/intel/composer_xe_2015.1.133/bin/intel64/ifort
 BLASLIB   : -Wl,-_start-group /opt/intel/mkl/lib/intel64/libmkl_intel_ilp64.a /opt/intel/mkl/lib/intel64/libmkl_intel_thread.a /opt/intel/mkl/lib/intel64/libmkl_core.a -Wl,-_end-group
 id        : olemiss

 Nodes     nprocs
 cn083        1

 Using customized tuning parameters: mindgm=1; mindgv=20; mindgc=4; mindgr=1; noblas=0; minvec=7
 default implementation of scratch files=df  

 ***,hcn CCSD(T)/TZ-F12 QFF
 memory, 995, m;
 gthresh,energy=1.d-12,zero=1.d-22,oneint=1.d-22,twoint=1.d-22;
 gthresh,optgrad=1.d-8,optstep=1.d-8;
 nocompress;
 geomtyp=xyz
 bohr
 geometry={
 3
         49        49
 N       -0.0046350011        0.0000001318        1.1372508040
 C        0.0096508443       -0.0000000034       -1.0604496918
 H       -0.0050158432       -0.0000001284       -3.0738710941
 }
 
 basis=vtz-dk
 dkroll=0
   {hf,maxit=500;accu,20;}
 {ccsd(t),nocheck,maxit=250;orbital,IGNORE_ERROR;}

 Variables initialized (889), CPU time= 0.01 sec
 Commands  initialized (702), CPU time= 0.01 sec, 572 directives.
 Default parameters read. Elapsed time= 0.05 sec

 Checking input...
 Passed
1


                                         ***  PROGRAM SYSTEM MOLPRO  ***
                                       Copyright, TTI GmbH Stuttgart, 2015
                                    Version 2015.1 linked Jul  9 2018 13:16:40


 **********************************************************************************************************************************
 LABEL *   hcn CCSD(T)/TZ-F12 QFF                                                        
  64 bit serial version                                                                  DATE: 06-Feb-20          TIME: 09:54:37  
 **********************************************************************************************************************************

 SHA1:             d5ffa45e93fdbca01ffc919aa182cfdae0147319
 **********************************************************************************************************************************

 THRESHOLDS:

 ZERO    =  1.00D-22  ONEINT  =  1.00D-22  TWOINT  =  1.00D-22  PREFAC  =  1.00D-14  LOCALI  =  1.00D-09  EORDER  =  1.00D-04
 ENERGY  =  1.00D-12  ETEST   =  0.00D+00  EDENS   =  0.00D+00  THRDEDEF=  1.00D-06  GRADIENT=  1.00D-02  STEP    =  1.00D-03
 ORBITAL =  1.00D-05  CIVEC   =  1.00D-05  COEFF   =  1.00D-04  PRINTCI =  5.00D-02  PUNCHCI =  9.90D+01  OPTGRAD =  3.00D-04
 OPTENERG=  1.00D-06  OPTSTEP =  3.00D-04  THRGRAD =  1.00D-10  COMPRESS=  1.00D-11  VARMIN  =  1.00D-07  VARMAX  =  1.00D-03
 THRDOUB =  0.00D+00  THRDIV  =  1.00D-05  THRRED  =  1.00D-07  THRPSP  =  1.00D+00  THRDC   =  1.00D-10  THRCS   =  1.00D-10
 THRNRM  =  1.00D-08  THREQ   =  0.00D+00  THRDE   =  1.00D+00  THRREF  =  1.00D-05  SPARFAC =  1.00D+00  THRDLP  =  1.00D-07
 THRDIA  =  1.00D-10  THRDLS  =  1.00D-07  THRGPS  =  0.00D+00  THRKEX  =  0.00D+00  THRDIS  =  2.00D-01  THRVAR  =  1.00D-10
 THRLOC  =  1.00D-06  THRGAP  =  1.00D-06  THRLOCT = -1.00D+00  THRGAPT = -1.00D+00  THRORB  =  1.00D-06  THRMLTP =  0.00D+00
 THRCPQCI=  1.00D-10  KEXTA   =  0.00D+00  THRCOARS=  0.00D+00  SYMTOL  =  1.00D-06  GRADTOL =  1.00D-06  THROVL  =  1.00D-08
 THRORTH =  1.00D-08  GRID    =  1.00D-06  GRIDMAX =  1.00D-03  DTMAX   =  0.00D+00  THROCCDE=  1.00D-01  THROCCDE=  1.00D-01



 THRESHOLDS:

 ZERO    =  1.00D-22  ONEINT  =  1.00D-22  TWOINT  =  1.00D-22  PREFAC  =  1.00D-14  LOCALI  =  1.00D-09  EORDER  =  1.00D-04
 ENERGY  =  1.00D-12  ETEST   =  0.00D+00  EDENS   =  0.00D+00  THRDEDEF=  1.00D-06  GRADIENT=  1.00D-02  STEP    =  1.00D-03
 ORBITAL =  1.00D-05  CIVEC   =  1.00D-05  COEFF   =  1.00D-04  PRINTCI =  5.00D-02  PUNCHCI =  9.90D+01  OPTGRAD =  1.00D-08
 OPTENERG=  1.00D-06  OPTSTEP =  1.00D-08  THRGRAD =  1.00D-10  COMPRESS=  1.00D-11  VARMIN  =  1.00D-07  VARMAX  =  1.00D-03
 THRDOUB =  0.00D+00  THRDIV  =  1.00D-05  THRRED  =  1.00D-07  THRPSP  =  1.00D+00  THRDC   =  1.00D-10  THRCS   =  1.00D-10
 THRNRM  =  1.00D-08  THREQ   =  0.00D+00  THRDE   =  1.00D+00  THRREF  =  1.00D-05  SPARFAC =  1.00D+00  THRDLP  =  1.00D-07
 THRDIA  =  1.00D-10  THRDLS  =  1.00D-07  THRGPS  =  0.00D+00  THRKEX  =  0.00D+00  THRDIS  =  2.00D-01  THRVAR  =  1.00D-10
 THRLOC  =  1.00D-06  THRGAP  =  1.00D-06  THRLOCT = -1.00D+00  THRGAPT = -1.00D+00  THRORB  =  1.00D-06  THRMLTP =  0.00D+00
 THRCPQCI=  1.00D-10  KEXTA   =  0.00D+00  THRCOARS=  0.00D+00  SYMTOL  =  1.00D-06  GRADTOL =  1.00D-06  THROVL  =  1.00D-08
 THRORTH =  1.00D-08  GRID    =  1.00D-06  GRIDMAX =  1.00D-03  DTMAX   =  0.00D+00  THROCCDE=  1.00D-01  THROCCDE=  1.00D-01



 Input parameters for SORTINT:

 COMPRESS =    0.000000
 C_FINAL  =    1.000000
 DEBUG    =   -1.000000
 C_SORT1  =    0.000000
 C_SEWARD =    0.000000
 THRESH   =    0.000000
 IO       =  molpro                                                          
 SPRI     =    0.000000
 SETTING GEOMTYP        =    XYZ
 ZUNIT=BOHR
 

 Variable memory set to  995000000 words,  buffer space   230000 words

 SETTING BASIS          =    VTZ-DK
 SETTING DKROLL         =     0.00000000D+00                                  


 Recomputing integrals since basis changed


 Using spherical harmonics

 Library entry N      S cc-pVTZ-DK           selected for orbital group  1
 Library entry N      P cc-pVTZ-DK           selected for orbital group  1
 Library entry N      D cc-pVTZ-DK           selected for orbital group  1
 Library entry N      F cc-pVTZ-DK           selected for orbital group  1
 Library entry C      S cc-pVTZ-DK           selected for orbital group  2
 Library entry C      P cc-pVTZ-DK           selected for orbital group  2
 Library entry C      D cc-pVTZ-DK           selected for orbital group  2
 Library entry C      F cc-pVTZ-DK           selected for orbital group  2
 Library entry H      S cc-pVTZ-DK           selected for orbital group  3
 Library entry H      P cc-pVTZ-DK           selected for orbital group  3
 Library entry H      D cc-pVTZ-DK           selected for orbital group  3


 PROGRAM * SEWARD (Integral evaluation for generally contracted gaussian basis sets)     Author: Roland Lindh, 1990

 Geometry written to block  1 of record 700


 Point group  Cs  



 ATOMIC COORDINATES

 NR  ATOM    CHARGE       X              Y              Z

   1  N       7.00   -0.004635001    0.000000000    1.137250804
   2  C       6.00    0.009650844    0.000000000   -1.060449692
   3  H       1.00   -0.005015843    0.000000000   -3.073871094

 Bond lengths in Bohr (Angstrom)

 1-2  2.197746927  2-3  2.013474821
     ( 1.162997589)     ( 1.065484990)

 Bond angles

  1-2-3  179.21020060

 NUCLEAR CHARGE:                   14
 NUMBER OF PRIMITIVE AOS:         111
 NUMBER OF SYMMETRY AOS:          100
 NUMBER OF CONTRACTIONS:           74   (  50A'  +  24A"  )
 NUMBER OF CORE ORBITALS:           2   (   2A'  +   0A"  )
 NUMBER OF VALENCE ORBITALS:        9   (   7A'  +   2A"  )


 NUCLEAR REPULSION ENERGY   23.75266850

 Eigenvalues of metric

         1 0.109E-02 0.147E-02 0.248E-02 0.636E-02 0.110E-01 0.159E-01 0.198E-01 0.294E-01
         2 0.159E-01 0.364E-01 0.609E-01 0.902E-01 0.134E+00 0.288E+00 0.296E+00 0.379E+00


 Contracted 2-electron integrals neglected if value below      1.0D-22

        1874108. INTEGRALS WRITTEN OUT IN     458 BLOCKS ON RECORD 1290 OF FILE 1


 NUMBER OF SORTED TWO-ELECTRON INTEGRALS:    2006100.     BUFFER LENGTH:  32768
 NUMBER OF SEGMENTS:   1  SEGMENT LENGTH:    2006100      RECORD LENGTH: 524288

 Memory used in sort:       2.56 MW

 SORT1 READ     1874108. AND WROTE     1914021. INTEGRALS IN      6 RECORDS. CPU TIME:     0.05 SEC, REAL TIME:     0.04 SEC
 SORT2 READ     1914021. AND WROTE     2006100. INTEGRALS IN      1 RECORDS. CPU TIME:     0.04 SEC, REAL TIME:     0.06 SEC

 FILE SIZES:   FILE 1:    50.1 MBYTE,  FILE 4:    25.2 MBYTE,   TOTAL:     75.3 MBYTE

 OPERATOR DM      FOR CENTER  0  COORDINATES:    0.000000    0.000000    0.000000


 **********************************************************************************************************************************
 DATASETS  * FILE   NREC   LENGTH (MB)   RECORD NAMES
              1      19       35.89       500      610      700      900      950      970     1000      129      960     1100   
                                          VAR    BASINP    GEOM    SYMINP    ZMAT    AOBASIS   BASIS     P2S    ABASIS      S 
                                         1400     1410     1200     1210     1080     1600     1650     1300     1700   
                                           T        V       H0       H01     AOSYM     SMH    MOLCAS    ERIS     OPER   

 PROGRAMS   *        TOTAL       INT
 CPU TIMES  *         0.63      0.54
 REAL TIME  *         1.11 SEC
 DISK USED  *        75.59 MB      
 **********************************************************************************************************************************


 PROGRAM * RHF-SCF (CLOSED SHELL)       Authors: W. Meyer, H.-J. Werner


 NUMBER OF ELECTRONS:       7+    7-
 CONVERGENCE THRESHOLDS:    1.00E-10 (Density)    1.00E-13 (Energy)
 MAX. NUMBER OF ITERATIONS:      500
 INTERPOLATION TYPE:            DIIS
 INTERPOLATION STEPS:              2 (START)      1 (STEP)
 LEVEL SHIFTS:                  0.00 (CLOSED)  0.00 (OPEN) 



 Orbital guess generated from atomic densities. Full valence occupancy:    9   2

 Molecular orbital dump at record        2100.2

 Initial occupancy:   6   1

 ITERATION    DDIFF          GRAD             ENERGY        2-EL.EN.            DIPOLE MOMENTS         DIIS   ORB.
    1      0.000D+00      0.000D+00       -92.87940723    111.584257    0.00691    0.00000   -1.77271    0    start
    2      0.000D+00      0.886D-02       -92.88799873    110.813095   -0.00262    0.00000   -0.87707    1    diag
    3      0.143D-01      0.807D-02       -92.90328529    111.323233    0.00129    0.00000   -1.29277    2    diag
    4      0.723D-02      0.653D-03       -92.90351007    111.280842    0.00094    0.00000   -1.28384    3    diag
    5      0.114D-02      0.147D-03       -92.90352291    111.294046    0.00083    0.00000   -1.28261    4    diag
    6      0.308D-03      0.411D-04       -92.90352381    111.288637    0.00082    0.00000   -1.28254    5    diag
    7      0.772D-04      0.150D-04       -92.90352389    111.289684    0.00081    0.00000   -1.28269    6    diag
    8      0.257D-04      0.286D-05       -92.90352390    111.289638    0.00081    0.00000   -1.28267    7    diag
    9      0.478D-05      0.310D-06       -92.90352390    111.289645    0.00081    0.00000   -1.28267    8    diag
   10      0.657D-06      0.325D-07       -92.90352390    111.289646    0.00081    0.00000   -1.28267    9    orth
   11      0.621D-07      0.667D-08       -92.90352390    111.289646    0.00081    0.00000   -1.28267    9    diag
   12      0.163D-07      0.300D-08       -92.90352390    111.289646    0.00081    0.00000   -1.28267    9    diag
   13      0.975D-08      0.113D-08       -92.90352390    111.289646    0.00081    0.00000   -1.28267    9    diag
   14      0.469D-08      0.340D-09       -92.90352390    111.289646    0.00081    0.00000   -1.28267    9    diag
   15      0.120D-08      0.131D-09       -92.90352390    111.289646    0.00081    0.00000   -1.28267    9    diag
   16      0.433D-09      0.193D-10       -92.90352390    111.289646    0.00081    0.00000   -1.28267    9    diag
   17      0.594D-10      0.495D-11       -92.90352390    111.289646    0.00081    0.00000   -1.28267    9    diag
   18      0.142D-10      0.165D-11       -92.90352390    111.289646    0.00081    0.00000   -1.28267    9    diag
   19      0.506D-11      0.625D-12       -92.90352390    111.289646    0.00081    0.00000   -1.28267    9    fixocc
   20      0.107D-11      0.550D-13       -92.90352390    111.289646    0.00081    0.00000   -1.28267    0    orth

 Final occupancy:   6   1

 !RHF STATE 1.1 Energy                -92.903523896354
 Nuclear energy                        23.75266850
 One-electron energy                 -172.30101526
 Two-electron energy                   55.64482287
 Virial quotient                       -1.00149212
 !RHF STATE 1.1 Dipole moment           0.00080895     0.00000000    -1.28266802
 Dipole moment /Debye                   0.00205601     0.00000000    -3.26000338

 Orbital energies:

         1.1          2.1          3.1          4.1          5.1          6.1          7.1          8.1
    -15.601037   -11.294030    -1.230679    -0.813262    -0.581461    -0.492607     0.141456     0.163693

         1.2          2.2          3.2
     -0.492609     0.163695     0.446499

 HOMO      6.1    -0.492607 =     -13.4045eV
 LUMO      7.1     0.141456 =       3.8492eV
 LUMO-HOMO         0.634063 =      17.2537eV


 **********************************************************************************************************************************
 DATASETS  * FILE   NREC   LENGTH (MB)   RECORD NAMES
              1      19       35.89       500      610      700      900      950      970     1000      129      960     1100   
                                          VAR    BASINP    GEOM    SYMINP    ZMAT    AOBASIS   BASIS     P2S    ABASIS      S 
                                         1400     1410     1200     1210     1080     1600     1650     1300     1700   
                                           T        V       H0       H01     AOSYM     SMH    MOLCAS    ERIS     OPER   

              2       4        2.85       700     1000      520     2100   
                                         GEOM     BASIS   MCVARS     RHF  

 PROGRAMS   *        TOTAL        HF       INT
 CPU TIMES  *         0.86      0.23      0.54
 REAL TIME  *         1.41 SEC
 DISK USED  *        75.59 MB      
 **********************************************************************************************************************************


 PROGRAM * CCSD (Closed-shell coupled cluster)     Authors: C. Hampel, H.-J. Werner, 1991, M. Deegan, P.J. Knowles, 1992


 Convergence thresholds:  THRVAR = 1.00D-08  THRDEN = 1.00D-12

 CCSD(T)     terms to be evaluated (factor= 1.000)


 Number of core orbitals:           2 (   2   0 )
 Number of closed-shell orbitals:   5 (   4   1 )
 Number of external orbitals:      67 (  44  23 )

 Molecular orbitals read from record     2100.2  Type=RHF/CANONICAL (state 1.1)

 Number of N-1 electron functions:               5
 Number of N-2 electron functions:              15
 Number of singly external CSFs:               199
 Number of doubly external CSFs:             29216
 Total number of CSFs:                       29416

 Length of J-op  integral file:               0.00 MB
 Length of K-op  integral file:               0.25 MB
 Length of 3-ext integral record:             0.00 MB

 Memory could be reduced to 1.53 Mwords without degradation in triples

 Integral transformation finished. Total CPU:   0.02 sec, npass=  1  Memory used:   0.47 MW

 Reference energy:                    -92.90352390

 MP2 singlet pair energy:              -0.21908420
 MP2 triplet pair energy:              -0.12804080
 MP2 correlation energy:               -0.34712500
 MP2 total energy:                    -93.25064890

 SCS-MP2 correlation energy:           -0.34257087   (PS=  1.200000  PT=  0.333333)
 SCS-MP2 total energy:                -93.24609477

 ITER.      SQ.NORM     CORR.ENERGY   TOTAL ENERGY   ENERGY CHANGE        DEN1      VAR(S)    VAR(P)  DIIS     TIME  TIME/IT
   1      1.11588163    -0.34996444   -93.25348834    -0.00283944     0.01035185  0.26D-02  0.31D-02  1  1     0.04     0.03
   2      1.12568005    -0.35025744   -93.25378134    -0.00029300    -0.01027046  0.53D-04  0.43D-03  2  2     0.07     0.03
   3      1.13089968    -0.35049082   -93.25401472    -0.00023338    -0.00259412  0.13D-04  0.44D-04  3  3     0.10     0.03
   4      1.13310104    -0.35059320   -93.25411709    -0.00010237    -0.00078971  0.30D-06  0.47D-05  4  4     0.13     0.03
   5      1.13358738    -0.35058954   -93.25411344     0.00000365    -0.00013472  0.10D-06  0.43D-06  5  5     0.14     0.03
   6      1.13369205    -0.35058843   -93.25411232     0.00000112    -0.00002738  0.97D-08  0.32D-07  6  6     0.18     0.03
   7      1.13370045    -0.35059093   -93.25411482    -0.00000250    -0.00000243  0.62D-09  0.27D-08  6  1     0.20     0.03
   8      1.13370093    -0.35059145   -93.25411535    -0.00000052     0.00000071  0.41D-10  0.16D-09  6  2     0.23     0.03
   9      1.13370165    -0.35059148   -93.25411538    -0.00000003    -0.00000041  0.60D-11  0.11D-10  6  3     0.26     0.03
  10      1.13370159    -0.35059150   -93.25411540    -0.00000002     0.00000010  0.36D-12  0.12D-11  6  4     0.28     0.03
  11      1.13370154    -0.35059151   -93.25411540    -0.00000000     0.00000001  0.15D-12  0.96D-13  6  5     0.31     0.03
  12      1.13370148    -0.35059151   -93.25411541    -0.00000000     0.00000003  0.12D-13  0.23D-13  6  6     0.34     0.03
  13      1.13370144    -0.35059151   -93.25411541    -0.00000000     0.00000001  0.36D-14  0.21D-14  6  2     0.37     0.03
  14      1.13370142    -0.35059151   -93.25411541    -0.00000000     0.00000000  0.13D-15  0.14D-15  6  1     0.40     0.03
  15      1.13370142    -0.35059151   -93.25411541     0.00000000     0.00000000  0.28D-16  0.16D-16  6  4     0.43     0.03
  16      1.13370142    -0.35059151   -93.25411541    -0.00000000     0.00000000  0.63D-17  0.22D-17  6  3     0.46     0.03
  17      1.13370142    -0.35059151   -93.25411541    -0.00000000     0.00000000  0.12D-17  0.50D-18  6  5     0.49     0.03
  18      1.13370142    -0.35059151   -93.25411541     0.00000000    -0.00000000  0.67D-19  0.67D-19  6  2     0.51     0.03
  19      1.13370142    -0.35059151   -93.25411541     0.00000000    -0.00000000  0.90D-20  0.49D-20  6  6     0.54     0.03
  20      1.13370142    -0.35059151   -93.25411541     0.00000000    -0.00000000  0.11D-20  0.10D-20  6  1     0.56     0.03
  21      1.13370142    -0.35059151   -93.25411541    -0.00000000     0.00000000  0.34D-21  0.12D-21  6  4     0.59     0.03

 Norm of t1 vector:      0.06496477      S-energy:    -0.00000000      T1 diagnostic:  0.01452656
                                                                       D1 diagnostic:  0.02930797

 Doubles amplitudes (print threshold =  0.500E-01):

         I         J         SYM. A    SYM. B    A         B      T(IJ, AB)

         4         4         1         1         2         2     -0.08893902
         5         5         2         2         1         1     -0.08906385
         5         4         2         1         1         2     -0.05557742


 Total CPU time for triples:      0.15 sec


 RESULTS
 =======

  Reference energy                    -92.903523896354
  CCSD singlet pair energy             -0.243961362267
  CCSD triplet pair energy             -0.106630150353
  CCSD correlation energy              -0.350591512620

  Triples (T) contribution             -0.018176598104
  Total correlation energy             -0.368768110724

  CCSD total energy                   -93.254115408975
  CCSD[T] energy                      -93.273150699503
  CCSD-T energy                       -93.271866064998
 !CCSD(T) total energy                -93.272292007078

 Timing summary (sec):

 STEP                 CPU(USER)    SYS     CPU(TOT)    WALL
 Transformation          0.02      0.02      0.04      0.04
 CCSD iterations         0.57      0.12      0.69      0.70
 Triples                 0.15      0.00      0.15      0.15

 Program statistics:

 Available memory in ccsd:               994999800
 Min. memory needed in ccsd:                125648
 Max. memory used in ccsd:                  146560
 Max. memory used in cckext:                201693 (21 integral passes)



 **********************************************************************************************************************************
 DATASETS  * FILE   NREC   LENGTH (MB)   RECORD NAMES
              1      20       39.60       500      610      700      900      950      970     1000      129      960     1100   
                                          VAR    BASINP    GEOM    SYMINP    ZMAT    AOBASIS   BASIS     P2S    ABASIS      S 
                                         1400     1410     1200     1210     1080     1600     1650     1300     1700     1380   
                                           T        V       H0       H01     AOSYM     SMH    MOLCAS    ERIS     OPER     JKOP   

              2       4        2.85       700     1000      520     2100   
                                         GEOM     BASIS   MCVARS     RHF  

 PROGRAMS   *        TOTAL   CCSD(T)        HF       INT
 CPU TIMES  *         1.65      0.79      0.23      0.54
 REAL TIME  *         2.58 SEC
 DISK USED  *        75.59 MB      
 **********************************************************************************************************************************

 CCSD(T)/cc-pVTZ-DK energy=    -93.272292007078

        CCSD(T)         HF-SCF  
    -93.27229201    -92.90352390
 **********************************************************************************************************************************
 Molpro calculation terminated
 Variable memory released
