
 Primary working directories    : /tmp/r2666/232608.maple
 Secondary working directories  : /tmp/r2666/232608.maple
 Wavefunction directory         : /ddn/home4/r2666/wfu/
 Main file repository           : /tmp/r2666/232608.maple/

 SHA1      : d5ffa45e93fdbca01ffc919aa182cfdae0147319
 NAME      : 2015.1.35
 ARCHNAME  : linux/x86_64
 FC        : /opt/intel/composer_xe_2015.1.133/bin/intel64/ifort
 BLASLIB   : -Wl,-_start-group /opt/intel/mkl/lib/intel64/libmkl_intel_ilp64.a /opt/intel/mkl/lib/intel64/libmkl_intel_thread.a /opt/intel/mkl/lib/intel64/libmkl_core.a -Wl,-_end-group
 id        : olemiss

 Nodes     nprocs
 cn080        1

 Using customized tuning parameters: mindgm=1; mindgv=20; mindgc=4; mindgr=1; noblas=0; minvec=7
 default implementation of scratch files=df  

 ***,hcn CCSD(T)/TZ-F12 QFF
 memory, 995, m;
 gthresh,energy=1.d-12,zero=1.d-22,oneint=1.d-22,twoint=1.d-22;
 gthresh,optgrad=1.d-8,optstep=1.d-8;
 nocompress;
 geomtyp=xyz
 bohr
 geometry={
 3
         52        52
 N        0.0000000000        0.0000000000        1.1404491076
 C        0.0000000000        0.0000000000       -1.0667464493
 H        0.0000000000        0.0000000000       -3.0707726403
 }
 
 basis=vtz-dk
 dkroll=0
   {hf,maxit=500;accu,20;}
 {ccsd(t),nocheck,maxit=250;orbital,IGNORE_ERROR;}

 Variables initialized (889), CPU time= 0.01 sec
 Commands  initialized (702), CPU time= 0.01 sec, 572 directives.
 Default parameters read. Elapsed time= 0.06 sec

 Checking input...
 Passed
1


                                         ***  PROGRAM SYSTEM MOLPRO  ***
                                       Copyright, TTI GmbH Stuttgart, 2015
                                    Version 2015.1 linked Jul  9 2018 13:16:40


 **********************************************************************************************************************************
 LABEL *   hcn CCSD(T)/TZ-F12 QFF                                                        
  64 bit serial version                                                                  DATE: 06-Feb-20          TIME: 09:54:37  
 **********************************************************************************************************************************

 SHA1:             d5ffa45e93fdbca01ffc919aa182cfdae0147319
 **********************************************************************************************************************************

 THRESHOLDS:

 ZERO    =  1.00D-22  ONEINT  =  1.00D-22  TWOINT  =  1.00D-22  PREFAC  =  1.00D-14  LOCALI  =  1.00D-09  EORDER  =  1.00D-04
 ENERGY  =  1.00D-12  ETEST   =  0.00D+00  EDENS   =  0.00D+00  THRDEDEF=  1.00D-06  GRADIENT=  1.00D-02  STEP    =  1.00D-03
 ORBITAL =  1.00D-05  CIVEC   =  1.00D-05  COEFF   =  1.00D-04  PRINTCI =  5.00D-02  PUNCHCI =  9.90D+01  OPTGRAD =  3.00D-04
 OPTENERG=  1.00D-06  OPTSTEP =  3.00D-04  THRGRAD =  1.00D-10  COMPRESS=  1.00D-11  VARMIN  =  1.00D-07  VARMAX  =  1.00D-03
 THRDOUB =  0.00D+00  THRDIV  =  1.00D-05  THRRED  =  1.00D-07  THRPSP  =  1.00D+00  THRDC   =  1.00D-10  THRCS   =  1.00D-10
 THRNRM  =  1.00D-08  THREQ   =  0.00D+00  THRDE   =  1.00D+00  THRREF  =  1.00D-05  SPARFAC =  1.00D+00  THRDLP  =  1.00D-07
 THRDIA  =  1.00D-10  THRDLS  =  1.00D-07  THRGPS  =  0.00D+00  THRKEX  =  0.00D+00  THRDIS  =  2.00D-01  THRVAR  =  1.00D-10
 THRLOC  =  1.00D-06  THRGAP  =  1.00D-06  THRLOCT = -1.00D+00  THRGAPT = -1.00D+00  THRORB  =  1.00D-06  THRMLTP =  0.00D+00
 THRCPQCI=  1.00D-10  KEXTA   =  0.00D+00  THRCOARS=  0.00D+00  SYMTOL  =  1.00D-06  GRADTOL =  1.00D-06  THROVL  =  1.00D-08
 THRORTH =  1.00D-08  GRID    =  1.00D-06  GRIDMAX =  1.00D-03  DTMAX   =  0.00D+00  THROCCDE=  1.00D-01  THROCCDE=  1.00D-01



 THRESHOLDS:

 ZERO    =  1.00D-22  ONEINT  =  1.00D-22  TWOINT  =  1.00D-22  PREFAC  =  1.00D-14  LOCALI  =  1.00D-09  EORDER  =  1.00D-04
 ENERGY  =  1.00D-12  ETEST   =  0.00D+00  EDENS   =  0.00D+00  THRDEDEF=  1.00D-06  GRADIENT=  1.00D-02  STEP    =  1.00D-03
 ORBITAL =  1.00D-05  CIVEC   =  1.00D-05  COEFF   =  1.00D-04  PRINTCI =  5.00D-02  PUNCHCI =  9.90D+01  OPTGRAD =  1.00D-08
 OPTENERG=  1.00D-06  OPTSTEP =  1.00D-08  THRGRAD =  1.00D-10  COMPRESS=  1.00D-11  VARMIN  =  1.00D-07  VARMAX  =  1.00D-03
 THRDOUB =  0.00D+00  THRDIV  =  1.00D-05  THRRED  =  1.00D-07  THRPSP  =  1.00D+00  THRDC   =  1.00D-10  THRCS   =  1.00D-10
 THRNRM  =  1.00D-08  THREQ   =  0.00D+00  THRDE   =  1.00D+00  THRREF  =  1.00D-05  SPARFAC =  1.00D+00  THRDLP  =  1.00D-07
 THRDIA  =  1.00D-10  THRDLS  =  1.00D-07  THRGPS  =  0.00D+00  THRKEX  =  0.00D+00  THRDIS  =  2.00D-01  THRVAR  =  1.00D-10
 THRLOC  =  1.00D-06  THRGAP  =  1.00D-06  THRLOCT = -1.00D+00  THRGAPT = -1.00D+00  THRORB  =  1.00D-06  THRMLTP =  0.00D+00
 THRCPQCI=  1.00D-10  KEXTA   =  0.00D+00  THRCOARS=  0.00D+00  SYMTOL  =  1.00D-06  GRADTOL =  1.00D-06  THROVL  =  1.00D-08
 THRORTH =  1.00D-08  GRID    =  1.00D-06  GRIDMAX =  1.00D-03  DTMAX   =  0.00D+00  THROCCDE=  1.00D-01  THROCCDE=  1.00D-01



 Input parameters for SORTINT:

 COMPRESS =    0.000000
 C_FINAL  =    1.000000
 DEBUG    =   -1.000000
 C_SORT1  =    0.000000
 C_SEWARD =    0.000000
 THRESH   =    0.000000
 IO       =  molpro                                                          
 SPRI     =    0.000000
 SETTING GEOMTYP        =    XYZ
 ZUNIT=BOHR
 

 Variable memory set to  995000000 words,  buffer space   230000 words

 SETTING BASIS          =    VTZ-DK
 SETTING DKROLL         =     0.00000000D+00                                  


 Recomputing integrals since basis changed


 Using spherical harmonics

 Library entry N      S cc-pVTZ-DK           selected for orbital group  1
 Library entry N      P cc-pVTZ-DK           selected for orbital group  1
 Library entry N      D cc-pVTZ-DK           selected for orbital group  1
 Library entry N      F cc-pVTZ-DK           selected for orbital group  1
 Library entry C      S cc-pVTZ-DK           selected for orbital group  2
 Library entry C      P cc-pVTZ-DK           selected for orbital group  2
 Library entry C      D cc-pVTZ-DK           selected for orbital group  2
 Library entry C      F cc-pVTZ-DK           selected for orbital group  2
 Library entry H      S cc-pVTZ-DK           selected for orbital group  3
 Library entry H      P cc-pVTZ-DK           selected for orbital group  3
 Library entry H      D cc-pVTZ-DK           selected for orbital group  3


 PROGRAM * SEWARD (Integral evaluation for generally contracted gaussian basis sets)     Author: Roland Lindh, 1990

 Geometry written to block  1 of record 700


 Point group  C2v 



 ATOMIC COORDINATES

 NR  ATOM    CHARGE       X              Y              Z

   1  N       7.00    0.000000000    0.000000000    1.140449108
   2  C       6.00    0.000000000    0.000000000   -1.066746449
   3  H       1.00    0.000000000    0.000000000   -3.070772640

 Bond lengths in Bohr (Angstrom)

 1-2  2.207195557  2-3  2.004026191
     ( 1.167997589)     ( 1.060484990)

 Bond angles

  1-2-3  179.99999879

 NUCLEAR CHARGE:                   14
 NUMBER OF PRIMITIVE AOS:         111
 NUMBER OF SYMMETRY AOS:          100
 NUMBER OF CONTRACTIONS:           74   (  33A1  +  17B1  +  17B2  +   7A2  )
 NUMBER OF CORE ORBITALS:           2   (   2A1  +   0B1  +   0B2  +   0A2  )
 NUMBER OF VALENCE ORBITALS:        9   (   5A1  +   2B1  +   2B2  +   0A2  )


 NUCLEAR REPULSION ENERGY   23.68487017

 EXTRA SYMMETRY OF AOS IN SYMMETRY 1:   1 1 1 1 1 1 1 1 2 1   2 1 2 1 1 1 1 1 1 1   1 2 1 2 1 2 1 1 1 1   1 1 2
 EXTRA SYMMETRY OF AOS IN SYMMETRY 2:   1 1 1 1 1 1 2 1 1 1   1 1 1 2 1 1 1
 EXTRA SYMMETRY OF AOS IN SYMMETRY 3:   1 1 1 1 1 1 2 1 1 1   1 1 1 2 1 1 1

 Eigenvalues of metric

         1 0.109E-02 0.147E-02 0.248E-02 0.629E-02 0.109E-01 0.201E-01 0.295E-01 0.475E-01
         2 0.161E-01 0.363E-01 0.606E-01 0.901E-01 0.134E+00 0.288E+00 0.380E+00 0.431E+00
         3 0.161E-01 0.363E-01 0.606E-01 0.901E-01 0.134E+00 0.288E+00 0.380E+00 0.431E+00
         4 0.298E+00 0.457E+00 0.574E+00 0.847E+00 0.125E+01 0.156E+01 0.201E+01


 Contracted 2-electron integrals neglected if value below      1.0D-22

         875143. INTEGRALS WRITTEN OUT IN     214 BLOCKS ON RECORD 1290 OF FILE 1


 NUMBER OF SORTED TWO-ELECTRON INTEGRALS:    1039939.     BUFFER LENGTH:  32768
 NUMBER OF SEGMENTS:   1  SEGMENT LENGTH:    1039939      RECORD LENGTH: 524288

 Memory used in sort:       1.60 MW

 SORT1 READ      875143. AND WROTE      911449. INTEGRALS IN      3 RECORDS. CPU TIME:     0.03 SEC, REAL TIME:     0.02 SEC
 SORT2 READ      911449. AND WROTE     1039939. INTEGRALS IN      1 RECORDS. CPU TIME:     0.03 SEC, REAL TIME:     0.03 SEC

 FILE SIZES:   FILE 1:    34.1 MBYTE,  FILE 4:    12.6 MBYTE,   TOTAL:     46.7 MBYTE

 OPERATOR DM      FOR CENTER  0  COORDINATES:    0.000000    0.000000    0.000000


 **********************************************************************************************************************************
 DATASETS  * FILE   NREC   LENGTH (MB)   RECORD NAMES
              1      19       27.60       500      610      700      900      950      970     1000      129      960     1100   
                                          VAR    BASINP    GEOM    SYMINP    ZMAT    AOBASIS   BASIS     P2S    ABASIS      S 
                                         1400     1410     1200     1210     1080     1600     1650     1300     1700   
                                           T        V       H0       H01     AOSYM     SMH    MOLCAS    ERIS     OPER   

 PROGRAMS   *        TOTAL       INT
 CPU TIMES  *         0.60      0.50
 REAL TIME  *         1.07 SEC
 DISK USED  *        47.00 MB      
 **********************************************************************************************************************************


 PROGRAM * RHF-SCF (CLOSED SHELL)       Authors: W. Meyer, H.-J. Werner


 NUMBER OF ELECTRONS:       7+    7-
 CONVERGENCE THRESHOLDS:    1.00E-10 (Density)    1.00E-13 (Energy)
 MAX. NUMBER OF ITERATIONS:      500
 INTERPOLATION TYPE:            DIIS
 INTERPOLATION STEPS:              2 (START)      1 (STEP)
 LEVEL SHIFTS:                  0.00 (CLOSED)  0.00 (OPEN) 



 Orbital guess generated from atomic densities. Full valence occupancy:    7   2   2   0

 Molecular orbital dump at record        2100.2

 Initial occupancy:   5   1   1   0

 ITERATION    DDIFF          GRAD             ENERGY        2-EL.EN.            DIPOLE MOMENTS         DIIS   ORB.
    1      0.000D+00      0.000D+00       -92.87861878    111.414882    0.00000    0.00000   -1.76984    0    start
    2      0.000D+00      0.114D-01       -92.88699547    110.678534    0.00000    0.00000   -0.87142    1    diag
    3      0.189D-01      0.104D-01       -92.90233262    111.183381    0.00000    0.00000   -1.29145    2    diag
    4      0.959D-02      0.853D-03       -92.90256121    111.137262    0.00000    0.00000   -1.28229    3    diag
    5      0.153D-02      0.195D-03       -92.90257432    111.151763    0.00000    0.00000   -1.28113    4    diag
    6      0.410D-03      0.540D-04       -92.90257528    111.146166    0.00000    0.00000   -1.28099    5    diag
    7      0.107D-03      0.197D-04       -92.90257538    111.147177    0.00000    0.00000   -1.28115    6    diag
    8      0.347D-04      0.380D-05       -92.90257538    111.147134    0.00000    0.00000   -1.28113    7    diag
    9      0.659D-05      0.410D-06       -92.90257538    111.147142    0.00000    0.00000   -1.28112    8    diag
   10      0.893D-06      0.401D-07       -92.90257538    111.147142    0.00000    0.00000   -1.28112    9    orth
   11      0.781D-07      0.464D-08       -92.90257538    111.147142    0.00000    0.00000   -1.28112    9    diag
   12      0.136D-07      0.415D-09       -92.90257538    111.147142    0.00000    0.00000   -1.28112    9    diag
   13      0.170D-08      0.448D-10       -92.90257538    111.147142    0.00000    0.00000   -1.28112    9    diag
   14      0.259D-09      0.817D-11       -92.90257538    111.147142    0.00000    0.00000   -1.28112    9    diag
   15      0.388D-10      0.142D-11       -92.90257538    111.147142    0.00000    0.00000   -1.28112    9    diag
   16      0.435D-11      0.318D-12       -92.90257538    111.147142    0.00000    0.00000   -1.28112    0    orth

 Final occupancy:   5   1   1   0

 !RHF STATE 1.1 Energy                -92.902575378792
 Nuclear energy                        23.68487017
 One-electron energy                 -172.16101656
 Two-electron energy                   55.57357101
 Virial quotient                       -1.00168535
 !RHF STATE 1.1 Dipole moment           0.00000000     0.00000000    -1.28112344
 Dipole moment /Debye                   0.00000000     0.00000000    -3.25607770

 Orbital energies:

         1.1          2.1          3.1          4.1          5.1          6.1          7.1
    -15.602886   -11.295443    -1.228397    -0.815956    -0.581855     0.141734     0.240232

         1.2          2.2          3.2
     -0.491199     0.161990     0.446407

         1.3          2.3          3.3
     -0.491199     0.161990     0.446407

         1.4          2.4
      0.810145     1.415859

 HOMO      1.2    -0.491199 =     -13.3662eV
 LUMO      6.1     0.141734 =       3.8568eV
 LUMO-HOMO         0.632934 =      17.2230eV


 **********************************************************************************************************************************
 DATASETS  * FILE   NREC   LENGTH (MB)   RECORD NAMES
              1      19       27.60       500      610      700      900      950      970     1000      129      960     1100   
                                          VAR    BASINP    GEOM    SYMINP    ZMAT    AOBASIS   BASIS     P2S    ABASIS      S 
                                         1400     1410     1200     1210     1080     1600     1650     1300     1700   
                                           T        V       H0       H01     AOSYM     SMH    MOLCAS    ERIS     OPER   

              2       4        2.82       700     1000      520     2100   
                                         GEOM     BASIS   MCVARS     RHF  

 PROGRAMS   *        TOTAL        HF       INT
 CPU TIMES  *         0.68      0.08      0.50
 REAL TIME  *         1.18 SEC
 DISK USED  *        47.00 MB      
 **********************************************************************************************************************************


 PROGRAM * CCSD (Closed-shell coupled cluster)     Authors: C. Hampel, H.-J. Werner, 1991, M. Deegan, P.J. Knowles, 1992


 Convergence thresholds:  THRVAR = 1.00D-08  THRDEN = 1.00D-12

 CCSD(T)     terms to be evaluated (factor= 1.000)


 Number of core orbitals:           2 (   2   0   0   0 )
 Number of closed-shell orbitals:   5 (   3   1   1   0 )
 Number of external orbitals:      67 (  28  16  16   7 )

 Molecular orbitals read from record     2100.2  Type=RHF/CANONICAL (state 1.1)

 Number of N-1 electron functions:               5
 Number of N-2 electron functions:              15
 Number of singly external CSFs:               116
 Number of doubly external CSFs:             15189
 Total number of CSFs:                       15306

 Length of J-op  integral file:               0.00 MB
 Length of K-op  integral file:               0.15 MB
 Length of 3-ext integral record:             0.00 MB

 Memory could be reduced to 0.93 Mwords without degradation in triples

 Integral transformation finished. Total CPU:   0.02 sec, npass=  1  Memory used:   0.18 MW

 Reference energy:                    -92.90257538

 MP2 singlet pair energy:              -0.21961937
 MP2 triplet pair energy:              -0.12847617
 MP2 correlation energy:               -0.34809555
 MP2 total energy:                    -93.25067092

 SCS-MP2 correlation energy:           -0.34348398   (PS=  1.200000  PT=  0.333333)
 SCS-MP2 total energy:                -93.24605936

 ITER.      SQ.NORM     CORR.ENERGY   TOTAL ENERGY   ENERGY CHANGE        DEN1      VAR(S)    VAR(P)  DIIS     TIME  TIME/IT
   1      1.11641946    -0.35066854   -93.25324392    -0.00257300     0.01081804  0.27D-02  0.32D-02  1  1     0.05     0.03
   2      1.12632872    -0.35091530   -93.25349068    -0.00024675    -0.01038085  0.54D-04  0.44D-03  2  2     0.07     0.02
   3      1.13163231    -0.35115202   -93.25372740    -0.00023672    -0.00262348  0.13D-04  0.45D-04  3  3     0.07     0.02
   4      1.13389000    -0.35125778   -93.25383316    -0.00010576    -0.00080558  0.30D-06  0.49D-05  4  4     0.09     0.02
   5      1.13439200    -0.35125394   -93.25382932     0.00000384    -0.00013834  0.10D-06  0.45D-06  5  5     0.10     0.02
   6      1.13450060    -0.35125282   -93.25382820     0.00000112    -0.00002828  0.10D-07  0.33D-07  6  6     0.12     0.02
   7      1.13450930    -0.35125546   -93.25383084    -0.00000264    -0.00000249  0.63D-09  0.29D-08  6  1     0.13     0.02
   8      1.13450978    -0.35125601   -93.25383139    -0.00000055     0.00000074  0.40D-10  0.17D-09  6  2     0.14     0.02
   9      1.13451053    -0.35125604   -93.25383142    -0.00000003    -0.00000043  0.75D-11  0.11D-10  6  3     0.16     0.02
  10      1.13451046    -0.35125606   -93.25383144    -0.00000002     0.00000010  0.47D-12  0.12D-11  6  4     0.17     0.02
  11      1.13451041    -0.35125607   -93.25383145    -0.00000000     0.00000001  0.21D-12  0.95D-13  6  5     0.18     0.02
  12      1.13451034    -0.35125607   -93.25383145    -0.00000000     0.00000003  0.18D-13  0.26D-13  6  6     0.19     0.02
  13      1.13451030    -0.35125607   -93.25383145    -0.00000000     0.00000001  0.46D-14  0.21D-14  6  2     0.21     0.02
  14      1.13451028    -0.35125607   -93.25383145    -0.00000000     0.00000001  0.54D-16  0.15D-15  6  1     0.22     0.02
  15      1.13451028    -0.35125607   -93.25383145     0.00000000     0.00000000  0.37D-17  0.14D-16  6  4     0.23     0.02
  16      1.13451028    -0.35125607   -93.25383145    -0.00000000     0.00000000  0.12D-17  0.81D-18  6  3     0.25     0.02
  17      1.13451028    -0.35125607   -93.25383145    -0.00000000     0.00000000  0.13D-18  0.16D-18  6  5     0.26     0.02
  18      1.13451028    -0.35125607   -93.25383145     0.00000000    -0.00000000  0.17D-19  0.13D-19  6  6     0.27     0.02
  19      1.13451028    -0.35125607   -93.25383145     0.00000000    -0.00000000  0.68D-21  0.15D-20  6  2     0.29     0.02
  20      1.13451028    -0.35125607   -93.25383145     0.00000000    -0.00000000  0.30D-22  0.23D-21  6  1     0.30     0.02
  21      1.13451028    -0.35125607   -93.25383145     0.00000000    -0.00000000  0.22D-22  0.41D-22  6  4     0.32     0.02

 Norm of t1 vector:      0.06560876      S-energy:    -0.00000000      T1 diagnostic:  0.01467056
                                                                       D1 diagnostic:  0.02965106

 Doubles amplitudes (print threshold =  0.500E-01):

         I         J         SYM. A    SYM. B    A         B      T(IJ, AB)

         4         4         2         2         1         1     -0.09017595
         5         5         3         3         1         1     -0.09017595
         5         4         3         2         1         1     -0.05620271


 Total CPU time for triples:      0.05 sec


 RESULTS
 =======

  Reference energy                    -92.902575378793
  CCSD singlet pair energy             -0.244507087552
  CCSD triplet pair energy             -0.106748985073
  CCSD correlation energy              -0.351256072625

  Triples (T) contribution             -0.018324686169
  Total correlation energy             -0.369580758794

  CCSD total energy                   -93.253831451417
  CCSD[T] energy                      -93.273034501012
  CCSD-T energy                       -93.271721831541
 !CCSD(T) total energy                -93.272156137587

 Timing summary (sec):

 STEP                 CPU(USER)    SYS     CPU(TOT)    WALL
 Transformation          0.02      0.01      0.03      0.15
 CCSD iterations         0.30      0.04      0.34      0.33
 Triples                 0.05      0.00      0.05      0.06

 Program statistics:

 Available memory in ccsd:               994999800
 Min. memory needed in ccsd:                 67993
 Max. memory used in ccsd:                   79450
 Max. memory used in cckext:                107513 (21 integral passes)



 **********************************************************************************************************************************
 DATASETS  * FILE   NREC   LENGTH (MB)   RECORD NAMES
              1      20       29.54       500      610      700      900      950      970     1000      129      960     1100   
                                          VAR    BASINP    GEOM    SYMINP    ZMAT    AOBASIS   BASIS     P2S    ABASIS      S 
                                         1400     1410     1200     1210     1080     1600     1650     1300     1700     1380   
                                           T        V       H0       H01     AOSYM     SMH    MOLCAS    ERIS     OPER     JKOP   

              2       4        2.82       700     1000      520     2100   
                                         GEOM     BASIS   MCVARS     RHF  

 PROGRAMS   *        TOTAL   CCSD(T)        HF       INT
 CPU TIMES  *         1.09      0.40      0.08      0.50
 REAL TIME  *         1.77 SEC
 DISK USED  *        47.00 MB      
 **********************************************************************************************************************************

 CCSD(T)/cc-pVTZ-DK energy=    -93.272156137587

        CCSD(T)         HF-SCF  
    -93.27215614    -92.90257538
 **********************************************************************************************************************************
 Molpro calculation terminated
 Variable memory released
