
 Primary working directories    : /tmp/r2666/232559.maple
 Secondary working directories  : /tmp/r2666/232559.maple
 Wavefunction directory         : /ddn/home4/r2666/wfu/
 Main file repository           : /tmp/r2666/232559.maple/

 SHA1      : d5ffa45e93fdbca01ffc919aa182cfdae0147319
 NAME      : 2015.1.35
 ARCHNAME  : linux/x86_64
 FC        : /opt/intel/composer_xe_2015.1.133/bin/intel64/ifort
 BLASLIB   : -Wl,-_start-group /opt/intel/mkl/lib/intel64/libmkl_intel_ilp64.a /opt/intel/mkl/lib/intel64/libmkl_intel_thread.a /opt/intel/mkl/lib/intel64/libmkl_core.a -Wl,-_end-group
 id        : olemiss

 Nodes     nprocs
 cn078        1

 Using customized tuning parameters: mindgm=1; mindgv=20; mindgc=4; mindgr=1; noblas=0; minvec=7
 default implementation of scratch files=df  

 ***,hcn CCSD(T)/TZ-F12 QFF
 memory, 995, m;
 gthresh,energy=1.d-12,zero=1.d-22,oneint=1.d-22,twoint=1.d-22;
 gthresh,optgrad=1.d-8,optstep=1.d-8;
 nocompress;
 geomtyp=xyz
 bohr
 geometry={
 3
          3         3
 N        0.0000000000        0.0000000000        1.1058041311
 C        0.0000000000        0.0000000000       -1.0446996461
 H        0.0000000000        0.0000000000       -3.0581744671
 }
 
 basis=vtz-dk
 dkroll=0
   {hf,maxit=500;accu,20;}
 {ccsd(t),nocheck,maxit=250;orbital,IGNORE_ERROR;}

 Variables initialized (889), CPU time= 0.01 sec
 Commands  initialized (702), CPU time= 0.01 sec, 572 directives.
 Default parameters read. Elapsed time= 0.04 sec

 Checking input...
 Passed
1


                                         ***  PROGRAM SYSTEM MOLPRO  ***
                                       Copyright, TTI GmbH Stuttgart, 2015
                                    Version 2015.1 linked Jul  9 2018 13:16:40


 **********************************************************************************************************************************
 LABEL *   hcn CCSD(T)/TZ-F12 QFF                                                        
  64 bit serial version                                                                  DATE: 06-Feb-20          TIME: 09:54:29  
 **********************************************************************************************************************************

 SHA1:             d5ffa45e93fdbca01ffc919aa182cfdae0147319
 **********************************************************************************************************************************

 THRESHOLDS:

 ZERO    =  1.00D-22  ONEINT  =  1.00D-22  TWOINT  =  1.00D-22  PREFAC  =  1.00D-14  LOCALI  =  1.00D-09  EORDER  =  1.00D-04
 ENERGY  =  1.00D-12  ETEST   =  0.00D+00  EDENS   =  0.00D+00  THRDEDEF=  1.00D-06  GRADIENT=  1.00D-02  STEP    =  1.00D-03
 ORBITAL =  1.00D-05  CIVEC   =  1.00D-05  COEFF   =  1.00D-04  PRINTCI =  5.00D-02  PUNCHCI =  9.90D+01  OPTGRAD =  3.00D-04
 OPTENERG=  1.00D-06  OPTSTEP =  3.00D-04  THRGRAD =  1.00D-10  COMPRESS=  1.00D-11  VARMIN  =  1.00D-07  VARMAX  =  1.00D-03
 THRDOUB =  0.00D+00  THRDIV  =  1.00D-05  THRRED  =  1.00D-07  THRPSP  =  1.00D+00  THRDC   =  1.00D-10  THRCS   =  1.00D-10
 THRNRM  =  1.00D-08  THREQ   =  0.00D+00  THRDE   =  1.00D+00  THRREF  =  1.00D-05  SPARFAC =  1.00D+00  THRDLP  =  1.00D-07
 THRDIA  =  1.00D-10  THRDLS  =  1.00D-07  THRGPS  =  0.00D+00  THRKEX  =  0.00D+00  THRDIS  =  2.00D-01  THRVAR  =  1.00D-10
 THRLOC  =  1.00D-06  THRGAP  =  1.00D-06  THRLOCT = -1.00D+00  THRGAPT = -1.00D+00  THRORB  =  1.00D-06  THRMLTP =  0.00D+00
 THRCPQCI=  1.00D-10  KEXTA   =  0.00D+00  THRCOARS=  0.00D+00  SYMTOL  =  1.00D-06  GRADTOL =  1.00D-06  THROVL  =  1.00D-08
 THRORTH =  1.00D-08  GRID    =  1.00D-06  GRIDMAX =  1.00D-03  DTMAX   =  0.00D+00  THROCCDE=  1.00D-01  THROCCDE=  1.00D-01



 THRESHOLDS:

 ZERO    =  1.00D-22  ONEINT  =  1.00D-22  TWOINT  =  1.00D-22  PREFAC  =  1.00D-14  LOCALI  =  1.00D-09  EORDER  =  1.00D-04
 ENERGY  =  1.00D-12  ETEST   =  0.00D+00  EDENS   =  0.00D+00  THRDEDEF=  1.00D-06  GRADIENT=  1.00D-02  STEP    =  1.00D-03
 ORBITAL =  1.00D-05  CIVEC   =  1.00D-05  COEFF   =  1.00D-04  PRINTCI =  5.00D-02  PUNCHCI =  9.90D+01  OPTGRAD =  1.00D-08
 OPTENERG=  1.00D-06  OPTSTEP =  1.00D-08  THRGRAD =  1.00D-10  COMPRESS=  1.00D-11  VARMIN  =  1.00D-07  VARMAX  =  1.00D-03
 THRDOUB =  0.00D+00  THRDIV  =  1.00D-05  THRRED  =  1.00D-07  THRPSP  =  1.00D+00  THRDC   =  1.00D-10  THRCS   =  1.00D-10
 THRNRM  =  1.00D-08  THREQ   =  0.00D+00  THRDE   =  1.00D+00  THRREF  =  1.00D-05  SPARFAC =  1.00D+00  THRDLP  =  1.00D-07
 THRDIA  =  1.00D-10  THRDLS  =  1.00D-07  THRGPS  =  0.00D+00  THRKEX  =  0.00D+00  THRDIS  =  2.00D-01  THRVAR  =  1.00D-10
 THRLOC  =  1.00D-06  THRGAP  =  1.00D-06  THRLOCT = -1.00D+00  THRGAPT = -1.00D+00  THRORB  =  1.00D-06  THRMLTP =  0.00D+00
 THRCPQCI=  1.00D-10  KEXTA   =  0.00D+00  THRCOARS=  0.00D+00  SYMTOL  =  1.00D-06  GRADTOL =  1.00D-06  THROVL  =  1.00D-08
 THRORTH =  1.00D-08  GRID    =  1.00D-06  GRIDMAX =  1.00D-03  DTMAX   =  0.00D+00  THROCCDE=  1.00D-01  THROCCDE=  1.00D-01



 Input parameters for SORTINT:

 COMPRESS =    0.000000
 C_FINAL  =    1.000000
 DEBUG    =   -1.000000
 C_SORT1  =    0.000000
 C_SEWARD =    0.000000
 THRESH   =    0.000000
 IO       =  molpro                                                          
 SPRI     =    0.000000
 SETTING GEOMTYP        =    XYZ
 ZUNIT=BOHR
 

 Variable memory set to  995000000 words,  buffer space   230000 words

 SETTING BASIS          =    VTZ-DK
 SETTING DKROLL         =     0.00000000D+00                                  


 Recomputing integrals since basis changed


 Using spherical harmonics

 Library entry N      S cc-pVTZ-DK           selected for orbital group  1
 Library entry N      P cc-pVTZ-DK           selected for orbital group  1
 Library entry N      D cc-pVTZ-DK           selected for orbital group  1
 Library entry N      F cc-pVTZ-DK           selected for orbital group  1
 Library entry C      S cc-pVTZ-DK           selected for orbital group  2
 Library entry C      P cc-pVTZ-DK           selected for orbital group  2
 Library entry C      D cc-pVTZ-DK           selected for orbital group  2
 Library entry C      F cc-pVTZ-DK           selected for orbital group  2
 Library entry H      S cc-pVTZ-DK           selected for orbital group  3
 Library entry H      P cc-pVTZ-DK           selected for orbital group  3
 Library entry H      D cc-pVTZ-DK           selected for orbital group  3


 PROGRAM * SEWARD (Integral evaluation for generally contracted gaussian basis sets)     Author: Roland Lindh, 1990

 Geometry written to block  1 of record 700


 Point group  C2v 



 ATOMIC COORDINATES

 NR  ATOM    CHARGE       X              Y              Z

   1  N       7.00    0.000000000    0.000000000    1.105804131
   2  C       6.00    0.000000000    0.000000000   -1.044699646
   3  H       1.00    0.000000000    0.000000000   -3.058174467

 Bond lengths in Bohr (Angstrom)

 1-2  2.150503777  2-3  2.013474821
     ( 1.137997591)     ( 1.065484990)

 Bond angles

  1-2-3  179.99999879

 NUCLEAR CHARGE:                   14
 NUMBER OF PRIMITIVE AOS:         111
 NUMBER OF SYMMETRY AOS:          100
 NUMBER OF CONTRACTIONS:           74   (  33A1  +  17B1  +  17B2  +   7A2  )
 NUMBER OF CORE ORBITALS:           2   (   2A1  +   0B1  +   0B2  +   0A2  )
 NUMBER OF VALENCE ORBITALS:        9   (   5A1  +   2B1  +   2B2  +   0A2  )


 NUCLEAR REPULSION ENERGY   24.19131504

 EXTRA SYMMETRY OF AOS IN SYMMETRY 1:   1 1 1 1 1 1 1 1 2 1   2 1 2 1 1 1 1 1 1 1   1 2 1 2 1 2 1 1 1 1   1 1 2
 EXTRA SYMMETRY OF AOS IN SYMMETRY 2:   1 1 1 1 1 1 2 1 1 1   1 1 1 2 1 1 1
 EXTRA SYMMETRY OF AOS IN SYMMETRY 3:   1 1 1 1 1 1 2 1 1 1   1 1 1 2 1 1 1

 Eigenvalues of metric

         1 0.107E-02 0.142E-02 0.241E-02 0.626E-02 0.109E-01 0.182E-01 0.290E-01 0.467E-01
         2 0.145E-01 0.361E-01 0.606E-01 0.863E-01 0.130E+00 0.278E+00 0.371E+00 0.430E+00
         3 0.145E-01 0.361E-01 0.606E-01 0.863E-01 0.130E+00 0.278E+00 0.371E+00 0.430E+00
         4 0.285E+00 0.447E+00 0.573E+00 0.841E+00 0.125E+01 0.156E+01 0.205E+01


 Contracted 2-electron integrals neglected if value below      1.0D-22

         875225. INTEGRALS WRITTEN OUT IN     214 BLOCKS ON RECORD 1290 OF FILE 1


 NUMBER OF SORTED TWO-ELECTRON INTEGRALS:    1039939.     BUFFER LENGTH:  32768
 NUMBER OF SEGMENTS:   1  SEGMENT LENGTH:    1039939      RECORD LENGTH: 524288

 Memory used in sort:       1.60 MW

 SORT1 READ      875225. AND WROTE      911511. INTEGRALS IN      3 RECORDS. CPU TIME:     0.02 SEC, REAL TIME:     0.03 SEC
 SORT2 READ      911511. AND WROTE     1039939. INTEGRALS IN      1 RECORDS. CPU TIME:     0.04 SEC, REAL TIME:     0.04 SEC

 FILE SIZES:   FILE 1:    34.1 MBYTE,  FILE 4:    12.6 MBYTE,   TOTAL:     46.7 MBYTE

 OPERATOR DM      FOR CENTER  0  COORDINATES:    0.000000    0.000000    0.000000


 **********************************************************************************************************************************
 DATASETS  * FILE   NREC   LENGTH (MB)   RECORD NAMES
              1      19       27.60       500      610      700      900      950      970     1000      129      960     1100   
                                          VAR    BASINP    GEOM    SYMINP    ZMAT    AOBASIS   BASIS     P2S    ABASIS      S 
                                         1400     1410     1200     1210     1080     1600     1650     1300     1700   
                                           T        V       H0       H01     AOSYM     SMH    MOLCAS    ERIS     OPER   

 PROGRAMS   *        TOTAL       INT
 CPU TIMES  *         0.69      0.59
 REAL TIME  *         1.63 SEC
 DISK USED  *        47.00 MB      
 **********************************************************************************************************************************


 PROGRAM * RHF-SCF (CLOSED SHELL)       Authors: W. Meyer, H.-J. Werner


 NUMBER OF ELECTRONS:       7+    7-
 CONVERGENCE THRESHOLDS:    1.00E-10 (Density)    1.00E-13 (Energy)
 MAX. NUMBER OF ITERATIONS:      500
 INTERPOLATION TYPE:            DIIS
 INTERPOLATION STEPS:              2 (START)      1 (STEP)
 LEVEL SHIFTS:                  0.00 (CLOSED)  0.00 (OPEN) 



 Orbital guess generated from atomic densities. Full valence occupancy:    7   2   2   0

 Molecular orbital dump at record        2100.2

 Initial occupancy:   5   1   1   0

 ITERATION    DDIFF          GRAD             ENERGY        2-EL.EN.            DIPOLE MOMENTS         DIIS   ORB.
    1      0.000D+00      0.000D+00       -92.88275134    112.575931    0.00000    0.00000   -1.75472    0    start
    2      0.000D+00      0.116D-01       -92.89241184    111.652239    0.00000    0.00000   -0.90117    1    diag
    3      0.190D-01      0.101D-01       -92.90658205    112.179545    0.00000    0.00000   -1.28696    2    diag
    4      0.941D-02      0.815D-03       -92.90679288    112.153213    0.00000    0.00000   -1.27821    3    diag
    5      0.149D-02      0.170D-03       -92.90680428    112.158755    0.00000    0.00000   -1.27684    4    diag
    6      0.400D-03      0.452D-04       -92.90680484    112.155279    0.00000    0.00000   -1.27708    5    diag
    7      0.803D-04      0.153D-04       -92.90680489    112.156442    0.00000    0.00000   -1.27715    6    diag
    8      0.265D-04      0.310D-05       -92.90680489    112.156372    0.00000    0.00000   -1.27714    7    diag
    9      0.508D-05      0.345D-06       -92.90680489    112.156378    0.00000    0.00000   -1.27713    8    diag
   10      0.745D-06      0.373D-07       -92.90680489    112.156379    0.00000    0.00000   -1.27713    9    orth
   11      0.726D-07      0.461D-08       -92.90680489    112.156379    0.00000    0.00000   -1.27713    9    diag
   12      0.125D-07      0.463D-09       -92.90680489    112.156379    0.00000    0.00000   -1.27713    9    diag
   13      0.186D-08      0.581D-10       -92.90680489    112.156379    0.00000    0.00000   -1.27713    9    diag
   14      0.248D-09      0.101D-10       -92.90680489    112.156379    0.00000    0.00000   -1.27713    9    diag
   15      0.549D-10      0.201D-11       -92.90680489    112.156379    0.00000    0.00000   -1.27713    9    diag
   16      0.528D-11      0.576D-12       -92.90680489    112.156379    0.00000    0.00000   -1.27713    9    diag
   17      0.872D-12      0.740D-13       -92.90680489    112.156379    0.00000    0.00000   -1.27713    9    diag
   18      0.260D-12      0.302D-13       -92.90680489    112.156379    0.00000    0.00000   -1.27713    0    orth

 Final occupancy:   5   1   1   0

 !RHF STATE 1.1 Energy                -92.906804894800
 Nuclear energy                        24.19131504
 One-electron energy                 -173.17630924
 Two-electron energy                   56.07818931
 Virial quotient                       -1.00003408
 !RHF STATE 1.1 Dipole moment           0.00000000     0.00000000    -1.27713156
 Dipole moment /Debye                   0.00000000     0.00000000    -3.24593202

 Orbital energies:

         1.1          2.1          3.1          4.1          5.1          6.1          7.1
    -15.592126   -11.285054    -1.242487    -0.809597    -0.580203     0.142486     0.241502

         1.2          2.2          3.2
     -0.500249     0.171790     0.446408

         1.3          2.3          3.3
     -0.500249     0.171790     0.446408

         1.4          2.4
      0.810633     1.424504

 HOMO      1.2    -0.500249 =     -13.6125eV
 LUMO      6.1     0.142486 =       3.8772eV
 LUMO-HOMO         0.642735 =      17.4897eV


 **********************************************************************************************************************************
 DATASETS  * FILE   NREC   LENGTH (MB)   RECORD NAMES
              1      19       27.60       500      610      700      900      950      970     1000      129      960     1100   
                                          VAR    BASINP    GEOM    SYMINP    ZMAT    AOBASIS   BASIS     P2S    ABASIS      S 
                                         1400     1410     1200     1210     1080     1600     1650     1300     1700   
                                           T        V       H0       H01     AOSYM     SMH    MOLCAS    ERIS     OPER   

              2       4        2.82       700     1000      520     2100   
                                         GEOM     BASIS   MCVARS     RHF  

 PROGRAMS   *        TOTAL        HF       INT
 CPU TIMES  *         0.80      0.11      0.59
 REAL TIME  *         1.76 SEC
 DISK USED  *        47.00 MB      
 **********************************************************************************************************************************


 PROGRAM * CCSD (Closed-shell coupled cluster)     Authors: C. Hampel, H.-J. Werner, 1991, M. Deegan, P.J. Knowles, 1992


 Convergence thresholds:  THRVAR = 1.00D-08  THRDEN = 1.00D-12

 CCSD(T)     terms to be evaluated (factor= 1.000)


 Number of core orbitals:           2 (   2   0   0   0 )
 Number of closed-shell orbitals:   5 (   3   1   1   0 )
 Number of external orbitals:      67 (  28  16  16   7 )

 Molecular orbitals read from record     2100.2  Type=RHF/CANONICAL (state 1.1)

 Number of N-1 electron functions:               5
 Number of N-2 electron functions:              15
 Number of singly external CSFs:               116
 Number of doubly external CSFs:             15189
 Total number of CSFs:                       15306

 Length of J-op  integral file:               0.00 MB
 Length of K-op  integral file:               0.15 MB
 Length of 3-ext integral record:             0.00 MB

 Memory could be reduced to 0.93 Mwords without degradation in triples

 Integral transformation finished. Total CPU:   0.00 sec, npass=  1  Memory used:   0.18 MW

 Reference energy:                    -92.90680489

 MP2 singlet pair energy:              -0.21628628
 MP2 triplet pair energy:              -0.12586994
 MP2 correlation energy:               -0.34215622
 MP2 total energy:                    -93.24896111

 SCS-MP2 correlation energy:           -0.33786261   (PS=  1.200000  PT=  0.333333)
 SCS-MP2 total energy:                -93.24466750

 ITER.      SQ.NORM     CORR.ENERGY   TOTAL ENERGY   ENERGY CHANGE        DEN1      VAR(S)    VAR(P)  DIIS     TIME  TIME/IT
   1      1.11277397    -0.34626085   -93.25306575    -0.00410463     0.00809077  0.23D-02  0.28D-02  1  1     0.04     0.03
   2      1.12196430    -0.34674278   -93.25354767    -0.00048193    -0.00970539  0.45D-04  0.39D-03  2  2     0.05     0.02
   3      1.12669893    -0.34695106   -93.25375595    -0.00020828    -0.00241499  0.11D-04  0.38D-04  3  3     0.07     0.02
   4      1.12861915    -0.34703686   -93.25384175    -0.00008580    -0.00070866  0.27D-06  0.38D-05  4  4     0.08     0.02
   5      1.12902852    -0.34703320   -93.25383809     0.00000366    -0.00011683  0.98D-07  0.33D-06  5  5     0.10     0.02
   6      1.12911024    -0.34703244   -93.25383733     0.00000076    -0.00002186  0.71D-08  0.24D-07  6  6     0.11     0.02
   7      1.12911688    -0.34703434   -93.25383924    -0.00000190    -0.00000205  0.57D-09  0.20D-08  6  1     0.12     0.02
   8      1.12911729    -0.34703477   -93.25383966    -0.00000043     0.00000060  0.49D-10  0.11D-09  6  2     0.14     0.02
   9      1.12911786    -0.34703480   -93.25383969    -0.00000003    -0.00000032  0.28D-11  0.84D-11  6  3     0.16     0.02
  10      1.12911783    -0.34703481   -93.25383971    -0.00000001     0.00000008  0.51D-12  0.80D-12  6  4     0.17     0.02
  11      1.12911780    -0.34703482   -93.25383971    -0.00000000     0.00000001  0.33D-13  0.11D-12  6  5     0.19     0.02
  12      1.12911772    -0.34703482   -93.25383971    -0.00000000     0.00000003  0.13D-13  0.48D-14  6  1     0.21     0.02
  13      1.12911771    -0.34703482   -93.25383971    -0.00000000     0.00000000  0.11D-14  0.61D-15  6  6     0.22     0.02
  14      1.12911771    -0.34703482   -93.25383971    -0.00000000     0.00000000  0.35D-15  0.11D-15  6  2     0.24     0.02
  15      1.12911771    -0.34703482   -93.25383971     0.00000000    -0.00000000  0.10D-16  0.81D-17  6  4     0.25     0.02
  16      1.12911771    -0.34703482   -93.25383971     0.00000000    -0.00000000  0.30D-18  0.91D-18  6  3     0.27     0.02
  17      1.12911771    -0.34703482   -93.25383971     0.00000000    -0.00000000  0.89D-19  0.10D-18  6  5     0.28     0.02
  18      1.12911771    -0.34703482   -93.25383971     0.00000000    -0.00000000  0.68D-20  0.17D-19  6  1     0.29     0.02
  19      1.12911771    -0.34703482   -93.25383971    -0.00000000     0.00000000  0.14D-20  0.16D-20  6  6     0.30     0.02
  20      1.12911771    -0.34703482   -93.25383971     0.00000000    -0.00000000  0.22D-21  0.15D-21  6  2     0.32     0.02

 Norm of t1 vector:      0.06159071      S-energy:    -0.00000000      T1 diagnostic:  0.01377210
                                                                       D1 diagnostic:  0.02764337

 Doubles amplitudes (print threshold =  0.500E-01):

         I         J         SYM. A    SYM. B    A         B      T(IJ, AB)

         4         4         2         2         1         1     -0.08376239
         5         5         3         3         1         1     -0.08376239
         5         4         3         2         1         1     -0.05281498


 Total CPU time for triples:      0.05 sec


 RESULTS
 =======

  Reference energy                    -92.906804894800
  CCSD singlet pair energy             -0.240981043265
  CCSD triplet pair energy             -0.106053775981
  CCSD correlation energy              -0.347034819246

  Triples (T) contribution             -0.017394142362
  Total correlation energy             -0.364428961609

  CCSD total energy                   -93.253839714046
  CCSD[T] energy                      -93.271995936106
  CCSD-T energy                       -93.270849280260
 !CCSD(T) total energy                -93.271233856408

 Timing summary (sec):

 STEP                 CPU(USER)    SYS     CPU(TOT)    WALL
 CCSD iterations         0.33      0.06      0.39      0.36
 Triples                 0.05      0.00      0.05      0.06

 Program statistics:

 Available memory in ccsd:               994999800
 Min. memory needed in ccsd:                 67993
 Max. memory used in ccsd:                   79450
 Max. memory used in cckext:                107513 (20 integral passes)



 **********************************************************************************************************************************
 DATASETS  * FILE   NREC   LENGTH (MB)   RECORD NAMES
              1      20       29.54       500      610      700      900      950      970     1000      129      960     1100   
                                          VAR    BASINP    GEOM    SYMINP    ZMAT    AOBASIS   BASIS     P2S    ABASIS      S 
                                         1400     1410     1200     1210     1080     1600     1650     1300     1700     1380   
                                           T        V       H0       H01     AOSYM     SMH    MOLCAS    ERIS     OPER     JKOP   

              2       4        2.82       700     1000      520     2100   
                                         GEOM     BASIS   MCVARS     RHF  

 PROGRAMS   *        TOTAL   CCSD(T)        HF       INT
 CPU TIMES  *         1.22      0.41      0.11      0.59
 REAL TIME  *         2.34 SEC
 DISK USED  *        47.00 MB      
 **********************************************************************************************************************************

 CCSD(T)/cc-pVTZ-DK energy=    -93.271233856408

        CCSD(T)         HF-SCF  
    -93.27123386    -92.90680489
 **********************************************************************************************************************************
 Molpro calculation terminated
 Variable memory released
