
 Primary working directories    : /tmp/r2666/232588.maple
 Secondary working directories  : /tmp/r2666/232588.maple
 Wavefunction directory         : /ddn/home4/r2666/wfu/
 Main file repository           : /tmp/r2666/232588.maple/

 SHA1      : d5ffa45e93fdbca01ffc919aa182cfdae0147319
 NAME      : 2015.1.35
 ARCHNAME  : linux/x86_64
 FC        : /opt/intel/composer_xe_2015.1.133/bin/intel64/ifort
 BLASLIB   : -Wl,-_start-group /opt/intel/mkl/lib/intel64/libmkl_intel_ilp64.a /opt/intel/mkl/lib/intel64/libmkl_intel_thread.a /opt/intel/mkl/lib/intel64/libmkl_core.a -Wl,-_end-group
 id        : olemiss

 Nodes     nprocs
 cn078        1

 Using customized tuning parameters: mindgm=1; mindgv=20; mindgc=4; mindgr=1; noblas=0; minvec=7
 default implementation of scratch files=df  

 ***,hcn CCSD(T)/TZ-F12 QFF
 memory, 995, m;
 gthresh,energy=1.d-12,zero=1.d-22,oneint=1.d-22,twoint=1.d-22;
 gthresh,optgrad=1.d-8,optstep=1.d-8;
 nocompress;
 geomtyp=xyz
 bohr
 geometry={
 3
         32        32
 N        0.0000000000        0.0000000000        1.1310004776
 C        0.0000000000        0.0000000000       -1.0478491894
 H        0.0000000000        0.0000000000       -3.0802212703
 }
 
 basis=vtz-dk
 dkroll=0
   {hf,maxit=500;accu,20;}
 {ccsd(t),nocheck,maxit=250;orbital,IGNORE_ERROR;}

 Variables initialized (889), CPU time= 0.01 sec
 Commands  initialized (702), CPU time= 0.01 sec, 572 directives.
 Default parameters read. Elapsed time= 0.05 sec

 Checking input...
 Passed
1


                                         ***  PROGRAM SYSTEM MOLPRO  ***
                                       Copyright, TTI GmbH Stuttgart, 2015
                                    Version 2015.1 linked Jul  9 2018 13:16:40


 **********************************************************************************************************************************
 LABEL *   hcn CCSD(T)/TZ-F12 QFF                                                        
  64 bit serial version                                                                  DATE: 06-Feb-20          TIME: 09:54:35  
 **********************************************************************************************************************************

 SHA1:             d5ffa45e93fdbca01ffc919aa182cfdae0147319
 **********************************************************************************************************************************

 THRESHOLDS:

 ZERO    =  1.00D-22  ONEINT  =  1.00D-22  TWOINT  =  1.00D-22  PREFAC  =  1.00D-14  LOCALI  =  1.00D-09  EORDER  =  1.00D-04
 ENERGY  =  1.00D-12  ETEST   =  0.00D+00  EDENS   =  0.00D+00  THRDEDEF=  1.00D-06  GRADIENT=  1.00D-02  STEP    =  1.00D-03
 ORBITAL =  1.00D-05  CIVEC   =  1.00D-05  COEFF   =  1.00D-04  PRINTCI =  5.00D-02  PUNCHCI =  9.90D+01  OPTGRAD =  3.00D-04
 OPTENERG=  1.00D-06  OPTSTEP =  3.00D-04  THRGRAD =  1.00D-10  COMPRESS=  1.00D-11  VARMIN  =  1.00D-07  VARMAX  =  1.00D-03
 THRDOUB =  0.00D+00  THRDIV  =  1.00D-05  THRRED  =  1.00D-07  THRPSP  =  1.00D+00  THRDC   =  1.00D-10  THRCS   =  1.00D-10
 THRNRM  =  1.00D-08  THREQ   =  0.00D+00  THRDE   =  1.00D+00  THRREF  =  1.00D-05  SPARFAC =  1.00D+00  THRDLP  =  1.00D-07
 THRDIA  =  1.00D-10  THRDLS  =  1.00D-07  THRGPS  =  0.00D+00  THRKEX  =  0.00D+00  THRDIS  =  2.00D-01  THRVAR  =  1.00D-10
 THRLOC  =  1.00D-06  THRGAP  =  1.00D-06  THRLOCT = -1.00D+00  THRGAPT = -1.00D+00  THRORB  =  1.00D-06  THRMLTP =  0.00D+00
 THRCPQCI=  1.00D-10  KEXTA   =  0.00D+00  THRCOARS=  0.00D+00  SYMTOL  =  1.00D-06  GRADTOL =  1.00D-06  THROVL  =  1.00D-08
 THRORTH =  1.00D-08  GRID    =  1.00D-06  GRIDMAX =  1.00D-03  DTMAX   =  0.00D+00  THROCCDE=  1.00D-01  THROCCDE=  1.00D-01



 THRESHOLDS:

 ZERO    =  1.00D-22  ONEINT  =  1.00D-22  TWOINT  =  1.00D-22  PREFAC  =  1.00D-14  LOCALI  =  1.00D-09  EORDER  =  1.00D-04
 ENERGY  =  1.00D-12  ETEST   =  0.00D+00  EDENS   =  0.00D+00  THRDEDEF=  1.00D-06  GRADIENT=  1.00D-02  STEP    =  1.00D-03
 ORBITAL =  1.00D-05  CIVEC   =  1.00D-05  COEFF   =  1.00D-04  PRINTCI =  5.00D-02  PUNCHCI =  9.90D+01  OPTGRAD =  1.00D-08
 OPTENERG=  1.00D-06  OPTSTEP =  1.00D-08  THRGRAD =  1.00D-10  COMPRESS=  1.00D-11  VARMIN  =  1.00D-07  VARMAX  =  1.00D-03
 THRDOUB =  0.00D+00  THRDIV  =  1.00D-05  THRRED  =  1.00D-07  THRPSP  =  1.00D+00  THRDC   =  1.00D-10  THRCS   =  1.00D-10
 THRNRM  =  1.00D-08  THREQ   =  0.00D+00  THRDE   =  1.00D+00  THRREF  =  1.00D-05  SPARFAC =  1.00D+00  THRDLP  =  1.00D-07
 THRDIA  =  1.00D-10  THRDLS  =  1.00D-07  THRGPS  =  0.00D+00  THRKEX  =  0.00D+00  THRDIS  =  2.00D-01  THRVAR  =  1.00D-10
 THRLOC  =  1.00D-06  THRGAP  =  1.00D-06  THRLOCT = -1.00D+00  THRGAPT = -1.00D+00  THRORB  =  1.00D-06  THRMLTP =  0.00D+00
 THRCPQCI=  1.00D-10  KEXTA   =  0.00D+00  THRCOARS=  0.00D+00  SYMTOL  =  1.00D-06  GRADTOL =  1.00D-06  THROVL  =  1.00D-08
 THRORTH =  1.00D-08  GRID    =  1.00D-06  GRIDMAX =  1.00D-03  DTMAX   =  0.00D+00  THROCCDE=  1.00D-01  THROCCDE=  1.00D-01



 Input parameters for SORTINT:

 COMPRESS =    0.000000
 C_FINAL  =    1.000000
 DEBUG    =   -1.000000
 C_SORT1  =    0.000000
 C_SEWARD =    0.000000
 THRESH   =    0.000000
 IO       =  molpro                                                          
 SPRI     =    0.000000
 SETTING GEOMTYP        =    XYZ
 ZUNIT=BOHR
 

 Variable memory set to  995000000 words,  buffer space   230000 words

 SETTING BASIS          =    VTZ-DK
 SETTING DKROLL         =     0.00000000D+00                                  


 Recomputing integrals since basis changed


 Using spherical harmonics

 Library entry N      S cc-pVTZ-DK           selected for orbital group  1
 Library entry N      P cc-pVTZ-DK           selected for orbital group  1
 Library entry N      D cc-pVTZ-DK           selected for orbital group  1
 Library entry N      F cc-pVTZ-DK           selected for orbital group  1
 Library entry C      S cc-pVTZ-DK           selected for orbital group  2
 Library entry C      P cc-pVTZ-DK           selected for orbital group  2
 Library entry C      D cc-pVTZ-DK           selected for orbital group  2
 Library entry C      F cc-pVTZ-DK           selected for orbital group  2
 Library entry H      S cc-pVTZ-DK           selected for orbital group  3
 Library entry H      P cc-pVTZ-DK           selected for orbital group  3
 Library entry H      D cc-pVTZ-DK           selected for orbital group  3


 PROGRAM * SEWARD (Integral evaluation for generally contracted gaussian basis sets)     Author: Roland Lindh, 1990

 Geometry written to block  1 of record 700


 Point group  C2v 



 ATOMIC COORDINATES

 NR  ATOM    CHARGE       X              Y              Z

   1  N       7.00    0.000000000    0.000000000    1.131000478
   2  C       6.00    0.000000000    0.000000000   -1.047849189
   3  H       1.00    0.000000000    0.000000000   -3.080221270

 Bond lengths in Bohr (Angstrom)

 1-2  2.178849667  2-3  2.032372081
     ( 1.152997590)     ( 1.075484989)

 Bond angles

  1-2-3  180.00000000

 NUCLEAR CHARGE:                   14
 NUMBER OF PRIMITIVE AOS:         111
 NUMBER OF SYMMETRY AOS:          100
 NUMBER OF CONTRACTIONS:           74   (  33A1  +  17B1  +  17B2  +   7A2  )
 NUMBER OF CORE ORBITALS:           2   (   2A1  +   0B1  +   0B2  +   0A2  )
 NUMBER OF VALENCE ORBITALS:        9   (   5A1  +   2B1  +   2B2  +   0A2  )


 NUCLEAR REPULSION ENERGY   23.89066742

 EXTRA SYMMETRY OF AOS IN SYMMETRY 1:   1 1 1 1 1 1 1 1 2 1   2 1 2 1 1 1 1 1 1 1   1 2 1 2 1 2 1 1 1 1   1 1 2
 EXTRA SYMMETRY OF AOS IN SYMMETRY 2:   1 1 1 1 1 1 2 1 1 1   1 1 1 2 1 1 1
 EXTRA SYMMETRY OF AOS IN SYMMETRY 3:   1 1 1 1 1 1 2 1 1 1   1 1 1 2 1 1 1

 Eigenvalues of metric

         1 0.110E-02 0.147E-02 0.247E-02 0.649E-02 0.111E-01 0.192E-01 0.294E-01 0.476E-01
         2 0.154E-01 0.366E-01 0.613E-01 0.903E-01 0.133E+00 0.288E+00 0.379E+00 0.431E+00
         3 0.154E-01 0.366E-01 0.613E-01 0.903E-01 0.133E+00 0.288E+00 0.379E+00 0.431E+00
         4 0.292E+00 0.455E+00 0.575E+00 0.849E+00 0.125E+01 0.155E+01 0.203E+01


 Contracted 2-electron integrals neglected if value below      1.0D-22

         875121. INTEGRALS WRITTEN OUT IN     214 BLOCKS ON RECORD 1290 OF FILE 1


 NUMBER OF SORTED TWO-ELECTRON INTEGRALS:    1039939.     BUFFER LENGTH:  32768
 NUMBER OF SEGMENTS:   1  SEGMENT LENGTH:    1039939      RECORD LENGTH: 524288

 Memory used in sort:       1.60 MW

 SORT1 READ      875121. AND WROTE      911417. INTEGRALS IN      3 RECORDS. CPU TIME:     0.03 SEC, REAL TIME:     0.03 SEC
 SORT2 READ      911417. AND WROTE     1039939. INTEGRALS IN      1 RECORDS. CPU TIME:     0.04 SEC, REAL TIME:     0.05 SEC

 FILE SIZES:   FILE 1:    34.1 MBYTE,  FILE 4:    12.6 MBYTE,   TOTAL:     46.7 MBYTE

 OPERATOR DM      FOR CENTER  0  COORDINATES:    0.000000    0.000000    0.000000


 **********************************************************************************************************************************
 DATASETS  * FILE   NREC   LENGTH (MB)   RECORD NAMES
              1      19       27.60       500      610      700      900      950      970     1000      129      960     1100   
                                          VAR    BASINP    GEOM    SYMINP    ZMAT    AOBASIS   BASIS     P2S    ABASIS      S 
                                         1400     1410     1200     1210     1080     1600     1650     1300     1700   
                                           T        V       H0       H01     AOSYM     SMH    MOLCAS    ERIS     OPER   

 PROGRAMS   *        TOTAL       INT
 CPU TIMES  *         0.63      0.54
 REAL TIME  *         1.61 SEC
 DISK USED  *        47.00 MB      
 **********************************************************************************************************************************


 PROGRAM * RHF-SCF (CLOSED SHELL)       Authors: W. Meyer, H.-J. Werner


 NUMBER OF ELECTRONS:       7+    7-
 CONVERGENCE THRESHOLDS:    1.00E-10 (Density)    1.00E-13 (Energy)
 MAX. NUMBER OF ITERATIONS:      500
 INTERPOLATION TYPE:            DIIS
 INTERPOLATION STEPS:              2 (START)      1 (STEP)
 LEVEL SHIFTS:                  0.00 (CLOSED)  0.00 (OPEN) 



 Orbital guess generated from atomic densities. Full valence occupancy:    7   2   2   0

 Molecular orbital dump at record        2100.2

 Initial occupancy:   5   1   1   0

 ITERATION    DDIFF          GRAD             ENERGY        2-EL.EN.            DIPOLE MOMENTS         DIIS   ORB.
    1      0.000D+00      0.000D+00       -92.88055212    111.928129    0.00000    0.00000   -1.77831    0    start
    2      0.000D+00      0.116D-01       -92.88959389    111.085718    0.00000    0.00000   -0.88864    1    diag
    3      0.191D-01      0.104D-01       -92.90476344    111.606879    0.00000    0.00000   -1.29571    2    diag
    4      0.960D-02      0.825D-03       -92.90498103    111.571833    0.00000    0.00000   -1.28706    3    diag
    5      0.150D-02      0.181D-03       -92.90499338    111.582217    0.00000    0.00000   -1.28570    4    diag
    6      0.405D-03      0.509D-04       -92.90499414    111.577359    0.00000    0.00000   -1.28577    5    diag
    7      0.937D-04      0.183D-04       -92.90499422    111.578483    0.00000    0.00000   -1.28590    6    diag
    8      0.322D-04      0.348D-05       -92.90499422    111.578429    0.00000    0.00000   -1.28588    7    diag
    9      0.585D-05      0.380D-06       -92.90499422    111.578436    0.00000    0.00000   -1.28588    8    diag
   10      0.822D-06      0.382D-07       -92.90499422    111.578436    0.00000    0.00000   -1.28588    9    orth
   11      0.748D-07      0.451D-08       -92.90499422    111.578436    0.00000    0.00000   -1.28588    9    diag
   12      0.129D-07      0.410D-09       -92.90499422    111.578436    0.00000    0.00000   -1.28588    9    diag
   13      0.172D-08      0.440D-10       -92.90499422    111.578436    0.00000    0.00000   -1.28588    9    diag
   14      0.250D-09      0.923D-11       -92.90499422    111.578436    0.00000    0.00000   -1.28588    9    diag
   15      0.436D-10      0.119D-11       -92.90499422    111.578436    0.00000    0.00000   -1.28588    0    orth

 Final occupancy:   5   1   1   0

 !RHF STATE 1.1 Energy                -92.904994222561
 Nuclear energy                        23.89066742
 One-electron energy                 -172.58487957
 Two-electron energy                   55.78921793
 Virial quotient                       -1.00108297
 !RHF STATE 1.1 Dipole moment           0.00000000     0.00000000    -1.28587991
 Dipole moment /Debye                   0.00000000     0.00000000    -3.26816665

 Orbital energies:

         1.1          2.1          3.1          4.1          5.1          6.1          7.1
    -15.597298   -11.291185    -1.235251    -0.807910    -0.580644     0.140934     0.240350

         1.2          2.2          3.2
     -0.495467     0.167099     0.446692

         1.3          2.3          3.3
     -0.495467     0.167099     0.446692

         1.4          2.4
      0.810654     1.420373

 HOMO      1.2    -0.495467 =     -13.4823eV
 LUMO      6.1     0.140934 =       3.8350eV
 LUMO-HOMO         0.636401 =      17.3174eV


 **********************************************************************************************************************************
 DATASETS  * FILE   NREC   LENGTH (MB)   RECORD NAMES
              1      19       27.60       500      610      700      900      950      970     1000      129      960     1100   
                                          VAR    BASINP    GEOM    SYMINP    ZMAT    AOBASIS   BASIS     P2S    ABASIS      S 
                                         1400     1410     1200     1210     1080     1600     1650     1300     1700   
                                           T        V       H0       H01     AOSYM     SMH    MOLCAS    ERIS     OPER   

              2       4        2.82       700     1000      520     2100   
                                         GEOM     BASIS   MCVARS     RHF  

 PROGRAMS   *        TOTAL        HF       INT
 CPU TIMES  *         0.72      0.09      0.54
 REAL TIME  *         1.71 SEC
 DISK USED  *        47.00 MB      
 **********************************************************************************************************************************


 PROGRAM * CCSD (Closed-shell coupled cluster)     Authors: C. Hampel, H.-J. Werner, 1991, M. Deegan, P.J. Knowles, 1992


 Convergence thresholds:  THRVAR = 1.00D-08  THRDEN = 1.00D-12

 CCSD(T)     terms to be evaluated (factor= 1.000)


 Number of core orbitals:           2 (   2   0   0   0 )
 Number of closed-shell orbitals:   5 (   3   1   1   0 )
 Number of external orbitals:      67 (  28  16  16   7 )

 Molecular orbitals read from record     2100.2  Type=RHF/CANONICAL (state 1.1)

 Number of N-1 electron functions:               5
 Number of N-2 electron functions:              15
 Number of singly external CSFs:               116
 Number of doubly external CSFs:             15189
 Total number of CSFs:                       15306

 Length of J-op  integral file:               0.00 MB
 Length of K-op  integral file:               0.15 MB
 Length of 3-ext integral record:             0.00 MB

 Memory could be reduced to 0.93 Mwords without degradation in triples

 Integral transformation finished. Total CPU:   0.02 sec, npass=  1  Memory used:   0.18 MW

 Reference energy:                    -92.90499422

 MP2 singlet pair energy:              -0.21802549
 MP2 triplet pair energy:              -0.12718257
 MP2 correlation energy:               -0.34520806
 MP2 total energy:                    -93.25020228

 SCS-MP2 correlation energy:           -0.34076641   (PS=  1.200000  PT=  0.333333)
 SCS-MP2 total energy:                -93.24576063

 ITER.      SQ.NORM     CORR.ENERGY   TOTAL ENERGY   ENERGY CHANGE        DEN1      VAR(S)    VAR(P)  DIIS     TIME  TIME/IT
   1      1.11481174    -0.34857003   -93.25356425    -0.00336197     0.00944309  0.25D-02  0.30D-02  1  1     0.03     0.02
   2      1.12439552    -0.34895119   -93.25394541    -0.00038116    -0.01005677  0.49D-04  0.41D-03  2  2     0.05     0.02
   3      1.12945122    -0.34917793   -93.25417215    -0.00022674    -0.00253621  0.12D-04  0.41D-04  3  3     0.06     0.02
   4      1.13154426    -0.34927389   -93.25426812    -0.00009597    -0.00075895  0.29D-06  0.44D-05  4  4     0.07     0.02
   5      1.13200077    -0.34927063   -93.25426485     0.00000326    -0.00012775  0.11D-06  0.40D-06  5  5     0.09     0.02
   6      1.13209817    -0.34926951   -93.25426373     0.00000112    -0.00002571  0.87D-08  0.29D-07  6  6     0.10     0.02
   7      1.13210604    -0.34927175   -93.25426597    -0.00000224    -0.00000234  0.60D-09  0.24D-08  6  1     0.11     0.02
   8      1.13210657    -0.34927223   -93.25426645    -0.00000048     0.00000064  0.48D-10  0.14D-09  6  2     0.13     0.02
   9      1.13210723    -0.34927226   -93.25426648    -0.00000003    -0.00000037  0.38D-11  0.10D-10  6  3     0.14     0.02
  10      1.13210718    -0.34927227   -93.25426650    -0.00000002     0.00000009  0.34D-12  0.10D-11  6  4     0.16     0.02
  11      1.13210715    -0.34927228   -93.25426650    -0.00000000     0.00000001  0.51D-13  0.11D-12  6  5     0.17     0.02
  12      1.13210709    -0.34927228   -93.25426650    -0.00000000     0.00000002  0.36D-14  0.22D-13  6  6     0.18     0.02
  13      1.13210706    -0.34927228   -93.25426650    -0.00000000     0.00000001  0.11D-14  0.22D-14  6  2     0.19     0.02
  14      1.13210704    -0.34927228   -93.25426650    -0.00000000     0.00000000  0.30D-16  0.11D-15  6  1     0.21     0.02
  15      1.13210704    -0.34927228   -93.25426650    -0.00000000     0.00000000  0.76D-17  0.79D-17  6  4     0.23     0.02
  16      1.13210704    -0.34927228   -93.25426650    -0.00000000     0.00000000  0.43D-18  0.66D-18  6  3     0.24     0.02
  17      1.13210704    -0.34927228   -93.25426650    -0.00000000     0.00000000  0.18D-18  0.87D-19  6  5     0.26     0.02
  18      1.13210704    -0.34927228   -93.25426650    -0.00000000    -0.00000000  0.57D-20  0.12D-19  6  2     0.27     0.02
  19      1.13210704    -0.34927228   -93.25426650     0.00000000    -0.00000000  0.21D-20  0.56D-21  6  6     0.28     0.02

 Norm of t1 vector:      0.06369177      S-energy:    -0.00000000      T1 diagnostic:  0.01424191
                                                                       D1 diagnostic:  0.02862471

 Doubles amplitudes (print threshold =  0.500E-01):

         I         J         SYM. A    SYM. B    A         B      T(IJ, AB)

         4         4         2         2         1         1     -0.08684784
         5         5         3         3         1         1     -0.08684784
         5         4         3         2         1         1     -0.05444447


 Total CPU time for triples:      0.05 sec


 RESULTS
 =======

  Reference energy                    -92.904994222561
  CCSD singlet pair energy             -0.242881024093
  CCSD triplet pair energy             -0.106391257871
  CCSD correlation energy              -0.349272281965

  Triples (T) contribution             -0.017883820641
  Total correlation energy             -0.367156102606

  CCSD total energy                   -93.254266504526
  CCSD[T] energy                      -93.272970854776
  CCSD-T energy                       -93.271740747218
 !CCSD(T) total energy                -93.272150325166

 Timing summary (sec):

 STEP                 CPU(USER)    SYS     CPU(TOT)    WALL
 Transformation          0.02      0.00      0.02      0.02
 CCSD iterations         0.26      0.07      0.33      0.33
 Triples                 0.05      0.01      0.06      0.06

 Program statistics:

 Available memory in ccsd:               994999800
 Min. memory needed in ccsd:                 67993
 Max. memory used in ccsd:                   79450
 Max. memory used in cckext:                107513 (19 integral passes)



 **********************************************************************************************************************************
 DATASETS  * FILE   NREC   LENGTH (MB)   RECORD NAMES
              1      20       29.54       500      610      700      900      950      970     1000      129      960     1100   
                                          VAR    BASINP    GEOM    SYMINP    ZMAT    AOBASIS   BASIS     P2S    ABASIS      S 
                                         1400     1410     1200     1210     1080     1600     1650     1300     1700     1380   
                                           T        V       H0       H01     AOSYM     SMH    MOLCAS    ERIS     OPER     JKOP   

              2       4        2.82       700     1000      520     2100   
                                         GEOM     BASIS   MCVARS     RHF  

 PROGRAMS   *        TOTAL   CCSD(T)        HF       INT
 CPU TIMES  *         1.08      0.36      0.09      0.54
 REAL TIME  *         2.18 SEC
 DISK USED  *        47.00 MB      
 **********************************************************************************************************************************

 CCSD(T)/cc-pVTZ-DK energy=    -93.272150325166

        CCSD(T)         HF-SCF  
    -93.27215033    -92.90499422
 **********************************************************************************************************************************
 Molpro calculation terminated
 Variable memory released
