
 Primary working directories    : /tmp/r2666/232606.maple
 Secondary working directories  : /tmp/r2666/232606.maple
 Wavefunction directory         : /ddn/home4/r2666/wfu/
 Main file repository           : /tmp/r2666/232606.maple/

 SHA1      : d5ffa45e93fdbca01ffc919aa182cfdae0147319
 NAME      : 2015.1.35
 ARCHNAME  : linux/x86_64
 FC        : /opt/intel/composer_xe_2015.1.133/bin/intel64/ifort
 BLASLIB   : -Wl,-_start-group /opt/intel/mkl/lib/intel64/libmkl_intel_ilp64.a /opt/intel/mkl/lib/intel64/libmkl_intel_thread.a /opt/intel/mkl/lib/intel64/libmkl_core.a -Wl,-_end-group
 id        : olemiss

 Nodes     nprocs
 cn094        1

 Using customized tuning parameters: mindgm=1; mindgv=20; mindgc=4; mindgr=1; noblas=0; minvec=7
 default implementation of scratch files=df  

 ***,hcn CCSD(T)/TZ-F12 QFF
 memory, 995, m;
 gthresh,energy=1.d-12,zero=1.d-22,oneint=1.d-22,twoint=1.d-22;
 gthresh,optgrad=1.d-8,optstep=1.d-8;
 nocompress;
 geomtyp=xyz
 bohr
 geometry={
 3
         50        50
 N        0.0000000000        0.0000000000        1.1404491076
 C        0.0000000000        0.0000000000       -1.0572978193
 H        0.0000000000        0.0000000000       -3.0802212703
 }
 
 basis=vtz-dk
 dkroll=0
   {hf,maxit=500;accu,20;}
 {ccsd(t),nocheck,maxit=250;orbital,IGNORE_ERROR;}

 Variables initialized (889), CPU time= 0.01 sec
 Commands  initialized (702), CPU time= 0.01 sec, 572 directives.
 Default parameters read. Elapsed time= 0.05 sec

 Checking input...
 Passed
1


                                         ***  PROGRAM SYSTEM MOLPRO  ***
                                       Copyright, TTI GmbH Stuttgart, 2015
                                    Version 2015.1 linked Jul  9 2018 13:16:40


 **********************************************************************************************************************************
 LABEL *   hcn CCSD(T)/TZ-F12 QFF                                                        
  64 bit serial version                                                                  DATE: 06-Feb-20          TIME: 09:54:37  
 **********************************************************************************************************************************

 SHA1:             d5ffa45e93fdbca01ffc919aa182cfdae0147319
 **********************************************************************************************************************************

 THRESHOLDS:

 ZERO    =  1.00D-22  ONEINT  =  1.00D-22  TWOINT  =  1.00D-22  PREFAC  =  1.00D-14  LOCALI  =  1.00D-09  EORDER  =  1.00D-04
 ENERGY  =  1.00D-12  ETEST   =  0.00D+00  EDENS   =  0.00D+00  THRDEDEF=  1.00D-06  GRADIENT=  1.00D-02  STEP    =  1.00D-03
 ORBITAL =  1.00D-05  CIVEC   =  1.00D-05  COEFF   =  1.00D-04  PRINTCI =  5.00D-02  PUNCHCI =  9.90D+01  OPTGRAD =  3.00D-04
 OPTENERG=  1.00D-06  OPTSTEP =  3.00D-04  THRGRAD =  1.00D-10  COMPRESS=  1.00D-11  VARMIN  =  1.00D-07  VARMAX  =  1.00D-03
 THRDOUB =  0.00D+00  THRDIV  =  1.00D-05  THRRED  =  1.00D-07  THRPSP  =  1.00D+00  THRDC   =  1.00D-10  THRCS   =  1.00D-10
 THRNRM  =  1.00D-08  THREQ   =  0.00D+00  THRDE   =  1.00D+00  THRREF  =  1.00D-05  SPARFAC =  1.00D+00  THRDLP  =  1.00D-07
 THRDIA  =  1.00D-10  THRDLS  =  1.00D-07  THRGPS  =  0.00D+00  THRKEX  =  0.00D+00  THRDIS  =  2.00D-01  THRVAR  =  1.00D-10
 THRLOC  =  1.00D-06  THRGAP  =  1.00D-06  THRLOCT = -1.00D+00  THRGAPT = -1.00D+00  THRORB  =  1.00D-06  THRMLTP =  0.00D+00
 THRCPQCI=  1.00D-10  KEXTA   =  0.00D+00  THRCOARS=  0.00D+00  SYMTOL  =  1.00D-06  GRADTOL =  1.00D-06  THROVL  =  1.00D-08
 THRORTH =  1.00D-08  GRID    =  1.00D-06  GRIDMAX =  1.00D-03  DTMAX   =  0.00D+00  THROCCDE=  1.00D-01  THROCCDE=  1.00D-01



 THRESHOLDS:

 ZERO    =  1.00D-22  ONEINT  =  1.00D-22  TWOINT  =  1.00D-22  PREFAC  =  1.00D-14  LOCALI  =  1.00D-09  EORDER  =  1.00D-04
 ENERGY  =  1.00D-12  ETEST   =  0.00D+00  EDENS   =  0.00D+00  THRDEDEF=  1.00D-06  GRADIENT=  1.00D-02  STEP    =  1.00D-03
 ORBITAL =  1.00D-05  CIVEC   =  1.00D-05  COEFF   =  1.00D-04  PRINTCI =  5.00D-02  PUNCHCI =  9.90D+01  OPTGRAD =  1.00D-08
 OPTENERG=  1.00D-06  OPTSTEP =  1.00D-08  THRGRAD =  1.00D-10  COMPRESS=  1.00D-11  VARMIN  =  1.00D-07  VARMAX  =  1.00D-03
 THRDOUB =  0.00D+00  THRDIV  =  1.00D-05  THRRED  =  1.00D-07  THRPSP  =  1.00D+00  THRDC   =  1.00D-10  THRCS   =  1.00D-10
 THRNRM  =  1.00D-08  THREQ   =  0.00D+00  THRDE   =  1.00D+00  THRREF  =  1.00D-05  SPARFAC =  1.00D+00  THRDLP  =  1.00D-07
 THRDIA  =  1.00D-10  THRDLS  =  1.00D-07  THRGPS  =  0.00D+00  THRKEX  =  0.00D+00  THRDIS  =  2.00D-01  THRVAR  =  1.00D-10
 THRLOC  =  1.00D-06  THRGAP  =  1.00D-06  THRLOCT = -1.00D+00  THRGAPT = -1.00D+00  THRORB  =  1.00D-06  THRMLTP =  0.00D+00
 THRCPQCI=  1.00D-10  KEXTA   =  0.00D+00  THRCOARS=  0.00D+00  SYMTOL  =  1.00D-06  GRADTOL =  1.00D-06  THROVL  =  1.00D-08
 THRORTH =  1.00D-08  GRID    =  1.00D-06  GRIDMAX =  1.00D-03  DTMAX   =  0.00D+00  THROCCDE=  1.00D-01  THROCCDE=  1.00D-01



 Input parameters for SORTINT:

 COMPRESS =    0.000000
 C_FINAL  =    1.000000
 DEBUG    =   -1.000000
 C_SORT1  =    0.000000
 C_SEWARD =    0.000000
 THRESH   =    0.000000
 IO       =  molpro                                                          
 SPRI     =    0.000000
 SETTING GEOMTYP        =    XYZ
 ZUNIT=BOHR
 

 Variable memory set to  995000000 words,  buffer space   230000 words

 SETTING BASIS          =    VTZ-DK
 SETTING DKROLL         =     0.00000000D+00                                  


 Recomputing integrals since basis changed


 Using spherical harmonics

 Library entry N      S cc-pVTZ-DK           selected for orbital group  1
 Library entry N      P cc-pVTZ-DK           selected for orbital group  1
 Library entry N      D cc-pVTZ-DK           selected for orbital group  1
 Library entry N      F cc-pVTZ-DK           selected for orbital group  1
 Library entry C      S cc-pVTZ-DK           selected for orbital group  2
 Library entry C      P cc-pVTZ-DK           selected for orbital group  2
 Library entry C      D cc-pVTZ-DK           selected for orbital group  2
 Library entry C      F cc-pVTZ-DK           selected for orbital group  2
 Library entry H      S cc-pVTZ-DK           selected for orbital group  3
 Library entry H      P cc-pVTZ-DK           selected for orbital group  3
 Library entry H      D cc-pVTZ-DK           selected for orbital group  3


 PROGRAM * SEWARD (Integral evaluation for generally contracted gaussian basis sets)     Author: Roland Lindh, 1990

 Geometry written to block  1 of record 700


 Point group  C2v 



 ATOMIC COORDINATES

 NR  ATOM    CHARGE       X              Y              Z

   1  N       7.00    0.000000000    0.000000000    1.140449108
   2  C       6.00    0.000000000    0.000000000   -1.057297819
   3  H       1.00    0.000000000    0.000000000   -3.080221270

 Bond lengths in Bohr (Angstrom)

 1-2  2.197746927  2-3  2.022923451
     ( 1.162997589)     ( 1.070484990)

 Bond angles

  1-2-3  180.00000000

 NUCLEAR CHARGE:                   14
 NUMBER OF PRIMITIVE AOS:         111
 NUMBER OF SYMMETRY AOS:          100
 NUMBER OF CONTRACTIONS:           74   (  33A1  +  17B1  +  17B2  +   7A2  )
 NUMBER OF CORE ORBITALS:           2   (   2A1  +   0B1  +   0B2  +   0A2  )
 NUMBER OF VALENCE ORBITALS:        9   (   5A1  +   2B1  +   2B2  +   0A2  )


 NUCLEAR REPULSION ENERGY   23.73498937

 EXTRA SYMMETRY OF AOS IN SYMMETRY 1:   1 1 1 1 1 1 1 1 2 1   2 1 2 1 1 1 1 1 1 1   1 2 1 2 1 2 1 1 1 1   1 1 2
 EXTRA SYMMETRY OF AOS IN SYMMETRY 2:   1 1 1 1 1 1 2 1 1 1   1 1 1 2 1 1 1
 EXTRA SYMMETRY OF AOS IN SYMMETRY 3:   1 1 1 1 1 1 2 1 1 1   1 1 1 2 1 1 1

 Eigenvalues of metric

         1 0.110E-02 0.148E-02 0.248E-02 0.644E-02 0.110E-01 0.198E-01 0.295E-01 0.477E-01
         2 0.159E-01 0.366E-01 0.612E-01 0.910E-01 0.134E+00 0.290E+00 0.381E+00 0.431E+00
         3 0.159E-01 0.366E-01 0.612E-01 0.910E-01 0.134E+00 0.290E+00 0.381E+00 0.431E+00
         4 0.296E+00 0.458E+00 0.576E+00 0.850E+00 0.125E+01 0.155E+01 0.202E+01


 Contracted 2-electron integrals neglected if value below      1.0D-22

         875013. INTEGRALS WRITTEN OUT IN     214 BLOCKS ON RECORD 1290 OF FILE 1


 NUMBER OF SORTED TWO-ELECTRON INTEGRALS:    1039939.     BUFFER LENGTH:  32768
 NUMBER OF SEGMENTS:   1  SEGMENT LENGTH:    1039939      RECORD LENGTH: 524288

 Memory used in sort:       1.60 MW

 SORT1 READ      875013. AND WROTE      911331. INTEGRALS IN      3 RECORDS. CPU TIME:     0.02 SEC, REAL TIME:     0.03 SEC
 SORT2 READ      911331. AND WROTE     1039939. INTEGRALS IN      1 RECORDS. CPU TIME:     0.02 SEC, REAL TIME:     0.04 SEC

 FILE SIZES:   FILE 1:    34.1 MBYTE,  FILE 4:    12.6 MBYTE,   TOTAL:     46.7 MBYTE

 OPERATOR DM      FOR CENTER  0  COORDINATES:    0.000000    0.000000    0.000000


 **********************************************************************************************************************************
 DATASETS  * FILE   NREC   LENGTH (MB)   RECORD NAMES
              1      19       27.60       500      610      700      900      950      970     1000      129      960     1100   
                                          VAR    BASINP    GEOM    SYMINP    ZMAT    AOBASIS   BASIS     P2S    ABASIS      S 
                                         1400     1410     1200     1210     1080     1600     1650     1300     1700   
                                           T        V       H0       H01     AOSYM     SMH    MOLCAS    ERIS     OPER   

 PROGRAMS   *        TOTAL       INT
 CPU TIMES  *         0.62      0.52
 REAL TIME  *         1.14 SEC
 DISK USED  *        47.00 MB      
 **********************************************************************************************************************************


 PROGRAM * RHF-SCF (CLOSED SHELL)       Authors: W. Meyer, H.-J. Werner


 NUMBER OF ELECTRONS:       7+    7-
 CONVERGENCE THRESHOLDS:    1.00E-10 (Density)    1.00E-13 (Energy)
 MAX. NUMBER OF ITERATIONS:      500
 INTERPOLATION TYPE:            DIIS
 INTERPOLATION STEPS:              2 (START)      1 (STEP)
 LEVEL SHIFTS:                  0.00 (CLOSED)  0.00 (OPEN) 



 Orbital guess generated from atomic densities. Full valence occupancy:    7   2   2   0

 Molecular orbital dump at record        2100.2

 Initial occupancy:   5   1   1   0

 ITERATION    DDIFF          GRAD             ENERGY        2-EL.EN.            DIPOLE MOMENTS         DIIS   ORB.
    1      0.000D+00      0.000D+00       -92.87914539    111.560367    0.00000    0.00000   -1.77927    0    start
    2      0.000D+00      0.115D-01       -92.88774350    110.783038    0.00000    0.00000   -0.87777    1    diag
    3      0.190D-01      0.105D-01       -92.90321472    111.295698    0.00000    0.00000   -1.29547    2    diag
    4      0.964D-02      0.840D-03       -92.90343868    111.253699    0.00000    0.00000   -1.28661    3    diag
    5      0.151D-02      0.190D-03       -92.90345160    111.266941    0.00000    0.00000   -1.28537    4    diag
    6      0.409D-03      0.534D-04       -92.90345251    111.261517    0.00000    0.00000   -1.28530    5    diag
    7      0.103D-03      0.195D-04       -92.90345259    111.262574    0.00000    0.00000   -1.28545    6    diag
    8      0.342D-04      0.370D-05       -92.90345260    111.262527    0.00000    0.00000   -1.28543    7    diag
    9      0.634D-05      0.401D-06       -92.90345260    111.262535    0.00000    0.00000   -1.28543    8    diag
   10      0.871D-06      0.393D-07       -92.90345260    111.262535    0.00000    0.00000   -1.28543    9    orth
   11      0.768D-07      0.456D-08       -92.90345260    111.262535    0.00000    0.00000   -1.28543    9    diag
   12      0.134D-07      0.399D-09       -92.90345260    111.262535    0.00000    0.00000   -1.28543    9    diag
   13      0.168D-08      0.450D-10       -92.90345260    111.262535    0.00000    0.00000   -1.28543    9    diag
   14      0.256D-09      0.844D-11       -92.90345260    111.262535    0.00000    0.00000   -1.28543    9    diag
   15      0.398D-10      0.943D-12       -92.90345260    111.262535    0.00000    0.00000   -1.28543    9    diag
   16      0.277D-11      0.161D-12       -92.90345260    111.262535    0.00000    0.00000   -1.28543    9    diag
   17      0.457D-12      0.373D-13       -92.90345260    111.262535    0.00000    0.00000   -1.28543    9    diag
   18      0.119D-12      0.392D-13       -92.90345260    111.262535    0.00000    0.00000   -1.28543    0    orth

 Final occupancy:   5   1   1   0

 !RHF STATE 1.1 Energy                -92.903452596846
 Nuclear energy                        23.73498937
 One-electron energy                 -172.26970951
 Two-electron energy                   55.63126754
 Virial quotient                       -1.00157045
 !RHF STATE 1.1 Dipole moment           0.00000000     0.00000000    -1.28542907
 Dipole moment /Debye                   0.00000000     0.00000000    -3.26702083

 Orbital energies:

         1.1          2.1          3.1          4.1          5.1          6.1          7.1
    -15.600930   -11.294395    -1.230602    -0.811321    -0.581282     0.141007     0.240060

         1.2          2.2          3.2
     -0.492529     0.163777     0.446617

         1.3          2.3          3.3
     -0.492529     0.163777     0.446617

         1.4          2.4
      0.810423     1.417445

 HOMO      1.2    -0.492529 =     -13.4024eV
 LUMO      6.1     0.141007 =       3.8370eV
 LUMO-HOMO         0.633536 =      17.2394eV


 **********************************************************************************************************************************
 DATASETS  * FILE   NREC   LENGTH (MB)   RECORD NAMES
              1      19       27.60       500      610      700      900      950      970     1000      129      960     1100   
                                          VAR    BASINP    GEOM    SYMINP    ZMAT    AOBASIS   BASIS     P2S    ABASIS      S 
                                         1400     1410     1200     1210     1080     1600     1650     1300     1700   
                                           T        V       H0       H01     AOSYM     SMH    MOLCAS    ERIS     OPER   

              2       4        2.82       700     1000      520     2100   
                                         GEOM     BASIS   MCVARS     RHF  

 PROGRAMS   *        TOTAL        HF       INT
 CPU TIMES  *         0.73      0.11      0.52
 REAL TIME  *         1.25 SEC
 DISK USED  *        47.00 MB      
 **********************************************************************************************************************************


 PROGRAM * CCSD (Closed-shell coupled cluster)     Authors: C. Hampel, H.-J. Werner, 1991, M. Deegan, P.J. Knowles, 1992


 Convergence thresholds:  THRVAR = 1.00D-08  THRDEN = 1.00D-12

 CCSD(T)     terms to be evaluated (factor= 1.000)


 Number of core orbitals:           2 (   2   0   0   0 )
 Number of closed-shell orbitals:   5 (   3   1   1   0 )
 Number of external orbitals:      67 (  28  16  16   7 )

 Molecular orbitals read from record     2100.2  Type=RHF/CANONICAL (state 1.1)

 Number of N-1 electron functions:               5
 Number of N-2 electron functions:              15
 Number of singly external CSFs:               116
 Number of doubly external CSFs:             15189
 Total number of CSFs:                       15306

 Length of J-op  integral file:               0.00 MB
 Length of K-op  integral file:               0.15 MB
 Length of 3-ext integral record:             0.00 MB

 Memory could be reduced to 0.93 Mwords without degradation in triples

 Integral transformation finished. Total CPU:   0.01 sec, npass=  1  Memory used:   0.18 MW

 Reference energy:                    -92.90345260

 MP2 singlet pair energy:              -0.21911997
 MP2 triplet pair energy:              -0.12805312
 MP2 correlation energy:               -0.34717309
 MP2 total energy:                    -93.25062568

 SCS-MP2 correlation energy:           -0.34262146   (PS=  1.200000  PT=  0.333333)
 SCS-MP2 total energy:                -93.24607405

 ITER.      SQ.NORM     CORR.ENERGY   TOTAL ENERGY   ENERGY CHANGE        DEN1      VAR(S)    VAR(P)  DIIS     TIME  TIME/IT
   1      1.11597085    -0.35001459   -93.25346718    -0.00284150     0.01036248  0.26D-02  0.31D-02  1  1     0.04     0.02
   2      1.12578649    -0.35031141   -93.25376401    -0.00029682    -0.01027990  0.53D-04  0.43D-03  2  2     0.05     0.02
   3      1.13102335    -0.35054653   -93.25399913    -0.00023512    -0.00260144  0.13D-04  0.44D-04  3  3     0.07     0.02
   4      1.13322871    -0.35064918   -93.25410178    -0.00010265    -0.00079094  0.30D-06  0.48D-05  4  4     0.08     0.02
   5      1.13371629    -0.35064575   -93.25409835     0.00000343    -0.00013496  0.11D-06  0.44D-06  5  5     0.09     0.02
   6      1.13382235    -0.35064454   -93.25409714     0.00000121    -0.00002775  0.97D-08  0.32D-07  6  6     0.10     0.02
   7      1.13383087    -0.35064704   -93.25409964    -0.00000250    -0.00000247  0.62D-09  0.27D-08  6  1     0.12     0.02
   8      1.13383139    -0.35064756   -93.25410016    -0.00000052     0.00000070  0.43D-10  0.16D-09  6  2     0.13     0.02
   9      1.13383212    -0.35064760   -93.25410019    -0.00000003    -0.00000041  0.57D-11  0.11D-10  6  3     0.15     0.02
  10      1.13383205    -0.35064762   -93.25410021    -0.00000002     0.00000010  0.32D-12  0.12D-11  6  4     0.16     0.02
  11      1.13383201    -0.35064762   -93.25410022    -0.00000000     0.00000001  0.12D-12  0.99D-13  6  5     0.17     0.02
  12      1.13383195    -0.35064762   -93.25410022    -0.00000000     0.00000003  0.80D-14  0.23D-13  6  6     0.19     0.02
  13      1.13383191    -0.35064763   -93.25410022    -0.00000000     0.00000001  0.28D-14  0.21D-14  6  2     0.20     0.02
  14      1.13383189    -0.35064763   -93.25410022    -0.00000000     0.00000000  0.32D-16  0.12D-15  6  1     0.21     0.02
  15      1.13383189    -0.35064763   -93.25410022    -0.00000000     0.00000000  0.21D-17  0.10D-16  6  4     0.23     0.02
  16      1.13383189    -0.35064763   -93.25410022    -0.00000000     0.00000000  0.80D-18  0.56D-18  6  3     0.23     0.02
  17      1.13383189    -0.35064763   -93.25410022    -0.00000000     0.00000000  0.10D-18  0.11D-18  6  5     0.26     0.02
  18      1.13383189    -0.35064763   -93.25410022    -0.00000000     0.00000000  0.18D-19  0.80D-20  6  6     0.28     0.02
  19      1.13383189    -0.35064763   -93.25410022     0.00000000    -0.00000000  0.56D-21  0.13D-20  6  2     0.30     0.02
  20      1.13383189    -0.35064763   -93.25410022     0.00000000    -0.00000000  0.72D-22  0.19D-21  6  1     0.31     0.02

 Norm of t1 vector:      0.06500889      S-energy:    -0.00000000      T1 diagnostic:  0.01453643
                                                                       D1 diagnostic:  0.02930175

 Doubles amplitudes (print threshold =  0.500E-01):

         I         J         SYM. A    SYM. B    A         B      T(IJ, AB)

         4         4         2         2         1         1     -0.08901919
         5         5         3         3         1         1     -0.08901919
         5         4         3         2         1         1     -0.05558955


 Total CPU time for triples:      0.06 sec


 RESULTS
 =======

  Reference energy                    -92.903452596846
  CCSD singlet pair energy             -0.244021737758
  CCSD triplet pair energy             -0.106625888103
  CCSD correlation energy              -0.350647625861

  Triples (T) contribution             -0.018188804610
  Total correlation energy             -0.368836430471

  CCSD total energy                   -93.254100222707
  CCSD[T] energy                      -93.273148587090
  CCSD-T energy                       -93.271862804465
 !CCSD(T) total energy                -93.272289027317

 Timing summary (sec):

 STEP                 CPU(USER)    SYS     CPU(TOT)    WALL
 Transformation          0.01      0.00      0.01      0.02
 CCSD iterations         0.30      0.06      0.36      0.36
 Triples                 0.06      0.01      0.07      0.06

 Program statistics:

 Available memory in ccsd:               994999800
 Min. memory needed in ccsd:                 67993
 Max. memory used in ccsd:                   79450
 Max. memory used in cckext:                107513 (20 integral passes)



 **********************************************************************************************************************************
 DATASETS  * FILE   NREC   LENGTH (MB)   RECORD NAMES
              1      20       29.54       500      610      700      900      950      970     1000      129      960     1100   
                                          VAR    BASINP    GEOM    SYMINP    ZMAT    AOBASIS   BASIS     P2S    ABASIS      S 
                                         1400     1410     1200     1210     1080     1600     1650     1300     1700     1380   
                                           T        V       H0       H01     AOSYM     SMH    MOLCAS    ERIS     OPER     JKOP   

              2       4        2.82       700     1000      520     2100   
                                         GEOM     BASIS   MCVARS     RHF  

 PROGRAMS   *        TOTAL   CCSD(T)        HF       INT
 CPU TIMES  *         1.12      0.38      0.11      0.52
 REAL TIME  *         1.72 SEC
 DISK USED  *        47.00 MB      
 **********************************************************************************************************************************

 CCSD(T)/cc-pVTZ-DK energy=    -93.272289027317

        CCSD(T)         HF-SCF  
    -93.27228903    -92.90345260
 **********************************************************************************************************************************
 Molpro calculation terminated
 Variable memory released
