
 Primary working directories    : /tmp/r2666/232565.maple
 Secondary working directories  : /tmp/r2666/232565.maple
 Wavefunction directory         : /ddn/home4/r2666/wfu/
 Main file repository           : /tmp/r2666/232565.maple/

 SHA1      : d5ffa45e93fdbca01ffc919aa182cfdae0147319
 NAME      : 2015.1.35
 ARCHNAME  : linux/x86_64
 FC        : /opt/intel/composer_xe_2015.1.133/bin/intel64/ifort
 BLASLIB   : -Wl,-_start-group /opt/intel/mkl/lib/intel64/libmkl_intel_ilp64.a /opt/intel/mkl/lib/intel64/libmkl_intel_thread.a /opt/intel/mkl/lib/intel64/libmkl_core.a -Wl,-_end-group
 id        : olemiss

 Nodes     nprocs
 cn077        1

 Using customized tuning parameters: mindgm=1; mindgv=20; mindgc=4; mindgr=1; noblas=0; minvec=7
 default implementation of scratch files=df  

 ***,hcn CCSD(T)/TZ-F12 QFF
 memory, 995, m;
 gthresh,energy=1.d-12,zero=1.d-22,oneint=1.d-22,twoint=1.d-22;
 gthresh,optgrad=1.d-8,optstep=1.d-8;
 nocompress;
 geomtyp=xyz
 bohr
 geometry={
 3
          9         9
 N        0.0000000000        0.0000000000        1.1152527611
 C        0.0000000000        0.0000000000       -1.0446996461
 H        0.0000000000        0.0000000000       -3.0676230970
 }
 
 basis=vtz-dk
 dkroll=0
   {hf,maxit=500;accu,20;}
 {ccsd(t),nocheck,maxit=250;orbital,IGNORE_ERROR;}

 Variables initialized (889), CPU time= 0.00 sec
 Commands  initialized (702), CPU time= 0.01 sec, 572 directives.
 Default parameters read. Elapsed time= 0.18 sec

 Checking input...
 Passed
1


                                         ***  PROGRAM SYSTEM MOLPRO  ***
                                       Copyright, TTI GmbH Stuttgart, 2015
                                    Version 2015.1 linked Jul  9 2018 13:16:40


 **********************************************************************************************************************************
 LABEL *   hcn CCSD(T)/TZ-F12 QFF                                                        
  64 bit serial version                                                                  DATE: 06-Feb-20          TIME: 09:54:31  
 **********************************************************************************************************************************

 SHA1:             d5ffa45e93fdbca01ffc919aa182cfdae0147319
 **********************************************************************************************************************************

 THRESHOLDS:

 ZERO    =  1.00D-22  ONEINT  =  1.00D-22  TWOINT  =  1.00D-22  PREFAC  =  1.00D-14  LOCALI  =  1.00D-09  EORDER  =  1.00D-04
 ENERGY  =  1.00D-12  ETEST   =  0.00D+00  EDENS   =  0.00D+00  THRDEDEF=  1.00D-06  GRADIENT=  1.00D-02  STEP    =  1.00D-03
 ORBITAL =  1.00D-05  CIVEC   =  1.00D-05  COEFF   =  1.00D-04  PRINTCI =  5.00D-02  PUNCHCI =  9.90D+01  OPTGRAD =  3.00D-04
 OPTENERG=  1.00D-06  OPTSTEP =  3.00D-04  THRGRAD =  1.00D-10  COMPRESS=  1.00D-11  VARMIN  =  1.00D-07  VARMAX  =  1.00D-03
 THRDOUB =  0.00D+00  THRDIV  =  1.00D-05  THRRED  =  1.00D-07  THRPSP  =  1.00D+00  THRDC   =  1.00D-10  THRCS   =  1.00D-10
 THRNRM  =  1.00D-08  THREQ   =  0.00D+00  THRDE   =  1.00D+00  THRREF  =  1.00D-05  SPARFAC =  1.00D+00  THRDLP  =  1.00D-07
 THRDIA  =  1.00D-10  THRDLS  =  1.00D-07  THRGPS  =  0.00D+00  THRKEX  =  0.00D+00  THRDIS  =  2.00D-01  THRVAR  =  1.00D-10
 THRLOC  =  1.00D-06  THRGAP  =  1.00D-06  THRLOCT = -1.00D+00  THRGAPT = -1.00D+00  THRORB  =  1.00D-06  THRMLTP =  0.00D+00
 THRCPQCI=  1.00D-10  KEXTA   =  0.00D+00  THRCOARS=  0.00D+00  SYMTOL  =  1.00D-06  GRADTOL =  1.00D-06  THROVL  =  1.00D-08
 THRORTH =  1.00D-08  GRID    =  1.00D-06  GRIDMAX =  1.00D-03  DTMAX   =  0.00D+00  THROCCDE=  1.00D-01  THROCCDE=  1.00D-01



 THRESHOLDS:

 ZERO    =  1.00D-22  ONEINT  =  1.00D-22  TWOINT  =  1.00D-22  PREFAC  =  1.00D-14  LOCALI  =  1.00D-09  EORDER  =  1.00D-04
 ENERGY  =  1.00D-12  ETEST   =  0.00D+00  EDENS   =  0.00D+00  THRDEDEF=  1.00D-06  GRADIENT=  1.00D-02  STEP    =  1.00D-03
 ORBITAL =  1.00D-05  CIVEC   =  1.00D-05  COEFF   =  1.00D-04  PRINTCI =  5.00D-02  PUNCHCI =  9.90D+01  OPTGRAD =  1.00D-08
 OPTENERG=  1.00D-06  OPTSTEP =  1.00D-08  THRGRAD =  1.00D-10  COMPRESS=  1.00D-11  VARMIN  =  1.00D-07  VARMAX  =  1.00D-03
 THRDOUB =  0.00D+00  THRDIV  =  1.00D-05  THRRED  =  1.00D-07  THRPSP  =  1.00D+00  THRDC   =  1.00D-10  THRCS   =  1.00D-10
 THRNRM  =  1.00D-08  THREQ   =  0.00D+00  THRDE   =  1.00D+00  THRREF  =  1.00D-05  SPARFAC =  1.00D+00  THRDLP  =  1.00D-07
 THRDIA  =  1.00D-10  THRDLS  =  1.00D-07  THRGPS  =  0.00D+00  THRKEX  =  0.00D+00  THRDIS  =  2.00D-01  THRVAR  =  1.00D-10
 THRLOC  =  1.00D-06  THRGAP  =  1.00D-06  THRLOCT = -1.00D+00  THRGAPT = -1.00D+00  THRORB  =  1.00D-06  THRMLTP =  0.00D+00
 THRCPQCI=  1.00D-10  KEXTA   =  0.00D+00  THRCOARS=  0.00D+00  SYMTOL  =  1.00D-06  GRADTOL =  1.00D-06  THROVL  =  1.00D-08
 THRORTH =  1.00D-08  GRID    =  1.00D-06  GRIDMAX =  1.00D-03  DTMAX   =  0.00D+00  THROCCDE=  1.00D-01  THROCCDE=  1.00D-01



 Input parameters for SORTINT:

 COMPRESS =    0.000000
 C_FINAL  =    1.000000
 DEBUG    =   -1.000000
 C_SORT1  =    0.000000
 C_SEWARD =    0.000000
 THRESH   =    0.000000
 IO       =  molpro                                                          
 SPRI     =    0.000000
 SETTING GEOMTYP        =    XYZ
 ZUNIT=BOHR
 

 Variable memory set to  995000000 words,  buffer space   230000 words

 SETTING BASIS          =    VTZ-DK
 SETTING DKROLL         =     0.00000000D+00                                  


 Recomputing integrals since basis changed


 Using spherical harmonics

 Library entry N      S cc-pVTZ-DK           selected for orbital group  1
 Library entry N      P cc-pVTZ-DK           selected for orbital group  1
 Library entry N      D cc-pVTZ-DK           selected for orbital group  1
 Library entry N      F cc-pVTZ-DK           selected for orbital group  1
 Library entry C      S cc-pVTZ-DK           selected for orbital group  2
 Library entry C      P cc-pVTZ-DK           selected for orbital group  2
 Library entry C      D cc-pVTZ-DK           selected for orbital group  2
 Library entry C      F cc-pVTZ-DK           selected for orbital group  2
 Library entry H      S cc-pVTZ-DK           selected for orbital group  3
 Library entry H      P cc-pVTZ-DK           selected for orbital group  3
 Library entry H      D cc-pVTZ-DK           selected for orbital group  3


 PROGRAM * SEWARD (Integral evaluation for generally contracted gaussian basis sets)     Author: Roland Lindh, 1990

 Geometry written to block  1 of record 700


 Point group  C2v 



 ATOMIC COORDINATES

 NR  ATOM    CHARGE       X              Y              Z

   1  N       7.00    0.000000000    0.000000000    1.115252761
   2  C       6.00    0.000000000    0.000000000   -1.044699646
   3  H       1.00    0.000000000    0.000000000   -3.067623097

 Bond lengths in Bohr (Angstrom)

 1-2  2.159952407  2-3  2.022923451
     ( 1.142997591)     ( 1.070484990)

 Bond angles

  1-2-3  180.00000000

 NUCLEAR CHARGE:                   14
 NUMBER OF PRIMITIVE AOS:         111
 NUMBER OF SYMMETRY AOS:          100
 NUMBER OF CONTRACTIONS:           74   (  33A1  +  17B1  +  17B2  +   7A2  )
 NUMBER OF CORE ORBITALS:           2   (   2A1  +   0B1  +   0B2  +   0A2  )
 NUMBER OF VALENCE ORBITALS:        9   (   5A1  +   2B1  +   2B2  +   0A2  )


 NUCLEAR REPULSION ENERGY   24.08436714

 EXTRA SYMMETRY OF AOS IN SYMMETRY 1:   1 1 1 1 1 1 1 1 2 1   2 1 2 1 1 1 1 1 1 1   1 2 1 2 1 2 1 1 1 1   1 1 2
 EXTRA SYMMETRY OF AOS IN SYMMETRY 2:   1 1 1 1 1 1 2 1 1 1   1 1 1 2 1 1 1
 EXTRA SYMMETRY OF AOS IN SYMMETRY 3:   1 1 1 1 1 1 2 1 1 1   1 1 1 2 1 1 1

 Eigenvalues of metric

         1 0.108E-02 0.144E-02 0.243E-02 0.636E-02 0.110E-01 0.185E-01 0.291E-01 0.471E-01
         2 0.148E-01 0.363E-01 0.609E-01 0.879E-01 0.131E+00 0.282E+00 0.375E+00 0.431E+00
         3 0.148E-01 0.363E-01 0.609E-01 0.879E-01 0.131E+00 0.282E+00 0.375E+00 0.431E+00
         4 0.288E+00 0.451E+00 0.574E+00 0.845E+00 0.125E+01 0.155E+01 0.204E+01


 Contracted 2-electron integrals neglected if value below      1.0D-22

         875190. INTEGRALS WRITTEN OUT IN     214 BLOCKS ON RECORD 1290 OF FILE 1


 NUMBER OF SORTED TWO-ELECTRON INTEGRALS:    1039939.     BUFFER LENGTH:  32768
 NUMBER OF SEGMENTS:   1  SEGMENT LENGTH:    1039939      RECORD LENGTH: 524288

 Memory used in sort:       1.60 MW

 SORT1 READ      875190. AND WROTE      911485. INTEGRALS IN      3 RECORDS. CPU TIME:     0.02 SEC, REAL TIME:     0.02 SEC
 SORT2 READ      911485. AND WROTE     1039939. INTEGRALS IN      1 RECORDS. CPU TIME:     0.05 SEC, REAL TIME:     0.05 SEC

 FILE SIZES:   FILE 1:    34.1 MBYTE,  FILE 4:    12.6 MBYTE,   TOTAL:     46.7 MBYTE

 OPERATOR DM      FOR CENTER  0  COORDINATES:    0.000000    0.000000    0.000000


 **********************************************************************************************************************************
 DATASETS  * FILE   NREC   LENGTH (MB)   RECORD NAMES
              1      19       27.60       500      610      700      900      950      970     1000      129      960     1100   
                                          VAR    BASINP    GEOM    SYMINP    ZMAT    AOBASIS   BASIS     P2S    ABASIS      S 
                                         1400     1410     1200     1210     1080     1600     1650     1300     1700   
                                           T        V       H0       H01     AOSYM     SMH    MOLCAS    ERIS     OPER   

 PROGRAMS   *        TOTAL       INT
 CPU TIMES  *         0.66      0.55
 REAL TIME  *         1.36 SEC
 DISK USED  *        47.00 MB      
 **********************************************************************************************************************************


 PROGRAM * RHF-SCF (CLOSED SHELL)       Authors: W. Meyer, H.-J. Werner


 NUMBER OF ELECTRONS:       7+    7-
 CONVERGENCE THRESHOLDS:    1.00E-10 (Density)    1.00E-13 (Energy)
 MAX. NUMBER OF ITERATIONS:      500
 INTERPOLATION TYPE:            DIIS
 INTERPOLATION STEPS:              2 (START)      1 (STEP)
 LEVEL SHIFTS:                  0.00 (CLOSED)  0.00 (OPEN) 



 Orbital guess generated from atomic densities. Full valence occupancy:    7   2   2   0

 Molecular orbital dump at record        2100.2

 Initial occupancy:   5   1   1   0

 ITERATION    DDIFF          GRAD             ENERGY        2-EL.EN.            DIPOLE MOMENTS         DIIS   ORB.
    1      0.000D+00      0.000D+00       -92.88207097    112.350142    0.00000    0.00000   -1.76465    0    start
    2      0.000D+00      0.116D-01       -92.89153411    111.452197    0.00000    0.00000   -0.89745    1    diag
    3      0.191D-01      0.102D-01       -92.90608105    111.977993    0.00000    0.00000   -1.29072    2    diag
    4      0.948D-02      0.817D-03       -92.90629388    111.948942    0.00000    0.00000   -1.28205    3    diag
    5      0.149D-02      0.173D-03       -92.90630561    111.956159    0.00000    0.00000   -1.28066    4    diag
    6      0.402D-03      0.473D-04       -92.90630623    111.952148    0.00000    0.00000   -1.28085    5    diag
    7      0.842D-04      0.165D-04       -92.90630629    111.953311    0.00000    0.00000   -1.28095    6    diag
    8      0.288D-04      0.323D-05       -92.90630629    111.953248    0.00000    0.00000   -1.28093    7    diag
    9      0.534D-05      0.357D-06       -92.90630629    111.953254    0.00000    0.00000   -1.28093    8    diag
   10      0.771D-06      0.375D-07       -92.90630629    111.953255    0.00000    0.00000   -1.28093    9    orth
   11      0.732D-07      0.456D-08       -92.90630629    111.953255    0.00000    0.00000   -1.28093    9    diag
   12      0.126D-07      0.444D-09       -92.90630629    111.953255    0.00000    0.00000   -1.28093    9    diag
   13      0.182D-08      0.509D-10       -92.90630629    111.953255    0.00000    0.00000   -1.28093    9    diag
   14      0.247D-09      0.992D-11       -92.90630629    111.953255    0.00000    0.00000   -1.28093    9    diag
   15      0.514D-10      0.158D-11       -92.90630629    111.953255    0.00000    0.00000   -1.28093    9    diag
   16      0.478D-11      0.299D-12       -92.90630629    111.953255    0.00000    0.00000   -1.28093    9    diag
   17      0.492D-12      0.751D-13       -92.90630629    111.953255    0.00000    0.00000   -1.28093    0    orth

 Final occupancy:   5   1   1   0

 !RHF STATE 1.1 Energy                -92.906306291879
 Nuclear energy                        24.08436714
 One-electron energy                 -172.96730077
 Two-electron energy                   55.97662734
 Virial quotient                       -1.00041666
 !RHF STATE 1.1 Dipole moment           0.00000000     0.00000000    -1.28092655
 Dipole moment /Debye                   0.00000000     0.00000000    -3.25557730

 Orbital energies:

         1.1          2.1          3.1          4.1          5.1          6.1          7.1
    -15.593827   -11.287226    -1.240052    -0.808378    -0.580309     0.141825     0.241045

         1.2          2.2          3.2
     -0.498616     0.170253     0.446542

         1.3          2.3          3.3
     -0.498616     0.170253     0.446542

         1.4          2.4
      0.810673     1.423150

 HOMO      1.2    -0.498616 =     -13.5680eV
 LUMO      6.1     0.141825 =       3.8592eV
 LUMO-HOMO         0.640440 =      17.4273eV


 **********************************************************************************************************************************
 DATASETS  * FILE   NREC   LENGTH (MB)   RECORD NAMES
              1      19       27.60       500      610      700      900      950      970     1000      129      960     1100   
                                          VAR    BASINP    GEOM    SYMINP    ZMAT    AOBASIS   BASIS     P2S    ABASIS      S 
                                         1400     1410     1200     1210     1080     1600     1650     1300     1700   
                                           T        V       H0       H01     AOSYM     SMH    MOLCAS    ERIS     OPER   

              2       4        2.82       700     1000      520     2100   
                                         GEOM     BASIS   MCVARS     RHF  

 PROGRAMS   *        TOTAL        HF       INT
 CPU TIMES  *         0.76      0.10      0.55
 REAL TIME  *         1.47 SEC
 DISK USED  *        47.00 MB      
 **********************************************************************************************************************************


 PROGRAM * CCSD (Closed-shell coupled cluster)     Authors: C. Hampel, H.-J. Werner, 1991, M. Deegan, P.J. Knowles, 1992


 Convergence thresholds:  THRVAR = 1.00D-08  THRDEN = 1.00D-12

 CCSD(T)     terms to be evaluated (factor= 1.000)


 Number of core orbitals:           2 (   2   0   0   0 )
 Number of closed-shell orbitals:   5 (   3   1   1   0 )
 Number of external orbitals:      67 (  28  16  16   7 )

 Molecular orbitals read from record     2100.2  Type=RHF/CANONICAL (state 1.1)

 Number of N-1 electron functions:               5
 Number of N-2 electron functions:              15
 Number of singly external CSFs:               116
 Number of doubly external CSFs:             15189
 Total number of CSFs:                       15306

 Length of J-op  integral file:               0.00 MB
 Length of K-op  integral file:               0.15 MB
 Length of 3-ext integral record:             0.00 MB

 Memory could be reduced to 0.93 Mwords without degradation in triples

 Integral transformation finished. Total CPU:   0.01 sec, npass=  1  Memory used:   0.18 MW

 Reference energy:                    -92.90630629

 MP2 singlet pair energy:              -0.21687366
 MP2 triplet pair energy:              -0.12630618
 MP2 correlation energy:               -0.34317984
 MP2 total energy:                    -93.24948613

 SCS-MP2 correlation energy:           -0.33883890   (PS=  1.200000  PT=  0.333333)
 SCS-MP2 total energy:                -93.24514520

 ITER.      SQ.NORM     CORR.ENERGY   TOTAL ENERGY   ENERGY CHANGE        DEN1      VAR(S)    VAR(P)  DIIS     TIME  TIME/IT
   1      1.11348031    -0.34704186   -93.25334815    -0.00386202     0.00853624  0.24D-02  0.28D-02  1  1     0.03     0.01
   2      1.12280542    -0.34749310   -93.25379939    -0.00045124    -0.00982343  0.46D-04  0.40D-03  2  2     0.04     0.01
   3      1.12765090    -0.34770802   -93.25401431    -0.00021492    -0.00245739  0.12D-04  0.39D-04  3  3     0.05     0.01
   4      1.12962866    -0.34779719   -93.25410348    -0.00008917    -0.00072553  0.28D-06  0.40D-05  4  4     0.07     0.01
   5      1.13005361    -0.34779371   -93.25410000     0.00000348    -0.00012045  0.10D-06  0.35D-06  5  5     0.08     0.01
   6      1.13014068    -0.34779281   -93.25409911     0.00000090    -0.00002319  0.76D-08  0.25D-07  6  6     0.09     0.01
   7      1.13014775    -0.34779482   -93.25410111    -0.00000201    -0.00000215  0.59D-09  0.21D-08  6  1     0.10     0.01
   8      1.13014821    -0.34779527   -93.25410156    -0.00000044     0.00000061  0.50D-10  0.12D-09  6  2     0.11     0.01
   9      1.13014881    -0.34779530   -93.25410159    -0.00000003    -0.00000034  0.30D-11  0.90D-11  6  3     0.12     0.01
  10      1.13014877    -0.34779531   -93.25410160    -0.00000001     0.00000008  0.47D-12  0.87D-12  6  4     0.13     0.01
  11      1.13014874    -0.34779531   -93.25410161    -0.00000000     0.00000001  0.35D-13  0.11D-12  6  5     0.14     0.01
  12      1.13014866    -0.34779532   -93.25410161    -0.00000000     0.00000003  0.12D-13  0.51D-14  6  1     0.15     0.01
  13      1.13014865    -0.34779532   -93.25410161    -0.00000000     0.00000000  0.91D-15  0.57D-15  6  6     0.17     0.01
  14      1.13014865    -0.34779532   -93.25410161    -0.00000000     0.00000000  0.32D-15  0.11D-15  6  2     0.18     0.01
  15      1.13014865    -0.34779532   -93.25410161     0.00000000    -0.00000000  0.12D-16  0.77D-17  6  4     0.20     0.01
  16      1.13014865    -0.34779532   -93.25410161     0.00000000    -0.00000000  0.40D-18  0.96D-18  6  3     0.21     0.01
  17      1.13014865    -0.34779532   -93.25410161     0.00000000    -0.00000000  0.12D-18  0.11D-18  6  5     0.22     0.01
  18      1.13014865    -0.34779532   -93.25410161     0.00000000    -0.00000000  0.71D-20  0.19D-19  6  1     0.23     0.01
  19      1.13014865    -0.34779532   -93.25410161    -0.00000000     0.00000000  0.17D-20  0.17D-20  6  6     0.25     0.01
  20      1.13014865    -0.34779532   -93.25410161     0.00000000    -0.00000000  0.21D-21  0.18D-21  6  2     0.26     0.01

 Norm of t1 vector:      0.06230067      S-energy:    -0.00000000      T1 diagnostic:  0.01393085
                                                                       D1 diagnostic:  0.02796646

 Doubles amplitudes (print threshold =  0.500E-01):

         I         J         SYM. A    SYM. B    A         B      T(IJ, AB)

         4         4         2         2         1         1     -0.08477396
         5         5         3         3         1         1     -0.08477396
         5         4         3         2         1         1     -0.05335014


 Total CPU time for triples:      0.06 sec


 RESULTS
 =======

  Reference energy                    -92.906306291879
  CCSD singlet pair energy             -0.241630676957
  CCSD triplet pair energy             -0.106164641236
  CCSD correlation energy              -0.347795318193

  Triples (T) contribution             -0.017559797971
  Total correlation energy             -0.365355116164

  CCSD total energy                   -93.254101610072
  CCSD[T] energy                      -93.272442821143
  CCSD-T energy                       -93.271268537578
 !CCSD(T) total energy                -93.271661408042

 Timing summary (sec):

 STEP                 CPU(USER)    SYS     CPU(TOT)    WALL
 Transformation          0.01      0.01      0.02      0.01
 CCSD iterations         0.25      0.05      0.30      0.31
 Triples                 0.06      0.00      0.06      0.05

 Program statistics:

 Available memory in ccsd:               994999800
 Min. memory needed in ccsd:                 67993
 Max. memory used in ccsd:                   79450
 Max. memory used in cckext:                107513 (20 integral passes)



 **********************************************************************************************************************************
 DATASETS  * FILE   NREC   LENGTH (MB)   RECORD NAMES
              1      20       29.54       500      610      700      900      950      970     1000      129      960     1100   
                                          VAR    BASINP    GEOM    SYMINP    ZMAT    AOBASIS   BASIS     P2S    ABASIS      S 
                                         1400     1410     1200     1210     1080     1600     1650     1300     1700     1380   
                                           T        V       H0       H01     AOSYM     SMH    MOLCAS    ERIS     OPER     JKOP   

              2       4        2.82       700     1000      520     2100   
                                         GEOM     BASIS   MCVARS     RHF  

 PROGRAMS   *        TOTAL   CCSD(T)        HF       INT
 CPU TIMES  *         1.11      0.35      0.10      0.55
 REAL TIME  *         1.89 SEC
 DISK USED  *        47.00 MB      
 **********************************************************************************************************************************

 CCSD(T)/cc-pVTZ-DK energy=    -93.271661408042

        CCSD(T)         HF-SCF  
    -93.27166141    -92.90630629
 **********************************************************************************************************************************
 Molpro calculation terminated
 Variable memory released
