
 Primary working directories    : /tmp/r2666/232573.maple
 Secondary working directories  : /tmp/r2666/232573.maple
 Wavefunction directory         : /ddn/home4/r2666/wfu/
 Main file repository           : /tmp/r2666/232573.maple/

 SHA1      : d5ffa45e93fdbca01ffc919aa182cfdae0147319
 NAME      : 2015.1.35
 ARCHNAME  : linux/x86_64
 FC        : /opt/intel/composer_xe_2015.1.133/bin/intel64/ifort
 BLASLIB   : -Wl,-_start-group /opt/intel/mkl/lib/intel64/libmkl_intel_ilp64.a /opt/intel/mkl/lib/intel64/libmkl_intel_thread.a /opt/intel/mkl/lib/intel64/libmkl_core.a -Wl,-_end-group
 id        : olemiss

 Nodes     nprocs
 cn075        1

 Using customized tuning parameters: mindgm=1; mindgv=20; mindgc=4; mindgr=1; noblas=0; minvec=7
 default implementation of scratch files=df  

 ***,hcn CCSD(T)/TZ-F12 QFF
 memory, 995, m;
 gthresh,energy=1.d-12,zero=1.d-22,oneint=1.d-22,twoint=1.d-22;
 gthresh,optgrad=1.d-8,optstep=1.d-8;
 nocompress;
 geomtyp=xyz
 bohr
 geometry={
 3
         17        17
 N        0.0000000000        0.0000000000        1.1215518477
 C        0.0000000000        0.0000000000       -1.0478491894
 H        0.0000000000        0.0000000000       -3.0707726403
 }
 
 basis=vtz-dk
 dkroll=0
   {hf,maxit=500;accu,20;}
 {ccsd(t),nocheck,maxit=250;orbital,IGNORE_ERROR;}

 Variables initialized (889), CPU time= 0.01 sec
 Commands  initialized (702), CPU time= 0.01 sec, 572 directives.
 Default parameters read. Elapsed time= 0.07 sec

 Checking input...
 Passed
1


                                         ***  PROGRAM SYSTEM MOLPRO  ***
                                       Copyright, TTI GmbH Stuttgart, 2015
                                    Version 2015.1 linked Jul  9 2018 13:16:40


 **********************************************************************************************************************************
 LABEL *   hcn CCSD(T)/TZ-F12 QFF                                                        
  64 bit serial version                                                                  DATE: 06-Feb-20          TIME: 09:54:32  
 **********************************************************************************************************************************

 SHA1:             d5ffa45e93fdbca01ffc919aa182cfdae0147319
 **********************************************************************************************************************************

 THRESHOLDS:

 ZERO    =  1.00D-22  ONEINT  =  1.00D-22  TWOINT  =  1.00D-22  PREFAC  =  1.00D-14  LOCALI  =  1.00D-09  EORDER  =  1.00D-04
 ENERGY  =  1.00D-12  ETEST   =  0.00D+00  EDENS   =  0.00D+00  THRDEDEF=  1.00D-06  GRADIENT=  1.00D-02  STEP    =  1.00D-03
 ORBITAL =  1.00D-05  CIVEC   =  1.00D-05  COEFF   =  1.00D-04  PRINTCI =  5.00D-02  PUNCHCI =  9.90D+01  OPTGRAD =  3.00D-04
 OPTENERG=  1.00D-06  OPTSTEP =  3.00D-04  THRGRAD =  1.00D-10  COMPRESS=  1.00D-11  VARMIN  =  1.00D-07  VARMAX  =  1.00D-03
 THRDOUB =  0.00D+00  THRDIV  =  1.00D-05  THRRED  =  1.00D-07  THRPSP  =  1.00D+00  THRDC   =  1.00D-10  THRCS   =  1.00D-10
 THRNRM  =  1.00D-08  THREQ   =  0.00D+00  THRDE   =  1.00D+00  THRREF  =  1.00D-05  SPARFAC =  1.00D+00  THRDLP  =  1.00D-07
 THRDIA  =  1.00D-10  THRDLS  =  1.00D-07  THRGPS  =  0.00D+00  THRKEX  =  0.00D+00  THRDIS  =  2.00D-01  THRVAR  =  1.00D-10
 THRLOC  =  1.00D-06  THRGAP  =  1.00D-06  THRLOCT = -1.00D+00  THRGAPT = -1.00D+00  THRORB  =  1.00D-06  THRMLTP =  0.00D+00
 THRCPQCI=  1.00D-10  KEXTA   =  0.00D+00  THRCOARS=  0.00D+00  SYMTOL  =  1.00D-06  GRADTOL =  1.00D-06  THROVL  =  1.00D-08
 THRORTH =  1.00D-08  GRID    =  1.00D-06  GRIDMAX =  1.00D-03  DTMAX   =  0.00D+00  THROCCDE=  1.00D-01  THROCCDE=  1.00D-01



 THRESHOLDS:

 ZERO    =  1.00D-22  ONEINT  =  1.00D-22  TWOINT  =  1.00D-22  PREFAC  =  1.00D-14  LOCALI  =  1.00D-09  EORDER  =  1.00D-04
 ENERGY  =  1.00D-12  ETEST   =  0.00D+00  EDENS   =  0.00D+00  THRDEDEF=  1.00D-06  GRADIENT=  1.00D-02  STEP    =  1.00D-03
 ORBITAL =  1.00D-05  CIVEC   =  1.00D-05  COEFF   =  1.00D-04  PRINTCI =  5.00D-02  PUNCHCI =  9.90D+01  OPTGRAD =  1.00D-08
 OPTENERG=  1.00D-06  OPTSTEP =  1.00D-08  THRGRAD =  1.00D-10  COMPRESS=  1.00D-11  VARMIN  =  1.00D-07  VARMAX  =  1.00D-03
 THRDOUB =  0.00D+00  THRDIV  =  1.00D-05  THRRED  =  1.00D-07  THRPSP  =  1.00D+00  THRDC   =  1.00D-10  THRCS   =  1.00D-10
 THRNRM  =  1.00D-08  THREQ   =  0.00D+00  THRDE   =  1.00D+00  THRREF  =  1.00D-05  SPARFAC =  1.00D+00  THRDLP  =  1.00D-07
 THRDIA  =  1.00D-10  THRDLS  =  1.00D-07  THRGPS  =  0.00D+00  THRKEX  =  0.00D+00  THRDIS  =  2.00D-01  THRVAR  =  1.00D-10
 THRLOC  =  1.00D-06  THRGAP  =  1.00D-06  THRLOCT = -1.00D+00  THRGAPT = -1.00D+00  THRORB  =  1.00D-06  THRMLTP =  0.00D+00
 THRCPQCI=  1.00D-10  KEXTA   =  0.00D+00  THRCOARS=  0.00D+00  SYMTOL  =  1.00D-06  GRADTOL =  1.00D-06  THROVL  =  1.00D-08
 THRORTH =  1.00D-08  GRID    =  1.00D-06  GRIDMAX =  1.00D-03  DTMAX   =  0.00D+00  THROCCDE=  1.00D-01  THROCCDE=  1.00D-01



 Input parameters for SORTINT:

 COMPRESS =    0.000000
 C_FINAL  =    1.000000
 DEBUG    =   -1.000000
 C_SORT1  =    0.000000
 C_SEWARD =    0.000000
 THRESH   =    0.000000
 IO       =  molpro                                                          
 SPRI     =    0.000000
 SETTING GEOMTYP        =    XYZ
 ZUNIT=BOHR
 

 Variable memory set to  995000000 words,  buffer space   230000 words

 SETTING BASIS          =    VTZ-DK
 SETTING DKROLL         =     0.00000000D+00                                  


 Recomputing integrals since basis changed


 Using spherical harmonics

 Library entry N      S cc-pVTZ-DK           selected for orbital group  1
 Library entry N      P cc-pVTZ-DK           selected for orbital group  1
 Library entry N      D cc-pVTZ-DK           selected for orbital group  1
 Library entry N      F cc-pVTZ-DK           selected for orbital group  1
 Library entry C      S cc-pVTZ-DK           selected for orbital group  2
 Library entry C      P cc-pVTZ-DK           selected for orbital group  2
 Library entry C      D cc-pVTZ-DK           selected for orbital group  2
 Library entry C      F cc-pVTZ-DK           selected for orbital group  2
 Library entry H      S cc-pVTZ-DK           selected for orbital group  3
 Library entry H      P cc-pVTZ-DK           selected for orbital group  3
 Library entry H      D cc-pVTZ-DK           selected for orbital group  3


 PROGRAM * SEWARD (Integral evaluation for generally contracted gaussian basis sets)     Author: Roland Lindh, 1990

 Geometry written to block  1 of record 700


 Point group  C2v 



 ATOMIC COORDINATES

 NR  ATOM    CHARGE       X              Y              Z

   1  N       7.00    0.000000000    0.000000000    1.121551848
   2  C       6.00    0.000000000    0.000000000   -1.047849189
   3  H       1.00    0.000000000    0.000000000   -3.070772640

 Bond lengths in Bohr (Angstrom)

 1-2  2.169401037  2-3  2.022923451
     ( 1.147997590)     ( 1.070484990)

 Bond angles

  1-2-3  179.99999809

 NUCLEAR CHARGE:                   14
 NUMBER OF PRIMITIVE AOS:         111
 NUMBER OF SYMMETRY AOS:          100
 NUMBER OF CONTRACTIONS:           74   (  33A1  +  17B1  +  17B2  +   7A2  )
 NUMBER OF CORE ORBITALS:           2   (   2A1  +   0B1  +   0B2  +   0A2  )
 NUMBER OF VALENCE ORBITALS:        9   (   5A1  +   2B1  +   2B2  +   0A2  )


 NUCLEAR REPULSION ENERGY   23.99590506

 EXTRA SYMMETRY OF AOS IN SYMMETRY 1:   1 1 1 1 1 1 1 1 2 1   2 1 2 1 1 1 1 1 1 1   1 2 1 2 1 2 1 1 1 1   1 1 2
 EXTRA SYMMETRY OF AOS IN SYMMETRY 2:   1 1 1 1 1 1 2 1 1 1   1 1 1 2 1 1 1
 EXTRA SYMMETRY OF AOS IN SYMMETRY 3:   1 1 1 1 1 1 2 1 1 1   1 1 1 2 1 1 1

 Eigenvalues of metric

         1 0.109E-02 0.145E-02 0.244E-02 0.638E-02 0.110E-01 0.188E-01 0.292E-01 0.473E-01
         2 0.151E-01 0.364E-01 0.610E-01 0.887E-01 0.132E+00 0.284E+00 0.376E+00 0.431E+00
         3 0.151E-01 0.364E-01 0.610E-01 0.887E-01 0.132E+00 0.284E+00 0.376E+00 0.431E+00
         4 0.290E+00 0.452E+00 0.574E+00 0.846E+00 0.125E+01 0.155E+01 0.203E+01


 Contracted 2-electron integrals neglected if value below      1.0D-22

         875252. INTEGRALS WRITTEN OUT IN     214 BLOCKS ON RECORD 1290 OF FILE 1


 NUMBER OF SORTED TWO-ELECTRON INTEGRALS:    1039939.     BUFFER LENGTH:  32768
 NUMBER OF SEGMENTS:   1  SEGMENT LENGTH:    1039939      RECORD LENGTH: 524288

 Memory used in sort:       1.60 MW

 SORT1 READ      875252. AND WROTE      911536. INTEGRALS IN      3 RECORDS. CPU TIME:     0.01 SEC, REAL TIME:     0.03 SEC
 SORT2 READ      911536. AND WROTE     1039939. INTEGRALS IN      1 RECORDS. CPU TIME:     0.03 SEC, REAL TIME:     0.05 SEC

 FILE SIZES:   FILE 1:    34.1 MBYTE,  FILE 4:    12.6 MBYTE,   TOTAL:     46.7 MBYTE

 OPERATOR DM      FOR CENTER  0  COORDINATES:    0.000000    0.000000    0.000000


 **********************************************************************************************************************************
 DATASETS  * FILE   NREC   LENGTH (MB)   RECORD NAMES
              1      19       27.60       500      610      700      900      950      970     1000      129      960     1100   
                                          VAR    BASINP    GEOM    SYMINP    ZMAT    AOBASIS   BASIS     P2S    ABASIS      S 
                                         1400     1410     1200     1210     1080     1600     1650     1300     1700   
                                           T        V       H0       H01     AOSYM     SMH    MOLCAS    ERIS     OPER   

 PROGRAMS   *        TOTAL       INT
 CPU TIMES  *         0.66      0.55
 REAL TIME  *         1.42 SEC
 DISK USED  *        47.00 MB      
 **********************************************************************************************************************************


 PROGRAM * RHF-SCF (CLOSED SHELL)       Authors: W. Meyer, H.-J. Werner


 NUMBER OF ELECTRONS:       7+    7-
 CONVERGENCE THRESHOLDS:    1.00E-10 (Density)    1.00E-13 (Energy)
 MAX. NUMBER OF ITERATIONS:      500
 INTERPOLATION TYPE:            DIIS
 INTERPOLATION STEPS:              2 (START)      1 (STEP)
 LEVEL SHIFTS:                  0.00 (CLOSED)  0.00 (OPEN) 



 Orbital guess generated from atomic densities. Full valence occupancy:    7   2   2   0

 Molecular orbital dump at record        2100.2

 Initial occupancy:   5   1   1   0

 ITERATION    DDIFF          GRAD             ENERGY        2-EL.EN.            DIPOLE MOMENTS         DIIS   ORB.
    1      0.000D+00      0.000D+00       -92.88152721    112.150119    0.00000    0.00000   -1.76829    0    start
    2      0.000D+00      0.116D-01       -92.89077250    111.283335    0.00000    0.00000   -0.89270    1    diag
    3      0.190D-01      0.103D-01       -92.90554067    111.805467    0.00000    0.00000   -1.29188    2    diag
    4      0.952D-02      0.822D-03       -92.90575619    111.773249    0.00000    0.00000   -1.28322    3    diag
    5      0.150D-02      0.177D-03       -92.90576818    111.782068    0.00000    0.00000   -1.28184    4    diag
    6      0.403D-03      0.490D-04       -92.90576886    111.777604    0.00000    0.00000   -1.28197    5    diag
    7      0.884D-04      0.174D-04       -92.90576893    111.778744    0.00000    0.00000   -1.28209    6    diag
    8      0.306D-04      0.335D-05       -92.90576893    111.778687    0.00000    0.00000   -1.28207    7    diag
    9      0.559D-05      0.368D-06       -92.90576893    111.778693    0.00000    0.00000   -1.28206    8    diag
   10      0.795D-06      0.379D-07       -92.90576893    111.778694    0.00000    0.00000   -1.28206    9    orth
   11      0.741D-07      0.455D-08       -92.90576893    111.778694    0.00000    0.00000   -1.28206    9    diag
   12      0.128D-07      0.433D-09       -92.90576893    111.778694    0.00000    0.00000   -1.28206    9    diag
   13      0.179D-08      0.473D-10       -92.90576893    111.778694    0.00000    0.00000   -1.28206    9    diag
   14      0.248D-09      0.963D-11       -92.90576893    111.778694    0.00000    0.00000   -1.28206    9    diag
   15      0.483D-10      0.140D-11       -92.90576893    111.778694    0.00000    0.00000   -1.28206    0    orth

 Final occupancy:   5   1   1   0

 !RHF STATE 1.1 Energy                -92.905768934369
 Nuclear energy                        23.99590506
 One-electron energy                 -172.79102087
 Two-electron energy                   55.88934688
 Virial quotient                       -1.00071484
 !RHF STATE 1.1 Dipole moment           0.00000000     0.00000000    -1.28206437
 Dipole moment /Debye                   0.00000000     0.00000000    -3.25846917

 Orbital energies:

         1.1          2.1          3.1          4.1          5.1          6.1          7.1
    -15.595619   -11.289027    -1.237687    -0.809115    -0.580568     0.141621     0.240794

         1.2          2.2          3.2
     -0.497073     0.168636     0.446556

         1.3          2.3          3.3
     -0.497073     0.168636     0.446556

         1.4          2.4
      0.810607     1.421713

 HOMO      1.2    -0.497073 =     -13.5261eV
 LUMO      6.1     0.141621 =       3.8537eV
 LUMO-HOMO         0.638694 =      17.3798eV


 **********************************************************************************************************************************
 DATASETS  * FILE   NREC   LENGTH (MB)   RECORD NAMES
              1      19       27.60       500      610      700      900      950      970     1000      129      960     1100   
                                          VAR    BASINP    GEOM    SYMINP    ZMAT    AOBASIS   BASIS     P2S    ABASIS      S 
                                         1400     1410     1200     1210     1080     1600     1650     1300     1700   
                                           T        V       H0       H01     AOSYM     SMH    MOLCAS    ERIS     OPER   

              2       4        2.82       700     1000      520     2100   
                                         GEOM     BASIS   MCVARS     RHF  

 PROGRAMS   *        TOTAL        HF       INT
 CPU TIMES  *         0.75      0.09      0.55
 REAL TIME  *         1.55 SEC
 DISK USED  *        47.00 MB      
 **********************************************************************************************************************************


 PROGRAM * CCSD (Closed-shell coupled cluster)     Authors: C. Hampel, H.-J. Werner, 1991, M. Deegan, P.J. Knowles, 1992


 Convergence thresholds:  THRVAR = 1.00D-08  THRDEN = 1.00D-12

 CCSD(T)     terms to be evaluated (factor= 1.000)


 Number of core orbitals:           2 (   2   0   0   0 )
 Number of closed-shell orbitals:   5 (   3   1   1   0 )
 Number of external orbitals:      67 (  28  16  16   7 )

 Molecular orbitals read from record     2100.2  Type=RHF/CANONICAL (state 1.1)

 Number of N-1 electron functions:               5
 Number of N-2 electron functions:              15
 Number of singly external CSFs:               116
 Number of doubly external CSFs:             15189
 Total number of CSFs:                       15306

 Length of J-op  integral file:               0.00 MB
 Length of K-op  integral file:               0.15 MB
 Length of 3-ext integral record:             0.00 MB

 Memory could be reduced to 0.93 Mwords without degradation in triples

 Integral transformation finished. Total CPU:   0.02 sec, npass=  1  Memory used:   0.18 MW

 Reference energy:                    -92.90576893

 MP2 singlet pair energy:              -0.21742849
 MP2 triplet pair energy:              -0.12673561
 MP2 correlation energy:               -0.34416410
 MP2 total energy:                    -93.24993304

 SCS-MP2 correlation energy:           -0.33977190   (PS=  1.200000  PT=  0.333333)
 SCS-MP2 total energy:                -93.24554084

 ITER.      SQ.NORM     CORR.ENERGY   TOTAL ENERGY   ENERGY CHANGE        DEN1      VAR(S)    VAR(P)  DIIS     TIME  TIME/IT
   1      1.11409887    -0.34777699   -93.25354592    -0.00361289     0.00898008  0.25D-02  0.29D-02  1  1     0.04     0.02
   2      1.12354326    -0.34819192   -93.25396085    -0.00041493    -0.00993409  0.48D-04  0.41D-03  2  2     0.05     0.02
   3      1.12848426    -0.34841185   -93.25418078    -0.00021993    -0.00249289  0.12D-04  0.40D-04  3  3     0.07     0.02
   4      1.13051678    -0.34850420   -93.25427314    -0.00009236    -0.00074142  0.28D-06  0.42D-05  4  4     0.09     0.02
   5      1.13095660    -0.34850072   -93.25426966     0.00000348    -0.00012393  0.10D-06  0.37D-06  5  5     0.11     0.02
   6      1.13104805    -0.34849976   -93.25426869     0.00000096    -0.00002424  0.81D-08  0.27D-07  6  6     0.12     0.02
   7      1.13105544    -0.34850188   -93.25427081    -0.00000212    -0.00000222  0.59D-09  0.23D-08  6  1     0.14     0.02
   8      1.13105591    -0.34850234   -93.25427128    -0.00000046     0.00000063  0.47D-10  0.13D-09  6  2     0.15     0.02
   9      1.13105654    -0.34850237   -93.25427131    -0.00000003    -0.00000035  0.34D-11  0.94D-11  6  3     0.16     0.02
  10      1.13105650    -0.34850239   -93.25427132    -0.00000002     0.00000009  0.36D-12  0.93D-12  6  4     0.18     0.02
  11      1.13105646    -0.34850239   -93.25427133    -0.00000000     0.00000001  0.40D-13  0.10D-12  6  5     0.20     0.02
  12      1.13105641    -0.34850239   -93.25427133    -0.00000000     0.00000002  0.41D-14  0.21D-13  6  6     0.22     0.02
  13      1.13105638    -0.34850239   -93.25427133    -0.00000000     0.00000001  0.97D-15  0.21D-14  6  2     0.23     0.02
  14      1.13105637    -0.34850240   -93.25427133    -0.00000000     0.00000000  0.37D-16  0.99D-16  6  1     0.25     0.02
  15      1.13105636    -0.34850240   -93.25427133    -0.00000000     0.00000000  0.83D-17  0.13D-16  6  3     0.27     0.02
  16      1.13105636    -0.34850240   -93.25427133    -0.00000000     0.00000000  0.57D-18  0.11D-17  6  4     0.28     0.02
  17      1.13105636    -0.34850240   -93.25427133    -0.00000000     0.00000000  0.26D-18  0.91D-19  6  5     0.30     0.02
  18      1.13105636    -0.34850240   -93.25427133     0.00000000    -0.00000000  0.15D-19  0.17D-19  6  6     0.32     0.02
  19      1.13105636    -0.34850240   -93.25427133     0.00000000    -0.00000000  0.43D-20  0.16D-20  6  2     0.33     0.02
  20      1.13105636    -0.34850240   -93.25427133     0.00000000    -0.00000000  0.11D-21  0.41D-21  6  1     0.35     0.02
  21      1.13105636    -0.34850240   -93.25427133     0.00000000    -0.00000000  0.33D-22  0.73D-22  6  3     0.36     0.02

 Norm of t1 vector:      0.06297137      S-energy:    -0.00000000      T1 diagnostic:  0.01408083
                                                                       D1 diagnostic:  0.02829728

 Doubles amplitudes (print threshold =  0.500E-01):

         I         J         SYM. A    SYM. B    A         B      T(IJ, AB)

         4         4         2         2         1         1     -0.08583218
         5         5         3         3         1         1     -0.08583218
         5         4         3         2         1         1     -0.05391231


 Total CPU time for triples:      0.07 sec


 RESULTS
 =======

  Reference energy                    -92.905768934369
  CCSD singlet pair energy             -0.242222160646
  CCSD triplet pair energy             -0.106280234630
  CCSD correlation energy              -0.348502395276

  Triples (T) contribution             -0.017714870635
  Total correlation energy             -0.366217265911

  CCSD total energy                   -93.254271329645
  CCSD[T] energy                      -93.272786542873
  CCSD-T energy                       -93.271585176746
 !CCSD(T) total energy                -93.271986200280

 Timing summary (sec):

 STEP                 CPU(USER)    SYS     CPU(TOT)    WALL
 Transformation          0.02      0.00      0.02      0.02
 CCSD iterations         0.34      0.08      0.42      0.42
 Triples                 0.07      0.00      0.07      0.07

 Program statistics:

 Available memory in ccsd:               994999800
 Min. memory needed in ccsd:                 67993
 Max. memory used in ccsd:                   79450
 Max. memory used in cckext:                107513 (21 integral passes)



 **********************************************************************************************************************************
 DATASETS  * FILE   NREC   LENGTH (MB)   RECORD NAMES
              1      20       29.54       500      610      700      900      950      970     1000      129      960     1100   
                                          VAR    BASINP    GEOM    SYMINP    ZMAT    AOBASIS   BASIS     P2S    ABASIS      S 
                                         1400     1410     1200     1210     1080     1600     1650     1300     1700     1380   
                                           T        V       H0       H01     AOSYM     SMH    MOLCAS    ERIS     OPER     JKOP   

              2       4        2.82       700     1000      520     2100   
                                         GEOM     BASIS   MCVARS     RHF  

 PROGRAMS   *        TOTAL   CCSD(T)        HF       INT
 CPU TIMES  *         1.21      0.46      0.09      0.55
 REAL TIME  *         2.09 SEC
 DISK USED  *        47.00 MB      
 **********************************************************************************************************************************

 CCSD(T)/cc-pVTZ-DK energy=    -93.271986200280

        CCSD(T)         HF-SCF  
    -93.27198620    -92.90576893
 **********************************************************************************************************************************
 Molpro calculation terminated
 Variable memory released
