
 Primary working directories    : /tmp/r2666/232609.maple
 Secondary working directories  : /tmp/r2666/232609.maple
 Wavefunction directory         : /ddn/home4/r2666/wfu/
 Main file repository           : /tmp/r2666/232609.maple/

 SHA1      : d5ffa45e93fdbca01ffc919aa182cfdae0147319
 NAME      : 2015.1.35
 ARCHNAME  : linux/x86_64
 FC        : /opt/intel/composer_xe_2015.1.133/bin/intel64/ifort
 BLASLIB   : -Wl,-_start-group /opt/intel/mkl/lib/intel64/libmkl_intel_ilp64.a /opt/intel/mkl/lib/intel64/libmkl_intel_thread.a /opt/intel/mkl/lib/intel64/libmkl_core.a -Wl,-_end-group
 id        : olemiss

 Nodes     nprocs
 cn079        1

 Using customized tuning parameters: mindgm=1; mindgv=20; mindgc=4; mindgr=1; noblas=0; minvec=7
 default implementation of scratch files=df  

 ***,hcn CCSD(T)/TZ-F12 QFF
 memory, 995, m;
 gthresh,energy=1.d-12,zero=1.d-22,oneint=1.d-22,twoint=1.d-22;
 gthresh,optgrad=1.d-8,optstep=1.d-8;
 nocompress;
 geomtyp=xyz
 bohr
 geometry={
 3
         53        53
 N        0.0000000000        0.0000000000        1.1435986509
 C        0.0000000000        0.0000000000       -1.0635969059
 H        0.0000000000        0.0000000000       -3.0770717269
 }
 
 basis=vtz-dk
 dkroll=0
   {hf,maxit=500;accu,20;}
 {ccsd(t),nocheck,maxit=250;orbital,IGNORE_ERROR;}

 Variables initialized (889), CPU time= 0.00 sec
 Commands  initialized (702), CPU time= 0.01 sec, 572 directives.
 Default parameters read. Elapsed time= 0.09 sec

 Checking input...
 Passed
1


                                         ***  PROGRAM SYSTEM MOLPRO  ***
                                       Copyright, TTI GmbH Stuttgart, 2015
                                    Version 2015.1 linked Jul  9 2018 13:16:40


 **********************************************************************************************************************************
 LABEL *   hcn CCSD(T)/TZ-F12 QFF                                                        
  64 bit serial version                                                                  DATE: 06-Feb-20          TIME: 09:54:38  
 **********************************************************************************************************************************

 SHA1:             d5ffa45e93fdbca01ffc919aa182cfdae0147319
 **********************************************************************************************************************************

 THRESHOLDS:

 ZERO    =  1.00D-22  ONEINT  =  1.00D-22  TWOINT  =  1.00D-22  PREFAC  =  1.00D-14  LOCALI  =  1.00D-09  EORDER  =  1.00D-04
 ENERGY  =  1.00D-12  ETEST   =  0.00D+00  EDENS   =  0.00D+00  THRDEDEF=  1.00D-06  GRADIENT=  1.00D-02  STEP    =  1.00D-03
 ORBITAL =  1.00D-05  CIVEC   =  1.00D-05  COEFF   =  1.00D-04  PRINTCI =  5.00D-02  PUNCHCI =  9.90D+01  OPTGRAD =  3.00D-04
 OPTENERG=  1.00D-06  OPTSTEP =  3.00D-04  THRGRAD =  1.00D-10  COMPRESS=  1.00D-11  VARMIN  =  1.00D-07  VARMAX  =  1.00D-03
 THRDOUB =  0.00D+00  THRDIV  =  1.00D-05  THRRED  =  1.00D-07  THRPSP  =  1.00D+00  THRDC   =  1.00D-10  THRCS   =  1.00D-10
 THRNRM  =  1.00D-08  THREQ   =  0.00D+00  THRDE   =  1.00D+00  THRREF  =  1.00D-05  SPARFAC =  1.00D+00  THRDLP  =  1.00D-07
 THRDIA  =  1.00D-10  THRDLS  =  1.00D-07  THRGPS  =  0.00D+00  THRKEX  =  0.00D+00  THRDIS  =  2.00D-01  THRVAR  =  1.00D-10
 THRLOC  =  1.00D-06  THRGAP  =  1.00D-06  THRLOCT = -1.00D+00  THRGAPT = -1.00D+00  THRORB  =  1.00D-06  THRMLTP =  0.00D+00
 THRCPQCI=  1.00D-10  KEXTA   =  0.00D+00  THRCOARS=  0.00D+00  SYMTOL  =  1.00D-06  GRADTOL =  1.00D-06  THROVL  =  1.00D-08
 THRORTH =  1.00D-08  GRID    =  1.00D-06  GRIDMAX =  1.00D-03  DTMAX   =  0.00D+00  THROCCDE=  1.00D-01  THROCCDE=  1.00D-01



 THRESHOLDS:

 ZERO    =  1.00D-22  ONEINT  =  1.00D-22  TWOINT  =  1.00D-22  PREFAC  =  1.00D-14  LOCALI  =  1.00D-09  EORDER  =  1.00D-04
 ENERGY  =  1.00D-12  ETEST   =  0.00D+00  EDENS   =  0.00D+00  THRDEDEF=  1.00D-06  GRADIENT=  1.00D-02  STEP    =  1.00D-03
 ORBITAL =  1.00D-05  CIVEC   =  1.00D-05  COEFF   =  1.00D-04  PRINTCI =  5.00D-02  PUNCHCI =  9.90D+01  OPTGRAD =  1.00D-08
 OPTENERG=  1.00D-06  OPTSTEP =  1.00D-08  THRGRAD =  1.00D-10  COMPRESS=  1.00D-11  VARMIN  =  1.00D-07  VARMAX  =  1.00D-03
 THRDOUB =  0.00D+00  THRDIV  =  1.00D-05  THRRED  =  1.00D-07  THRPSP  =  1.00D+00  THRDC   =  1.00D-10  THRCS   =  1.00D-10
 THRNRM  =  1.00D-08  THREQ   =  0.00D+00  THRDE   =  1.00D+00  THRREF  =  1.00D-05  SPARFAC =  1.00D+00  THRDLP  =  1.00D-07
 THRDIA  =  1.00D-10  THRDLS  =  1.00D-07  THRGPS  =  0.00D+00  THRKEX  =  0.00D+00  THRDIS  =  2.00D-01  THRVAR  =  1.00D-10
 THRLOC  =  1.00D-06  THRGAP  =  1.00D-06  THRLOCT = -1.00D+00  THRGAPT = -1.00D+00  THRORB  =  1.00D-06  THRMLTP =  0.00D+00
 THRCPQCI=  1.00D-10  KEXTA   =  0.00D+00  THRCOARS=  0.00D+00  SYMTOL  =  1.00D-06  GRADTOL =  1.00D-06  THROVL  =  1.00D-08
 THRORTH =  1.00D-08  GRID    =  1.00D-06  GRIDMAX =  1.00D-03  DTMAX   =  0.00D+00  THROCCDE=  1.00D-01  THROCCDE=  1.00D-01



 Input parameters for SORTINT:

 COMPRESS =    0.000000
 C_FINAL  =    1.000000
 DEBUG    =   -1.000000
 C_SORT1  =    0.000000
 C_SEWARD =    0.000000
 THRESH   =    0.000000
 IO       =  molpro                                                          
 SPRI     =    0.000000
 SETTING GEOMTYP        =    XYZ
 ZUNIT=BOHR
 

 Variable memory set to  995000000 words,  buffer space   230000 words

 SETTING BASIS          =    VTZ-DK
 SETTING DKROLL         =     0.00000000D+00                                  


 Recomputing integrals since basis changed


 Using spherical harmonics

 Library entry N      S cc-pVTZ-DK           selected for orbital group  1
 Library entry N      P cc-pVTZ-DK           selected for orbital group  1
 Library entry N      D cc-pVTZ-DK           selected for orbital group  1
 Library entry N      F cc-pVTZ-DK           selected for orbital group  1
 Library entry C      S cc-pVTZ-DK           selected for orbital group  2
 Library entry C      P cc-pVTZ-DK           selected for orbital group  2
 Library entry C      D cc-pVTZ-DK           selected for orbital group  2
 Library entry C      F cc-pVTZ-DK           selected for orbital group  2
 Library entry H      S cc-pVTZ-DK           selected for orbital group  3
 Library entry H      P cc-pVTZ-DK           selected for orbital group  3
 Library entry H      D cc-pVTZ-DK           selected for orbital group  3


 PROGRAM * SEWARD (Integral evaluation for generally contracted gaussian basis sets)     Author: Roland Lindh, 1990

 Geometry written to block  1 of record 700


 Point group  C2v 



 ATOMIC COORDINATES

 NR  ATOM    CHARGE       X              Y              Z

   1  N       7.00    0.000000000    0.000000000    1.143598651
   2  C       6.00    0.000000000    0.000000000   -1.063596906
   3  H       1.00    0.000000000    0.000000000   -3.077071727

 Bond lengths in Bohr (Angstrom)

 1-2  2.207195557  2-3  2.013474821
     ( 1.167997589)     ( 1.065484990)

 Bond angles

  1-2-3  179.99999829

 NUCLEAR CHARGE:                   14
 NUMBER OF PRIMITIVE AOS:         111
 NUMBER OF SYMMETRY AOS:          100
 NUMBER OF CONTRACTIONS:           74   (  33A1  +  17B1  +  17B2  +   7A2  )
 NUMBER OF CORE ORBITALS:           2   (   2A1  +   0B1  +   0B2  +   0A2  )
 NUMBER OF VALENCE ORBITALS:        9   (   5A1  +   2B1  +   2B2  +   0A2  )


 NUCLEAR REPULSION ENERGY   23.66709921

 EXTRA SYMMETRY OF AOS IN SYMMETRY 1:   1 1 1 1 1 1 1 1 2 1   2 1 2 1 1 1 1 1 1 1   1 2 1 2 1 2 1 1 1 1   1 1 2
 EXTRA SYMMETRY OF AOS IN SYMMETRY 2:   1 1 1 1 1 1 2 1 1 1   1 1 1 2 1 1 1
 EXTRA SYMMETRY OF AOS IN SYMMETRY 3:   1 1 1 1 1 1 2 1 1 1   1 1 1 2 1 1 1

 Eigenvalues of metric

         1 0.109E-02 0.149E-02 0.249E-02 0.638E-02 0.110E-01 0.201E-01 0.295E-01 0.477E-01
         2 0.161E-01 0.365E-01 0.609E-01 0.909E-01 0.135E+00 0.290E+00 0.381E+00 0.431E+00
         3 0.161E-01 0.365E-01 0.609E-01 0.909E-01 0.135E+00 0.290E+00 0.381E+00 0.431E+00
         4 0.298E+00 0.458E+00 0.575E+00 0.849E+00 0.125E+01 0.156E+01 0.201E+01


 Contracted 2-electron integrals neglected if value below      1.0D-22

         875193. INTEGRALS WRITTEN OUT IN     214 BLOCKS ON RECORD 1290 OF FILE 1


 NUMBER OF SORTED TWO-ELECTRON INTEGRALS:    1039939.     BUFFER LENGTH:  32768
 NUMBER OF SEGMENTS:   1  SEGMENT LENGTH:    1039939      RECORD LENGTH: 524288

 Memory used in sort:       1.60 MW

 SORT1 READ      875193. AND WROTE      911505. INTEGRALS IN      3 RECORDS. CPU TIME:     0.01 SEC, REAL TIME:     0.03 SEC
 SORT2 READ      911505. AND WROTE     1039939. INTEGRALS IN      1 RECORDS. CPU TIME:     0.05 SEC, REAL TIME:     0.05 SEC

 FILE SIZES:   FILE 1:    34.1 MBYTE,  FILE 4:    12.6 MBYTE,   TOTAL:     46.7 MBYTE

 OPERATOR DM      FOR CENTER  0  COORDINATES:    0.000000    0.000000    0.000000


 **********************************************************************************************************************************
 DATASETS  * FILE   NREC   LENGTH (MB)   RECORD NAMES
              1      19       27.60       500      610      700      900      950      970     1000      129      960     1100   
                                          VAR    BASINP    GEOM    SYMINP    ZMAT    AOBASIS   BASIS     P2S    ABASIS      S 
                                         1400     1410     1200     1210     1080     1600     1650     1300     1700   
                                           T        V       H0       H01     AOSYM     SMH    MOLCAS    ERIS     OPER   

 PROGRAMS   *        TOTAL       INT
 CPU TIMES  *         0.63      0.53
 REAL TIME  *         1.13 SEC
 DISK USED  *        47.00 MB      
 **********************************************************************************************************************************


 PROGRAM * RHF-SCF (CLOSED SHELL)       Authors: W. Meyer, H.-J. Werner


 NUMBER OF ELECTRONS:       7+    7-
 CONVERGENCE THRESHOLDS:    1.00E-10 (Density)    1.00E-13 (Energy)
 MAX. NUMBER OF ITERATIONS:      500
 INTERPOLATION TYPE:            DIIS
 INTERPOLATION STEPS:              2 (START)      1 (STEP)
 LEVEL SHIFTS:                  0.00 (CLOSED)  0.00 (OPEN) 



 Orbital guess generated from atomic densities. Full valence occupancy:    7   2   2   0

 Molecular orbital dump at record        2100.2

 Initial occupancy:   5   1   1   0

 ITERATION    DDIFF          GRAD             ENERGY        2-EL.EN.            DIPOLE MOMENTS         DIIS   ORB.
    1      0.000D+00      0.000D+00       -92.87838426    111.390926    0.00000    0.00000   -1.77642    0    start
    2      0.000D+00      0.114D-01       -92.88676428    110.648321    0.00000    0.00000   -0.87196    1    diag
    3      0.190D-01      0.105D-01       -92.90229326    111.155762    0.00000    0.00000   -1.29407    2    diag
    4      0.964D-02      0.850D-03       -92.90252100    111.110037    0.00000    0.00000   -1.28499    3    diag
    5      0.152D-02      0.195D-03       -92.90253419    111.124583    0.00000    0.00000   -1.28383    4    diag
    6      0.411D-03      0.543D-04       -92.90253516    111.118969    0.00000    0.00000   -1.28369    5    diag
    7      0.107D-03      0.199D-04       -92.90253526    111.119991    0.00000    0.00000   -1.28385    6    diag
    8      0.350D-04      0.381D-05       -92.90253526    111.119947    0.00000    0.00000   -1.28383    7    diag
    9      0.660D-05      0.411D-06       -92.90253526    111.119955    0.00000    0.00000   -1.28383    8    diag
   10      0.895D-06      0.400D-07       -92.90253526    111.119955    0.00000    0.00000   -1.28383    9    orth
   11      0.780D-07      0.460D-08       -92.90253526    111.119955    0.00000    0.00000   -1.28383    9    diag
   12      0.136D-07      0.402D-09       -92.90253526    111.119955    0.00000    0.00000   -1.28383    9    diag
   13      0.167D-08      0.458D-10       -92.90253526    111.119955    0.00000    0.00000   -1.28383    9    diag
   14      0.259D-09      0.809D-11       -92.90253526    111.119955    0.00000    0.00000   -1.28383    9    diag
   15      0.386D-10      0.110D-11       -92.90253526    111.119955    0.00000    0.00000   -1.28383    0    orth

 Final occupancy:   5   1   1   0

 !RHF STATE 1.1 Energy                -92.902535259831
 Nuclear energy                        23.66709921
 One-electron energy                 -172.12961197
 Two-electron energy                   55.55997750
 Virial quotient                       -1.00176493
 !RHF STATE 1.1 Dipole moment           0.00000000     0.00000000    -1.28382602
 Dipole moment /Debye                   0.00000000     0.00000000    -3.26294653

 Orbital energies:

         1.1          2.1          3.1          4.1          5.1          6.1          7.1
    -15.602781   -11.295808    -1.228322    -0.814000    -0.581677     0.141276     0.240024

         1.2          2.2          3.2
     -0.491120     0.162072     0.446526

         1.3          2.3          3.3
     -0.491120     0.162072     0.446526

         1.4          2.4
      0.810256     1.415947

 HOMO      1.2    -0.491120 =     -13.3641eV
 LUMO      6.1     0.141276 =       3.8443eV
 LUMO-HOMO         0.632396 =      17.2084eV


 **********************************************************************************************************************************
 DATASETS  * FILE   NREC   LENGTH (MB)   RECORD NAMES
              1      19       27.60       500      610      700      900      950      970     1000      129      960     1100   
                                          VAR    BASINP    GEOM    SYMINP    ZMAT    AOBASIS   BASIS     P2S    ABASIS      S 
                                         1400     1410     1200     1210     1080     1600     1650     1300     1700   
                                           T        V       H0       H01     AOSYM     SMH    MOLCAS    ERIS     OPER   

              2       4        2.82       700     1000      520     2100   
                                         GEOM     BASIS   MCVARS     RHF  

 PROGRAMS   *        TOTAL        HF       INT
 CPU TIMES  *         0.71      0.08      0.53
 REAL TIME  *         1.36 SEC
 DISK USED  *        47.00 MB      
 **********************************************************************************************************************************


 PROGRAM * CCSD (Closed-shell coupled cluster)     Authors: C. Hampel, H.-J. Werner, 1991, M. Deegan, P.J. Knowles, 1992


 Convergence thresholds:  THRVAR = 1.00D-08  THRDEN = 1.00D-12

 CCSD(T)     terms to be evaluated (factor= 1.000)


 Number of core orbitals:           2 (   2   0   0   0 )
 Number of closed-shell orbitals:   5 (   3   1   1   0 )
 Number of external orbitals:      67 (  28  16  16   7 )

 Molecular orbitals read from record     2100.2  Type=RHF/CANONICAL (state 1.1)

 Number of N-1 electron functions:               5
 Number of N-2 electron functions:              15
 Number of singly external CSFs:               116
 Number of doubly external CSFs:             15189
 Total number of CSFs:                       15306

 Length of J-op  integral file:               0.00 MB
 Length of K-op  integral file:               0.15 MB
 Length of 3-ext integral record:             0.00 MB

 Memory could be reduced to 0.93 Mwords without degradation in triples

 Integral transformation finished. Total CPU:   0.01 sec, npass=  1  Memory used:   0.18 MW

 Reference energy:                    -92.90253526

 MP2 singlet pair energy:              -0.21965579
 MP2 triplet pair energy:              -0.12848898
 MP2 correlation energy:               -0.34814477
 MP2 total energy:                    -93.25068003

 SCS-MP2 correlation energy:           -0.34353565   (PS=  1.200000  PT=  0.333333)
 SCS-MP2 total energy:                -93.24607091

 ITER.      SQ.NORM     CORR.ENERGY   TOTAL ENERGY   ENERGY CHANGE        DEN1      VAR(S)    VAR(P)  DIIS     TIME  TIME/IT
   1      1.11650934    -0.35071939   -93.25325465    -0.00257462     0.01082926  0.27D-02  0.32D-02  1  1     0.03     0.02
   2      1.12643583    -0.35096986   -93.25350512    -0.00025047    -0.01039033  0.54D-04  0.44D-03  2  2     0.04     0.02
   3      1.13175675    -0.35120832   -93.25374358    -0.00023846    -0.00263083  0.13D-04  0.45D-04  3  3     0.05     0.02
   4      1.13401848    -0.35131437   -93.25384963    -0.00010605    -0.00080681  0.31D-06  0.49D-05  4  4     0.06     0.02
   5      1.13452176    -0.35131075   -93.25384601     0.00000362    -0.00013859  0.10D-06  0.46D-06  5  5     0.07     0.02
   6      1.13463178    -0.35130954   -93.25384480     0.00000121    -0.00002866  0.10D-07  0.34D-07  6  6     0.09     0.02
   7      1.13464061    -0.35131218   -93.25384744    -0.00000264    -0.00000252  0.64D-09  0.29D-08  6  1     0.10     0.02
   8      1.13464111    -0.35131272   -93.25384798    -0.00000055     0.00000073  0.41D-10  0.17D-09  6  2     0.11     0.02
   9      1.13464187    -0.35131275   -93.25384801    -0.00000003    -0.00000043  0.72D-11  0.11D-10  6  3     0.12     0.02
  10      1.13464180    -0.35131277   -93.25384803    -0.00000002     0.00000010  0.43D-12  0.13D-11  6  4     0.13     0.02
  11      1.13464175    -0.35131278   -93.25384804    -0.00000000     0.00000001  0.19D-12  0.98D-13  6  5     0.15     0.02
  12      1.13464169    -0.35131278   -93.25384804    -0.00000000     0.00000003  0.16D-13  0.25D-13  6  6     0.16     0.02
  13      1.13464164    -0.35131278   -93.25384804    -0.00000000     0.00000001  0.43D-14  0.22D-14  6  2     0.17     0.02
  14      1.13464162    -0.35131278   -93.25384804    -0.00000000     0.00000001  0.54D-16  0.15D-15  6  1     0.18     0.02
  15      1.13464162    -0.35131278   -93.25384804     0.00000000     0.00000000  0.37D-17  0.13D-16  6  4     0.19     0.02
  16      1.13464162    -0.35131278   -93.25384804    -0.00000000     0.00000000  0.13D-17  0.80D-18  6  3     0.21     0.02
  17      1.13464162    -0.35131278   -93.25384804    -0.00000000     0.00000000  0.15D-18  0.17D-18  6  5     0.22     0.02
  18      1.13464162    -0.35131278   -93.25384804    -0.00000000    -0.00000000  0.20D-19  0.13D-19  6  6     0.23     0.02
  19      1.13464162    -0.35131278   -93.25384804     0.00000000    -0.00000000  0.66D-21  0.16D-20  6  2     0.25     0.02
  20      1.13464162    -0.35131278   -93.25384804     0.00000000    -0.00000000  0.33D-22  0.24D-21  6  1     0.26     0.02
  21      1.13464162    -0.35131278   -93.25384804     0.00000000    -0.00000000  0.22D-22  0.46D-22  6  4     0.27     0.02

 Norm of t1 vector:      0.06565192      S-energy:    -0.00000000      T1 diagnostic:  0.01468022
                                                                       D1 diagnostic:  0.02964578

 Doubles amplitudes (print threshold =  0.500E-01):

         I         J         SYM. A    SYM. B    A         B      T(IJ, AB)

         4         4         2         2         1         1     -0.09013063
         5         5         3         3         1         1     -0.09013063
         5         4         3         2         1         1     -0.05617401


 Total CPU time for triples:      0.06 sec


 RESULTS
 =======

  Reference energy                    -92.902535259831
  CCSD singlet pair energy             -0.244568040356
  CCSD triplet pair energy             -0.106744744614
  CCSD correlation energy              -0.351312784970

  Triples (T) contribution             -0.018337130052
  Total correlation energy             -0.369649915021

  CCSD total energy                   -93.253848044801
  CCSD[T] energy                      -93.273064414110
  CCSD-T energy                       -93.271750589371
 !CCSD(T) total energy                -93.272185174852

 Timing summary (sec):

 STEP                 CPU(USER)    SYS     CPU(TOT)    WALL
 Transformation          0.01      0.00      0.01      0.02
 CCSD iterations         0.26      0.08      0.34      0.34
 Triples                 0.06      0.00      0.06      0.06

 Program statistics:

 Available memory in ccsd:               994999800
 Min. memory needed in ccsd:                 67993
 Max. memory used in ccsd:                   79450
 Max. memory used in cckext:                107513 (21 integral passes)



 **********************************************************************************************************************************
 DATASETS  * FILE   NREC   LENGTH (MB)   RECORD NAMES
              1      20       29.54       500      610      700      900      950      970     1000      129      960     1100   
                                          VAR    BASINP    GEOM    SYMINP    ZMAT    AOBASIS   BASIS     P2S    ABASIS      S 
                                         1400     1410     1200     1210     1080     1600     1650     1300     1700     1380   
                                           T        V       H0       H01     AOSYM     SMH    MOLCAS    ERIS     OPER     JKOP   

              2       4        2.82       700     1000      520     2100   
                                         GEOM     BASIS   MCVARS     RHF  

 PROGRAMS   *        TOTAL   CCSD(T)        HF       INT
 CPU TIMES  *         1.08      0.36      0.08      0.53
 REAL TIME  *         1.86 SEC
 DISK USED  *        47.00 MB      
 **********************************************************************************************************************************

 CCSD(T)/cc-pVTZ-DK energy=    -93.272185174852

        CCSD(T)         HF-SCF  
    -93.27218517    -92.90253526
 **********************************************************************************************************************************
 Molpro calculation terminated
 Variable memory released
