
 Primary working directories    : /tmp/r2666/232584.maple
 Secondary working directories  : /tmp/r2666/232584.maple
 Wavefunction directory         : /ddn/home4/r2666/wfu/
 Main file repository           : /tmp/r2666/232584.maple/

 SHA1      : d5ffa45e93fdbca01ffc919aa182cfdae0147319
 NAME      : 2015.1.35
 ARCHNAME  : linux/x86_64
 FC        : /opt/intel/composer_xe_2015.1.133/bin/intel64/ifort
 BLASLIB   : -Wl,-_start-group /opt/intel/mkl/lib/intel64/libmkl_intel_ilp64.a /opt/intel/mkl/lib/intel64/libmkl_intel_thread.a /opt/intel/mkl/lib/intel64/libmkl_core.a -Wl,-_end-group
 id        : olemiss

 Nodes     nprocs
 cn076        1

 Using customized tuning parameters: mindgm=1; mindgv=20; mindgc=4; mindgr=1; noblas=0; minvec=7
 default implementation of scratch files=df  

 ***,hcn CCSD(T)/TZ-F12 QFF
 memory, 995, m;
 gthresh,energy=1.d-12,zero=1.d-22,oneint=1.d-22,twoint=1.d-22;
 gthresh,optgrad=1.d-8,optstep=1.d-8;
 nocompress;
 geomtyp=xyz
 bohr
 geometry={
 3
         28        28
 N       -0.0046162072        0.0000000025        1.1246527606
 C        0.0096115372       -0.0000000001       -1.0541504528
 H       -0.0049953300       -0.0000000024       -3.0675722899
 }
 
 basis=vtz-dk
 dkroll=0
   {hf,maxit=500;accu,20;}
 {ccsd(t),nocheck,maxit=250;orbital,IGNORE_ERROR;}

 Variables initialized (889), CPU time= 0.01 sec
 Commands  initialized (702), CPU time= 0.01 sec, 572 directives.
 Default parameters read. Elapsed time= 0.05 sec

 Checking input...
 Passed
1


                                         ***  PROGRAM SYSTEM MOLPRO  ***
                                       Copyright, TTI GmbH Stuttgart, 2015
                                    Version 2015.1 linked Jul  9 2018 13:16:40


 **********************************************************************************************************************************
 LABEL *   hcn CCSD(T)/TZ-F12 QFF                                                        
  64 bit serial version                                                                  DATE: 06-Feb-20          TIME: 09:54:34  
 **********************************************************************************************************************************

 SHA1:             d5ffa45e93fdbca01ffc919aa182cfdae0147319
 **********************************************************************************************************************************

 THRESHOLDS:

 ZERO    =  1.00D-22  ONEINT  =  1.00D-22  TWOINT  =  1.00D-22  PREFAC  =  1.00D-14  LOCALI  =  1.00D-09  EORDER  =  1.00D-04
 ENERGY  =  1.00D-12  ETEST   =  0.00D+00  EDENS   =  0.00D+00  THRDEDEF=  1.00D-06  GRADIENT=  1.00D-02  STEP    =  1.00D-03
 ORBITAL =  1.00D-05  CIVEC   =  1.00D-05  COEFF   =  1.00D-04  PRINTCI =  5.00D-02  PUNCHCI =  9.90D+01  OPTGRAD =  3.00D-04
 OPTENERG=  1.00D-06  OPTSTEP =  3.00D-04  THRGRAD =  1.00D-10  COMPRESS=  1.00D-11  VARMIN  =  1.00D-07  VARMAX  =  1.00D-03
 THRDOUB =  0.00D+00  THRDIV  =  1.00D-05  THRRED  =  1.00D-07  THRPSP  =  1.00D+00  THRDC   =  1.00D-10  THRCS   =  1.00D-10
 THRNRM  =  1.00D-08  THREQ   =  0.00D+00  THRDE   =  1.00D+00  THRREF  =  1.00D-05  SPARFAC =  1.00D+00  THRDLP  =  1.00D-07
 THRDIA  =  1.00D-10  THRDLS  =  1.00D-07  THRGPS  =  0.00D+00  THRKEX  =  0.00D+00  THRDIS  =  2.00D-01  THRVAR  =  1.00D-10
 THRLOC  =  1.00D-06  THRGAP  =  1.00D-06  THRLOCT = -1.00D+00  THRGAPT = -1.00D+00  THRORB  =  1.00D-06  THRMLTP =  0.00D+00
 THRCPQCI=  1.00D-10  KEXTA   =  0.00D+00  THRCOARS=  0.00D+00  SYMTOL  =  1.00D-06  GRADTOL =  1.00D-06  THROVL  =  1.00D-08
 THRORTH =  1.00D-08  GRID    =  1.00D-06  GRIDMAX =  1.00D-03  DTMAX   =  0.00D+00  THROCCDE=  1.00D-01  THROCCDE=  1.00D-01



 THRESHOLDS:

 ZERO    =  1.00D-22  ONEINT  =  1.00D-22  TWOINT  =  1.00D-22  PREFAC  =  1.00D-14  LOCALI  =  1.00D-09  EORDER  =  1.00D-04
 ENERGY  =  1.00D-12  ETEST   =  0.00D+00  EDENS   =  0.00D+00  THRDEDEF=  1.00D-06  GRADIENT=  1.00D-02  STEP    =  1.00D-03
 ORBITAL =  1.00D-05  CIVEC   =  1.00D-05  COEFF   =  1.00D-04  PRINTCI =  5.00D-02  PUNCHCI =  9.90D+01  OPTGRAD =  1.00D-08
 OPTENERG=  1.00D-06  OPTSTEP =  1.00D-08  THRGRAD =  1.00D-10  COMPRESS=  1.00D-11  VARMIN  =  1.00D-07  VARMAX  =  1.00D-03
 THRDOUB =  0.00D+00  THRDIV  =  1.00D-05  THRRED  =  1.00D-07  THRPSP  =  1.00D+00  THRDC   =  1.00D-10  THRCS   =  1.00D-10
 THRNRM  =  1.00D-08  THREQ   =  0.00D+00  THRDE   =  1.00D+00  THRREF  =  1.00D-05  SPARFAC =  1.00D+00  THRDLP  =  1.00D-07
 THRDIA  =  1.00D-10  THRDLS  =  1.00D-07  THRGPS  =  0.00D+00  THRKEX  =  0.00D+00  THRDIS  =  2.00D-01  THRVAR  =  1.00D-10
 THRLOC  =  1.00D-06  THRGAP  =  1.00D-06  THRLOCT = -1.00D+00  THRGAPT = -1.00D+00  THRORB  =  1.00D-06  THRMLTP =  0.00D+00
 THRCPQCI=  1.00D-10  KEXTA   =  0.00D+00  THRCOARS=  0.00D+00  SYMTOL  =  1.00D-06  GRADTOL =  1.00D-06  THROVL  =  1.00D-08
 THRORTH =  1.00D-08  GRID    =  1.00D-06  GRIDMAX =  1.00D-03  DTMAX   =  0.00D+00  THROCCDE=  1.00D-01  THROCCDE=  1.00D-01



 Input parameters for SORTINT:

 COMPRESS =    0.000000
 C_FINAL  =    1.000000
 DEBUG    =   -1.000000
 C_SORT1  =    0.000000
 C_SEWARD =    0.000000
 THRESH   =    0.000000
 IO       =  molpro                                                          
 SPRI     =    0.000000
 SETTING GEOMTYP        =    XYZ
 ZUNIT=BOHR
 

 Variable memory set to  995000000 words,  buffer space   230000 words

 SETTING BASIS          =    VTZ-DK
 SETTING DKROLL         =     0.00000000D+00                                  


 Recomputing integrals since basis changed


 Using spherical harmonics

 Library entry N      S cc-pVTZ-DK           selected for orbital group  1
 Library entry N      P cc-pVTZ-DK           selected for orbital group  1
 Library entry N      D cc-pVTZ-DK           selected for orbital group  1
 Library entry N      F cc-pVTZ-DK           selected for orbital group  1
 Library entry C      S cc-pVTZ-DK           selected for orbital group  2
 Library entry C      P cc-pVTZ-DK           selected for orbital group  2
 Library entry C      D cc-pVTZ-DK           selected for orbital group  2
 Library entry C      F cc-pVTZ-DK           selected for orbital group  2
 Library entry H      S cc-pVTZ-DK           selected for orbital group  3
 Library entry H      P cc-pVTZ-DK           selected for orbital group  3
 Library entry H      D cc-pVTZ-DK           selected for orbital group  3


 PROGRAM * SEWARD (Integral evaluation for generally contracted gaussian basis sets)     Author: Roland Lindh, 1990

 Geometry written to block  1 of record 700


 Point group  Cs  



 ATOMIC COORDINATES

 NR  ATOM    CHARGE       X              Y              Z

   1  N       7.00   -0.004616207    0.000000000    1.124652761
   2  C       6.00    0.009611537    0.000000000   -1.054150453
   3  H       1.00   -0.004995330    0.000000000   -3.067572290

 Bond lengths in Bohr (Angstrom)

 1-2  2.178849667  2-3  2.013474821
     ( 1.152997590)     ( 1.065484990)

 Bond angles

  1-2-3  179.21020056

 NUCLEAR CHARGE:                   14
 NUMBER OF PRIMITIVE AOS:         111
 NUMBER OF SYMMETRY AOS:          100
 NUMBER OF CONTRACTIONS:           74   (  50A'  +  24A"  )
 NUMBER OF CORE ORBITALS:           2   (   2A'  +   0A"  )
 NUMBER OF VALENCE ORBITALS:        9   (   7A'  +   2A"  )


 NUCLEAR REPULSION ENERGY   23.92590736

 Eigenvalues of metric

         1 0.108E-02 0.145E-02 0.245E-02 0.632E-02 0.109E-01 0.153E-01 0.191E-01 0.292E-01
         2 0.153E-01 0.363E-01 0.608E-01 0.887E-01 0.132E+00 0.284E+00 0.292E+00 0.376E+00


 Contracted 2-electron integrals neglected if value below      1.0D-22

        1874100. INTEGRALS WRITTEN OUT IN     458 BLOCKS ON RECORD 1290 OF FILE 1


 NUMBER OF SORTED TWO-ELECTRON INTEGRALS:    2006100.     BUFFER LENGTH:  32768
 NUMBER OF SEGMENTS:   1  SEGMENT LENGTH:    2006100      RECORD LENGTH: 524288

 Memory used in sort:       2.56 MW

 SORT1 READ     1874100. AND WROTE     1914013. INTEGRALS IN      6 RECORDS. CPU TIME:     0.03 SEC, REAL TIME:     0.04 SEC
 SORT2 READ     1914013. AND WROTE     2006100. INTEGRALS IN      1 RECORDS. CPU TIME:     0.04 SEC, REAL TIME:     0.07 SEC

 FILE SIZES:   FILE 1:    50.1 MBYTE,  FILE 4:    25.2 MBYTE,   TOTAL:     75.3 MBYTE

 OPERATOR DM      FOR CENTER  0  COORDINATES:    0.000000    0.000000    0.000000


 **********************************************************************************************************************************
 DATASETS  * FILE   NREC   LENGTH (MB)   RECORD NAMES
              1      19       35.89       500      610      700      900      950      970     1000      129      960     1100   
                                          VAR    BASINP    GEOM    SYMINP    ZMAT    AOBASIS   BASIS     P2S    ABASIS      S 
                                         1400     1410     1200     1210     1080     1600     1650     1300     1700   
                                           T        V       H0       H01     AOSYM     SMH    MOLCAS    ERIS     OPER   

 PROGRAMS   *        TOTAL       INT
 CPU TIMES  *         0.59      0.50
 REAL TIME  *         1.21 SEC
 DISK USED  *        75.59 MB      
 **********************************************************************************************************************************


 PROGRAM * RHF-SCF (CLOSED SHELL)       Authors: W. Meyer, H.-J. Werner


 NUMBER OF ELECTRONS:       7+    7-
 CONVERGENCE THRESHOLDS:    1.00E-10 (Density)    1.00E-13 (Energy)
 MAX. NUMBER OF ITERATIONS:      500
 INTERPOLATION TYPE:            DIIS
 INTERPOLATION STEPS:              2 (START)      1 (STEP)
 LEVEL SHIFTS:                  0.00 (CLOSED)  0.00 (OPEN) 



 Orbital guess generated from atomic densities. Full valence occupancy:    9   2

 Molecular orbital dump at record        2100.2

 Initial occupancy:   6   1

 ITERATION    DDIFF          GRAD             ENERGY        2-EL.EN.            DIPOLE MOMENTS         DIIS   ORB.
    1      0.000D+00      0.000D+00       -92.88111678    111.975804    0.00691    0.00000   -1.76546    0    start
    2      0.000D+00      0.889D-02       -92.89013241    111.145628   -0.00246    0.00000   -0.88703    1    diag
    3      0.143D-01      0.797D-02       -92.90495332    111.661878    0.00136    0.00000   -1.29036    2    diag
    4      0.717D-02      0.643D-03       -92.90517233    111.626050    0.00101    0.00000   -1.28162    3    diag
    5      0.114D-02      0.140D-03       -92.90518453    111.636378    0.00091    0.00000   -1.28028    4    diag
    6      0.305D-03      0.389D-04       -92.90518528    111.631544    0.00089    0.00000   -1.28035    5    diag
    7      0.698D-04      0.140D-04       -92.90518535    111.632646    0.00089    0.00000   -1.28048    6    diag
    8      0.240D-04      0.268D-05       -92.90518536    111.632594    0.00089    0.00000   -1.28046    7    diag
    9      0.440D-05      0.293D-06       -92.90518536    111.632601    0.00089    0.00000   -1.28045    8    diag
   10      0.618D-06      0.313D-07       -92.90518536    111.632601    0.00089    0.00000   -1.28045    9    orth
   11      0.597D-07      0.607D-08       -92.90518536    111.632601    0.00089    0.00000   -1.28045    9    diag
   12      0.147D-07      0.267D-08       -92.90518536    111.632601    0.00089    0.00000   -1.28045    9    diag
   13      0.837D-08      0.104D-08       -92.90518536    111.632601    0.00089    0.00000   -1.28045    9    diag
   14      0.446D-08      0.273D-09       -92.90518536    111.632601    0.00089    0.00000   -1.28045    9    diag
   15      0.922D-09      0.102D-09       -92.90518536    111.632601    0.00089    0.00000   -1.28045    9    diag
   16      0.324D-09      0.142D-10       -92.90518536    111.632601    0.00089    0.00000   -1.28045    9    diag
   17      0.491D-10      0.330D-11       -92.90518536    111.632601    0.00089    0.00000   -1.28045    9    diag
   18      0.120D-10      0.130D-11       -92.90518536    111.632601    0.00089    0.00000   -1.28045    0    orth

 Final occupancy:   6   1

 !RHF STATE 1.1 Energy                -92.905185356118
 Nuclear energy                        23.92590736
 One-electron energy                 -172.64739327
 Two-electron energy                   55.81630055
 Virial quotient                       -1.00092825
 !RHF STATE 1.1 Dipole moment           0.00088869     0.00000000    -1.28045328
 Dipole moment /Debye                   0.00225867     0.00000000    -3.25437445

 Orbital energies:

         1.1          2.1          3.1          4.1          5.1          6.1          7.1          8.1
    -15.597506   -11.290457    -1.235397    -0.811797    -0.580992    -0.495622     0.141863     0.166931

         1.2          2.2          3.2
     -0.495625     0.166938     0.446453

 HOMO      6.1    -0.495622 =     -13.4866eV
 LUMO      7.1     0.141863 =       3.8603eV
 LUMO-HOMO         0.637486 =      17.3469eV


 **********************************************************************************************************************************
 DATASETS  * FILE   NREC   LENGTH (MB)   RECORD NAMES
              1      19       35.89       500      610      700      900      950      970     1000      129      960     1100   
                                          VAR    BASINP    GEOM    SYMINP    ZMAT    AOBASIS   BASIS     P2S    ABASIS      S 
                                         1400     1410     1200     1210     1080     1600     1650     1300     1700   
                                           T        V       H0       H01     AOSYM     SMH    MOLCAS    ERIS     OPER   

              2       4        2.85       700     1000      520     2100   
                                         GEOM     BASIS   MCVARS     RHF  

 PROGRAMS   *        TOTAL        HF       INT
 CPU TIMES  *         0.79      0.20      0.50
 REAL TIME  *         1.44 SEC
 DISK USED  *        75.59 MB      
 **********************************************************************************************************************************


 PROGRAM * CCSD (Closed-shell coupled cluster)     Authors: C. Hampel, H.-J. Werner, 1991, M. Deegan, P.J. Knowles, 1992


 Convergence thresholds:  THRVAR = 1.00D-08  THRDEN = 1.00D-12

 CCSD(T)     terms to be evaluated (factor= 1.000)


 Number of core orbitals:           2 (   2   0 )
 Number of closed-shell orbitals:   5 (   4   1 )
 Number of external orbitals:      67 (  44  23 )

 Molecular orbitals read from record     2100.2  Type=RHF/CANONICAL (state 1.1)

 Number of N-1 electron functions:               5
 Number of N-2 electron functions:              15
 Number of singly external CSFs:               199
 Number of doubly external CSFs:             29216
 Total number of CSFs:                       29416

 Length of J-op  integral file:               0.00 MB
 Length of K-op  integral file:               0.25 MB
 Length of 3-ext integral record:             0.00 MB

 Memory could be reduced to 1.53 Mwords without degradation in triples

 Integral transformation finished. Total CPU:   0.02 sec, npass=  1  Memory used:   0.47 MW

 Reference energy:                    -92.90518536

 MP2 singlet pair energy:              -0.21795205
 MP2 triplet pair energy:              -0.12715808
 MP2 correlation energy:               -0.34511013
 MP2 total energy:                    -93.25029549

 SCS-MP2 correlation energy:           -0.34066305   (PS=  1.200000  PT=  0.333333)
 SCS-MP2 total energy:                -93.24584840

 ITER.      SQ.NORM     CORR.ENERGY   TOTAL ENERGY   ENERGY CHANGE        DEN1      VAR(S)    VAR(P)  DIIS     TIME  TIME/IT
   1      1.11463101    -0.34846756   -93.25365291    -0.00335742     0.00942219  0.25D-02  0.30D-02  1  1     0.06     0.03
   2      1.12417961    -0.34884072   -93.25402608    -0.00037317    -0.01003759  0.49D-04  0.41D-03  2  2     0.08     0.03
   3      1.12920070    -0.34906398   -93.25424933    -0.00022325    -0.00252149  0.12D-04  0.41D-04  3  3     0.11     0.03
   4      1.13128539    -0.34915936   -93.25434472    -0.00009538    -0.00075637  0.28D-06  0.44D-05  4  4     0.14     0.03
   5      1.13173940    -0.34915567   -93.25434103     0.00000369    -0.00012728  0.10D-06  0.39D-06  5  5     0.17     0.03
   6      1.13183414    -0.34915472   -93.25434008     0.00000095    -0.00002501  0.85D-08  0.28D-07  6  6     0.20     0.03
   7      1.13184177    -0.34915696   -93.25434232    -0.00000224    -0.00000227  0.59D-09  0.24D-08  6  1     0.23     0.03
   8      1.13184222    -0.34915745   -93.25434280    -0.00000049     0.00000067  0.43D-10  0.14D-09  6  2     0.25     0.03
   9      1.13184287    -0.34915748   -93.25434283    -0.00000003    -0.00000037  0.42D-11  0.96D-11  6  3     0.28     0.03
  10      1.13184282    -0.34915749   -93.25434285    -0.00000002     0.00000009  0.31D-12  0.98D-12  6  4     0.30     0.03
  11      1.13184278    -0.34915750   -93.25434285    -0.00000000     0.00000001  0.75D-13  0.96D-13  6  5     0.33     0.03
  12      1.13184273    -0.34915750   -93.25434286    -0.00000000     0.00000002  0.67D-14  0.21D-13  6  6     0.36     0.03
  13      1.13184269    -0.34915750   -93.25434286    -0.00000000     0.00000001  0.21D-14  0.20D-14  6  2     0.39     0.03
  14      1.13184268    -0.34915750   -93.25434286    -0.00000000     0.00000000  0.14D-15  0.12D-15  6  1     0.41     0.03
  15      1.13184268    -0.34915750   -93.25434286     0.00000000     0.00000000  0.36D-16  0.15D-16  6  4     0.43     0.03
  16      1.13184268    -0.34915750   -93.25434286    -0.00000000     0.00000000  0.66D-17  0.24D-17  6  3     0.46     0.03
  17      1.13184268    -0.34915750   -93.25434286    -0.00000000    -0.00000000  0.10D-17  0.51D-18  6  5     0.49     0.03
  18      1.13184268    -0.34915750   -93.25434286     0.00000000    -0.00000000  0.52D-19  0.55D-19  6  2     0.51     0.03
  19      1.13184268    -0.34915750   -93.25434286     0.00000000    -0.00000000  0.19D-20  0.40D-20  6  6     0.54     0.03
  20      1.13184268    -0.34915750   -93.25434286     0.00000000    -0.00000000  0.15D-21  0.57D-21  6  1     0.56     0.03
  21      1.13184268    -0.34915750   -93.25434286    -0.00000000    -0.00000000  0.17D-22  0.10D-21  6  4     0.59     0.03

 Norm of t1 vector:      0.06360254      S-energy:     0.00000000      T1 diagnostic:  0.01422196
                                                                       D1 diagnostic:  0.02863643

 Doubles amplitudes (print threshold =  0.500E-01):

         I         J         SYM. A    SYM. B    A         B      T(IJ, AB)

         4         4         1         1         2         2     -0.08683944
         5         5         2         2         1         1     -0.08693698
         5         4         2         1         1         2     -0.05446915


 Total CPU time for triples:      0.15 sec


 RESULTS
 =======

  Reference energy                    -92.905185356118
  CCSD singlet pair energy             -0.242757318088
  CCSD triplet pair energy             -0.106400185075
  CCSD correlation energy              -0.349157503163

  Triples (T) contribution             -0.017859367668
  Total correlation energy             -0.367016870831

  CCSD total energy                   -93.254342859281
  CCSD[T] energy                      -93.273021063781
  CCSD-T energy                       -93.271793201205
 !CCSD(T) total energy                -93.272202226949

 Timing summary (sec):

 STEP                 CPU(USER)    SYS     CPU(TOT)    WALL
 Transformation          0.02      0.01      0.03      0.04
 CCSD iterations         0.57      0.07      0.64      0.65
 Triples                 0.15      0.00      0.15      0.14

 Program statistics:

 Available memory in ccsd:               994999800
 Min. memory needed in ccsd:                125648
 Max. memory used in ccsd:                  146560
 Max. memory used in cckext:                201693 (21 integral passes)



 **********************************************************************************************************************************
 DATASETS  * FILE   NREC   LENGTH (MB)   RECORD NAMES
              1      20       39.60       500      610      700      900      950      970     1000      129      960     1100   
                                          VAR    BASINP    GEOM    SYMINP    ZMAT    AOBASIS   BASIS     P2S    ABASIS      S 
                                         1400     1410     1200     1210     1080     1600     1650     1300     1700     1380   
                                           T        V       H0       H01     AOSYM     SMH    MOLCAS    ERIS     OPER     JKOP   

              2       4        2.85       700     1000      520     2100   
                                         GEOM     BASIS   MCVARS     RHF  

 PROGRAMS   *        TOTAL   CCSD(T)        HF       INT
 CPU TIMES  *         1.55      0.76      0.20      0.50
 REAL TIME  *         2.29 SEC
 DISK USED  *        75.59 MB      
 **********************************************************************************************************************************

 CCSD(T)/cc-pVTZ-DK energy=    -93.272202226949

        CCSD(T)         HF-SCF  
    -93.27220223    -92.90518536
 **********************************************************************************************************************************
 Molpro calculation terminated
 Variable memory released
