
 Primary working directories    : /tmp/r2666/232562.maple
 Secondary working directories  : /tmp/r2666/232562.maple
 Wavefunction directory         : /ddn/home4/r2666/wfu/
 Main file repository           : /tmp/r2666/232562.maple/

 SHA1      : d5ffa45e93fdbca01ffc919aa182cfdae0147319
 NAME      : 2015.1.35
 ARCHNAME  : linux/x86_64
 FC        : /opt/intel/composer_xe_2015.1.133/bin/intel64/ifort
 BLASLIB   : -Wl,-_start-group /opt/intel/mkl/lib/intel64/libmkl_intel_ilp64.a /opt/intel/mkl/lib/intel64/libmkl_intel_thread.a /opt/intel/mkl/lib/intel64/libmkl_core.a -Wl,-_end-group
 id        : olemiss

 Nodes     nprocs
 cn090        1

 Using customized tuning parameters: mindgm=1; mindgv=20; mindgc=4; mindgr=1; noblas=0; minvec=7
 default implementation of scratch files=df  

 ***,hcn CCSD(T)/TZ-F12 QFF
 memory, 995, m;
 gthresh,energy=1.d-12,zero=1.d-22,oneint=1.d-22,twoint=1.d-22;
 gthresh,optgrad=1.d-8,optstep=1.d-8;
 nocompress;
 geomtyp=xyz
 bohr
 geometry={
 3
          6         6
 N        0.0000000000        0.0000000000        1.1089536744
 C        0.0000000000        0.0000000000       -1.0509987327
 H        0.0000000000        0.0000000000       -3.0550249237
 }
 
 basis=vtz-dk
 dkroll=0
   {hf,maxit=500;accu,20;}
 {ccsd(t),nocheck,maxit=250;orbital,IGNORE_ERROR;}

 Variables initialized (889), CPU time= 0.01 sec
 Commands  initialized (702), CPU time= 0.01 sec, 572 directives.
 Default parameters read. Elapsed time= 0.10 sec

 Checking input...
 Passed
1


                                         ***  PROGRAM SYSTEM MOLPRO  ***
                                       Copyright, TTI GmbH Stuttgart, 2015
                                    Version 2015.1 linked Jul  9 2018 13:16:40


 **********************************************************************************************************************************
 LABEL *   hcn CCSD(T)/TZ-F12 QFF                                                        
  64 bit serial version                                                                  DATE: 06-Feb-20          TIME: 09:54:31  
 **********************************************************************************************************************************

 SHA1:             d5ffa45e93fdbca01ffc919aa182cfdae0147319
 **********************************************************************************************************************************

 THRESHOLDS:

 ZERO    =  1.00D-22  ONEINT  =  1.00D-22  TWOINT  =  1.00D-22  PREFAC  =  1.00D-14  LOCALI  =  1.00D-09  EORDER  =  1.00D-04
 ENERGY  =  1.00D-12  ETEST   =  0.00D+00  EDENS   =  0.00D+00  THRDEDEF=  1.00D-06  GRADIENT=  1.00D-02  STEP    =  1.00D-03
 ORBITAL =  1.00D-05  CIVEC   =  1.00D-05  COEFF   =  1.00D-04  PRINTCI =  5.00D-02  PUNCHCI =  9.90D+01  OPTGRAD =  3.00D-04
 OPTENERG=  1.00D-06  OPTSTEP =  3.00D-04  THRGRAD =  1.00D-10  COMPRESS=  1.00D-11  VARMIN  =  1.00D-07  VARMAX  =  1.00D-03
 THRDOUB =  0.00D+00  THRDIV  =  1.00D-05  THRRED  =  1.00D-07  THRPSP  =  1.00D+00  THRDC   =  1.00D-10  THRCS   =  1.00D-10
 THRNRM  =  1.00D-08  THREQ   =  0.00D+00  THRDE   =  1.00D+00  THRREF  =  1.00D-05  SPARFAC =  1.00D+00  THRDLP  =  1.00D-07
 THRDIA  =  1.00D-10  THRDLS  =  1.00D-07  THRGPS  =  0.00D+00  THRKEX  =  0.00D+00  THRDIS  =  2.00D-01  THRVAR  =  1.00D-10
 THRLOC  =  1.00D-06  THRGAP  =  1.00D-06  THRLOCT = -1.00D+00  THRGAPT = -1.00D+00  THRORB  =  1.00D-06  THRMLTP =  0.00D+00
 THRCPQCI=  1.00D-10  KEXTA   =  0.00D+00  THRCOARS=  0.00D+00  SYMTOL  =  1.00D-06  GRADTOL =  1.00D-06  THROVL  =  1.00D-08
 THRORTH =  1.00D-08  GRID    =  1.00D-06  GRIDMAX =  1.00D-03  DTMAX   =  0.00D+00  THROCCDE=  1.00D-01  THROCCDE=  1.00D-01



 THRESHOLDS:

 ZERO    =  1.00D-22  ONEINT  =  1.00D-22  TWOINT  =  1.00D-22  PREFAC  =  1.00D-14  LOCALI  =  1.00D-09  EORDER  =  1.00D-04
 ENERGY  =  1.00D-12  ETEST   =  0.00D+00  EDENS   =  0.00D+00  THRDEDEF=  1.00D-06  GRADIENT=  1.00D-02  STEP    =  1.00D-03
 ORBITAL =  1.00D-05  CIVEC   =  1.00D-05  COEFF   =  1.00D-04  PRINTCI =  5.00D-02  PUNCHCI =  9.90D+01  OPTGRAD =  1.00D-08
 OPTENERG=  1.00D-06  OPTSTEP =  1.00D-08  THRGRAD =  1.00D-10  COMPRESS=  1.00D-11  VARMIN  =  1.00D-07  VARMAX  =  1.00D-03
 THRDOUB =  0.00D+00  THRDIV  =  1.00D-05  THRRED  =  1.00D-07  THRPSP  =  1.00D+00  THRDC   =  1.00D-10  THRCS   =  1.00D-10
 THRNRM  =  1.00D-08  THREQ   =  0.00D+00  THRDE   =  1.00D+00  THRREF  =  1.00D-05  SPARFAC =  1.00D+00  THRDLP  =  1.00D-07
 THRDIA  =  1.00D-10  THRDLS  =  1.00D-07  THRGPS  =  0.00D+00  THRKEX  =  0.00D+00  THRDIS  =  2.00D-01  THRVAR  =  1.00D-10
 THRLOC  =  1.00D-06  THRGAP  =  1.00D-06  THRLOCT = -1.00D+00  THRGAPT = -1.00D+00  THRORB  =  1.00D-06  THRMLTP =  0.00D+00
 THRCPQCI=  1.00D-10  KEXTA   =  0.00D+00  THRCOARS=  0.00D+00  SYMTOL  =  1.00D-06  GRADTOL =  1.00D-06  THROVL  =  1.00D-08
 THRORTH =  1.00D-08  GRID    =  1.00D-06  GRIDMAX =  1.00D-03  DTMAX   =  0.00D+00  THROCCDE=  1.00D-01  THROCCDE=  1.00D-01



 Input parameters for SORTINT:

 COMPRESS =    0.000000
 C_FINAL  =    1.000000
 DEBUG    =   -1.000000
 C_SORT1  =    0.000000
 C_SEWARD =    0.000000
 THRESH   =    0.000000
 IO       =  molpro                                                          
 SPRI     =    0.000000
 SETTING GEOMTYP        =    XYZ
 ZUNIT=BOHR
 

 Variable memory set to  995000000 words,  buffer space   230000 words

 SETTING BASIS          =    VTZ-DK
 SETTING DKROLL         =     0.00000000D+00                                  


 Recomputing integrals since basis changed


 Using spherical harmonics

 Library entry N      S cc-pVTZ-DK           selected for orbital group  1
 Library entry N      P cc-pVTZ-DK           selected for orbital group  1
 Library entry N      D cc-pVTZ-DK           selected for orbital group  1
 Library entry N      F cc-pVTZ-DK           selected for orbital group  1
 Library entry C      S cc-pVTZ-DK           selected for orbital group  2
 Library entry C      P cc-pVTZ-DK           selected for orbital group  2
 Library entry C      D cc-pVTZ-DK           selected for orbital group  2
 Library entry C      F cc-pVTZ-DK           selected for orbital group  2
 Library entry H      S cc-pVTZ-DK           selected for orbital group  3
 Library entry H      P cc-pVTZ-DK           selected for orbital group  3
 Library entry H      D cc-pVTZ-DK           selected for orbital group  3


 PROGRAM * SEWARD (Integral evaluation for generally contracted gaussian basis sets)     Author: Roland Lindh, 1990

 Geometry written to block  1 of record 700


 Point group  C2v 



 ATOMIC COORDINATES

 NR  ATOM    CHARGE       X              Y              Z

   1  N       7.00    0.000000000    0.000000000    1.108953674
   2  C       6.00    0.000000000    0.000000000   -1.050998733
   3  H       1.00    0.000000000    0.000000000   -3.055024924

 Bond lengths in Bohr (Angstrom)

 1-2  2.159952407  2-3  2.004026191
     ( 1.142997591)     ( 1.060484990)

 Bond angles

  1-2-3  179.99999879

 NUCLEAR CHARGE:                   14
 NUMBER OF PRIMITIVE AOS:         111
 NUMBER OF SYMMETRY AOS:          100
 NUMBER OF CONTRACTIONS:           74   (  33A1  +  17B1  +  17B2  +   7A2  )
 NUMBER OF CORE ORBITALS:           2   (   2A1  +   0B1  +   0B2  +   0A2  )
 NUMBER OF VALENCE ORBITALS:        9   (   5A1  +   2B1  +   2B2  +   0A2  )


 NUCLEAR REPULSION ENERGY   24.11993026

 EXTRA SYMMETRY OF AOS IN SYMMETRY 1:   1 1 1 1 1 1 1 1 2 1   2 1 2 1 1 1 1 1 1 1   1 2 1 2 1 2 1 1 1 1   1 1 2
 EXTRA SYMMETRY OF AOS IN SYMMETRY 2:   1 1 1 1 1 1 2 1 1 1   1 1 1 2 1 1 1
 EXTRA SYMMETRY OF AOS IN SYMMETRY 3:   1 1 1 1 1 1 2 1 1 1   1 1 1 2 1 1 1

 Eigenvalues of metric

         1 0.107E-02 0.142E-02 0.241E-02 0.619E-02 0.108E-01 0.185E-01 0.290E-01 0.468E-01
         2 0.147E-01 0.360E-01 0.604E-01 0.863E-01 0.131E+00 0.278E+00 0.371E+00 0.430E+00
         3 0.147E-01 0.360E-01 0.604E-01 0.863E-01 0.131E+00 0.278E+00 0.371E+00 0.430E+00
         4 0.287E+00 0.448E+00 0.572E+00 0.840E+00 0.125E+01 0.156E+01 0.204E+01


 Contracted 2-electron integrals neglected if value below      1.0D-22

         875300. INTEGRALS WRITTEN OUT IN     214 BLOCKS ON RECORD 1290 OF FILE 1


 NUMBER OF SORTED TWO-ELECTRON INTEGRALS:    1039939.     BUFFER LENGTH:  32768
 NUMBER OF SEGMENTS:   1  SEGMENT LENGTH:    1039939      RECORD LENGTH: 524288

 Memory used in sort:       1.60 MW

 SORT1 READ      875300. AND WROTE      911605. INTEGRALS IN      3 RECORDS. CPU TIME:     0.03 SEC, REAL TIME:     0.04 SEC
 SORT2 READ      911605. AND WROTE     1039939. INTEGRALS IN      1 RECORDS. CPU TIME:     0.04 SEC, REAL TIME:     0.05 SEC

 FILE SIZES:   FILE 1:    34.1 MBYTE,  FILE 4:    12.6 MBYTE,   TOTAL:     46.7 MBYTE

 OPERATOR DM      FOR CENTER  0  COORDINATES:    0.000000    0.000000    0.000000


 **********************************************************************************************************************************
 DATASETS  * FILE   NREC   LENGTH (MB)   RECORD NAMES
              1      19       27.60       500      610      700      900      950      970     1000      129      960     1100   
                                          VAR    BASINP    GEOM    SYMINP    ZMAT    AOBASIS   BASIS     P2S    ABASIS      S 
                                         1400     1410     1200     1210     1080     1600     1650     1300     1700   
                                           T        V       H0       H01     AOSYM     SMH    MOLCAS    ERIS     OPER   

 PROGRAMS   *        TOTAL       INT
 CPU TIMES  *         0.65      0.54
 REAL TIME  *         2.90 SEC
 DISK USED  *        47.00 MB      
 **********************************************************************************************************************************


 PROGRAM * RHF-SCF (CLOSED SHELL)       Authors: W. Meyer, H.-J. Werner


 NUMBER OF ELECTRONS:       7+    7-
 CONVERGENCE THRESHOLDS:    1.00E-10 (Density)    1.00E-13 (Energy)
 MAX. NUMBER OF ITERATIONS:      500
 INTERPOLATION TYPE:            DIIS
 INTERPOLATION STEPS:              2 (START)      1 (STEP)
 LEVEL SHIFTS:                  0.00 (CLOSED)  0.00 (OPEN) 



 Orbital guess generated from atomic densities. Full valence occupancy:    7   2   2   0

 Molecular orbital dump at record        2100.2

 Initial occupancy:   5   1   1   0

 ITERATION    DDIFF          GRAD             ENERGY        2-EL.EN.            DIPOLE MOMENTS         DIIS   ORB.
    1      0.000D+00      0.000D+00       -92.88257262    112.398292    0.00000    0.00000   -1.75193    0    start
    2      0.000D+00      0.115D-01       -92.89199703    111.512616    0.00000    0.00000   -0.89578    1    diag
    3      0.189D-01      0.101D-01       -92.90620986    112.033497    0.00000    0.00000   -1.28547    2    diag
    4      0.940D-02      0.823D-03       -92.90642401    112.003660    0.00000    0.00000   -1.27673    3    diag
    5      0.150D-02      0.173D-03       -92.90643559    112.010832    0.00000    0.00000   -1.27535    4    diag
    6      0.400D-03      0.467D-04       -92.90643619    112.006838    0.00000    0.00000   -1.27555    5    diag
    7      0.832D-04      0.163D-04       -92.90643625    112.007980    0.00000    0.00000   -1.27564    6    diag
    8      0.286D-04      0.321D-05       -92.90643625    112.007918    0.00000    0.00000   -1.27562    7    diag
    9      0.534D-05      0.356D-06       -92.90643625    112.007925    0.00000    0.00000   -1.27562    8    diag
   10      0.768D-06      0.378D-07       -92.90643625    112.007925    0.00000    0.00000   -1.27562    9    orth
   11      0.736D-07      0.465D-08       -92.90643625    112.007925    0.00000    0.00000   -1.27562    9    diag
   12      0.127D-07      0.463D-09       -92.90643625    112.007925    0.00000    0.00000   -1.27562    9    diag
   13      0.186D-08      0.567D-10       -92.90643625    112.007925    0.00000    0.00000   -1.27562    9    diag
   14      0.248D-09      0.100D-10       -92.90643625    112.007925    0.00000    0.00000   -1.27562    9    diag
   15      0.546D-10      0.185D-11       -92.90643625    112.007925    0.00000    0.00000   -1.27562    0    orth

 Final occupancy:   5   1   1   0

 !RHF STATE 1.1 Energy                -92.906436254889
 Nuclear energy                        24.11993026
 One-electron energy                 -173.03032926
 Two-electron energy                   56.00396274
 Virial quotient                       -1.00025961
 !RHF STATE 1.1 Dipole moment           0.00000000     0.00000000    -1.27561531
 Dipole moment /Debye                   0.00000000     0.00000000    -3.24207837

 Orbital energies:

         1.1          2.1          3.1          4.1          5.1          6.1          7.1
    -15.594032   -11.286494    -1.240191    -0.812301    -0.580644     0.142731     0.241455

         1.2          2.2          3.2
     -0.498770     0.170097     0.446296

         1.3          2.3          3.3
     -0.498770     0.170097     0.446296

         1.4          2.4
      0.810453     1.422972

 HOMO      1.2    -0.498770 =     -13.5722eV
 LUMO      6.1     0.142731 =       3.8839eV
 LUMO-HOMO         0.641501 =      17.4561eV


 **********************************************************************************************************************************
 DATASETS  * FILE   NREC   LENGTH (MB)   RECORD NAMES
              1      19       27.60       500      610      700      900      950      970     1000      129      960     1100   
                                          VAR    BASINP    GEOM    SYMINP    ZMAT    AOBASIS   BASIS     P2S    ABASIS      S 
                                         1400     1410     1200     1210     1080     1600     1650     1300     1700   
                                           T        V       H0       H01     AOSYM     SMH    MOLCAS    ERIS     OPER   

              2       4        2.82       700     1000      520     2100   
                                         GEOM     BASIS   MCVARS     RHF  

 PROGRAMS   *        TOTAL        HF       INT
 CPU TIMES  *         0.72      0.07      0.54
 REAL TIME  *         3.02 SEC
 DISK USED  *        47.00 MB      
 **********************************************************************************************************************************


 PROGRAM * CCSD (Closed-shell coupled cluster)     Authors: C. Hampel, H.-J. Werner, 1991, M. Deegan, P.J. Knowles, 1992


 Convergence thresholds:  THRVAR = 1.00D-08  THRDEN = 1.00D-12

 CCSD(T)     terms to be evaluated (factor= 1.000)


 Number of core orbitals:           2 (   2   0   0   0 )
 Number of closed-shell orbitals:   5 (   3   1   1   0 )
 Number of external orbitals:      67 (  28  16  16   7 )

 Molecular orbitals read from record     2100.2  Type=RHF/CANONICAL (state 1.1)

 Number of N-1 electron functions:               5
 Number of N-2 electron functions:              15
 Number of singly external CSFs:               116
 Number of doubly external CSFs:             15189
 Total number of CSFs:                       15306

 Length of J-op  integral file:               0.00 MB
 Length of K-op  integral file:               0.15 MB
 Length of 3-ext integral record:             0.00 MB

 Memory could be reduced to 0.93 Mwords without degradation in triples

 Integral transformation finished. Total CPU:   0.01 sec, npass=  1  Memory used:   0.18 MW

 Reference energy:                    -92.90643625

 MP2 singlet pair energy:              -0.21680024
 MP2 triplet pair energy:              -0.12628270
 MP2 correlation energy:               -0.34308294
 MP2 total energy:                    -93.24951919

 SCS-MP2 correlation energy:           -0.33873619   (PS=  1.200000  PT=  0.333333)
 SCS-MP2 total energy:                -93.24517244

 ITER.      SQ.NORM     CORR.ENERGY   TOTAL ENERGY   ENERGY CHANGE        DEN1      VAR(S)    VAR(P)  DIIS     TIME  TIME/IT
   1      1.11329996    -0.34694022   -93.25337648    -0.00385729     0.00851608  0.24D-02  0.28D-02  1  1     0.05     0.03
   2      1.12259010    -0.34738332   -93.25381958    -0.00044310    -0.00980438  0.46D-04  0.40D-03  2  2     0.06     0.02
   3      1.12740190    -0.34759490   -93.25403115    -0.00021157    -0.00244295  0.12D-04  0.39D-04  3  3     0.07     0.02
   4      1.12937146    -0.34768348   -93.25411973    -0.00008858    -0.00072301  0.27D-06  0.40D-05  4  4     0.09     0.02
   5      1.12979401    -0.34767961   -93.25411586     0.00000387    -0.00011999  0.96D-07  0.34D-06  5  5     0.10     0.02
   6      1.12987864    -0.34767887   -93.25411512     0.00000074    -0.00002253  0.74D-08  0.25D-07  6  6     0.11     0.02
   7      1.12988547    -0.34768088   -93.25411713    -0.00000201    -0.00000209  0.56D-09  0.21D-08  6  1     0.13     0.02
   8      1.12988586    -0.34768133   -93.25411758    -0.00000045     0.00000064  0.43D-10  0.12D-09  6  2     0.14     0.02
   9      1.12988644    -0.34768136   -93.25411761    -0.00000003    -0.00000034  0.31D-11  0.85D-11  6  3     0.15     0.02
  10      1.12988640    -0.34768137   -93.25411763    -0.00000001     0.00000008  0.33D-12  0.82D-12  6  4     0.17     0.02
  11      1.12988637    -0.34768137   -93.25411763    -0.00000000     0.00000001  0.35D-13  0.93D-13  6  5     0.18     0.02
  12      1.12988632    -0.34768138   -93.25411763    -0.00000000     0.00000002  0.36D-14  0.18D-13  6  6     0.20     0.02
  13      1.12988629    -0.34768138   -93.25411763    -0.00000000     0.00000001  0.81D-15  0.18D-14  6  2     0.22     0.02
  14      1.12988628    -0.34768138   -93.25411763    -0.00000000     0.00000000  0.32D-16  0.83D-16  6  1     0.23     0.02
  15      1.12988628    -0.34768138   -93.25411763    -0.00000000     0.00000000  0.70D-17  0.11D-16  6  3     0.25     0.02
  16      1.12988628    -0.34768138   -93.25411763    -0.00000000     0.00000000  0.48D-18  0.87D-18  6  4     0.26     0.02
  17      1.12988628    -0.34768138   -93.25411763    -0.00000000     0.00000000  0.22D-18  0.74D-19  6  5     0.28     0.02
  18      1.12988628    -0.34768138   -93.25411763     0.00000000    -0.00000000  0.12D-19  0.14D-19  6  6     0.30     0.02
  19      1.12988628    -0.34768138   -93.25411763     0.00000000    -0.00000000  0.34D-20  0.13D-20  6  2     0.31     0.02

 Norm of t1 vector:      0.06221458      S-energy:    -0.00000000      T1 diagnostic:  0.01391160
                                                                       D1 diagnostic:  0.02797784

 Doubles amplitudes (print threshold =  0.500E-01):

         I         J         SYM. A    SYM. B    A         B      T(IJ, AB)

         4         4         2         2         1         1     -0.08486337
         5         5         3         3         1         1     -0.08486337
         5         4         3         2         1         1     -0.05340722


 Total CPU time for triples:      0.07 sec


 RESULTS
 =======

  Reference energy                    -92.906436254889
  CCSD singlet pair energy             -0.241507175026
  CCSD triplet pair energy             -0.106174204154
  CCSD correlation energy              -0.347681379181

  Triples (T) contribution             -0.017535688805
  Total correlation energy             -0.365217067986

  CCSD total energy                   -93.254117634070
  CCSD[T] energy                      -93.272433123212
  CCSD-T energy                       -93.271260984335
 !CCSD(T) total energy                -93.271653322875

 Timing summary (sec):

 STEP                 CPU(USER)    SYS     CPU(TOT)    WALL
 Transformation          0.01      0.01      0.02      0.10
 CCSD iterations         0.30      0.05      0.35      0.36
 Triples                 0.07      0.00      0.07      0.06

 Program statistics:

 Available memory in ccsd:               994999800
 Min. memory needed in ccsd:                 67993
 Max. memory used in ccsd:                   79450
 Max. memory used in cckext:                107513 (19 integral passes)



 **********************************************************************************************************************************
 DATASETS  * FILE   NREC   LENGTH (MB)   RECORD NAMES
              1      20       29.54       500      610      700      900      950      970     1000      129      960     1100   
                                          VAR    BASINP    GEOM    SYMINP    ZMAT    AOBASIS   BASIS     P2S    ABASIS      S 
                                         1400     1410     1200     1210     1080     1600     1650     1300     1700     1380   
                                           T        V       H0       H01     AOSYM     SMH    MOLCAS    ERIS     OPER     JKOP   

              2       4        2.82       700     1000      520     2100   
                                         GEOM     BASIS   MCVARS     RHF  

 PROGRAMS   *        TOTAL   CCSD(T)        HF       INT
 CPU TIMES  *         1.16      0.43      0.07      0.54
 REAL TIME  *         5.05 SEC
 DISK USED  *        47.00 MB      
 **********************************************************************************************************************************

 CCSD(T)/cc-pVTZ-DK energy=    -93.271653322875

        CCSD(T)         HF-SCF  
    -93.27165332    -92.90643625
 **********************************************************************************************************************************
 Molpro calculation terminated
 Variable memory released
