
 Primary working directories    : /tmp/r2666/232564.maple
 Secondary working directories  : /tmp/r2666/232564.maple
 Wavefunction directory         : /ddn/home4/r2666/wfu/
 Main file repository           : /tmp/r2666/232564.maple/

 SHA1      : d5ffa45e93fdbca01ffc919aa182cfdae0147319
 NAME      : 2015.1.35
 ARCHNAME  : linux/x86_64
 FC        : /opt/intel/composer_xe_2015.1.133/bin/intel64/ifort
 BLASLIB   : -Wl,-_start-group /opt/intel/mkl/lib/intel64/libmkl_intel_ilp64.a /opt/intel/mkl/lib/intel64/libmkl_intel_thread.a /opt/intel/mkl/lib/intel64/libmkl_core.a -Wl,-_end-group
 id        : olemiss

 Nodes     nprocs
 cn080        1

 Using customized tuning parameters: mindgm=1; mindgv=20; mindgc=4; mindgr=1; noblas=0; minvec=7
 default implementation of scratch files=df  

 ***,hcn CCSD(T)/TZ-F12 QFF
 memory, 995, m;
 gthresh,energy=1.d-12,zero=1.d-22,oneint=1.d-22,twoint=1.d-22;
 gthresh,optgrad=1.d-8,optstep=1.d-8;
 nocompress;
 geomtyp=xyz
 bohr
 geometry={
 3
          8         8
 N       -0.0045970670       -0.0000001292        1.1120547195
 C        0.0095718652        0.0000000034       -1.0478512142
 H       -0.0049747982        0.0000001259       -3.0612734872
 }
 
 basis=vtz-dk
 dkroll=0
   {hf,maxit=500;accu,20;}
 {ccsd(t),nocheck,maxit=250;orbital,IGNORE_ERROR;}

 Variables initialized (889), CPU time= 0.01 sec
 Commands  initialized (702), CPU time= 0.01 sec, 572 directives.
 Default parameters read. Elapsed time= 0.04 sec

 Checking input...
 Passed
1


                                         ***  PROGRAM SYSTEM MOLPRO  ***
                                       Copyright, TTI GmbH Stuttgart, 2015
                                    Version 2015.1 linked Jul  9 2018 13:16:40


 **********************************************************************************************************************************
 LABEL *   hcn CCSD(T)/TZ-F12 QFF                                                        
  64 bit serial version                                                                  DATE: 06-Feb-20          TIME: 09:54:31  
 **********************************************************************************************************************************

 SHA1:             d5ffa45e93fdbca01ffc919aa182cfdae0147319
 **********************************************************************************************************************************

 THRESHOLDS:

 ZERO    =  1.00D-22  ONEINT  =  1.00D-22  TWOINT  =  1.00D-22  PREFAC  =  1.00D-14  LOCALI  =  1.00D-09  EORDER  =  1.00D-04
 ENERGY  =  1.00D-12  ETEST   =  0.00D+00  EDENS   =  0.00D+00  THRDEDEF=  1.00D-06  GRADIENT=  1.00D-02  STEP    =  1.00D-03
 ORBITAL =  1.00D-05  CIVEC   =  1.00D-05  COEFF   =  1.00D-04  PRINTCI =  5.00D-02  PUNCHCI =  9.90D+01  OPTGRAD =  3.00D-04
 OPTENERG=  1.00D-06  OPTSTEP =  3.00D-04  THRGRAD =  1.00D-10  COMPRESS=  1.00D-11  VARMIN  =  1.00D-07  VARMAX  =  1.00D-03
 THRDOUB =  0.00D+00  THRDIV  =  1.00D-05  THRRED  =  1.00D-07  THRPSP  =  1.00D+00  THRDC   =  1.00D-10  THRCS   =  1.00D-10
 THRNRM  =  1.00D-08  THREQ   =  0.00D+00  THRDE   =  1.00D+00  THRREF  =  1.00D-05  SPARFAC =  1.00D+00  THRDLP  =  1.00D-07
 THRDIA  =  1.00D-10  THRDLS  =  1.00D-07  THRGPS  =  0.00D+00  THRKEX  =  0.00D+00  THRDIS  =  2.00D-01  THRVAR  =  1.00D-10
 THRLOC  =  1.00D-06  THRGAP  =  1.00D-06  THRLOCT = -1.00D+00  THRGAPT = -1.00D+00  THRORB  =  1.00D-06  THRMLTP =  0.00D+00
 THRCPQCI=  1.00D-10  KEXTA   =  0.00D+00  THRCOARS=  0.00D+00  SYMTOL  =  1.00D-06  GRADTOL =  1.00D-06  THROVL  =  1.00D-08
 THRORTH =  1.00D-08  GRID    =  1.00D-06  GRIDMAX =  1.00D-03  DTMAX   =  0.00D+00  THROCCDE=  1.00D-01  THROCCDE=  1.00D-01



 THRESHOLDS:

 ZERO    =  1.00D-22  ONEINT  =  1.00D-22  TWOINT  =  1.00D-22  PREFAC  =  1.00D-14  LOCALI  =  1.00D-09  EORDER  =  1.00D-04
 ENERGY  =  1.00D-12  ETEST   =  0.00D+00  EDENS   =  0.00D+00  THRDEDEF=  1.00D-06  GRADIENT=  1.00D-02  STEP    =  1.00D-03
 ORBITAL =  1.00D-05  CIVEC   =  1.00D-05  COEFF   =  1.00D-04  PRINTCI =  5.00D-02  PUNCHCI =  9.90D+01  OPTGRAD =  1.00D-08
 OPTENERG=  1.00D-06  OPTSTEP =  1.00D-08  THRGRAD =  1.00D-10  COMPRESS=  1.00D-11  VARMIN  =  1.00D-07  VARMAX  =  1.00D-03
 THRDOUB =  0.00D+00  THRDIV  =  1.00D-05  THRRED  =  1.00D-07  THRPSP  =  1.00D+00  THRDC   =  1.00D-10  THRCS   =  1.00D-10
 THRNRM  =  1.00D-08  THREQ   =  0.00D+00  THRDE   =  1.00D+00  THRREF  =  1.00D-05  SPARFAC =  1.00D+00  THRDLP  =  1.00D-07
 THRDIA  =  1.00D-10  THRDLS  =  1.00D-07  THRGPS  =  0.00D+00  THRKEX  =  0.00D+00  THRDIS  =  2.00D-01  THRVAR  =  1.00D-10
 THRLOC  =  1.00D-06  THRGAP  =  1.00D-06  THRLOCT = -1.00D+00  THRGAPT = -1.00D+00  THRORB  =  1.00D-06  THRMLTP =  0.00D+00
 THRCPQCI=  1.00D-10  KEXTA   =  0.00D+00  THRCOARS=  0.00D+00  SYMTOL  =  1.00D-06  GRADTOL =  1.00D-06  THROVL  =  1.00D-08
 THRORTH =  1.00D-08  GRID    =  1.00D-06  GRIDMAX =  1.00D-03  DTMAX   =  0.00D+00  THROCCDE=  1.00D-01  THROCCDE=  1.00D-01



 Input parameters for SORTINT:

 COMPRESS =    0.000000
 C_FINAL  =    1.000000
 DEBUG    =   -1.000000
 C_SORT1  =    0.000000
 C_SEWARD =    0.000000
 THRESH   =    0.000000
 IO       =  molpro                                                          
 SPRI     =    0.000000
 SETTING GEOMTYP        =    XYZ
 ZUNIT=BOHR
 

 Variable memory set to  995000000 words,  buffer space   230000 words

 SETTING BASIS          =    VTZ-DK
 SETTING DKROLL         =     0.00000000D+00                                  


 Recomputing integrals since basis changed


 Using spherical harmonics

 Library entry N      S cc-pVTZ-DK           selected for orbital group  1
 Library entry N      P cc-pVTZ-DK           selected for orbital group  1
 Library entry N      D cc-pVTZ-DK           selected for orbital group  1
 Library entry N      F cc-pVTZ-DK           selected for orbital group  1
 Library entry C      S cc-pVTZ-DK           selected for orbital group  2
 Library entry C      P cc-pVTZ-DK           selected for orbital group  2
 Library entry C      D cc-pVTZ-DK           selected for orbital group  2
 Library entry C      F cc-pVTZ-DK           selected for orbital group  2
 Library entry H      S cc-pVTZ-DK           selected for orbital group  3
 Library entry H      P cc-pVTZ-DK           selected for orbital group  3
 Library entry H      D cc-pVTZ-DK           selected for orbital group  3


 PROGRAM * SEWARD (Integral evaluation for generally contracted gaussian basis sets)     Author: Roland Lindh, 1990

 Geometry written to block  1 of record 700


 Point group  Cs  



 ATOMIC COORDINATES

 NR  ATOM    CHARGE       X              Y              Z

   1  N       7.00   -0.004597067    0.000000000    1.112054719
   2  C       6.00    0.009571865    0.000000000   -1.047851214
   3  H       1.00   -0.004974798    0.000000000   -3.061273487

 Bond lengths in Bohr (Angstrom)

 1-2  2.159952407  2-3  2.013474821
     ( 1.142997591)     ( 1.065484990)

 Bond angles

  1-2-3  179.21020051

 NUCLEAR CHARGE:                   14
 NUMBER OF PRIMITIVE AOS:         111
 NUMBER OF SYMMETRY AOS:          100
 NUMBER OF CONTRACTIONS:           74   (  50A'  +  24A"  )
 NUMBER OF CORE ORBITALS:           2   (   2A'  +   0A"  )
 NUMBER OF VALENCE ORBITALS:        9   (   7A'  +   2A"  )


 NUCLEAR REPULSION ENERGY   24.10211427

 Eigenvalues of metric

         1 0.108E-02 0.143E-02 0.242E-02 0.628E-02 0.109E-01 0.148E-01 0.185E-01 0.291E-01
         2 0.148E-01 0.362E-01 0.607E-01 0.871E-01 0.131E+00 0.280E+00 0.288E+00 0.373E+00


 Contracted 2-electron integrals neglected if value below      1.0D-22

        1874105. INTEGRALS WRITTEN OUT IN     458 BLOCKS ON RECORD 1290 OF FILE 1


 NUMBER OF SORTED TWO-ELECTRON INTEGRALS:    2006100.     BUFFER LENGTH:  32768
 NUMBER OF SEGMENTS:   1  SEGMENT LENGTH:    2006100      RECORD LENGTH: 524288

 Memory used in sort:       2.56 MW

 SORT1 READ     1874105. AND WROTE     1914018. INTEGRALS IN      6 RECORDS. CPU TIME:     0.03 SEC, REAL TIME:     0.05 SEC
 SORT2 READ     1914018. AND WROTE     2006100. INTEGRALS IN      1 RECORDS. CPU TIME:     0.04 SEC, REAL TIME:     0.06 SEC

 FILE SIZES:   FILE 1:    50.1 MBYTE,  FILE 4:    25.2 MBYTE,   TOTAL:     75.3 MBYTE

 OPERATOR DM      FOR CENTER  0  COORDINATES:    0.000000    0.000000    0.000000


 **********************************************************************************************************************************
 DATASETS  * FILE   NREC   LENGTH (MB)   RECORD NAMES
              1      19       35.89       500      610      700      900      950      970     1000      129      960     1100   
                                          VAR    BASINP    GEOM    SYMINP    ZMAT    AOBASIS   BASIS     P2S    ABASIS      S 
                                         1400     1410     1200     1210     1080     1600     1650     1300     1700   
                                           T        V       H0       H01     AOSYM     SMH    MOLCAS    ERIS     OPER   

 PROGRAMS   *        TOTAL       INT
 CPU TIMES  *         0.66      0.57
 REAL TIME  *         1.13 SEC
 DISK USED  *        75.59 MB      
 **********************************************************************************************************************************


 PROGRAM * RHF-SCF (CLOSED SHELL)       Authors: W. Meyer, H.-J. Werner


 NUMBER OF ELECTRONS:       7+    7-
 CONVERGENCE THRESHOLDS:    1.00E-10 (Density)    1.00E-13 (Energy)
 MAX. NUMBER OF ITERATIONS:      500
 INTERPOLATION TYPE:            DIIS
 INTERPOLATION STEPS:              2 (START)      1 (STEP)
 LEVEL SHIFTS:                  0.00 (CLOSED)  0.00 (OPEN) 



 Orbital guess generated from atomic densities. Full valence occupancy:    9   2

 Molecular orbital dump at record        2100.2

 Initial occupancy:   6   1

 ITERATION    DDIFF          GRAD             ENERGY        2-EL.EN.            DIPOLE MOMENTS         DIIS   ORB.
    1      0.000D+00      0.000D+00       -92.88233139    112.374203    0.00690    0.00000   -1.75825    0    start
    2      0.000D+00      0.893D-02       -92.89177530    111.482349   -0.00230    0.00000   -0.89654    1    diag
    3      0.143D-01      0.787D-02       -92.90615638    112.005712    0.00142    0.00000   -1.28803    2    diag
    4      0.712D-02      0.635D-03       -92.90636988    111.976269    0.00109    0.00000   -1.27933    3    diag
    5      0.112D-02      0.134D-03       -92.90638154    111.983465    0.00098    0.00000   -1.27794    4    diag
    6      0.302D-03      0.364D-04       -92.90638215    111.979462    0.00097    0.00000   -1.27813    5    diag
    7      0.631D-04      0.127D-04       -92.90638221    111.980615    0.00097    0.00000   -1.27823    6    diag
    8      0.216D-04      0.249D-05       -92.90638222    111.980553    0.00097    0.00000   -1.27821    7    diag
    9      0.403D-05      0.276D-06       -92.90638222    111.980559    0.00097    0.00000   -1.27821    8    diag
   10      0.581D-06      0.303D-07       -92.90638222    111.980560    0.00097    0.00000   -1.27821    9    orth
   11      0.577D-07      0.558D-08       -92.90638222    111.980560    0.00097    0.00000   -1.27821    9    diag
   12      0.134D-07      0.237D-08       -92.90638222    111.980560    0.00097    0.00000   -1.27821    9    diag
   13      0.711D-08      0.975D-09       -92.90638222    111.980560    0.00097    0.00000   -1.27821    9    diag
   14      0.424D-08      0.222D-09       -92.90638222    111.980560    0.00097    0.00000   -1.27821    9    diag
   15      0.714D-09      0.829D-10       -92.90638222    111.980560    0.00097    0.00000   -1.27821    9    diag
   16      0.250D-09      0.109D-10       -92.90638222    111.980560    0.00097    0.00000   -1.27821    9    diag
   17      0.406D-10      0.296D-11       -92.90638222    111.980560    0.00097    0.00000   -1.27821    0    orth

 Final occupancy:   6   1

 !RHF STATE 1.1 Energy                -92.906382215584
 Nuclear energy                        24.10211427
 One-electron energy                 -172.99877639
 Two-electron energy                   55.99027990
 Virial quotient                       -1.00033860
 !RHF STATE 1.1 Dipole moment           0.00096839     0.00000000    -1.27820670
 Dipole moment /Debye                   0.00246125     0.00000000    -3.24866458

 Orbital energies:

         1.1          2.1          3.1          4.1          5.1          6.1          7.1          8.1
    -15.593932   -11.286859    -1.240124    -0.810327    -0.580479    -0.498693     0.142268     0.170165

         1.2          2.2          3.2
     -0.498695     0.170175     0.446420

 HOMO      6.1    -0.498693 =     -13.5701eV
 LUMO      7.1     0.142268 =       3.8713eV
 LUMO-HOMO         0.640961 =      17.4414eV


 **********************************************************************************************************************************
 DATASETS  * FILE   NREC   LENGTH (MB)   RECORD NAMES
              1      19       35.89       500      610      700      900      950      970     1000      129      960     1100   
                                          VAR    BASINP    GEOM    SYMINP    ZMAT    AOBASIS   BASIS     P2S    ABASIS      S 
                                         1400     1410     1200     1210     1080     1600     1650     1300     1700   
                                           T        V       H0       H01     AOSYM     SMH    MOLCAS    ERIS     OPER   

              2       4        2.85       700     1000      520     2100   
                                         GEOM     BASIS   MCVARS     RHF  

 PROGRAMS   *        TOTAL        HF       INT
 CPU TIMES  *         0.84      0.18      0.57
 REAL TIME  *         1.37 SEC
 DISK USED  *        75.59 MB      
 **********************************************************************************************************************************


 PROGRAM * CCSD (Closed-shell coupled cluster)     Authors: C. Hampel, H.-J. Werner, 1991, M. Deegan, P.J. Knowles, 1992


 Convergence thresholds:  THRVAR = 1.00D-08  THRDEN = 1.00D-12

 CCSD(T)     terms to be evaluated (factor= 1.000)


 Number of core orbitals:           2 (   2   0 )
 Number of closed-shell orbitals:   5 (   4   1 )
 Number of external orbitals:      67 (  44  23 )

 Molecular orbitals read from record     2100.2  Type=RHF/CANONICAL (state 1.1)

 Number of N-1 electron functions:               5
 Number of N-2 electron functions:              15
 Number of singly external CSFs:               199
 Number of doubly external CSFs:             29216
 Total number of CSFs:                       29416

 Length of J-op  integral file:               0.00 MB
 Length of K-op  integral file:               0.25 MB
 Length of 3-ext integral record:             0.00 MB

 Memory could be reduced to 1.53 Mwords without degradation in triples

 Integral transformation finished. Total CPU:   0.02 sec, npass=  1  Memory used:   0.47 MW

 Reference energy:                    -92.90638222

 MP2 singlet pair energy:              -0.21683792
 MP2 triplet pair energy:              -0.12629487
 MP2 correlation energy:               -0.34313279
 MP2 total energy:                    -93.24951500

 SCS-MP2 correlation energy:           -0.33878898   (PS=  1.200000  PT=  0.333333)
 SCS-MP2 total energy:                -93.24517119

 ITER.      SQ.NORM     CORR.ENERGY   TOTAL ENERGY   ENERGY CHANGE        DEN1      VAR(S)    VAR(P)  DIIS     TIME  TIME/IT
   1      1.11339119    -0.34699217   -93.25337439    -0.00385939     0.00852658  0.24D-02  0.28D-02  1  1     0.04     0.03
   2      1.12269898    -0.34743933   -93.25382155    -0.00044716    -0.00981400  0.46D-04  0.40D-03  2  2     0.07     0.03
   3      1.12752775    -0.34765258   -93.25403480    -0.00021325    -0.00245021  0.12D-04  0.39D-04  3  3     0.10     0.03
   4      1.12950153    -0.34774147   -93.25412368    -0.00008889    -0.00072429  0.27D-06  0.40D-05  4  4     0.12     0.03
   5      1.12992531    -0.34773779   -93.25412000     0.00000368    -0.00012023  0.99D-07  0.35D-06  5  5     0.14     0.03
   6      1.13001115    -0.34773697   -93.25411919     0.00000082    -0.00002286  0.75D-08  0.25D-07  6  6     0.17     0.03
   7      1.13001810    -0.34773898   -93.25412120    -0.00000201    -0.00000212  0.58D-09  0.21D-08  6  1     0.20     0.03
   8      1.13001852    -0.34773943   -93.25412164    -0.00000045     0.00000062  0.47D-10  0.12D-09  6  2     0.22     0.03
   9      1.13001912    -0.34773946   -93.25412167    -0.00000003    -0.00000034  0.31D-11  0.88D-11  6  3     0.26     0.03
  10      1.13001908    -0.34773947   -93.25412169    -0.00000001     0.00000008  0.43D-12  0.85D-12  6  4     0.28     0.03
  11      1.13001905    -0.34773948   -93.25412169    -0.00000000     0.00000001  0.47D-13  0.10D-12  6  5     0.31     0.03
  12      1.13001900    -0.34773948   -93.25412169    -0.00000000     0.00000002  0.86D-14  0.21D-13  6  6     0.34     0.03
  13      1.13001897    -0.34773948   -93.25412169    -0.00000000     0.00000001  0.16D-14  0.21D-14  6  2     0.37     0.03
  14      1.13001895    -0.34773948   -93.25412170    -0.00000000     0.00000000  0.16D-15  0.12D-15  6  1     0.39     0.03
  15      1.13001895    -0.34773948   -93.25412170     0.00000000     0.00000000  0.46D-16  0.22D-16  6  3     0.42     0.03
  16      1.13001895    -0.34773948   -93.25412170    -0.00000000     0.00000000  0.65D-17  0.29D-17  6  4     0.44     0.03
  17      1.13001895    -0.34773948   -93.25412170    -0.00000000     0.00000000  0.94D-18  0.49D-18  6  5     0.47     0.03
  18      1.13001895    -0.34773948   -93.25412170     0.00000000    -0.00000000  0.90D-19  0.58D-19  6  6     0.49     0.03
  19      1.13001895    -0.34773948   -93.25412170     0.00000000    -0.00000000  0.61D-20  0.84D-20  6  1     0.51     0.03
  20      1.13001895    -0.34773948   -93.25412170     0.00000000    -0.00000000  0.18D-20  0.87D-21  6  2     0.54     0.03
  21      1.13001895    -0.34773948   -93.25412170    -0.00000000     0.00000000  0.28D-21  0.22D-21  6  3     0.58     0.03

 Norm of t1 vector:      0.06225725      S-energy:     0.00000000      T1 diagnostic:  0.01392115
                                                                       D1 diagnostic:  0.02797289

 Doubles amplitudes (print threshold =  0.500E-01):

         I         J         SYM. A    SYM. B    A         B      T(IJ, AB)

         4         4         1         1         2         2     -0.08473999
         5         5         2         2         1         1     -0.08481826
         5         4         2         1         1         2     -0.05335213


 Total CPU time for triples:      0.14 sec


 RESULTS
 =======

  Reference energy                    -92.906382215584
  CCSD singlet pair energy             -0.241570064866
  CCSD triplet pair energy             -0.106169414687
  CCSD correlation energy              -0.347739479552

  Triples (T) contribution             -0.017547953978
  Total correlation energy             -0.365287433530

  CCSD total energy                   -93.254121695136
  CCSD[T] energy                      -93.272450256792
  CCSD-T energy                       -93.271277046340
 !CCSD(T) total energy                -93.271669649114

 Timing summary (sec):

 STEP                 CPU(USER)    SYS     CPU(TOT)    WALL
 Transformation          0.02      0.02      0.04      0.04
 CCSD iterations         0.56      0.11      0.67      0.67
 Triples                 0.14      0.00      0.14      0.14

 Program statistics:

 Available memory in ccsd:               994999800
 Min. memory needed in ccsd:                125648
 Max. memory used in ccsd:                  146560
 Max. memory used in cckext:                201693 (21 integral passes)



 **********************************************************************************************************************************
 DATASETS  * FILE   NREC   LENGTH (MB)   RECORD NAMES
              1      20       39.60       500      610      700      900      950      970     1000      129      960     1100   
                                          VAR    BASINP    GEOM    SYMINP    ZMAT    AOBASIS   BASIS     P2S    ABASIS      S 
                                         1400     1410     1200     1210     1080     1600     1650     1300     1700     1380   
                                           T        V       H0       H01     AOSYM     SMH    MOLCAS    ERIS     OPER     JKOP   

              2       4        2.85       700     1000      520     2100   
                                         GEOM     BASIS   MCVARS     RHF  

 PROGRAMS   *        TOTAL   CCSD(T)        HF       INT
 CPU TIMES  *         1.58      0.73      0.18      0.57
 REAL TIME  *         2.24 SEC
 DISK USED  *        75.59 MB      
 **********************************************************************************************************************************

 CCSD(T)/cc-pVTZ-DK energy=    -93.271669649114

        CCSD(T)         HF-SCF  
    -93.27166965    -92.90638222
 **********************************************************************************************************************************
 Molpro calculation terminated
 Variable memory released
