
 Primary working directories    : /tmp/r2666/232602.maple
 Secondary working directories  : /tmp/r2666/232602.maple
 Wavefunction directory         : /ddn/home4/r2666/wfu/
 Main file repository           : /tmp/r2666/232602.maple/

 SHA1      : d5ffa45e93fdbca01ffc919aa182cfdae0147319
 NAME      : 2015.1.35
 ARCHNAME  : linux/x86_64
 FC        : /opt/intel/composer_xe_2015.1.133/bin/intel64/ifort
 BLASLIB   : -Wl,-_start-group /opt/intel/mkl/lib/intel64/libmkl_intel_ilp64.a /opt/intel/mkl/lib/intel64/libmkl_intel_thread.a /opt/intel/mkl/lib/intel64/libmkl_core.a -Wl,-_end-group
 id        : olemiss

 Nodes     nprocs
 cn079        1

 Using customized tuning parameters: mindgm=1; mindgv=20; mindgc=4; mindgr=1; noblas=0; minvec=7
 default implementation of scratch files=df  

 ***,hcn CCSD(T)/TZ-F12 QFF
 memory, 995, m;
 gthresh,energy=1.d-12,zero=1.d-22,oneint=1.d-22,twoint=1.d-22;
 gthresh,optgrad=1.d-8,optstep=1.d-8;
 nocompress;
 geomtyp=xyz
 bohr
 geometry={
 3
         46        46
 N        0.0000000000        0.0000000000        1.1310004776
 C        0.0000000000        0.0000000000       -1.0667464493
 H        0.0000000000        0.0000000000       -3.0613240104
 }
 
 basis=vtz-dk
 dkroll=0
   {hf,maxit=500;accu,20;}
 {ccsd(t),nocheck,maxit=250;orbital,IGNORE_ERROR;}

 Variables initialized (889), CPU time= 0.01 sec
 Commands  initialized (702), CPU time= 0.00 sec, 572 directives.
 Default parameters read. Elapsed time= 0.09 sec

 Checking input...
 Passed
1


                                         ***  PROGRAM SYSTEM MOLPRO  ***
                                       Copyright, TTI GmbH Stuttgart, 2015
                                    Version 2015.1 linked Jul  9 2018 13:16:40


 **********************************************************************************************************************************
 LABEL *   hcn CCSD(T)/TZ-F12 QFF                                                        
  64 bit serial version                                                                  DATE: 06-Feb-20          TIME: 09:54:37  
 **********************************************************************************************************************************

 SHA1:             d5ffa45e93fdbca01ffc919aa182cfdae0147319
 **********************************************************************************************************************************

 THRESHOLDS:

 ZERO    =  1.00D-22  ONEINT  =  1.00D-22  TWOINT  =  1.00D-22  PREFAC  =  1.00D-14  LOCALI  =  1.00D-09  EORDER  =  1.00D-04
 ENERGY  =  1.00D-12  ETEST   =  0.00D+00  EDENS   =  0.00D+00  THRDEDEF=  1.00D-06  GRADIENT=  1.00D-02  STEP    =  1.00D-03
 ORBITAL =  1.00D-05  CIVEC   =  1.00D-05  COEFF   =  1.00D-04  PRINTCI =  5.00D-02  PUNCHCI =  9.90D+01  OPTGRAD =  3.00D-04
 OPTENERG=  1.00D-06  OPTSTEP =  3.00D-04  THRGRAD =  1.00D-10  COMPRESS=  1.00D-11  VARMIN  =  1.00D-07  VARMAX  =  1.00D-03
 THRDOUB =  0.00D+00  THRDIV  =  1.00D-05  THRRED  =  1.00D-07  THRPSP  =  1.00D+00  THRDC   =  1.00D-10  THRCS   =  1.00D-10
 THRNRM  =  1.00D-08  THREQ   =  0.00D+00  THRDE   =  1.00D+00  THRREF  =  1.00D-05  SPARFAC =  1.00D+00  THRDLP  =  1.00D-07
 THRDIA  =  1.00D-10  THRDLS  =  1.00D-07  THRGPS  =  0.00D+00  THRKEX  =  0.00D+00  THRDIS  =  2.00D-01  THRVAR  =  1.00D-10
 THRLOC  =  1.00D-06  THRGAP  =  1.00D-06  THRLOCT = -1.00D+00  THRGAPT = -1.00D+00  THRORB  =  1.00D-06  THRMLTP =  0.00D+00
 THRCPQCI=  1.00D-10  KEXTA   =  0.00D+00  THRCOARS=  0.00D+00  SYMTOL  =  1.00D-06  GRADTOL =  1.00D-06  THROVL  =  1.00D-08
 THRORTH =  1.00D-08  GRID    =  1.00D-06  GRIDMAX =  1.00D-03  DTMAX   =  0.00D+00  THROCCDE=  1.00D-01  THROCCDE=  1.00D-01



 THRESHOLDS:

 ZERO    =  1.00D-22  ONEINT  =  1.00D-22  TWOINT  =  1.00D-22  PREFAC  =  1.00D-14  LOCALI  =  1.00D-09  EORDER  =  1.00D-04
 ENERGY  =  1.00D-12  ETEST   =  0.00D+00  EDENS   =  0.00D+00  THRDEDEF=  1.00D-06  GRADIENT=  1.00D-02  STEP    =  1.00D-03
 ORBITAL =  1.00D-05  CIVEC   =  1.00D-05  COEFF   =  1.00D-04  PRINTCI =  5.00D-02  PUNCHCI =  9.90D+01  OPTGRAD =  1.00D-08
 OPTENERG=  1.00D-06  OPTSTEP =  1.00D-08  THRGRAD =  1.00D-10  COMPRESS=  1.00D-11  VARMIN  =  1.00D-07  VARMAX  =  1.00D-03
 THRDOUB =  0.00D+00  THRDIV  =  1.00D-05  THRRED  =  1.00D-07  THRPSP  =  1.00D+00  THRDC   =  1.00D-10  THRCS   =  1.00D-10
 THRNRM  =  1.00D-08  THREQ   =  0.00D+00  THRDE   =  1.00D+00  THRREF  =  1.00D-05  SPARFAC =  1.00D+00  THRDLP  =  1.00D-07
 THRDIA  =  1.00D-10  THRDLS  =  1.00D-07  THRGPS  =  0.00D+00  THRKEX  =  0.00D+00  THRDIS  =  2.00D-01  THRVAR  =  1.00D-10
 THRLOC  =  1.00D-06  THRGAP  =  1.00D-06  THRLOCT = -1.00D+00  THRGAPT = -1.00D+00  THRORB  =  1.00D-06  THRMLTP =  0.00D+00
 THRCPQCI=  1.00D-10  KEXTA   =  0.00D+00  THRCOARS=  0.00D+00  SYMTOL  =  1.00D-06  GRADTOL =  1.00D-06  THROVL  =  1.00D-08
 THRORTH =  1.00D-08  GRID    =  1.00D-06  GRIDMAX =  1.00D-03  DTMAX   =  0.00D+00  THROCCDE=  1.00D-01  THROCCDE=  1.00D-01



 Input parameters for SORTINT:

 COMPRESS =    0.000000
 C_FINAL  =    1.000000
 DEBUG    =   -1.000000
 C_SORT1  =    0.000000
 C_SEWARD =    0.000000
 THRESH   =    0.000000
 IO       =  molpro                                                          
 SPRI     =    0.000000
 SETTING GEOMTYP        =    XYZ
 ZUNIT=BOHR
 

 Variable memory set to  995000000 words,  buffer space   230000 words

 SETTING BASIS          =    VTZ-DK
 SETTING DKROLL         =     0.00000000D+00                                  


 Recomputing integrals since basis changed


 Using spherical harmonics

 Library entry N      S cc-pVTZ-DK           selected for orbital group  1
 Library entry N      P cc-pVTZ-DK           selected for orbital group  1
 Library entry N      D cc-pVTZ-DK           selected for orbital group  1
 Library entry N      F cc-pVTZ-DK           selected for orbital group  1
 Library entry C      S cc-pVTZ-DK           selected for orbital group  2
 Library entry C      P cc-pVTZ-DK           selected for orbital group  2
 Library entry C      D cc-pVTZ-DK           selected for orbital group  2
 Library entry C      F cc-pVTZ-DK           selected for orbital group  2
 Library entry H      S cc-pVTZ-DK           selected for orbital group  3
 Library entry H      P cc-pVTZ-DK           selected for orbital group  3
 Library entry H      D cc-pVTZ-DK           selected for orbital group  3


 PROGRAM * SEWARD (Integral evaluation for generally contracted gaussian basis sets)     Author: Roland Lindh, 1990

 Geometry written to block  1 of record 700


 Point group  C2v 



 ATOMIC COORDINATES

 NR  ATOM    CHARGE       X              Y              Z

   1  N       7.00    0.000000000    0.000000000    1.131000478
   2  C       6.00    0.000000000    0.000000000   -1.066746449
   3  H       1.00    0.000000000    0.000000000   -3.061324010

 Bond lengths in Bohr (Angstrom)

 1-2  2.197746927  2-3  1.994577561
     ( 1.162997589)     ( 1.055484991)

 Bond angles

  1-2-3  179.99999879

 NUCLEAR CHARGE:                   14
 NUMBER OF PRIMITIVE AOS:         111
 NUMBER OF SYMMETRY AOS:          100
 NUMBER OF CONTRACTIONS:           74   (  33A1  +  17B1  +  17B2  +   7A2  )
 NUMBER OF CORE ORBITALS:           2   (   2A1  +   0B1  +   0B2  +   0A2  )
 NUMBER OF VALENCE ORBITALS:        9   (   5A1  +   2B1  +   2B2  +   0A2  )


 NUCLEAR REPULSION ENERGY   23.78835445

 EXTRA SYMMETRY OF AOS IN SYMMETRY 1:   1 1 1 1 1 1 1 1 2 1   2 1 2 1 1 1 1 1 1 1   1 2 1 2 1 2 1 1 1 1   1 1 2
 EXTRA SYMMETRY OF AOS IN SYMMETRY 2:   1 1 1 1 1 1 2 1 1 1   1 1 1 2 1 1 1
 EXTRA SYMMETRY OF AOS IN SYMMETRY 3:   1 1 1 1 1 1 2 1 1 1   1 1 1 2 1 1 1

 Eigenvalues of metric

         1 0.107E-02 0.145E-02 0.246E-02 0.619E-02 0.108E-01 0.197E-01 0.293E-01 0.472E-01
         2 0.158E-01 0.361E-01 0.603E-01 0.885E-01 0.133E+00 0.284E+00 0.376E+00 0.431E+00
         3 0.158E-01 0.361E-01 0.603E-01 0.885E-01 0.133E+00 0.284E+00 0.376E+00 0.431E+00
         4 0.296E+00 0.454E+00 0.573E+00 0.844E+00 0.125E+01 0.156E+01 0.202E+01


 Contracted 2-electron integrals neglected if value below      1.0D-22

         875078. INTEGRALS WRITTEN OUT IN     214 BLOCKS ON RECORD 1290 OF FILE 1


 NUMBER OF SORTED TWO-ELECTRON INTEGRALS:    1039939.     BUFFER LENGTH:  32768
 NUMBER OF SEGMENTS:   1  SEGMENT LENGTH:    1039939      RECORD LENGTH: 524288

 Memory used in sort:       1.60 MW

 SORT1 READ      875078. AND WROTE      911400. INTEGRALS IN      3 RECORDS. CPU TIME:     0.02 SEC, REAL TIME:     0.04 SEC
 SORT2 READ      911400. AND WROTE     1039939. INTEGRALS IN      1 RECORDS. CPU TIME:     0.04 SEC, REAL TIME:     0.06 SEC

 FILE SIZES:   FILE 1:    34.1 MBYTE,  FILE 4:    12.6 MBYTE,   TOTAL:     46.7 MBYTE

 OPERATOR DM      FOR CENTER  0  COORDINATES:    0.000000    0.000000    0.000000


 **********************************************************************************************************************************
 DATASETS  * FILE   NREC   LENGTH (MB)   RECORD NAMES
              1      19       27.60       500      610      700      900      950      970     1000      129      960     1100   
                                          VAR    BASINP    GEOM    SYMINP    ZMAT    AOBASIS   BASIS     P2S    ABASIS      S 
                                         1400     1410     1200     1210     1080     1600     1650     1300     1700   
                                           T        V       H0       H01     AOSYM     SMH    MOLCAS    ERIS     OPER   

 PROGRAMS   *        TOTAL       INT
 CPU TIMES  *         0.70      0.59
 REAL TIME  *         1.24 SEC
 DISK USED  *        47.00 MB      
 **********************************************************************************************************************************


 PROGRAM * RHF-SCF (CLOSED SHELL)       Authors: W. Meyer, H.-J. Werner


 NUMBER OF ELECTRONS:       7+    7-
 CONVERGENCE THRESHOLDS:    1.00E-10 (Density)    1.00E-13 (Energy)
 MAX. NUMBER OF ITERATIONS:      500
 INTERPOLATION TYPE:            DIIS
 INTERPOLATION STEPS:              2 (START)      1 (STEP)
 LEVEL SHIFTS:                  0.00 (CLOSED)  0.00 (OPEN) 



 Orbital guess generated from atomic densities. Full valence occupancy:    7   2   2   0

 Molecular orbital dump at record        2100.2

 Initial occupancy:   5   1   1   0

 ITERATION    DDIFF          GRAD             ENERGY        2-EL.EN.            DIPOLE MOMENTS         DIIS   ORB.
    1      0.000D+00      0.000D+00       -92.87984675    111.632370    0.00000    0.00000   -1.75965    0    start
    2      0.000D+00      0.113D-01       -92.88842462    110.873742    0.00000    0.00000   -0.87597    1    diag
    3      0.189D-01      0.103D-01       -92.90333556    111.378692    0.00000    0.00000   -1.28759    2    diag
    4      0.951D-02      0.850D-03       -92.90356197    111.335512    0.00000    0.00000   -1.27853    3    diag
    5      0.153D-02      0.190D-03       -92.90357465    111.348628    0.00000    0.00000   -1.27730    4    diag
    6      0.407D-03      0.524D-04       -92.90357553    111.343251    0.00000    0.00000   -1.27724    5    diag
    7      0.101D-03      0.191D-04       -92.90357561    111.344278    0.00000    0.00000   -1.27737    6    diag
    8      0.337D-04      0.366D-05       -92.90357561    111.344233    0.00000    0.00000   -1.27735    7    diag
    9      0.632D-05      0.398D-06       -92.90357561    111.344240    0.00000    0.00000   -1.27735    8    diag
   10      0.864D-06      0.397D-07       -92.90357561    111.344241    0.00000    0.00000   -1.27735    9    orth
   11      0.773D-07      0.467D-08       -92.90357561    111.344241    0.00000    0.00000   -1.27735    9    diag
   12      0.134D-07      0.439D-09       -92.90357561    111.344241    0.00000    0.00000   -1.27735    9    diag
   13      0.177D-08      0.455D-10       -92.90357561    111.344241    0.00000    0.00000   -1.27735    9    diag
   14      0.254D-09      0.887D-11       -92.90357561    111.344241    0.00000    0.00000   -1.27735    9    diag
   15      0.444D-10      0.154D-11       -92.90357561    111.344241    0.00000    0.00000   -1.27735    0    orth

 Final occupancy:   5   1   1   0

 !RHF STATE 1.1 Energy                -92.903575614524
 Nuclear energy                        23.78835445
 One-electron energy                 -172.36405040
 Two-electron energy                   55.67212034
 Virial quotient                       -1.00133188
 !RHF STATE 1.1 Dipole moment           0.00000000     0.00000000    -1.27735088
 Dipole moment /Debye                   0.00000000     0.00000000    -3.24648946

 Orbital energies:

         1.1          2.1          3.1          4.1          5.1          6.1          7.1
    -15.601242   -11.293300    -1.230825    -0.817197    -0.581810     0.142374     0.240684

         1.2          2.2          3.2
     -0.492765     0.163533     0.446257

         1.3          2.3          3.3
     -0.492765     0.163533     0.446257

         1.4          2.4
      0.810091     1.417179

 HOMO      1.2    -0.492765 =     -13.4088eV
 LUMO      6.1     0.142374 =       3.8742eV
 LUMO-HOMO         0.635139 =      17.2830eV


 **********************************************************************************************************************************
 DATASETS  * FILE   NREC   LENGTH (MB)   RECORD NAMES
              1      19       27.60       500      610      700      900      950      970     1000      129      960     1100   
                                          VAR    BASINP    GEOM    SYMINP    ZMAT    AOBASIS   BASIS     P2S    ABASIS      S 
                                         1400     1410     1200     1210     1080     1600     1650     1300     1700   
                                           T        V       H0       H01     AOSYM     SMH    MOLCAS    ERIS     OPER   

              2       4        2.82       700     1000      520     2100   
                                         GEOM     BASIS   MCVARS     RHF  

 PROGRAMS   *        TOTAL        HF       INT
 CPU TIMES  *         0.78      0.08      0.59
 REAL TIME  *         1.35 SEC
 DISK USED  *        47.00 MB      
 **********************************************************************************************************************************


 PROGRAM * CCSD (Closed-shell coupled cluster)     Authors: C. Hampel, H.-J. Werner, 1991, M. Deegan, P.J. Knowles, 1992


 Convergence thresholds:  THRVAR = 1.00D-08  THRDEN = 1.00D-12

 CCSD(T)     terms to be evaluated (factor= 1.000)


 Number of core orbitals:           2 (   2   0   0   0 )
 Number of closed-shell orbitals:   5 (   3   1   1   0 )
 Number of external orbitals:      67 (  28  16  16   7 )

 Molecular orbitals read from record     2100.2  Type=RHF/CANONICAL (state 1.1)

 Number of N-1 electron functions:               5
 Number of N-2 electron functions:              15
 Number of singly external CSFs:               116
 Number of doubly external CSFs:             15189
 Total number of CSFs:                       15306

 Length of J-op  integral file:               0.00 MB
 Length of K-op  integral file:               0.15 MB
 Length of 3-ext integral record:             0.00 MB

 Memory could be reduced to 0.93 Mwords without degradation in triples

 Integral transformation finished. Total CPU:   0.01 sec, npass=  1  Memory used:   0.18 MW

 Reference energy:                    -92.90357561

 MP2 singlet pair energy:              -0.21901071
 MP2 triplet pair energy:              -0.12801542
 MP2 correlation energy:               -0.34702613
 MP2 total energy:                    -93.25060175

 SCS-MP2 correlation energy:           -0.34246690   (PS=  1.200000  PT=  0.333333)
 SCS-MP2 total energy:                -93.24604251

 ITER.      SQ.NORM     CORR.ENERGY   TOTAL ENERGY   ENERGY CHANGE        DEN1      VAR(S)    VAR(P)  DIIS     TIME  TIME/IT
   1      1.11570128    -0.34986235   -93.25343797    -0.00283622     0.01032955  0.26D-02  0.31D-02  1  1     0.03     0.02
   2      1.12546517    -0.35014783   -93.25372344    -0.00028547    -0.01025150  0.53D-04  0.43D-03  2  2     0.04     0.02
   3      1.13065041    -0.35037779   -93.25395340    -0.00022996    -0.00257952  0.12D-04  0.44D-04  3  3     0.05     0.02
   4      1.13284365    -0.35047957   -93.25405519    -0.00010179    -0.00078725  0.29D-06  0.47D-05  4  4     0.06     0.02
   5      1.13332745    -0.35047549   -93.25405110     0.00000409    -0.00013424  0.97D-07  0.43D-06  5  5     0.07     0.02
   6      1.13342938    -0.35047456   -93.25405017     0.00000093    -0.00002666  0.95D-08  0.31D-07  6  6     0.09     0.02
   7      1.13343754    -0.35047705   -93.25405267    -0.00000250    -0.00000237  0.61D-09  0.27D-08  6  1     0.10     0.02
   8      1.13343796    -0.35047759   -93.25405320    -0.00000053     0.00000073  0.38D-10  0.16D-09  6  2     0.13     0.02
   9      1.13343867    -0.35047762   -93.25405323    -0.00000003    -0.00000041  0.64D-11  0.10D-10  6  3     0.14     0.02
  10      1.13343860    -0.35047764   -93.25405325    -0.00000002     0.00000010  0.39D-12  0.11D-11  6  4     0.16     0.02
  11      1.13343855    -0.35047764   -93.25405326    -0.00000000     0.00000001  0.17D-12  0.87D-13  6  5     0.17     0.02
  12      1.13343849    -0.35047765   -93.25405326    -0.00000000     0.00000003  0.14D-13  0.23D-13  6  6     0.18     0.02
  13      1.13343845    -0.35047765   -93.25405326    -0.00000000     0.00000001  0.37D-14  0.19D-14  6  2     0.19     0.02
  14      1.13343844    -0.35047765   -93.25405326    -0.00000000     0.00000000  0.45D-16  0.12D-15  6  1     0.20     0.02
  15      1.13343843    -0.35047765   -93.25405326     0.00000000     0.00000000  0.32D-17  0.11D-16  6  4     0.21     0.02
  16      1.13343843    -0.35047765   -93.25405326    -0.00000000     0.00000000  0.11D-17  0.66D-18  6  3     0.22     0.02
  17      1.13343843    -0.35047765   -93.25405326    -0.00000000     0.00000000  0.12D-18  0.14D-18  6  5     0.24     0.02
  18      1.13343843    -0.35047765   -93.25405326     0.00000000    -0.00000000  0.17D-19  0.11D-19  6  6     0.25     0.02
  19      1.13343843    -0.35047765   -93.25405326     0.00000000    -0.00000000  0.52D-21  0.13D-20  6  2     0.26     0.02
  20      1.13343843    -0.35047765   -93.25405326     0.00000000    -0.00000000  0.25D-22  0.20D-21  6  1     0.28     0.02
  21      1.13343843    -0.35047765   -93.25405326     0.00000000    -0.00000000  0.17D-22  0.37D-22  6  4     0.29     0.02

 Norm of t1 vector:      0.06487980      S-energy:    -0.00000000      T1 diagnostic:  0.01450757
                                                                       D1 diagnostic:  0.02931788

 Doubles amplitudes (print threshold =  0.500E-01):

         I         J         SYM. A    SYM. B    A         B      T(IJ, AB)

         4         4         2         2         1         1     -0.08915484
         5         5         3         3         1         1     -0.08915484
         5         4         3         2         1         1     -0.05567560


 Total CPU time for triples:      0.06 sec


 RESULTS
 =======

  Reference energy                    -92.903575614524
  CCSD singlet pair energy             -0.243838681666
  CCSD triplet pair energy             -0.106638965248
  CCSD correlation energy              -0.350477646914

  Triples (T) contribution             -0.018151745103
  Total correlation energy             -0.368629392018

  CCSD total energy                   -93.254053261438
  CCSD[T] energy                      -93.273061986097
  CCSD-T energy                       -93.271779612876
 !CCSD(T) total energy                -93.272205006541

 Timing summary (sec):

 STEP                 CPU(USER)    SYS     CPU(TOT)    WALL
 Transformation          0.01      0.00      0.01      0.01
 CCSD iterations         0.28      0.09      0.37      0.38
 Triples                 0.06      0.00      0.06      0.05

 Program statistics:

 Available memory in ccsd:               994999800
 Min. memory needed in ccsd:                 67993
 Max. memory used in ccsd:                   79450
 Max. memory used in cckext:                107513 (21 integral passes)



 **********************************************************************************************************************************
 DATASETS  * FILE   NREC   LENGTH (MB)   RECORD NAMES
              1      20       29.54       500      610      700      900      950      970     1000      129      960     1100   
                                          VAR    BASINP    GEOM    SYMINP    ZMAT    AOBASIS   BASIS     P2S    ABASIS      S 
                                         1400     1410     1200     1210     1080     1600     1650     1300     1700     1380   
                                           T        V       H0       H01     AOSYM     SMH    MOLCAS    ERIS     OPER     JKOP   

              2       4        2.82       700     1000      520     2100   
                                         GEOM     BASIS   MCVARS     RHF  

 PROGRAMS   *        TOTAL   CCSD(T)        HF       INT
 CPU TIMES  *         1.14      0.35      0.08      0.59
 REAL TIME  *         1.82 SEC
 DISK USED  *        47.00 MB      
 **********************************************************************************************************************************

 CCSD(T)/cc-pVTZ-DK energy=    -93.272205006541

        CCSD(T)         HF-SCF  
    -93.27220501    -92.90357561
 **********************************************************************************************************************************
 Molpro calculation terminated
 Variable memory released
