
 Primary working directories    : /tmp/r2666/232575.maple
 Secondary working directories  : /tmp/r2666/232575.maple
 Wavefunction directory         : /ddn/home4/r2666/wfu/
 Main file repository           : /tmp/r2666/232575.maple/

 SHA1      : d5ffa45e93fdbca01ffc919aa182cfdae0147319
 NAME      : 2015.1.35
 ARCHNAME  : linux/x86_64
 FC        : /opt/intel/composer_xe_2015.1.133/bin/intel64/ifort
 BLASLIB   : -Wl,-_start-group /opt/intel/mkl/lib/intel64/libmkl_intel_ilp64.a /opt/intel/mkl/lib/intel64/libmkl_intel_thread.a /opt/intel/mkl/lib/intel64/libmkl_core.a -Wl,-_end-group
 id        : olemiss

 Nodes     nprocs
 cn080        1

 Using customized tuning parameters: mindgm=1; mindgv=20; mindgc=4; mindgr=1; noblas=0; minvec=7
 default implementation of scratch files=df  

 ***,hcn CCSD(T)/TZ-F12 QFF
 memory, 995, m;
 gthresh,energy=1.d-12,zero=1.d-22,oneint=1.d-22,twoint=1.d-22;
 gthresh,optgrad=1.d-8,optstep=1.d-8;
 nocompress;
 geomtyp=xyz
 bohr
 geometry={
 3
         19        19
 N        0.0000000000        0.0000000000        1.1247013910
 C        0.0000000000        0.0000000000       -1.0446996461
 H        0.0000000000        0.0000000000       -3.0770717269
 }
 
 basis=vtz-dk
 dkroll=0
   {hf,maxit=500;accu,20;}
 {ccsd(t),nocheck,maxit=250;orbital,IGNORE_ERROR;}

 Variables initialized (889), CPU time= 0.01 sec
 Commands  initialized (702), CPU time= 0.01 sec, 572 directives.
 Default parameters read. Elapsed time= 0.04 sec

 Checking input...
 Passed
1


                                         ***  PROGRAM SYSTEM MOLPRO  ***
                                       Copyright, TTI GmbH Stuttgart, 2015
                                    Version 2015.1 linked Jul  9 2018 13:16:40


 **********************************************************************************************************************************
 LABEL *   hcn CCSD(T)/TZ-F12 QFF                                                        
  64 bit serial version                                                                  DATE: 06-Feb-20          TIME: 09:54:32  
 **********************************************************************************************************************************

 SHA1:             d5ffa45e93fdbca01ffc919aa182cfdae0147319
 **********************************************************************************************************************************

 THRESHOLDS:

 ZERO    =  1.00D-22  ONEINT  =  1.00D-22  TWOINT  =  1.00D-22  PREFAC  =  1.00D-14  LOCALI  =  1.00D-09  EORDER  =  1.00D-04
 ENERGY  =  1.00D-12  ETEST   =  0.00D+00  EDENS   =  0.00D+00  THRDEDEF=  1.00D-06  GRADIENT=  1.00D-02  STEP    =  1.00D-03
 ORBITAL =  1.00D-05  CIVEC   =  1.00D-05  COEFF   =  1.00D-04  PRINTCI =  5.00D-02  PUNCHCI =  9.90D+01  OPTGRAD =  3.00D-04
 OPTENERG=  1.00D-06  OPTSTEP =  3.00D-04  THRGRAD =  1.00D-10  COMPRESS=  1.00D-11  VARMIN  =  1.00D-07  VARMAX  =  1.00D-03
 THRDOUB =  0.00D+00  THRDIV  =  1.00D-05  THRRED  =  1.00D-07  THRPSP  =  1.00D+00  THRDC   =  1.00D-10  THRCS   =  1.00D-10
 THRNRM  =  1.00D-08  THREQ   =  0.00D+00  THRDE   =  1.00D+00  THRREF  =  1.00D-05  SPARFAC =  1.00D+00  THRDLP  =  1.00D-07
 THRDIA  =  1.00D-10  THRDLS  =  1.00D-07  THRGPS  =  0.00D+00  THRKEX  =  0.00D+00  THRDIS  =  2.00D-01  THRVAR  =  1.00D-10
 THRLOC  =  1.00D-06  THRGAP  =  1.00D-06  THRLOCT = -1.00D+00  THRGAPT = -1.00D+00  THRORB  =  1.00D-06  THRMLTP =  0.00D+00
 THRCPQCI=  1.00D-10  KEXTA   =  0.00D+00  THRCOARS=  0.00D+00  SYMTOL  =  1.00D-06  GRADTOL =  1.00D-06  THROVL  =  1.00D-08
 THRORTH =  1.00D-08  GRID    =  1.00D-06  GRIDMAX =  1.00D-03  DTMAX   =  0.00D+00  THROCCDE=  1.00D-01  THROCCDE=  1.00D-01



 THRESHOLDS:

 ZERO    =  1.00D-22  ONEINT  =  1.00D-22  TWOINT  =  1.00D-22  PREFAC  =  1.00D-14  LOCALI  =  1.00D-09  EORDER  =  1.00D-04
 ENERGY  =  1.00D-12  ETEST   =  0.00D+00  EDENS   =  0.00D+00  THRDEDEF=  1.00D-06  GRADIENT=  1.00D-02  STEP    =  1.00D-03
 ORBITAL =  1.00D-05  CIVEC   =  1.00D-05  COEFF   =  1.00D-04  PRINTCI =  5.00D-02  PUNCHCI =  9.90D+01  OPTGRAD =  1.00D-08
 OPTENERG=  1.00D-06  OPTSTEP =  1.00D-08  THRGRAD =  1.00D-10  COMPRESS=  1.00D-11  VARMIN  =  1.00D-07  VARMAX  =  1.00D-03
 THRDOUB =  0.00D+00  THRDIV  =  1.00D-05  THRRED  =  1.00D-07  THRPSP  =  1.00D+00  THRDC   =  1.00D-10  THRCS   =  1.00D-10
 THRNRM  =  1.00D-08  THREQ   =  0.00D+00  THRDE   =  1.00D+00  THRREF  =  1.00D-05  SPARFAC =  1.00D+00  THRDLP  =  1.00D-07
 THRDIA  =  1.00D-10  THRDLS  =  1.00D-07  THRGPS  =  0.00D+00  THRKEX  =  0.00D+00  THRDIS  =  2.00D-01  THRVAR  =  1.00D-10
 THRLOC  =  1.00D-06  THRGAP  =  1.00D-06  THRLOCT = -1.00D+00  THRGAPT = -1.00D+00  THRORB  =  1.00D-06  THRMLTP =  0.00D+00
 THRCPQCI=  1.00D-10  KEXTA   =  0.00D+00  THRCOARS=  0.00D+00  SYMTOL  =  1.00D-06  GRADTOL =  1.00D-06  THROVL  =  1.00D-08
 THRORTH =  1.00D-08  GRID    =  1.00D-06  GRIDMAX =  1.00D-03  DTMAX   =  0.00D+00  THROCCDE=  1.00D-01  THROCCDE=  1.00D-01



 Input parameters for SORTINT:

 COMPRESS =    0.000000
 C_FINAL  =    1.000000
 DEBUG    =   -1.000000
 C_SORT1  =    0.000000
 C_SEWARD =    0.000000
 THRESH   =    0.000000
 IO       =  molpro                                                          
 SPRI     =    0.000000
 SETTING GEOMTYP        =    XYZ
 ZUNIT=BOHR
 

 Variable memory set to  995000000 words,  buffer space   230000 words

 SETTING BASIS          =    VTZ-DK
 SETTING DKROLL         =     0.00000000D+00                                  


 Recomputing integrals since basis changed


 Using spherical harmonics

 Library entry N      S cc-pVTZ-DK           selected for orbital group  1
 Library entry N      P cc-pVTZ-DK           selected for orbital group  1
 Library entry N      D cc-pVTZ-DK           selected for orbital group  1
 Library entry N      F cc-pVTZ-DK           selected for orbital group  1
 Library entry C      S cc-pVTZ-DK           selected for orbital group  2
 Library entry C      P cc-pVTZ-DK           selected for orbital group  2
 Library entry C      D cc-pVTZ-DK           selected for orbital group  2
 Library entry C      F cc-pVTZ-DK           selected for orbital group  2
 Library entry H      S cc-pVTZ-DK           selected for orbital group  3
 Library entry H      P cc-pVTZ-DK           selected for orbital group  3
 Library entry H      D cc-pVTZ-DK           selected for orbital group  3


 PROGRAM * SEWARD (Integral evaluation for generally contracted gaussian basis sets)     Author: Roland Lindh, 1990

 Geometry written to block  1 of record 700


 Point group  C2v 



 ATOMIC COORDINATES

 NR  ATOM    CHARGE       X              Y              Z

   1  N       7.00    0.000000000    0.000000000    1.124701391
   2  C       6.00    0.000000000    0.000000000   -1.044699646
   3  H       1.00    0.000000000    0.000000000   -3.077071727

 Bond lengths in Bohr (Angstrom)

 1-2  2.169401037  2-3  2.032372081
     ( 1.147997590)     ( 1.075484989)

 Bond angles

  1-2-3  180.00000000

 NUCLEAR CHARGE:                   14
 NUMBER OF PRIMITIVE AOS:         111
 NUMBER OF SYMMETRY AOS:          100
 NUMBER OF CONTRACTIONS:           74   (  33A1  +  17B1  +  17B2  +   7A2  )
 NUMBER OF CORE ORBITALS:           2   (   2A1  +   0B1  +   0B2  +   0A2  )
 NUMBER OF VALENCE ORBITALS:        9   (   5A1  +   2B1  +   2B2  +   0A2  )


 NUCLEAR REPULSION ENERGY   23.97836117

 EXTRA SYMMETRY OF AOS IN SYMMETRY 1:   1 1 1 1 1 1 1 1 2 1   2 1 2 1 1 1 1 1 1 1   1 2 1 2 1 2 1 1 1 1   1 1 2
 EXTRA SYMMETRY OF AOS IN SYMMETRY 2:   1 1 1 1 1 1 2 1 1 1   1 1 1 2 1 1 1
 EXTRA SYMMETRY OF AOS IN SYMMETRY 3:   1 1 1 1 1 1 2 1 1 1   1 1 1 2 1 1 1

 Eigenvalues of metric

         1 0.110E-02 0.146E-02 0.245E-02 0.647E-02 0.111E-01 0.188E-01 0.293E-01 0.474E-01
         2 0.152E-01 0.365E-01 0.613E-01 0.895E-01 0.132E+00 0.286E+00 0.378E+00 0.431E+00
         3 0.152E-01 0.365E-01 0.613E-01 0.895E-01 0.132E+00 0.286E+00 0.378E+00 0.431E+00
         4 0.290E+00 0.454E+00 0.575E+00 0.848E+00 0.125E+01 0.155E+01 0.203E+01


 Contracted 2-electron integrals neglected if value below      1.0D-22

         874883. INTEGRALS WRITTEN OUT IN     214 BLOCKS ON RECORD 1290 OF FILE 1


 NUMBER OF SORTED TWO-ELECTRON INTEGRALS:    1039939.     BUFFER LENGTH:  32768
 NUMBER OF SEGMENTS:   1  SEGMENT LENGTH:    1039939      RECORD LENGTH: 524288

 Memory used in sort:       1.60 MW

 SORT1 READ      874883. AND WROTE      911162. INTEGRALS IN      3 RECORDS. CPU TIME:     0.02 SEC, REAL TIME:     0.03 SEC
 SORT2 READ      911162. AND WROTE     1039939. INTEGRALS IN      1 RECORDS. CPU TIME:     0.04 SEC, REAL TIME:     0.06 SEC

 FILE SIZES:   FILE 1:    34.1 MBYTE,  FILE 4:    12.6 MBYTE,   TOTAL:     46.7 MBYTE

 OPERATOR DM      FOR CENTER  0  COORDINATES:    0.000000    0.000000    0.000000


 **********************************************************************************************************************************
 DATASETS  * FILE   NREC   LENGTH (MB)   RECORD NAMES
              1      19       27.60       500      610      700      900      950      970     1000      129      960     1100   
                                          VAR    BASINP    GEOM    SYMINP    ZMAT    AOBASIS   BASIS     P2S    ABASIS      S 
                                         1400     1410     1200     1210     1080     1600     1650     1300     1700   
                                           T        V       H0       H01     AOSYM     SMH    MOLCAS    ERIS     OPER   

 PROGRAMS   *        TOTAL       INT
 CPU TIMES  *         0.63      0.53
 REAL TIME  *         1.21 SEC
 DISK USED  *        47.00 MB      
 **********************************************************************************************************************************


 PROGRAM * RHF-SCF (CLOSED SHELL)       Authors: W. Meyer, H.-J. Werner


 NUMBER OF ELECTRONS:       7+    7-
 CONVERGENCE THRESHOLDS:    1.00E-10 (Density)    1.00E-13 (Energy)
 MAX. NUMBER OF ITERATIONS:      500
 INTERPOLATION TYPE:            DIIS
 INTERPOLATION STEPS:              2 (START)      1 (STEP)
 LEVEL SHIFTS:                  0.00 (CLOSED)  0.00 (OPEN) 



 Orbital guess generated from atomic densities. Full valence occupancy:    7   2   2   0

 Molecular orbital dump at record        2100.2

 Initial occupancy:   5   1   1   0

 ITERATION    DDIFF          GRAD             ENERGY        2-EL.EN.            DIPOLE MOMENTS         DIIS   ORB.
    1      0.000D+00      0.000D+00       -92.88122386    112.126378    0.00000    0.00000   -1.77463    0    start
    2      0.000D+00      0.116D-01       -92.89048526    111.253502    0.00000    0.00000   -0.89355    1    diag
    3      0.191D-01      0.103D-01       -92.90542249    111.778048    0.00000    0.00000   -1.29453    2    diag
    4      0.956D-02      0.819D-03       -92.90563736    111.746221    0.00000    0.00000   -1.28590    3    diag
    5      0.149D-02      0.177D-03       -92.90564942    111.755061    0.00000    0.00000   -1.28451    4    diag
    6      0.404D-03      0.492D-04       -92.90565012    111.750588    0.00000    0.00000   -1.28465    5    diag
    7      0.890D-04      0.175D-04       -92.90565019    111.751738    0.00000    0.00000   -1.28476    6    diag
    8      0.307D-04      0.336D-05       -92.90565019    111.751680    0.00000    0.00000   -1.28474    7    diag
    9      0.560D-05      0.369D-06       -92.90565019    111.751687    0.00000    0.00000   -1.28474    8    diag
   10      0.797D-06      0.378D-07       -92.90565019    111.751687    0.00000    0.00000   -1.28474    9    orth
   11      0.739D-07      0.451D-08       -92.90565019    111.751687    0.00000    0.00000   -1.28474    9    diag
   12      0.127D-07      0.422D-09       -92.90565019    111.751687    0.00000    0.00000   -1.28474    9    diag
   13      0.176D-08      0.454D-10       -92.90565019    111.751687    0.00000    0.00000   -1.28474    9    diag
   14      0.248D-09      0.958D-11       -92.90565019    111.751687    0.00000    0.00000   -1.28474    9    diag
   15      0.464D-10      0.135D-11       -92.90565019    111.751687    0.00000    0.00000   -1.28474    0    orth

 Final occupancy:   5   1   1   0

 !RHF STATE 1.1 Energy                -92.905650191499
 Nuclear energy                        23.97836117
 One-electron energy                 -172.75985492
 Two-electron energy                   55.87584355
 Virial quotient                       -1.00079129
 !RHF STATE 1.1 Dipole moment           0.00000000     0.00000000    -1.28474020
 Dipole moment /Debye                   0.00000000     0.00000000    -3.26527000

 Orbital energies:

         1.1          2.1          3.1          4.1          5.1          6.1          7.1
    -15.595517   -11.289390    -1.237616    -0.807172    -0.580397     0.141141     0.240597

         1.2          2.2          3.2
     -0.496996     0.168717     0.446676

         1.3          2.3          3.3
     -0.496996     0.168717     0.446676

         1.4          2.4
      0.810718     1.421803

 HOMO      1.2    -0.496996 =     -13.5239eV
 LUMO      6.1     0.141141 =       3.8406eV
 LUMO-HOMO         0.638137 =      17.3646eV


 **********************************************************************************************************************************
 DATASETS  * FILE   NREC   LENGTH (MB)   RECORD NAMES
              1      19       27.60       500      610      700      900      950      970     1000      129      960     1100   
                                          VAR    BASINP    GEOM    SYMINP    ZMAT    AOBASIS   BASIS     P2S    ABASIS      S 
                                         1400     1410     1200     1210     1080     1600     1650     1300     1700   
                                           T        V       H0       H01     AOSYM     SMH    MOLCAS    ERIS     OPER   

              2       4        2.82       700     1000      520     2100   
                                         GEOM     BASIS   MCVARS     RHF  

 PROGRAMS   *        TOTAL        HF       INT
 CPU TIMES  *         0.70      0.07      0.53
 REAL TIME  *         1.31 SEC
 DISK USED  *        47.00 MB      
 **********************************************************************************************************************************


 PROGRAM * CCSD (Closed-shell coupled cluster)     Authors: C. Hampel, H.-J. Werner, 1991, M. Deegan, P.J. Knowles, 1992


 Convergence thresholds:  THRVAR = 1.00D-08  THRDEN = 1.00D-12

 CCSD(T)     terms to be evaluated (factor= 1.000)


 Number of core orbitals:           2 (   2   0   0   0 )
 Number of closed-shell orbitals:   5 (   3   1   1   0 )
 Number of external orbitals:      67 (  28  16  16   7 )

 Molecular orbitals read from record     2100.2  Type=RHF/CANONICAL (state 1.1)

 Number of N-1 electron functions:               5
 Number of N-2 electron functions:              15
 Number of singly external CSFs:               116
 Number of doubly external CSFs:             15189
 Total number of CSFs:                       15306

 Length of J-op  integral file:               0.00 MB
 Length of K-op  integral file:               0.15 MB
 Length of 3-ext integral record:             0.00 MB

 Memory could be reduced to 0.93 Mwords without degradation in triples

 Integral transformation finished. Total CPU:   0.01 sec, npass=  1  Memory used:   0.18 MW

 Reference energy:                    -92.90565019

 MP2 singlet pair energy:              -0.21746616
 MP2 triplet pair energy:              -0.12674804
 MP2 correlation energy:               -0.34421420
 MP2 total energy:                    -93.24986439

 SCS-MP2 correlation energy:           -0.33982484   (PS=  1.200000  PT=  0.333333)
 SCS-MP2 total energy:                -93.24547503

 ITER.      SQ.NORM     CORR.ENERGY   TOTAL ENERGY   ENERGY CHANGE        DEN1      VAR(S)    VAR(P)  DIIS     TIME  TIME/IT
   1      1.11419040    -0.34782943   -93.25347963    -0.00361523     0.00899060  0.25D-02  0.29D-02  1  1     0.03     0.02
   2      1.12365271    -0.34824847   -93.25389866    -0.00041903    -0.00994384  0.48D-04  0.41D-03  2  2     0.04     0.02
   3      1.12861121    -0.34847015   -93.25412034    -0.00022168    -0.00250032  0.12D-04  0.40D-04  3  3     0.06     0.02
   4      1.13064808    -0.34856281   -93.25421300    -0.00009266    -0.00074275  0.29D-06  0.42D-05  4  4     0.07     0.02
   5      1.13108918    -0.34855953   -93.25420973     0.00000328    -0.00012417  0.11D-06  0.37D-06  5  5     0.09     0.02
   6      1.13118192    -0.34855849   -93.25420868     0.00000105    -0.00002459  0.82D-08  0.27D-07  6  6     0.10     0.02
   7      1.13118944    -0.34856061   -93.25421080    -0.00000212    -0.00000226  0.60D-09  0.23D-08  6  1     0.12     0.02
   8      1.13118996    -0.34856107   -93.25421126    -0.00000046     0.00000062  0.50D-10  0.13D-09  6  2     0.13     0.02
   9      1.13119059    -0.34856110   -93.25421129    -0.00000003    -0.00000035  0.33D-11  0.97D-11  6  3     0.14     0.02
  10      1.13119055    -0.34856111   -93.25421131    -0.00000002     0.00000009  0.43D-12  0.95D-12  6  4     0.15     0.02
  11      1.13119052    -0.34856112   -93.25421131    -0.00000000     0.00000001  0.40D-13  0.11D-12  6  5     0.16     0.02
  12      1.13119047    -0.34856112   -93.25421131    -0.00000000     0.00000002  0.56D-14  0.22D-13  6  6     0.18     0.02
  13      1.13119043    -0.34856112   -93.25421131    -0.00000000     0.00000001  0.10D-14  0.23D-14  6  2     0.20     0.02
  14      1.13119042    -0.34856112   -93.25421131    -0.00000000     0.00000000  0.51D-16  0.11D-15  6  1     0.21     0.02
  15      1.13119042    -0.34856112   -93.25421131     0.00000000     0.00000000  0.11D-16  0.14D-16  6  3     0.22     0.02
  16      1.13119042    -0.34856112   -93.25421131    -0.00000000     0.00000000  0.77D-18  0.13D-17  6  4     0.23     0.02
  17      1.13119042    -0.34856112   -93.25421131    -0.00000000     0.00000000  0.33D-18  0.11D-18  6  5     0.27     0.02
  18      1.13119042    -0.34856112   -93.25421131     0.00000000    -0.00000000  0.15D-19  0.21D-19  6  6     0.28     0.02
  19      1.13119042    -0.34856112   -93.25421131     0.00000000    -0.00000000  0.42D-20  0.20D-20  6  2     0.29     0.02
  20      1.13119042    -0.34856112   -93.25421131     0.00000000    -0.00000000  0.75D-22  0.48D-21  6  1     0.30     0.02
  21      1.13119042    -0.34856112   -93.25421131     0.00000000    -0.00000000  0.25D-22  0.88D-22  6  3     0.32     0.02

 Norm of t1 vector:      0.06301665      S-energy:    -0.00000000      T1 diagnostic:  0.01409095
                                                                       D1 diagnostic:  0.02829180

 Doubles amplitudes (print threshold =  0.500E-01):

         I         J         SYM. A    SYM. B    A         B      T(IJ, AB)

         4         4         2         2         1         1     -0.08578763
         5         5         3         3         1         1     -0.08578763
         5         4         3         2         1         1     -0.05388384


 Total CPU time for triples:      0.05 sec


 RESULTS
 =======

  Reference energy                    -92.905650191499
  CCSD singlet pair energy             -0.242285413876
  CCSD triplet pair energy             -0.106275708530
  CCSD correlation energy              -0.348561122406

  Triples (T) contribution             -0.017727206119
  Total correlation energy             -0.366288328525

  CCSD total energy                   -93.254211313905
  CCSD[T] energy                      -93.272739704098
  CCSD-T energy                       -93.271537221736
 !CCSD(T) total energy                -93.271938520024

 Timing summary (sec):

 STEP                 CPU(USER)    SYS     CPU(TOT)    WALL
 Transformation          0.01      0.01      0.02      0.02
 CCSD iterations         0.32      0.05      0.37      0.36
 Triples                 0.05      0.00      0.05      0.06

 Program statistics:

 Available memory in ccsd:               994999800
 Min. memory needed in ccsd:                 67993
 Max. memory used in ccsd:                   79450
 Max. memory used in cckext:                107513 (21 integral passes)



 **********************************************************************************************************************************
 DATASETS  * FILE   NREC   LENGTH (MB)   RECORD NAMES
              1      20       29.54       500      610      700      900      950      970     1000      129      960     1100   
                                          VAR    BASINP    GEOM    SYMINP    ZMAT    AOBASIS   BASIS     P2S    ABASIS      S 
                                         1400     1410     1200     1210     1080     1600     1650     1300     1700     1380   
                                           T        V       H0       H01     AOSYM     SMH    MOLCAS    ERIS     OPER     JKOP   

              2       4        2.82       700     1000      520     2100   
                                         GEOM     BASIS   MCVARS     RHF  

 PROGRAMS   *        TOTAL   CCSD(T)        HF       INT
 CPU TIMES  *         1.12      0.41      0.07      0.53
 REAL TIME  *         1.81 SEC
 DISK USED  *        47.00 MB      
 **********************************************************************************************************************************

 CCSD(T)/cc-pVTZ-DK energy=    -93.271938520024

        CCSD(T)         HF-SCF  
    -93.27193852    -92.90565019
 **********************************************************************************************************************************
 Molpro calculation terminated
 Variable memory released
