
 Primary working directories    : /tmp/r2666/232585.maple
 Secondary working directories  : /tmp/r2666/232585.maple
 Wavefunction directory         : /ddn/home4/r2666/wfu/
 Main file repository           : /tmp/r2666/232585.maple/

 SHA1      : d5ffa45e93fdbca01ffc919aa182cfdae0147319
 NAME      : 2015.1.35
 ARCHNAME  : linux/x86_64
 FC        : /opt/intel/composer_xe_2015.1.133/bin/intel64/ifort
 BLASLIB   : -Wl,-_start-group /opt/intel/mkl/lib/intel64/libmkl_intel_ilp64.a /opt/intel/mkl/lib/intel64/libmkl_intel_thread.a /opt/intel/mkl/lib/intel64/libmkl_core.a -Wl,-_end-group
 id        : olemiss

 Nodes     nprocs
 cn090        1

 Using customized tuning parameters: mindgm=1; mindgv=20; mindgc=4; mindgr=1; noblas=0; minvec=7
 default implementation of scratch files=df  

 ***,hcn CCSD(T)/TZ-F12 QFF
 memory, 995, m;
 gthresh,energy=1.d-12,zero=1.d-22,oneint=1.d-22,twoint=1.d-22;
 gthresh,optgrad=1.d-8,optstep=1.d-8;
 nocompress;
 geomtyp=xyz
 bohr
 geometry={
 3
         29        29
 N       -0.0092326816        0.0000000399        1.1245068543
 C        0.0192234811       -0.0000000010       -1.0541569835
 H       -0.0099907995       -0.0000000388       -3.0674198528
 }
 
 basis=vtz-dk
 dkroll=0
   {hf,maxit=500;accu,20;}
 {ccsd(t),nocheck,maxit=250;orbital,IGNORE_ERROR;}

 Variables initialized (889), CPU time= 0.01 sec
 Commands  initialized (702), CPU time= 0.01 sec, 572 directives.
 Default parameters read. Elapsed time= 0.05 sec

 Checking input...
 Passed
1


                                         ***  PROGRAM SYSTEM MOLPRO  ***
                                       Copyright, TTI GmbH Stuttgart, 2015
                                    Version 2015.1 linked Jul  9 2018 13:16:40


 **********************************************************************************************************************************
 LABEL *   hcn CCSD(T)/TZ-F12 QFF                                                        
  64 bit serial version                                                                  DATE: 06-Feb-20          TIME: 09:54:35  
 **********************************************************************************************************************************

 SHA1:             d5ffa45e93fdbca01ffc919aa182cfdae0147319
 **********************************************************************************************************************************

 THRESHOLDS:

 ZERO    =  1.00D-22  ONEINT  =  1.00D-22  TWOINT  =  1.00D-22  PREFAC  =  1.00D-14  LOCALI  =  1.00D-09  EORDER  =  1.00D-04
 ENERGY  =  1.00D-12  ETEST   =  0.00D+00  EDENS   =  0.00D+00  THRDEDEF=  1.00D-06  GRADIENT=  1.00D-02  STEP    =  1.00D-03
 ORBITAL =  1.00D-05  CIVEC   =  1.00D-05  COEFF   =  1.00D-04  PRINTCI =  5.00D-02  PUNCHCI =  9.90D+01  OPTGRAD =  3.00D-04
 OPTENERG=  1.00D-06  OPTSTEP =  3.00D-04  THRGRAD =  1.00D-10  COMPRESS=  1.00D-11  VARMIN  =  1.00D-07  VARMAX  =  1.00D-03
 THRDOUB =  0.00D+00  THRDIV  =  1.00D-05  THRRED  =  1.00D-07  THRPSP  =  1.00D+00  THRDC   =  1.00D-10  THRCS   =  1.00D-10
 THRNRM  =  1.00D-08  THREQ   =  0.00D+00  THRDE   =  1.00D+00  THRREF  =  1.00D-05  SPARFAC =  1.00D+00  THRDLP  =  1.00D-07
 THRDIA  =  1.00D-10  THRDLS  =  1.00D-07  THRGPS  =  0.00D+00  THRKEX  =  0.00D+00  THRDIS  =  2.00D-01  THRVAR  =  1.00D-10
 THRLOC  =  1.00D-06  THRGAP  =  1.00D-06  THRLOCT = -1.00D+00  THRGAPT = -1.00D+00  THRORB  =  1.00D-06  THRMLTP =  0.00D+00
 THRCPQCI=  1.00D-10  KEXTA   =  0.00D+00  THRCOARS=  0.00D+00  SYMTOL  =  1.00D-06  GRADTOL =  1.00D-06  THROVL  =  1.00D-08
 THRORTH =  1.00D-08  GRID    =  1.00D-06  GRIDMAX =  1.00D-03  DTMAX   =  0.00D+00  THROCCDE=  1.00D-01  THROCCDE=  1.00D-01



 THRESHOLDS:

 ZERO    =  1.00D-22  ONEINT  =  1.00D-22  TWOINT  =  1.00D-22  PREFAC  =  1.00D-14  LOCALI  =  1.00D-09  EORDER  =  1.00D-04
 ENERGY  =  1.00D-12  ETEST   =  0.00D+00  EDENS   =  0.00D+00  THRDEDEF=  1.00D-06  GRADIENT=  1.00D-02  STEP    =  1.00D-03
 ORBITAL =  1.00D-05  CIVEC   =  1.00D-05  COEFF   =  1.00D-04  PRINTCI =  5.00D-02  PUNCHCI =  9.90D+01  OPTGRAD =  1.00D-08
 OPTENERG=  1.00D-06  OPTSTEP =  1.00D-08  THRGRAD =  1.00D-10  COMPRESS=  1.00D-11  VARMIN  =  1.00D-07  VARMAX  =  1.00D-03
 THRDOUB =  0.00D+00  THRDIV  =  1.00D-05  THRRED  =  1.00D-07  THRPSP  =  1.00D+00  THRDC   =  1.00D-10  THRCS   =  1.00D-10
 THRNRM  =  1.00D-08  THREQ   =  0.00D+00  THRDE   =  1.00D+00  THRREF  =  1.00D-05  SPARFAC =  1.00D+00  THRDLP  =  1.00D-07
 THRDIA  =  1.00D-10  THRDLS  =  1.00D-07  THRGPS  =  0.00D+00  THRKEX  =  0.00D+00  THRDIS  =  2.00D-01  THRVAR  =  1.00D-10
 THRLOC  =  1.00D-06  THRGAP  =  1.00D-06  THRLOCT = -1.00D+00  THRGAPT = -1.00D+00  THRORB  =  1.00D-06  THRMLTP =  0.00D+00
 THRCPQCI=  1.00D-10  KEXTA   =  0.00D+00  THRCOARS=  0.00D+00  SYMTOL  =  1.00D-06  GRADTOL =  1.00D-06  THROVL  =  1.00D-08
 THRORTH =  1.00D-08  GRID    =  1.00D-06  GRIDMAX =  1.00D-03  DTMAX   =  0.00D+00  THROCCDE=  1.00D-01  THROCCDE=  1.00D-01



 Input parameters for SORTINT:

 COMPRESS =    0.000000
 C_FINAL  =    1.000000
 DEBUG    =   -1.000000
 C_SORT1  =    0.000000
 C_SEWARD =    0.000000
 THRESH   =    0.000000
 IO       =  molpro                                                          
 SPRI     =    0.000000
 SETTING GEOMTYP        =    XYZ
 ZUNIT=BOHR
 

 Variable memory set to  995000000 words,  buffer space   230000 words

 SETTING BASIS          =    VTZ-DK
 SETTING DKROLL         =     0.00000000D+00                                  


 Recomputing integrals since basis changed


 Using spherical harmonics

 Library entry N      S cc-pVTZ-DK           selected for orbital group  1
 Library entry N      P cc-pVTZ-DK           selected for orbital group  1
 Library entry N      D cc-pVTZ-DK           selected for orbital group  1
 Library entry N      F cc-pVTZ-DK           selected for orbital group  1
 Library entry C      S cc-pVTZ-DK           selected for orbital group  2
 Library entry C      P cc-pVTZ-DK           selected for orbital group  2
 Library entry C      D cc-pVTZ-DK           selected for orbital group  2
 Library entry C      F cc-pVTZ-DK           selected for orbital group  2
 Library entry H      S cc-pVTZ-DK           selected for orbital group  3
 Library entry H      P cc-pVTZ-DK           selected for orbital group  3
 Library entry H      D cc-pVTZ-DK           selected for orbital group  3


 PROGRAM * SEWARD (Integral evaluation for generally contracted gaussian basis sets)     Author: Roland Lindh, 1990

 Geometry written to block  1 of record 700


 Point group  Cs  



 ATOMIC COORDINATES

 NR  ATOM    CHARGE       X              Y              Z

   1  N       7.00   -0.009232682    0.000000000    1.124506854
   2  C       6.00    0.019223481    0.000000000   -1.054156983
   3  H       1.00   -0.009990799    0.000000000   -3.067419853

 Bond lengths in Bohr (Angstrom)

 1-2  2.178849667  2-3  2.013474821
     ( 1.152997590)     ( 1.065484990)

 Bond angles

  1-2-3  178.42033002

 NUCLEAR CHARGE:                   14
 NUMBER OF PRIMITIVE AOS:         111
 NUMBER OF SYMMETRY AOS:          100
 NUMBER OF CONTRACTIONS:           74   (  50A'  +  24A"  )
 NUMBER OF CORE ORBITALS:           2   (   2A'  +   0A"  )
 NUMBER OF VALENCE ORBITALS:        9   (   7A'  +   2A"  )


 NUCLEAR REPULSION ENERGY   23.92602617

 Eigenvalues of metric

         1 0.109E-02 0.145E-02 0.245E-02 0.631E-02 0.109E-01 0.153E-01 0.191E-01 0.292E-01
         2 0.153E-01 0.363E-01 0.608E-01 0.887E-01 0.132E+00 0.284E+00 0.292E+00 0.376E+00


 Contracted 2-electron integrals neglected if value below      1.0D-22

        1874133. INTEGRALS WRITTEN OUT IN     458 BLOCKS ON RECORD 1290 OF FILE 1


 NUMBER OF SORTED TWO-ELECTRON INTEGRALS:    2006100.     BUFFER LENGTH:  32768
 NUMBER OF SEGMENTS:   1  SEGMENT LENGTH:    2006100      RECORD LENGTH: 524288

 Memory used in sort:       2.56 MW

 SORT1 READ     1874133. AND WROTE     1914046. INTEGRALS IN      6 RECORDS. CPU TIME:     0.02 SEC, REAL TIME:     0.04 SEC
 SORT2 READ     1914046. AND WROTE     2006100. INTEGRALS IN      1 RECORDS. CPU TIME:     0.05 SEC, REAL TIME:     0.05 SEC

 FILE SIZES:   FILE 1:    50.1 MBYTE,  FILE 4:    25.2 MBYTE,   TOTAL:     75.3 MBYTE

 OPERATOR DM      FOR CENTER  0  COORDINATES:    0.000000    0.000000    0.000000


 **********************************************************************************************************************************
 DATASETS  * FILE   NREC   LENGTH (MB)   RECORD NAMES
              1      19       35.89       500      610      700      900      950      970     1000      129      960     1100   
                                          VAR    BASINP    GEOM    SYMINP    ZMAT    AOBASIS   BASIS     P2S    ABASIS      S 
                                         1400     1410     1200     1210     1080     1600     1650     1300     1700   
                                           T        V       H0       H01     AOSYM     SMH    MOLCAS    ERIS     OPER   

 PROGRAMS   *        TOTAL       INT
 CPU TIMES  *         0.65      0.56
 REAL TIME  *         3.31 SEC
 DISK USED  *        75.59 MB      
 **********************************************************************************************************************************


 PROGRAM * RHF-SCF (CLOSED SHELL)       Authors: W. Meyer, H.-J. Werner


 NUMBER OF ELECTRONS:       7+    7-
 CONVERGENCE THRESHOLDS:    1.00E-10 (Density)    1.00E-13 (Energy)
 MAX. NUMBER OF ITERATIONS:      500
 INTERPOLATION TYPE:            DIIS
 INTERPOLATION STEPS:              2 (START)      1 (STEP)
 LEVEL SHIFTS:                  0.00 (CLOSED)  0.00 (OPEN) 



 Orbital guess generated from atomic densities. Full valence occupancy:    9   2

 Molecular orbital dump at record        2100.2

 Initial occupancy:   6   1

 ITERATION    DDIFF          GRAD             ENERGY        2-EL.EN.            DIPOLE MOMENTS         DIIS   ORB.
    1      0.000D+00      0.000D+00       -92.88109267    111.976054    0.01381    0.00000   -1.76526    0    start
    2      0.000D+00      0.889D-02       -92.89010845    111.145808   -0.00492    0.00000   -0.88688    1    diag
    3      0.143D-01      0.797D-02       -92.90493047    111.662066    0.00271    0.00000   -1.29018    2    diag
    4      0.717D-02      0.643D-03       -92.90514957    111.626239    0.00203    0.00000   -1.28144    3    diag
    5      0.114D-02      0.140D-03       -92.90516179    111.636568    0.00182    0.00000   -1.28010    4    diag
    6      0.305D-03      0.389D-04       -92.90516254    111.631733    0.00179    0.00000   -1.28017    5    diag
    7      0.698D-04      0.140D-04       -92.90516261    111.632836    0.00178    0.00000   -1.28029    6    diag
    8      0.240D-04      0.268D-05       -92.90516261    111.632784    0.00178    0.00000   -1.28027    7    diag
    9      0.441D-05      0.297D-06       -92.90516261    111.632791    0.00178    0.00000   -1.28027    8    diag
   10      0.629D-06      0.422D-07       -92.90516261    111.632791    0.00178    0.00000   -1.28027    9    orth
   11      0.873D-07      0.171D-07       -92.90516261    111.632791    0.00178    0.00000   -1.28027    9    diag
   12      0.527D-07      0.716D-08       -92.90516261    111.632791    0.00178    0.00000   -1.28027    9    diag
   13      0.318D-07      0.155D-08       -92.90516261    111.632791    0.00178    0.00000   -1.28027    9    diag
   14      0.526D-08      0.522D-09       -92.90516261    111.632791    0.00178    0.00000   -1.28027    9    diag
   15      0.145D-08      0.167D-09       -92.90516261    111.632791    0.00178    0.00000   -1.28027    9    diag
   16      0.448D-09      0.275D-10       -92.90516261    111.632791    0.00178    0.00000   -1.28027    9    diag
   17      0.630D-10      0.919D-11       -92.90516261    111.632791    0.00178    0.00000   -1.28027    9    diag
   18      0.151D-10      0.165D-11       -92.90516261    111.632791    0.00178    0.00000   -1.28027    9    diag
   19      0.502D-11      0.334D-12       -92.90516261    111.632791    0.00178    0.00000   -1.28027    9    fixocc
   20      0.107D-11      0.107D-12       -92.90516261    111.632791    0.00178    0.00000   -1.28027    0    orth

 Final occupancy:   6   1

 !RHF STATE 1.1 Energy                -92.905162612980
 Nuclear energy                        23.92602617
 One-electron energy                 -172.64758420
 Two-electron energy                   55.81639542
 Virial quotient                       -1.00092746
 !RHF STATE 1.1 Dipole moment           0.00177554     0.00000000    -1.28026932
 Dipole moment /Debye                   0.00451267     0.00000000    -3.25390689

 Orbital energies:

         1.1          2.1          3.1          4.1          5.1          6.1          7.1          8.1
    -15.597516   -11.290450    -1.235405    -0.811775    -0.580999    -0.495621     0.141803     0.166914

         1.2          2.2          3.2
     -0.495630     0.166939     0.446456

 HOMO      6.1    -0.495621 =     -13.4865eV
 LUMO      7.1     0.141803 =       3.8586eV
 LUMO-HOMO         0.637424 =      17.3452eV


 **********************************************************************************************************************************
 DATASETS  * FILE   NREC   LENGTH (MB)   RECORD NAMES
              1      19       35.89       500      610      700      900      950      970     1000      129      960     1100   
                                          VAR    BASINP    GEOM    SYMINP    ZMAT    AOBASIS   BASIS     P2S    ABASIS      S 
                                         1400     1410     1200     1210     1080     1600     1650     1300     1700   
                                           T        V       H0       H01     AOSYM     SMH    MOLCAS    ERIS     OPER   

              2       4        2.85       700     1000      520     2100   
                                         GEOM     BASIS   MCVARS     RHF  

 PROGRAMS   *        TOTAL        HF       INT
 CPU TIMES  *         0.86      0.21      0.56
 REAL TIME  *         3.62 SEC
 DISK USED  *        75.59 MB      
 **********************************************************************************************************************************


 PROGRAM * CCSD (Closed-shell coupled cluster)     Authors: C. Hampel, H.-J. Werner, 1991, M. Deegan, P.J. Knowles, 1992


 Convergence thresholds:  THRVAR = 1.00D-08  THRDEN = 1.00D-12

 CCSD(T)     terms to be evaluated (factor= 1.000)


 Number of core orbitals:           2 (   2   0 )
 Number of closed-shell orbitals:   5 (   4   1 )
 Number of external orbitals:      67 (  44  23 )

 Molecular orbitals read from record     2100.2  Type=RHF/CANONICAL (state 1.1)

 Number of N-1 electron functions:               5
 Number of N-2 electron functions:              15
 Number of singly external CSFs:               199
 Number of doubly external CSFs:             29216
 Total number of CSFs:                       29416

 Length of J-op  integral file:               0.00 MB
 Length of K-op  integral file:               0.25 MB
 Length of 3-ext integral record:             0.00 MB

 Memory could be reduced to 1.53 Mwords without degradation in triples

 Integral transformation finished. Total CPU:   0.03 sec, npass=  1  Memory used:   0.47 MW

 Reference energy:                    -92.90516261

 MP2 singlet pair energy:              -0.21795591
 MP2 triplet pair energy:              -0.12715978
 MP2 correlation energy:               -0.34511569
 MP2 total energy:                    -93.25027830

 SCS-MP2 correlation energy:           -0.34066873   (PS=  1.200000  PT=  0.333333)
 SCS-MP2 total energy:                -93.24583135

 ITER.      SQ.NORM     CORR.ENERGY   TOTAL ENERGY   ENERGY CHANGE        DEN1      VAR(S)    VAR(P)  DIIS     TIME  TIME/IT
   1      1.11463553    -0.34847245   -93.25363506    -0.00335676     0.00942366  0.25D-02  0.30D-02  1  1     0.08     0.04
   2      1.12418510    -0.34884566   -93.25400828    -0.00037322    -0.01003810  0.49D-04  0.41D-03  2  2     0.11     0.04
   3      1.12920713    -0.34906899   -93.25423160    -0.00022333    -0.00252178  0.12D-04  0.41D-04  3  3     0.13     0.04
   4      1.13129241    -0.34916441   -93.25432703    -0.00009543    -0.00075651  0.28D-06  0.44D-05  4  4     0.16     0.03
   5      1.13174660    -0.34916072   -93.25432334     0.00000369    -0.00012731  0.10D-06  0.39D-06  5  5     0.19     0.03
   6      1.13184136    -0.34915977   -93.25432239     0.00000095    -0.00002500  0.85D-08  0.28D-07  6  6     0.22     0.03
   7      1.13184899    -0.34916202   -93.25432463    -0.00000224    -0.00000227  0.59D-09  0.24D-08  6  1     0.25     0.03
   8      1.13184944    -0.34916250   -93.25432511    -0.00000049     0.00000067  0.44D-10  0.14D-09  6  2     0.28     0.03
   9      1.13185010    -0.34916253   -93.25432515    -0.00000003    -0.00000037  0.45D-11  0.96D-11  6  3     0.31     0.03
  10      1.13185004    -0.34916255   -93.25432516    -0.00000002     0.00000009  0.42D-12  0.99D-12  6  4     0.34     0.03
  11      1.13185001    -0.34916255   -93.25432516    -0.00000000     0.00000001  0.11D-12  0.10D-12  6  5     0.36     0.03
  12      1.13184995    -0.34916256   -93.25432517    -0.00000000     0.00000002  0.16D-13  0.23D-13  6  6     0.39     0.03
  13      1.13184991    -0.34916256   -93.25432517    -0.00000000     0.00000001  0.37D-14  0.23D-14  6  2     0.42     0.03
  14      1.13184990    -0.34916256   -93.25432517    -0.00000000     0.00000000  0.34D-15  0.19D-15  6  1     0.45     0.03
  15      1.13184990    -0.34916256   -93.25432517     0.00000000     0.00000000  0.94D-16  0.43D-16  6  3     0.48     0.03
  16      1.13184990    -0.34916256   -93.25432517    -0.00000000    -0.00000000  0.91D-17  0.57D-17  6  4     0.50     0.03
  17      1.13184990    -0.34916256   -93.25432517     0.00000000    -0.00000000  0.93D-18  0.77D-18  6  5     0.53     0.03
  18      1.13184990    -0.34916256   -93.25432517     0.00000000    -0.00000000  0.30D-19  0.85D-19  6  6     0.56     0.03
  19      1.13184990    -0.34916256   -93.25432517     0.00000000    -0.00000000  0.47D-20  0.10D-19  6  2     0.58     0.03
  20      1.13184990    -0.34916256   -93.25432517     0.00000000    -0.00000000  0.51D-21  0.17D-20  6  1     0.61     0.03
  21      1.13184990    -0.34916256   -93.25432517     0.00000000    -0.00000000  0.19D-21  0.32D-21  6  3     0.63     0.03
  22      1.13184990    -0.34916256   -93.25432517     0.00000000    -0.00000000  0.34D-22  0.28D-22  6  4     0.65     0.03

 Norm of t1 vector:      0.06360341      S-energy:    -0.00000000      T1 diagnostic:  0.01422216
                                                                       D1 diagnostic:  0.02863900

 Doubles amplitudes (print threshold =  0.500E-01):

         I         J         SYM. A    SYM. B    A         B      T(IJ, AB)

         4         4         1         1         2         2     -0.08654660
         5         5         2         2         1         1     -0.08693594
         5         4         2         1         1         2     -0.05437215


 Total CPU time for triples:      0.14 sec


 RESULTS
 =======

  Reference energy                    -92.905162612980
  CCSD singlet pair energy             -0.242762317006
  CCSD triplet pair energy             -0.106400239899
  CCSD correlation energy              -0.349162556906

  Triples (T) contribution             -0.017860193320
  Total correlation energy             -0.367022750226

  CCSD total energy                   -93.254325169886
  CCSD[T] energy                      -93.273004222156
  CCSD-T energy                       -93.271776337834
 !CCSD(T) total energy                -93.272185363206

 Timing summary (sec):

 STEP                 CPU(USER)    SYS     CPU(TOT)    WALL
 Transformation          0.04      0.00      0.04      0.38
 CCSD iterations         0.61      0.09      0.70      0.69
 Triples                 0.14      0.01      0.15      0.15

 Program statistics:

 Available memory in ccsd:               994999800
 Min. memory needed in ccsd:                125648
 Max. memory used in ccsd:                  146560
 Max. memory used in cckext:                201693 (22 integral passes)



 **********************************************************************************************************************************
 DATASETS  * FILE   NREC   LENGTH (MB)   RECORD NAMES
              1      20       39.60       500      610      700      900      950      970     1000      129      960     1100   
                                          VAR    BASINP    GEOM    SYMINP    ZMAT    AOBASIS   BASIS     P2S    ABASIS      S 
                                         1400     1410     1200     1210     1080     1600     1650     1300     1700     1380   
                                           T        V       H0       H01     AOSYM     SMH    MOLCAS    ERIS     OPER     JKOP   

              2       4        2.85       700     1000      520     2100   
                                         GEOM     BASIS   MCVARS     RHF  

 PROGRAMS   *        TOTAL   CCSD(T)        HF       INT
 CPU TIMES  *         1.70      0.84      0.21      0.56
 REAL TIME  *         6.41 SEC
 DISK USED  *        75.59 MB      
 **********************************************************************************************************************************

 CCSD(T)/cc-pVTZ-DK energy=    -93.272185363206

        CCSD(T)         HF-SCF  
    -93.27218536    -92.90516261
 **********************************************************************************************************************************
 Molpro calculation terminated
 Variable memory released
