
 Primary working directories    : /tmp/r2666/232599.maple
 Secondary working directories  : /tmp/r2666/232599.maple
 Wavefunction directory         : /ddn/home4/r2666/wfu/
 Main file repository           : /tmp/r2666/232599.maple/

 SHA1      : d5ffa45e93fdbca01ffc919aa182cfdae0147319
 NAME      : 2015.1.35
 ARCHNAME  : linux/x86_64
 FC        : /opt/intel/composer_xe_2015.1.133/bin/intel64/ifort
 BLASLIB   : -Wl,-_start-group /opt/intel/mkl/lib/intel64/libmkl_intel_ilp64.a /opt/intel/mkl/lib/intel64/libmkl_intel_thread.a /opt/intel/mkl/lib/intel64/libmkl_core.a -Wl,-_end-group
 id        : olemiss

 Nodes     nprocs
 cn088        1

 Using customized tuning parameters: mindgm=1; mindgv=20; mindgc=4; mindgr=1; noblas=0; minvec=7
 default implementation of scratch files=df  

 ***,hcn CCSD(T)/TZ-F12 QFF
 memory, 995, m;
 gthresh,energy=1.d-12,zero=1.d-22,oneint=1.d-22,twoint=1.d-22;
 gthresh,optgrad=1.d-8,optstep=1.d-8;
 nocompress;
 geomtyp=xyz
 bohr
 geometry={
 3
         43        43
 N       -0.0046370942        0.0000001456        1.1341011678
 C        0.0096550187       -0.0000000038       -1.0541504567
 H       -0.0050179246       -0.0000001418       -3.0770206931
 }
 
 basis=vtz-dk
 dkroll=0
   {hf,maxit=500;accu,20;}
 {ccsd(t),nocheck,maxit=250;orbital,IGNORE_ERROR;}

 Variables initialized (889), CPU time= 0.01 sec
 Commands  initialized (702), CPU time= 0.01 sec, 572 directives.
 Default parameters read. Elapsed time= 0.04 sec

 Checking input...
 Passed
1


                                         ***  PROGRAM SYSTEM MOLPRO  ***
                                       Copyright, TTI GmbH Stuttgart, 2015
                                    Version 2015.1 linked Jul  9 2018 13:16:40


 **********************************************************************************************************************************
 LABEL *   hcn CCSD(T)/TZ-F12 QFF                                                        
  64 bit serial version                                                                  DATE: 06-Feb-20          TIME: 09:54:37  
 **********************************************************************************************************************************

 SHA1:             d5ffa45e93fdbca01ffc919aa182cfdae0147319
 **********************************************************************************************************************************

 THRESHOLDS:

 ZERO    =  1.00D-22  ONEINT  =  1.00D-22  TWOINT  =  1.00D-22  PREFAC  =  1.00D-14  LOCALI  =  1.00D-09  EORDER  =  1.00D-04
 ENERGY  =  1.00D-12  ETEST   =  0.00D+00  EDENS   =  0.00D+00  THRDEDEF=  1.00D-06  GRADIENT=  1.00D-02  STEP    =  1.00D-03
 ORBITAL =  1.00D-05  CIVEC   =  1.00D-05  COEFF   =  1.00D-04  PRINTCI =  5.00D-02  PUNCHCI =  9.90D+01  OPTGRAD =  3.00D-04
 OPTENERG=  1.00D-06  OPTSTEP =  3.00D-04  THRGRAD =  1.00D-10  COMPRESS=  1.00D-11  VARMIN  =  1.00D-07  VARMAX  =  1.00D-03
 THRDOUB =  0.00D+00  THRDIV  =  1.00D-05  THRRED  =  1.00D-07  THRPSP  =  1.00D+00  THRDC   =  1.00D-10  THRCS   =  1.00D-10
 THRNRM  =  1.00D-08  THREQ   =  0.00D+00  THRDE   =  1.00D+00  THRREF  =  1.00D-05  SPARFAC =  1.00D+00  THRDLP  =  1.00D-07
 THRDIA  =  1.00D-10  THRDLS  =  1.00D-07  THRGPS  =  0.00D+00  THRKEX  =  0.00D+00  THRDIS  =  2.00D-01  THRVAR  =  1.00D-10
 THRLOC  =  1.00D-06  THRGAP  =  1.00D-06  THRLOCT = -1.00D+00  THRGAPT = -1.00D+00  THRORB  =  1.00D-06  THRMLTP =  0.00D+00
 THRCPQCI=  1.00D-10  KEXTA   =  0.00D+00  THRCOARS=  0.00D+00  SYMTOL  =  1.00D-06  GRADTOL =  1.00D-06  THROVL  =  1.00D-08
 THRORTH =  1.00D-08  GRID    =  1.00D-06  GRIDMAX =  1.00D-03  DTMAX   =  0.00D+00  THROCCDE=  1.00D-01  THROCCDE=  1.00D-01



 THRESHOLDS:

 ZERO    =  1.00D-22  ONEINT  =  1.00D-22  TWOINT  =  1.00D-22  PREFAC  =  1.00D-14  LOCALI  =  1.00D-09  EORDER  =  1.00D-04
 ENERGY  =  1.00D-12  ETEST   =  0.00D+00  EDENS   =  0.00D+00  THRDEDEF=  1.00D-06  GRADIENT=  1.00D-02  STEP    =  1.00D-03
 ORBITAL =  1.00D-05  CIVEC   =  1.00D-05  COEFF   =  1.00D-04  PRINTCI =  5.00D-02  PUNCHCI =  9.90D+01  OPTGRAD =  1.00D-08
 OPTENERG=  1.00D-06  OPTSTEP =  1.00D-08  THRGRAD =  1.00D-10  COMPRESS=  1.00D-11  VARMIN  =  1.00D-07  VARMAX  =  1.00D-03
 THRDOUB =  0.00D+00  THRDIV  =  1.00D-05  THRRED  =  1.00D-07  THRPSP  =  1.00D+00  THRDC   =  1.00D-10  THRCS   =  1.00D-10
 THRNRM  =  1.00D-08  THREQ   =  0.00D+00  THRDE   =  1.00D+00  THRREF  =  1.00D-05  SPARFAC =  1.00D+00  THRDLP  =  1.00D-07
 THRDIA  =  1.00D-10  THRDLS  =  1.00D-07  THRGPS  =  0.00D+00  THRKEX  =  0.00D+00  THRDIS  =  2.00D-01  THRVAR  =  1.00D-10
 THRLOC  =  1.00D-06  THRGAP  =  1.00D-06  THRLOCT = -1.00D+00  THRGAPT = -1.00D+00  THRORB  =  1.00D-06  THRMLTP =  0.00D+00
 THRCPQCI=  1.00D-10  KEXTA   =  0.00D+00  THRCOARS=  0.00D+00  SYMTOL  =  1.00D-06  GRADTOL =  1.00D-06  THROVL  =  1.00D-08
 THRORTH =  1.00D-08  GRID    =  1.00D-06  GRIDMAX =  1.00D-03  DTMAX   =  0.00D+00  THROCCDE=  1.00D-01  THROCCDE=  1.00D-01



 Input parameters for SORTINT:

 COMPRESS =    0.000000
 C_FINAL  =    1.000000
 DEBUG    =   -1.000000
 C_SORT1  =    0.000000
 C_SEWARD =    0.000000
 THRESH   =    0.000000
 IO       =  molpro                                                          
 SPRI     =    0.000000
 SETTING GEOMTYP        =    XYZ
 ZUNIT=BOHR
 

 Variable memory set to  995000000 words,  buffer space   230000 words

 SETTING BASIS          =    VTZ-DK
 SETTING DKROLL         =     0.00000000D+00                                  


 Recomputing integrals since basis changed


 Using spherical harmonics

 Library entry N      S cc-pVTZ-DK           selected for orbital group  1
 Library entry N      P cc-pVTZ-DK           selected for orbital group  1
 Library entry N      D cc-pVTZ-DK           selected for orbital group  1
 Library entry N      F cc-pVTZ-DK           selected for orbital group  1
 Library entry C      S cc-pVTZ-DK           selected for orbital group  2
 Library entry C      P cc-pVTZ-DK           selected for orbital group  2
 Library entry C      D cc-pVTZ-DK           selected for orbital group  2
 Library entry C      F cc-pVTZ-DK           selected for orbital group  2
 Library entry H      S cc-pVTZ-DK           selected for orbital group  3
 Library entry H      P cc-pVTZ-DK           selected for orbital group  3
 Library entry H      D cc-pVTZ-DK           selected for orbital group  3


 PROGRAM * SEWARD (Integral evaluation for generally contracted gaussian basis sets)     Author: Roland Lindh, 1990

 Geometry written to block  1 of record 700


 Point group  Cs  



 ATOMIC COORDINATES

 NR  ATOM    CHARGE       X              Y              Z

   1  N       7.00   -0.004637094    0.000000000    1.134101168
   2  C       6.00    0.009655019    0.000000000   -1.054150457
   3  H       1.00   -0.005017925    0.000000000   -3.077020693

 Bond lengths in Bohr (Angstrom)

 1-2  2.188298297  2-3  2.022923451
     ( 1.157997589)     ( 1.070484990)

 Bond angles

  1-2-3  179.21020061

 NUCLEAR CHARGE:                   14
 NUMBER OF PRIMITIVE AOS:         111
 NUMBER OF SYMMETRY AOS:          100
 NUMBER OF CONTRACTIONS:           74   (  50A'  +  24A"  )
 NUMBER OF CORE ORBITALS:           2   (   2A'  +   0A"  )
 NUMBER OF VALENCE ORBITALS:        9   (   7A'  +   2A"  )


 NUCLEAR REPULSION ENERGY   23.82126514

 Eigenvalues of metric

         1 0.110E-02 0.147E-02 0.247E-02 0.642E-02 0.110E-01 0.157E-01 0.195E-01 0.294E-01
         2 0.156E-01 0.365E-01 0.611E-01 0.903E-01 0.133E+00 0.288E+00 0.294E+00 0.379E+00


 Contracted 2-electron integrals neglected if value below      1.0D-22

        1874113. INTEGRALS WRITTEN OUT IN     458 BLOCKS ON RECORD 1290 OF FILE 1


 NUMBER OF SORTED TWO-ELECTRON INTEGRALS:    2006100.     BUFFER LENGTH:  32768
 NUMBER OF SEGMENTS:   1  SEGMENT LENGTH:    2006100      RECORD LENGTH: 524288

 Memory used in sort:       2.56 MW

 SORT1 READ     1874113. AND WROTE     1914026. INTEGRALS IN      6 RECORDS. CPU TIME:     0.02 SEC, REAL TIME:     0.05 SEC
 SORT2 READ     1914026. AND WROTE     2006100. INTEGRALS IN      1 RECORDS. CPU TIME:     0.04 SEC, REAL TIME:     0.06 SEC

 FILE SIZES:   FILE 1:    50.1 MBYTE,  FILE 4:    25.2 MBYTE,   TOTAL:     75.3 MBYTE

 OPERATOR DM      FOR CENTER  0  COORDINATES:    0.000000    0.000000    0.000000


 **********************************************************************************************************************************
 DATASETS  * FILE   NREC   LENGTH (MB)   RECORD NAMES
              1      19       35.89       500      610      700      900      950      970     1000      129      960     1100   
                                          VAR    BASINP    GEOM    SYMINP    ZMAT    AOBASIS   BASIS     P2S    ABASIS      S 
                                         1400     1410     1200     1210     1080     1600     1650     1300     1700   
                                           T        V       H0       H01     AOSYM     SMH    MOLCAS    ERIS     OPER   

 PROGRAMS   *        TOTAL       INT
 CPU TIMES  *         0.60      0.49
 REAL TIME  *         1.15 SEC
 DISK USED  *        75.59 MB      
 **********************************************************************************************************************************


 PROGRAM * RHF-SCF (CLOSED SHELL)       Authors: W. Meyer, H.-J. Werner


 NUMBER OF ELECTRONS:       7+    7-
 CONVERGENCE THRESHOLDS:    1.00E-10 (Density)    1.00E-13 (Energy)
 MAX. NUMBER OF ITERATIONS:      500
 INTERPOLATION TYPE:            DIIS
 INTERPOLATION STEPS:              2 (START)      1 (STEP)
 LEVEL SHIFTS:                  0.00 (CLOSED)  0.00 (OPEN) 



 Orbital guess generated from atomic densities. Full valence occupancy:    9   2

 Molecular orbital dump at record        2100.2

 Initial occupancy:   6   1

 ITERATION    DDIFF          GRAD             ENERGY        2-EL.EN.            DIPOLE MOMENTS         DIIS   ORB.
    1      0.000D+00      0.000D+00       -92.88005256    111.755333    0.00693    0.00000   -1.77553    0    start
    2      0.000D+00      0.891D-02       -92.88886575    110.948823   -0.00257    0.00000   -0.88281    1    diag
    3      0.144D-01      0.806D-02       -92.90409633    111.464395    0.00132    0.00000   -1.29419    2    diag
    4      0.723D-02      0.645D-03       -92.90431744    111.425697    0.00097    0.00000   -1.28543    3    diag
    5      0.114D-02      0.144D-03       -92.90433003    111.437530    0.00087    0.00000   -1.28413    4    diag
    6      0.307D-03      0.403D-04       -92.90433086    111.432365    0.00085    0.00000   -1.28414    5    diag
    7      0.739D-04      0.146D-04       -92.90433094    111.433450    0.00085    0.00000   -1.28428    6    diag
    8      0.250D-04      0.278D-05       -92.90433094    111.433400    0.00084    0.00000   -1.28426    7    diag
    9      0.459D-05      0.302D-06       -92.90433094    111.433407    0.00084    0.00000   -1.28425    8    diag
   10      0.639D-06      0.317D-07       -92.90433094    111.433407    0.00084    0.00000   -1.28425    9    orth
   11      0.607D-07      0.631D-08       -92.90433094    111.433408    0.00084    0.00000   -1.28425    9    diag
   12      0.154D-07      0.281D-08       -92.90433094    111.433407    0.00084    0.00000   -1.28425    9    diag
   13      0.899D-08      0.107D-08       -92.90433094    111.433407    0.00084    0.00000   -1.28425    9    diag
   14      0.451D-08      0.303D-09       -92.90433094    111.433407    0.00084    0.00000   -1.28425    9    diag
   15      0.104D-08      0.118D-09       -92.90433094    111.433407    0.00084    0.00000   -1.28425    9    diag
   16      0.380D-09      0.177D-10       -92.90433094    111.433407    0.00084    0.00000   -1.28425    9    diag
   17      0.560D-10      0.450D-11       -92.90433094    111.433407    0.00084    0.00000   -1.28425    9    diag
   18      0.133D-10      0.161D-11       -92.90433094    111.433407    0.00084    0.00000   -1.28425    9    diag
   19      0.481D-11      0.597D-12       -92.90433094    111.433407    0.00084    0.00000   -1.28425    9    fixocc
   20      0.105D-11      0.494D-13       -92.90433094    111.433407    0.00084    0.00000   -1.28425    9    orth
   21      0.164D-12      0.282D-13       -92.90433094    111.433407    0.00084    0.00000   -1.28425    9    diag
   22      0.630D-13      0.206D-13       -92.90433094    111.433407    0.00084    0.00000   -1.28425    0    orth

 Final occupancy:   6   1

 !RHF STATE 1.1 Energy                -92.904330944625
 Nuclear energy                        23.82126514
 One-electron energy                 -172.44229983
 Two-electron energy                   55.71670375
 Virial quotient                       -1.00129135
 !RHF STATE 1.1 Dipole moment           0.00084384     0.00000000    -1.28425382
 Dipole moment /Debye                   0.00214470     0.00000000    -3.26403383

 Orbital energies:

         1.1          2.1          3.1          4.1          5.1          6.1          7.1          8.1
    -15.599174   -11.292610    -1.232964    -0.810580    -0.581057    -0.494030     0.141190     0.165394

         1.2          2.2          3.2
     -0.494032     0.165398     0.446594

 HOMO      6.1    -0.494030 =     -13.4432eV
 LUMO      7.1     0.141190 =       3.8420eV
 LUMO-HOMO         0.635220 =      17.2852eV


 **********************************************************************************************************************************
 DATASETS  * FILE   NREC   LENGTH (MB)   RECORD NAMES
              1      19       35.89       500      610      700      900      950      970     1000      129      960     1100   
                                          VAR    BASINP    GEOM    SYMINP    ZMAT    AOBASIS   BASIS     P2S    ABASIS      S 
                                         1400     1410     1200     1210     1080     1600     1650     1300     1700   
                                           T        V       H0       H01     AOSYM     SMH    MOLCAS    ERIS     OPER   

              2       4        2.85       700     1000      520     2100   
                                         GEOM     BASIS   MCVARS     RHF  

 PROGRAMS   *        TOTAL        HF       INT
 CPU TIMES  *         0.81      0.21      0.49
 REAL TIME  *         1.44 SEC
 DISK USED  *        75.59 MB      
 **********************************************************************************************************************************


 PROGRAM * CCSD (Closed-shell coupled cluster)     Authors: C. Hampel, H.-J. Werner, 1991, M. Deegan, P.J. Knowles, 1992


 Convergence thresholds:  THRVAR = 1.00D-08  THRDEN = 1.00D-12

 CCSD(T)     terms to be evaluated (factor= 1.000)


 Number of core orbitals:           2 (   2   0 )
 Number of closed-shell orbitals:   5 (   4   1 )
 Number of external orbitals:      67 (  44  23 )

 Molecular orbitals read from record     2100.2  Type=RHF/CANONICAL (state 1.1)

 Number of N-1 electron functions:               5
 Number of N-2 electron functions:              15
 Number of singly external CSFs:               199
 Number of doubly external CSFs:             29216
 Total number of CSFs:                       29416

 Length of J-op  integral file:               0.00 MB
 Length of K-op  integral file:               0.25 MB
 Length of 3-ext integral record:             0.00 MB

 Memory could be reduced to 1.53 Mwords without degradation in triples

 Integral transformation finished. Total CPU:   0.02 sec, npass=  1  Memory used:   0.47 MW

 Reference energy:                    -92.90433094

 MP2 singlet pair energy:              -0.21855291
 MP2 triplet pair energy:              -0.12760961
 MP2 correlation energy:               -0.34616253
 MP2 total energy:                    -93.25049347

 SCS-MP2 correlation energy:           -0.34166503   (PS=  1.200000  PT=  0.333333)
 SCS-MP2 total energy:                -93.24599598

 ITER.      SQ.NORM     CORR.ENERGY   TOTAL ENERGY   ENERGY CHANGE        DEN1      VAR(S)    VAR(P)  DIIS     TIME  TIME/IT
   1      1.11534570    -0.34926495   -93.25359590    -0.00310242     0.00989358  0.26D-02  0.31D-02  1  1     0.07     0.03
   2      1.12503564    -0.34960274   -93.25393368    -0.00033779    -0.01016244  0.51D-04  0.42D-03  2  2     0.09     0.03
   3      1.13017264    -0.34983279   -93.25416373    -0.00023005    -0.00256502  0.13D-04  0.43D-04  3  3     0.12     0.03
   4      1.13231912    -0.34993190   -93.25426284    -0.00009911    -0.00077416  0.29D-06  0.46D-05  4  4     0.13     0.03
   5      1.13279031    -0.34992844   -93.25425938     0.00000346    -0.00013119  0.10D-06  0.41D-06  5  5     0.16     0.03
   6      1.13289124    -0.34992732   -93.25425826     0.00000112    -0.00002652  0.91D-08  0.30D-07  6  6     0.19     0.03
   7      1.13289936    -0.34992969   -93.25426063    -0.00000237    -0.00000238  0.61D-09  0.26D-08  6  1     0.22     0.03
   8      1.13289986    -0.34993019   -93.25426113    -0.00000050     0.00000067  0.44D-10  0.15D-09  6  2     0.25     0.03
   9      1.13290056    -0.34993022   -93.25426116    -0.00000003    -0.00000039  0.48D-11  0.10D-10  6  3     0.28     0.03
  10      1.13290050    -0.34993024   -93.25426118    -0.00000002     0.00000010  0.32D-12  0.11D-11  6  4     0.31     0.03
  11      1.13290046    -0.34993024   -93.25426119    -0.00000000     0.00000001  0.94D-13  0.10D-12  6  5     0.34     0.03
  12      1.13290040    -0.34993025   -93.25426119    -0.00000000     0.00000003  0.78D-14  0.22D-13  6  6     0.37     0.03
  13      1.13290036    -0.34993025   -93.25426119    -0.00000000     0.00000001  0.25D-14  0.21D-14  6  2     0.39     0.03
  14      1.13290035    -0.34993025   -93.25426119    -0.00000000     0.00000000  0.14D-15  0.13D-15  6  1     0.42     0.03
  15      1.13290034    -0.34993025   -93.25426119     0.00000000     0.00000000  0.35D-16  0.16D-16  6  4     0.45     0.03
  16      1.13290034    -0.34993025   -93.25426119    -0.00000000     0.00000000  0.70D-17  0.24D-17  6  3     0.48     0.03
  17      1.13290034    -0.34993025   -93.25426119    -0.00000000     0.00000000  0.12D-17  0.54D-18  6  5     0.51     0.03
  18      1.13290034    -0.34993025   -93.25426119     0.00000000    -0.00000000  0.54D-19  0.62D-19  6  2     0.54     0.03
  19      1.13290034    -0.34993025   -93.25426119     0.00000000    -0.00000000  0.31D-20  0.43D-20  6  6     0.57     0.03
  20      1.13290034    -0.34993025   -93.25426119     0.00000000    -0.00000000  0.17D-21  0.69D-21  6  1     0.60     0.03
  21      1.13290034    -0.34993025   -93.25426119    -0.00000000    -0.00000000  0.71D-22  0.10D-21  6  4     0.62     0.03

 Norm of t1 vector:      0.06432577      S-energy:    -0.00000000      T1 diagnostic:  0.01438368
                                                                       D1 diagnostic:  0.02896581

 Doubles amplitudes (print threshold =  0.500E-01):

         I         J         SYM. A    SYM. B    A         B      T(IJ, AB)

         4         4         1         1         2         2     -0.08784480
         5         5         2         2         1         1     -0.08795449
         5         4         2         1         1         2     -0.05499600


 Total CPU time for triples:      0.15 sec


 RESULTS
 =======

  Reference energy                    -92.904330944625
  CCSD singlet pair energy             -0.243419342200
  CCSD triplet pair energy             -0.106510904944
  CCSD correlation energy              -0.349930247144

  Triples (T) contribution             -0.018029644426
  Total correlation energy             -0.367959891570

  CCSD total energy                   -93.254261191769
  CCSD[T] energy                      -93.273130252775
  CCSD-T energy                       -93.271873136731
 !CCSD(T) total energy                -93.272290836196

 Timing summary (sec):

 STEP                 CPU(USER)    SYS     CPU(TOT)    WALL
 Transformation          0.02      0.02      0.04      0.03
 CCSD iterations         0.60      0.05      0.65      0.67
 Triples                 0.15      0.01      0.16      0.15

 Program statistics:

 Available memory in ccsd:               994999800
 Min. memory needed in ccsd:                125648
 Max. memory used in ccsd:                  146560
 Max. memory used in cckext:                201693 (21 integral passes)



 **********************************************************************************************************************************
 DATASETS  * FILE   NREC   LENGTH (MB)   RECORD NAMES
              1      20       39.60       500      610      700      900      950      970     1000      129      960     1100   
                                          VAR    BASINP    GEOM    SYMINP    ZMAT    AOBASIS   BASIS     P2S    ABASIS      S 
                                         1400     1410     1200     1210     1080     1600     1650     1300     1700     1380   
                                           T        V       H0       H01     AOSYM     SMH    MOLCAS    ERIS     OPER     JKOP   

              2       4        2.85       700     1000      520     2100   
                                         GEOM     BASIS   MCVARS     RHF  

 PROGRAMS   *        TOTAL   CCSD(T)        HF       INT
 CPU TIMES  *         1.60      0.79      0.21      0.49
 REAL TIME  *         2.32 SEC
 DISK USED  *        75.59 MB      
 **********************************************************************************************************************************

 CCSD(T)/cc-pVTZ-DK energy=    -93.272290836196

        CCSD(T)         HF-SCF  
    -93.27229084    -92.90433094
 **********************************************************************************************************************************
 Molpro calculation terminated
 Variable memory released
