
 Primary working directories    : /tmp/r2666/232567.maple
 Secondary working directories  : /tmp/r2666/232567.maple
 Wavefunction directory         : /ddn/home4/r2666/wfu/
 Main file repository           : /tmp/r2666/232567.maple/

 SHA1      : d5ffa45e93fdbca01ffc919aa182cfdae0147319
 NAME      : 2015.1.35
 ARCHNAME  : linux/x86_64
 FC        : /opt/intel/composer_xe_2015.1.133/bin/intel64/ifort
 BLASLIB   : -Wl,-_start-group /opt/intel/mkl/lib/intel64/libmkl_intel_ilp64.a /opt/intel/mkl/lib/intel64/libmkl_intel_thread.a /opt/intel/mkl/lib/intel64/libmkl_core.a -Wl,-_end-group
 id        : olemiss

 Nodes     nprocs
 cn075        1

 Using customized tuning parameters: mindgm=1; mindgv=20; mindgc=4; mindgr=1; noblas=0; minvec=7
 default implementation of scratch files=df  

 ***,hcn CCSD(T)/TZ-F12 QFF
 memory, 995, m;
 gthresh,energy=1.d-12,zero=1.d-22,oneint=1.d-22,twoint=1.d-22;
 gthresh,optgrad=1.d-8,optstep=1.d-8;
 nocompress;
 geomtyp=xyz
 bohr
 geometry={
 3
         11        11
 N        0.0000000000        0.0000000000        1.1089536744
 C        0.0000000000        0.0000000000       -1.0604473626
 H        0.0000000000        0.0000000000       -3.0455762938
 }
 
 basis=vtz-dk
 dkroll=0
   {hf,maxit=500;accu,20;}
 {ccsd(t),nocheck,maxit=250;orbital,IGNORE_ERROR;}

 Variables initialized (889), CPU time= 0.01 sec
 Commands  initialized (702), CPU time= 0.02 sec, 572 directives.
 Default parameters read. Elapsed time= 0.05 sec

 Checking input...
 Passed
1


                                         ***  PROGRAM SYSTEM MOLPRO  ***
                                       Copyright, TTI GmbH Stuttgart, 2015
                                    Version 2015.1 linked Jul  9 2018 13:16:40


 **********************************************************************************************************************************
 LABEL *   hcn CCSD(T)/TZ-F12 QFF                                                        
  64 bit serial version                                                                  DATE: 06-Feb-20          TIME: 09:54:31  
 **********************************************************************************************************************************

 SHA1:             d5ffa45e93fdbca01ffc919aa182cfdae0147319
 **********************************************************************************************************************************

 THRESHOLDS:

 ZERO    =  1.00D-22  ONEINT  =  1.00D-22  TWOINT  =  1.00D-22  PREFAC  =  1.00D-14  LOCALI  =  1.00D-09  EORDER  =  1.00D-04
 ENERGY  =  1.00D-12  ETEST   =  0.00D+00  EDENS   =  0.00D+00  THRDEDEF=  1.00D-06  GRADIENT=  1.00D-02  STEP    =  1.00D-03
 ORBITAL =  1.00D-05  CIVEC   =  1.00D-05  COEFF   =  1.00D-04  PRINTCI =  5.00D-02  PUNCHCI =  9.90D+01  OPTGRAD =  3.00D-04
 OPTENERG=  1.00D-06  OPTSTEP =  3.00D-04  THRGRAD =  1.00D-10  COMPRESS=  1.00D-11  VARMIN  =  1.00D-07  VARMAX  =  1.00D-03
 THRDOUB =  0.00D+00  THRDIV  =  1.00D-05  THRRED  =  1.00D-07  THRPSP  =  1.00D+00  THRDC   =  1.00D-10  THRCS   =  1.00D-10
 THRNRM  =  1.00D-08  THREQ   =  0.00D+00  THRDE   =  1.00D+00  THRREF  =  1.00D-05  SPARFAC =  1.00D+00  THRDLP  =  1.00D-07
 THRDIA  =  1.00D-10  THRDLS  =  1.00D-07  THRGPS  =  0.00D+00  THRKEX  =  0.00D+00  THRDIS  =  2.00D-01  THRVAR  =  1.00D-10
 THRLOC  =  1.00D-06  THRGAP  =  1.00D-06  THRLOCT = -1.00D+00  THRGAPT = -1.00D+00  THRORB  =  1.00D-06  THRMLTP =  0.00D+00
 THRCPQCI=  1.00D-10  KEXTA   =  0.00D+00  THRCOARS=  0.00D+00  SYMTOL  =  1.00D-06  GRADTOL =  1.00D-06  THROVL  =  1.00D-08
 THRORTH =  1.00D-08  GRID    =  1.00D-06  GRIDMAX =  1.00D-03  DTMAX   =  0.00D+00  THROCCDE=  1.00D-01  THROCCDE=  1.00D-01



 THRESHOLDS:

 ZERO    =  1.00D-22  ONEINT  =  1.00D-22  TWOINT  =  1.00D-22  PREFAC  =  1.00D-14  LOCALI  =  1.00D-09  EORDER  =  1.00D-04
 ENERGY  =  1.00D-12  ETEST   =  0.00D+00  EDENS   =  0.00D+00  THRDEDEF=  1.00D-06  GRADIENT=  1.00D-02  STEP    =  1.00D-03
 ORBITAL =  1.00D-05  CIVEC   =  1.00D-05  COEFF   =  1.00D-04  PRINTCI =  5.00D-02  PUNCHCI =  9.90D+01  OPTGRAD =  1.00D-08
 OPTENERG=  1.00D-06  OPTSTEP =  1.00D-08  THRGRAD =  1.00D-10  COMPRESS=  1.00D-11  VARMIN  =  1.00D-07  VARMAX  =  1.00D-03
 THRDOUB =  0.00D+00  THRDIV  =  1.00D-05  THRRED  =  1.00D-07  THRPSP  =  1.00D+00  THRDC   =  1.00D-10  THRCS   =  1.00D-10
 THRNRM  =  1.00D-08  THREQ   =  0.00D+00  THRDE   =  1.00D+00  THRREF  =  1.00D-05  SPARFAC =  1.00D+00  THRDLP  =  1.00D-07
 THRDIA  =  1.00D-10  THRDLS  =  1.00D-07  THRGPS  =  0.00D+00  THRKEX  =  0.00D+00  THRDIS  =  2.00D-01  THRVAR  =  1.00D-10
 THRLOC  =  1.00D-06  THRGAP  =  1.00D-06  THRLOCT = -1.00D+00  THRGAPT = -1.00D+00  THRORB  =  1.00D-06  THRMLTP =  0.00D+00
 THRCPQCI=  1.00D-10  KEXTA   =  0.00D+00  THRCOARS=  0.00D+00  SYMTOL  =  1.00D-06  GRADTOL =  1.00D-06  THROVL  =  1.00D-08
 THRORTH =  1.00D-08  GRID    =  1.00D-06  GRIDMAX =  1.00D-03  DTMAX   =  0.00D+00  THROCCDE=  1.00D-01  THROCCDE=  1.00D-01



 Input parameters for SORTINT:

 COMPRESS =    0.000000
 C_FINAL  =    1.000000
 DEBUG    =   -1.000000
 C_SORT1  =    0.000000
 C_SEWARD =    0.000000
 THRESH   =    0.000000
 IO       =  molpro                                                          
 SPRI     =    0.000000
 SETTING GEOMTYP        =    XYZ
 ZUNIT=BOHR
 

 Variable memory set to  995000000 words,  buffer space   230000 words

 SETTING BASIS          =    VTZ-DK
 SETTING DKROLL         =     0.00000000D+00                                  


 Recomputing integrals since basis changed


 Using spherical harmonics

 Library entry N      S cc-pVTZ-DK           selected for orbital group  1
 Library entry N      P cc-pVTZ-DK           selected for orbital group  1
 Library entry N      D cc-pVTZ-DK           selected for orbital group  1
 Library entry N      F cc-pVTZ-DK           selected for orbital group  1
 Library entry C      S cc-pVTZ-DK           selected for orbital group  2
 Library entry C      P cc-pVTZ-DK           selected for orbital group  2
 Library entry C      D cc-pVTZ-DK           selected for orbital group  2
 Library entry C      F cc-pVTZ-DK           selected for orbital group  2
 Library entry H      S cc-pVTZ-DK           selected for orbital group  3
 Library entry H      P cc-pVTZ-DK           selected for orbital group  3
 Library entry H      D cc-pVTZ-DK           selected for orbital group  3


 PROGRAM * SEWARD (Integral evaluation for generally contracted gaussian basis sets)     Author: Roland Lindh, 1990

 Geometry written to block  1 of record 700


 Point group  C2v 



 ATOMIC COORDINATES

 NR  ATOM    CHARGE       X              Y              Z

   1  N       7.00    0.000000000    0.000000000    1.108953674
   2  C       6.00    0.000000000    0.000000000   -1.060447363
   3  H       1.00    0.000000000    0.000000000   -3.045576294

 Bond lengths in Bohr (Angstrom)

 1-2  2.169401037  2-3  1.985128931
     ( 1.147997590)     ( 1.050484991)

 Bond angles

  1-2-3  180.00000000

 NUCLEAR CHARGE:                   14
 NUMBER OF PRIMITIVE AOS:         111
 NUMBER OF SYMMETRY AOS:          100
 NUMBER OF CONTRACTIONS:           74   (  33A1  +  17B1  +  17B2  +   7A2  )
 NUMBER OF CORE ORBITALS:           2   (   2A1  +   0B1  +   0B2  +   0A2  )
 NUMBER OF VALENCE ORBITALS:        9   (   5A1  +   2B1  +   2B2  +   0A2  )


 NUCLEAR REPULSION ENERGY   24.06756402

 EXTRA SYMMETRY OF AOS IN SYMMETRY 1:   1 1 1 1 1 1 1 1 2 1   2 1 2 1 1 1 1 1 1 1   1 2 1 2 1 2 1 1 1 1   1 1 2
 EXTRA SYMMETRY OF AOS IN SYMMETRY 2:   1 1 1 1 1 1 2 1 1 1   1 1 1 2 1 1 1
 EXTRA SYMMETRY OF AOS IN SYMMETRY 3:   1 1 1 1 1 1 2 1 1 1   1 1 1 2 1 1 1

 Eigenvalues of metric

         1 0.106E-02 0.140E-02 0.241E-02 0.605E-02 0.107E-01 0.188E-01 0.289E-01 0.465E-01
         2 0.149E-01 0.357E-01 0.598E-01 0.855E-01 0.131E+00 0.276E+00 0.370E+00 0.430E+00
         3 0.149E-01 0.357E-01 0.598E-01 0.855E-01 0.131E+00 0.276E+00 0.370E+00 0.430E+00
         4 0.289E+00 0.448E+00 0.571E+00 0.837E+00 0.125E+01 0.157E+01 0.203E+01


 Contracted 2-electron integrals neglected if value below      1.0D-22

         874956. INTEGRALS WRITTEN OUT IN     214 BLOCKS ON RECORD 1290 OF FILE 1


 NUMBER OF SORTED TWO-ELECTRON INTEGRALS:    1039939.     BUFFER LENGTH:  32768
 NUMBER OF SEGMENTS:   1  SEGMENT LENGTH:    1039939      RECORD LENGTH: 524288

 Memory used in sort:       1.60 MW

 SORT1 READ      874956. AND WROTE      911224. INTEGRALS IN      3 RECORDS. CPU TIME:     0.02 SEC, REAL TIME:     0.03 SEC
 SORT2 READ      911224. AND WROTE     1039939. INTEGRALS IN      1 RECORDS. CPU TIME:     0.04 SEC, REAL TIME:     0.06 SEC

 FILE SIZES:   FILE 1:    34.1 MBYTE,  FILE 4:    12.6 MBYTE,   TOTAL:     46.7 MBYTE

 OPERATOR DM      FOR CENTER  0  COORDINATES:    0.000000    0.000000    0.000000


 **********************************************************************************************************************************
 DATASETS  * FILE   NREC   LENGTH (MB)   RECORD NAMES
              1      19       27.60       500      610      700      900      950      970     1000      129      960     1100   
                                          VAR    BASINP    GEOM    SYMINP    ZMAT    AOBASIS   BASIS     P2S    ABASIS      S 
                                         1400     1410     1200     1210     1080     1600     1650     1300     1700   
                                           T        V       H0       H01     AOSYM     SMH    MOLCAS    ERIS     OPER   

 PROGRAMS   *        TOTAL       INT
 CPU TIMES  *         0.62      0.53
 REAL TIME  *         1.50 SEC
 DISK USED  *        47.00 MB      
 **********************************************************************************************************************************


 PROGRAM * RHF-SCF (CLOSED SHELL)       Authors: W. Meyer, H.-J. Werner


 NUMBER OF ELECTRONS:       7+    7-
 CONVERGENCE THRESHOLDS:    1.00E-10 (Density)    1.00E-13 (Energy)
 MAX. NUMBER OF ITERATIONS:      500
 INTERPOLATION TYPE:            DIIS
 INTERPOLATION STEPS:              2 (START)      1 (STEP)
 LEVEL SHIFTS:                  0.00 (CLOSED)  0.00 (OPEN) 



 Orbital guess generated from atomic densities. Full valence occupancy:    7   2   2   0

 Molecular orbital dump at record        2100.2

 Initial occupancy:   5   1   1   0

 ITERATION    DDIFF          GRAD             ENERGY        2-EL.EN.            DIPOLE MOMENTS         DIIS   ORB.
    1      0.000D+00      0.000D+00       -92.88238477    112.247039    0.00000    0.00000   -1.74253    0    start
    2      0.000D+00      0.113D-01       -92.89156414    111.405021    0.00000    0.00000   -0.88975    1    diag
    3      0.188D-01      0.100D-01       -92.90563948    111.917065    0.00000    0.00000   -1.28141    2    diag
    4      0.935D-02      0.834D-03       -92.90585789    111.883270    0.00000    0.00000   -1.27257    3    diag
    5      0.151D-02      0.176D-03       -92.90586958    111.891961    0.00000    0.00000   -1.27121    4    diag
    6      0.401D-03      0.478D-04       -92.90587023    111.887543    0.00000    0.00000   -1.27135    5    diag
    7      0.862D-04      0.170D-04       -92.90587030    111.888642    0.00000    0.00000   -1.27145    6    diag
    8      0.300D-04      0.330D-05       -92.90587030    111.888588    0.00000    0.00000   -1.27143    7    diag
    9      0.558D-05      0.365D-06       -92.90587030    111.888595    0.00000    0.00000   -1.27143    8    diag
   10      0.788D-06      0.386D-07       -92.90587030    111.888595    0.00000    0.00000   -1.27143    9    orth
   11      0.748D-07      0.473D-08       -92.90587030    111.888595    0.00000    0.00000   -1.27143    9    diag
   12      0.129D-07      0.474D-09       -92.90587030    111.888595    0.00000    0.00000   -1.27143    9    diag
   13      0.188D-08      0.584D-10       -92.90587030    111.888595    0.00000    0.00000   -1.27143    9    diag
   14      0.249D-09      0.994D-11       -92.90587030    111.888595    0.00000    0.00000   -1.27143    9    diag
   15      0.555D-10      0.190D-11       -92.90587030    111.888595    0.00000    0.00000   -1.27143    0    orth

 Final occupancy:   5   1   1   0

 !RHF STATE 1.1 Energy                -92.905870298098
 Nuclear energy                        24.06756402
 One-electron energy                 -172.91773178
 Two-electron energy                   55.94429746
 Virial quotient                       -1.00039458
 !RHF STATE 1.1 Dipole moment           0.00000000     0.00000000    -1.27142689
 Dipole moment /Debye                   0.00000000     0.00000000    -3.23143315

 Orbital energies:

         1.1          2.1          3.1          4.1          5.1          6.1          7.1
    -15.596032   -11.287558    -1.237969    -0.816996    -0.581244     0.143379     0.241638

         1.2          2.2          3.2
     -0.497385     0.168323     0.446063

         1.3          2.3          3.3
     -0.497385     0.168323     0.446063

         1.4          2.4
      0.810167     1.421359

 HOMO      1.2    -0.497385 =     -13.5345eV
 LUMO      6.1     0.143379 =       3.9016eV
 LUMO-HOMO         0.640764 =      17.4361eV


 **********************************************************************************************************************************
 DATASETS  * FILE   NREC   LENGTH (MB)   RECORD NAMES
              1      19       27.60       500      610      700      900      950      970     1000      129      960     1100   
                                          VAR    BASINP    GEOM    SYMINP    ZMAT    AOBASIS   BASIS     P2S    ABASIS      S 
                                         1400     1410     1200     1210     1080     1600     1650     1300     1700   
                                           T        V       H0       H01     AOSYM     SMH    MOLCAS    ERIS     OPER   

              2       4        2.82       700     1000      520     2100   
                                         GEOM     BASIS   MCVARS     RHF  

 PROGRAMS   *        TOTAL        HF       INT
 CPU TIMES  *         0.70      0.08      0.53
 REAL TIME  *         1.61 SEC
 DISK USED  *        47.00 MB      
 **********************************************************************************************************************************


 PROGRAM * CCSD (Closed-shell coupled cluster)     Authors: C. Hampel, H.-J. Werner, 1991, M. Deegan, P.J. Knowles, 1992


 Convergence thresholds:  THRVAR = 1.00D-08  THRDEN = 1.00D-12

 CCSD(T)     terms to be evaluated (factor= 1.000)


 Number of core orbitals:           2 (   2   0   0   0 )
 Number of closed-shell orbitals:   5 (   3   1   1   0 )
 Number of external orbitals:      67 (  28  16  16   7 )

 Molecular orbitals read from record     2100.2  Type=RHF/CANONICAL (state 1.1)

 Number of N-1 electron functions:               5
 Number of N-2 electron functions:              15
 Number of singly external CSFs:               116
 Number of doubly external CSFs:             15189
 Total number of CSFs:                       15306

 Length of J-op  integral file:               0.00 MB
 Length of K-op  integral file:               0.15 MB
 Length of 3-ext integral record:             0.00 MB

 Memory could be reduced to 0.93 Mwords without degradation in triples

 Integral transformation finished. Total CPU:   0.00 sec, npass=  1  Memory used:   0.18 MW

 Reference energy:                    -92.90587030

 MP2 singlet pair energy:              -0.21728413
 MP2 triplet pair energy:              -0.12668887
 MP2 correlation energy:               -0.34397300
 MP2 total energy:                    -93.24984330

 SCS-MP2 correlation energy:           -0.33956958   (PS=  1.200000  PT=  0.333333)
 SCS-MP2 total energy:                -93.24543988

 ITER.      SQ.NORM     CORR.ENERGY   TOTAL ENERGY   ENERGY CHANGE        DEN1      VAR(S)    VAR(P)  DIIS     TIME  TIME/IT
   1      1.11374153    -0.34757732   -93.25344762    -0.00360432     0.00893935  0.24D-02  0.29D-02  1  1     0.03     0.02
   2      1.12311726    -0.34797647   -93.25384676    -0.00039914    -0.00989659  0.48D-04  0.40D-03  2  2     0.05     0.02
   3      1.12799172    -0.34818979   -93.25406009    -0.00021332    -0.00246434  0.12D-04  0.40D-04  3  3     0.07     0.02
   4      1.13000842    -0.34828099   -93.25415129    -0.00009120    -0.00073658  0.27D-06  0.41D-05  4  4     0.08     0.02
   5      1.13044352    -0.34827672   -93.25414702     0.00000427    -0.00012303  0.92D-07  0.36D-06  5  5     0.10     0.02
   6      1.13053000    -0.34827608   -93.25414638     0.00000064    -0.00002292  0.77D-08  0.26D-07  6  6     0.12     0.02
   7      1.13053695    -0.34827821   -93.25414850    -0.00000212    -0.00000210  0.56D-09  0.22D-08  6  1     0.13     0.02
   8      1.13053728    -0.34827868   -93.25414898    -0.00000048     0.00000068  0.37D-10  0.13D-09  6  2     0.15     0.02
   9      1.13053789    -0.34827871   -93.25414901    -0.00000003    -0.00000036  0.38D-11  0.84D-11  6  3     0.17     0.02
  10      1.13053783    -0.34827873   -93.25414903    -0.00000001     0.00000009  0.24D-12  0.85D-12  6  4     0.19     0.02
  11      1.13053780    -0.34827873   -93.25414903    -0.00000000     0.00000001  0.62D-13  0.78D-13  6  5     0.20     0.02
  12      1.13053775    -0.34827873   -93.25414903    -0.00000000     0.00000002  0.35D-14  0.17D-13  6  6     0.22     0.02
  13      1.13053771    -0.34827874   -93.25414903    -0.00000000     0.00000001  0.13D-14  0.15D-14  6  2     0.24     0.02
  14      1.13053770    -0.34827874   -93.25414903    -0.00000000     0.00000000  0.13D-16  0.76D-16  6  1     0.25     0.02
  15      1.13053770    -0.34827874   -93.25414903    -0.00000000     0.00000000  0.12D-17  0.58D-17  6  4     0.27     0.02
  16      1.13053770    -0.34827874   -93.25414903    -0.00000000     0.00000000  0.17D-18  0.30D-18  6  3     0.29     0.02
  17      1.13053770    -0.34827874   -93.25414903    -0.00000000     0.00000000  0.14D-19  0.45D-19  6  5     0.31     0.02
  18      1.13053770    -0.34827874   -93.25414903    -0.00000000     0.00000000  0.34D-20  0.31D-20  6  6     0.32     0.02
  19      1.13053770    -0.34827874   -93.25414903     0.00000000    -0.00000000  0.20D-21  0.34D-21  6  2     0.34     0.02
  20      1.13053770    -0.34827874   -93.25414903     0.00000000    -0.00000000  0.41D-22  0.47D-22  6  1     0.35     0.02

 Norm of t1 vector:      0.06280384      S-energy:     0.00000000      T1 diagnostic:  0.01404337
                                                                       D1 diagnostic:  0.02832005

 Doubles amplitudes (print threshold =  0.500E-01):

         I         J         SYM. A    SYM. B    A         B      T(IJ, AB)

         4         4         2         2         1         1     -0.08601212
         5         5         3         3         1         1     -0.08601212
         5         4         3         2         1         1     -0.05402687


 Total CPU time for triples:      0.06 sec


 RESULTS
 =======

  Reference energy                    -92.905870298098
  CCSD singlet pair energy             -0.241979466736
  CCSD triplet pair energy             -0.106299269585
  CCSD correlation energy              -0.348278736321

  Triples (T) contribution             -0.017666794193
  Total correlation energy             -0.365945530514

  CCSD total energy                   -93.254149034419
  CCSD[T] energy                      -93.272612940798
  CCSD-T energy                       -93.271415866026
 !CCSD(T) total energy                -93.271815828612

 Timing summary (sec):

 STEP                 CPU(USER)    SYS     CPU(TOT)    WALL
 Transformation          0.01      0.01      0.02      0.03
 CCSD iterations         0.34      0.05      0.39      0.39
 Triples                 0.06      0.02      0.08      0.07

 Program statistics:

 Available memory in ccsd:               994999800
 Min. memory needed in ccsd:                 67993
 Max. memory used in ccsd:                   79450
 Max. memory used in cckext:                107513 (20 integral passes)



 **********************************************************************************************************************************
 DATASETS  * FILE   NREC   LENGTH (MB)   RECORD NAMES
              1      20       29.54       500      610      700      900      950      970     1000      129      960     1100   
                                          VAR    BASINP    GEOM    SYMINP    ZMAT    AOBASIS   BASIS     P2S    ABASIS      S 
                                         1400     1410     1200     1210     1080     1600     1650     1300     1700     1380   
                                           T        V       H0       H01     AOSYM     SMH    MOLCAS    ERIS     OPER     JKOP   

              2       4        2.82       700     1000      520     2100   
                                         GEOM     BASIS   MCVARS     RHF  

 PROGRAMS   *        TOTAL   CCSD(T)        HF       INT
 CPU TIMES  *         1.13      0.42      0.08      0.53
 REAL TIME  *         2.12 SEC
 DISK USED  *        47.00 MB      
 **********************************************************************************************************************************

 CCSD(T)/cc-pVTZ-DK energy=    -93.271815828612

        CCSD(T)         HF-SCF  
    -93.27181583    -92.90587030
 **********************************************************************************************************************************
 Molpro calculation terminated
 Variable memory released
