
 Primary working directories    : /tmp/r2666/232591.maple
 Secondary working directories  : /tmp/r2666/232591.maple
 Wavefunction directory         : /ddn/home4/r2666/wfu/
 Main file repository           : /tmp/r2666/232591.maple/

 SHA1      : d5ffa45e93fdbca01ffc919aa182cfdae0147319
 NAME      : 2015.1.35
 ARCHNAME  : linux/x86_64
 FC        : /opt/intel/composer_xe_2015.1.133/bin/intel64/ifort
 BLASLIB   : -Wl,-_start-group /opt/intel/mkl/lib/intel64/libmkl_intel_ilp64.a /opt/intel/mkl/lib/intel64/libmkl_intel_thread.a /opt/intel/mkl/lib/intel64/libmkl_core.a -Wl,-_end-group
 id        : olemiss

 Nodes     nprocs
 cn087        1

 Using customized tuning parameters: mindgm=1; mindgv=20; mindgc=4; mindgr=1; noblas=0; minvec=7
 default implementation of scratch files=df  

 ***,hcn CCSD(T)/TZ-F12 QFF
 memory, 995, m;
 gthresh,energy=1.d-12,zero=1.d-22,oneint=1.d-22,twoint=1.d-22;
 gthresh,optgrad=1.d-8,optstep=1.d-8;
 nocompress;
 geomtyp=xyz
 bohr
 geometry={
 3
         35        35
 N        0.0000000000        0.0000000000        1.1372995643
 C        0.0000000000        0.0000000000       -1.0415501027
 H        0.0000000000        0.0000000000       -3.0928194435
 }
 
 basis=vtz-dk
 dkroll=0
   {hf,maxit=500;accu,20;}
 {ccsd(t),nocheck,maxit=250;orbital,IGNORE_ERROR;}

 Variables initialized (889), CPU time= 0.00 sec
 Commands  initialized (702), CPU time= 0.00 sec, 572 directives.
 Default parameters read. Elapsed time= 0.04 sec

 Checking input...
 Passed
1


                                         ***  PROGRAM SYSTEM MOLPRO  ***
                                       Copyright, TTI GmbH Stuttgart, 2015
                                    Version 2015.1 linked Jul  9 2018 13:16:40


 **********************************************************************************************************************************
 LABEL *   hcn CCSD(T)/TZ-F12 QFF                                                        
  64 bit serial version                                                                  DATE: 06-Feb-20          TIME: 09:54:35  
 **********************************************************************************************************************************

 SHA1:             d5ffa45e93fdbca01ffc919aa182cfdae0147319
 **********************************************************************************************************************************

 THRESHOLDS:

 ZERO    =  1.00D-22  ONEINT  =  1.00D-22  TWOINT  =  1.00D-22  PREFAC  =  1.00D-14  LOCALI  =  1.00D-09  EORDER  =  1.00D-04
 ENERGY  =  1.00D-12  ETEST   =  0.00D+00  EDENS   =  0.00D+00  THRDEDEF=  1.00D-06  GRADIENT=  1.00D-02  STEP    =  1.00D-03
 ORBITAL =  1.00D-05  CIVEC   =  1.00D-05  COEFF   =  1.00D-04  PRINTCI =  5.00D-02  PUNCHCI =  9.90D+01  OPTGRAD =  3.00D-04
 OPTENERG=  1.00D-06  OPTSTEP =  3.00D-04  THRGRAD =  1.00D-10  COMPRESS=  1.00D-11  VARMIN  =  1.00D-07  VARMAX  =  1.00D-03
 THRDOUB =  0.00D+00  THRDIV  =  1.00D-05  THRRED  =  1.00D-07  THRPSP  =  1.00D+00  THRDC   =  1.00D-10  THRCS   =  1.00D-10
 THRNRM  =  1.00D-08  THREQ   =  0.00D+00  THRDE   =  1.00D+00  THRREF  =  1.00D-05  SPARFAC =  1.00D+00  THRDLP  =  1.00D-07
 THRDIA  =  1.00D-10  THRDLS  =  1.00D-07  THRGPS  =  0.00D+00  THRKEX  =  0.00D+00  THRDIS  =  2.00D-01  THRVAR  =  1.00D-10
 THRLOC  =  1.00D-06  THRGAP  =  1.00D-06  THRLOCT = -1.00D+00  THRGAPT = -1.00D+00  THRORB  =  1.00D-06  THRMLTP =  0.00D+00
 THRCPQCI=  1.00D-10  KEXTA   =  0.00D+00  THRCOARS=  0.00D+00  SYMTOL  =  1.00D-06  GRADTOL =  1.00D-06  THROVL  =  1.00D-08
 THRORTH =  1.00D-08  GRID    =  1.00D-06  GRIDMAX =  1.00D-03  DTMAX   =  0.00D+00  THROCCDE=  1.00D-01  THROCCDE=  1.00D-01



 THRESHOLDS:

 ZERO    =  1.00D-22  ONEINT  =  1.00D-22  TWOINT  =  1.00D-22  PREFAC  =  1.00D-14  LOCALI  =  1.00D-09  EORDER  =  1.00D-04
 ENERGY  =  1.00D-12  ETEST   =  0.00D+00  EDENS   =  0.00D+00  THRDEDEF=  1.00D-06  GRADIENT=  1.00D-02  STEP    =  1.00D-03
 ORBITAL =  1.00D-05  CIVEC   =  1.00D-05  COEFF   =  1.00D-04  PRINTCI =  5.00D-02  PUNCHCI =  9.90D+01  OPTGRAD =  1.00D-08
 OPTENERG=  1.00D-06  OPTSTEP =  1.00D-08  THRGRAD =  1.00D-10  COMPRESS=  1.00D-11  VARMIN  =  1.00D-07  VARMAX  =  1.00D-03
 THRDOUB =  0.00D+00  THRDIV  =  1.00D-05  THRRED  =  1.00D-07  THRPSP  =  1.00D+00  THRDC   =  1.00D-10  THRCS   =  1.00D-10
 THRNRM  =  1.00D-08  THREQ   =  0.00D+00  THRDE   =  1.00D+00  THRREF  =  1.00D-05  SPARFAC =  1.00D+00  THRDLP  =  1.00D-07
 THRDIA  =  1.00D-10  THRDLS  =  1.00D-07  THRGPS  =  0.00D+00  THRKEX  =  0.00D+00  THRDIS  =  2.00D-01  THRVAR  =  1.00D-10
 THRLOC  =  1.00D-06  THRGAP  =  1.00D-06  THRLOCT = -1.00D+00  THRGAPT = -1.00D+00  THRORB  =  1.00D-06  THRMLTP =  0.00D+00
 THRCPQCI=  1.00D-10  KEXTA   =  0.00D+00  THRCOARS=  0.00D+00  SYMTOL  =  1.00D-06  GRADTOL =  1.00D-06  THROVL  =  1.00D-08
 THRORTH =  1.00D-08  GRID    =  1.00D-06  GRIDMAX =  1.00D-03  DTMAX   =  0.00D+00  THROCCDE=  1.00D-01  THROCCDE=  1.00D-01



 Input parameters for SORTINT:

 COMPRESS =    0.000000
 C_FINAL  =    1.000000
 DEBUG    =   -1.000000
 C_SORT1  =    0.000000
 C_SEWARD =    0.000000
 THRESH   =    0.000000
 IO       =  molpro                                                          
 SPRI     =    0.000000
 SETTING GEOMTYP        =    XYZ
 ZUNIT=BOHR
 

 Variable memory set to  995000000 words,  buffer space   230000 words

 SETTING BASIS          =    VTZ-DK
 SETTING DKROLL         =     0.00000000D+00                                  


 Recomputing integrals since basis changed


 Using spherical harmonics

 Library entry N      S cc-pVTZ-DK           selected for orbital group  1
 Library entry N      P cc-pVTZ-DK           selected for orbital group  1
 Library entry N      D cc-pVTZ-DK           selected for orbital group  1
 Library entry N      F cc-pVTZ-DK           selected for orbital group  1
 Library entry C      S cc-pVTZ-DK           selected for orbital group  2
 Library entry C      P cc-pVTZ-DK           selected for orbital group  2
 Library entry C      D cc-pVTZ-DK           selected for orbital group  2
 Library entry C      F cc-pVTZ-DK           selected for orbital group  2
 Library entry H      S cc-pVTZ-DK           selected for orbital group  3
 Library entry H      P cc-pVTZ-DK           selected for orbital group  3
 Library entry H      D cc-pVTZ-DK           selected for orbital group  3


 PROGRAM * SEWARD (Integral evaluation for generally contracted gaussian basis sets)     Author: Roland Lindh, 1990

 Geometry written to block  1 of record 700


 Point group  C2v 



 ATOMIC COORDINATES

 NR  ATOM    CHARGE       X              Y              Z

   1  N       7.00    0.000000000    0.000000000    1.137299564
   2  C       6.00    0.000000000    0.000000000   -1.041550103
   3  H       1.00    0.000000000    0.000000000   -3.092819443

 Bond lengths in Bohr (Angstrom)

 1-2  2.178849667  2-3  2.051269341
     ( 1.152997590)     ( 1.085484989)

 Bond angles

  1-2-3  180.00000000

 NUCLEAR CHARGE:                   14
 NUMBER OF PRIMITIVE AOS:         111
 NUMBER OF SYMMETRY AOS:          100
 NUMBER OF CONTRACTIONS:           74   (  33A1  +  17B1  +  17B2  +   7A2  )
 NUMBER OF CORE ORBITALS:           2   (   2A1  +   0B1  +   0B2  +   0A2  )
 NUMBER OF VALENCE ORBITALS:        9   (   5A1  +   2B1  +   2B2  +   0A2  )


 NUCLEAR REPULSION ENERGY   23.85604455

 EXTRA SYMMETRY OF AOS IN SYMMETRY 1:   1 1 1 1 1 1 1 1 2 1   2 1 2 1 1 1 1 1 1 1   1 2 1 2 1 2 1 1 1 1   1 1 2
 EXTRA SYMMETRY OF AOS IN SYMMETRY 2:   1 1 1 1 1 1 2 1 1 1   1 1 1 2 1 1 1
 EXTRA SYMMETRY OF AOS IN SYMMETRY 3:   1 1 1 1 1 1 2 1 1 1   1 1 1 2 1 1 1

 Eigenvalues of metric

         1 0.111E-02 0.150E-02 0.249E-02 0.666E-02 0.113E-01 0.192E-01 0.295E-01 0.478E-01
         2 0.155E-01 0.369E-01 0.619E-01 0.920E-01 0.134E+00 0.292E+00 0.382E+00 0.432E+00
         3 0.155E-01 0.369E-01 0.619E-01 0.920E-01 0.134E+00 0.292E+00 0.382E+00 0.432E+00
         4 0.292E+00 0.458E+00 0.577E+00 0.854E+00 0.125E+01 0.154E+01 0.203E+01


 Contracted 2-electron integrals neglected if value below      1.0D-22

         875050. INTEGRALS WRITTEN OUT IN     214 BLOCKS ON RECORD 1290 OF FILE 1


 NUMBER OF SORTED TWO-ELECTRON INTEGRALS:    1039939.     BUFFER LENGTH:  32768
 NUMBER OF SEGMENTS:   1  SEGMENT LENGTH:    1039939      RECORD LENGTH: 524288

 Memory used in sort:       1.60 MW

 SORT1 READ      875050. AND WROTE      911384. INTEGRALS IN      3 RECORDS. CPU TIME:     0.02 SEC, REAL TIME:     0.02 SEC
 SORT2 READ      911384. AND WROTE     1039939. INTEGRALS IN      1 RECORDS. CPU TIME:     0.03 SEC, REAL TIME:     0.06 SEC

 FILE SIZES:   FILE 1:    34.1 MBYTE,  FILE 4:    12.6 MBYTE,   TOTAL:     46.7 MBYTE

 OPERATOR DM      FOR CENTER  0  COORDINATES:    0.000000    0.000000    0.000000


 **********************************************************************************************************************************
 DATASETS  * FILE   NREC   LENGTH (MB)   RECORD NAMES
              1      19       27.60       500      610      700      900      950      970     1000      129      960     1100   
                                          VAR    BASINP    GEOM    SYMINP    ZMAT    AOBASIS   BASIS     P2S    ABASIS      S 
                                         1400     1410     1200     1210     1080     1600     1650     1300     1700   
                                           T        V       H0       H01     AOSYM     SMH    MOLCAS    ERIS     OPER   

 PROGRAMS   *        TOTAL       INT
 CPU TIMES  *         0.59      0.50
 REAL TIME  *         1.10 SEC
 DISK USED  *        47.00 MB      
 **********************************************************************************************************************************


 PROGRAM * RHF-SCF (CLOSED SHELL)       Authors: W. Meyer, H.-J. Werner


 NUMBER OF ELECTRONS:       7+    7-
 CONVERGENCE THRESHOLDS:    1.00E-10 (Density)    1.00E-13 (Energy)
 MAX. NUMBER OF ITERATIONS:      500
 INTERPOLATION TYPE:            DIIS
 INTERPOLATION STEPS:              2 (START)      1 (STEP)
 LEVEL SHIFTS:                  0.00 (CLOSED)  0.00 (OPEN) 



 Orbital guess generated from atomic densities. Full valence occupancy:    7   2   2   0

 Molecular orbital dump at record        2100.2

 Initial occupancy:   5   1   1   0

 ITERATION    DDIFF          GRAD             ENERGY        2-EL.EN.            DIPOLE MOMENTS         DIIS   ORB.
    1      0.000D+00      0.000D+00       -92.87984540    111.881304    0.00000    0.00000   -1.79095    0    start
    2      0.000D+00      0.117D-01       -92.88891276    111.026793    0.00000    0.00000   -0.89038    1    diag
    3      0.192D-01      0.105D-01       -92.90442445    111.552697    0.00000    0.00000   -1.30105    2    diag
    4      0.968D-02      0.819D-03       -92.90464078    111.518430    0.00000    0.00000   -1.29246    3    diag
    5      0.149D-02      0.182D-03       -92.90465328    111.528853    0.00000    0.00000   -1.29109    4    diag
    6      0.407D-03      0.514D-04       -92.90465406    111.523974    0.00000    0.00000   -1.29116    5    diag
    7      0.947D-04      0.185D-04       -92.90465414    111.525119    0.00000    0.00000   -1.29129    6    diag
    8      0.325D-04      0.350D-05       -92.90465415    111.525063    0.00000    0.00000   -1.29128    7    diag
    9      0.585D-05      0.381D-06       -92.90465415    111.525070    0.00000    0.00000   -1.29127    8    diag
   10      0.826D-06      0.380D-07       -92.90465415    111.525070    0.00000    0.00000   -1.29127    9    orth
   11      0.745D-07      0.445D-08       -92.90465415    111.525070    0.00000    0.00000   -1.29127    9    diag
   12      0.129D-07      0.387D-09       -92.90465415    111.525070    0.00000    0.00000   -1.29127    9    diag
   13      0.167D-08      0.443D-10       -92.90465415    111.525070    0.00000    0.00000   -1.29127    9    diag
   14      0.248D-09      0.949D-11       -92.90465415    111.525070    0.00000    0.00000   -1.29127    9    diag
   15      0.436D-10      0.125D-11       -92.90465415    111.525070    0.00000    0.00000   -1.29127    9    diag
   16      0.215D-11      0.339D-12       -92.90465415    111.525070    0.00000    0.00000   -1.29127    0    orth

 Final occupancy:   5   1   1   0

 !RHF STATE 1.1 Energy                -92.904654145802
 Nuclear energy                        23.85604455
 One-electron energy                 -172.52323392
 Two-electron energy                   55.76253523
 Virial quotient                       -1.00123187
 !RHF STATE 1.1 Dipole moment           0.00000000     0.00000000    -1.29127259
 Dipole moment /Debye                   0.00000000     0.00000000    -3.28187260

 Orbital energies:

         1.1          2.1          3.1          4.1          5.1          6.1          7.1
    -15.597095   -11.291902    -1.235108    -0.804060    -0.580293     0.139920     0.239977

         1.2          2.2          3.2
     -0.495312     0.167263     0.446928

         1.3          2.3          3.3
     -0.495312     0.167263     0.446928

         1.4          2.4
      0.810878     1.420554

 HOMO      1.2    -0.495312 =     -13.4781eV
 LUMO      6.1     0.139920 =       3.8074eV
 LUMO-HOMO         0.635232 =      17.2855eV


 **********************************************************************************************************************************
 DATASETS  * FILE   NREC   LENGTH (MB)   RECORD NAMES
              1      19       27.60       500      610      700      900      950      970     1000      129      960     1100   
                                          VAR    BASINP    GEOM    SYMINP    ZMAT    AOBASIS   BASIS     P2S    ABASIS      S 
                                         1400     1410     1200     1210     1080     1600     1650     1300     1700   
                                           T        V       H0       H01     AOSYM     SMH    MOLCAS    ERIS     OPER   

              2       4        2.82       700     1000      520     2100   
                                         GEOM     BASIS   MCVARS     RHF  

 PROGRAMS   *        TOTAL        HF       INT
 CPU TIMES  *         0.67      0.08      0.50
 REAL TIME  *         1.21 SEC
 DISK USED  *        47.00 MB      
 **********************************************************************************************************************************


 PROGRAM * CCSD (Closed-shell coupled cluster)     Authors: C. Hampel, H.-J. Werner, 1991, M. Deegan, P.J. Knowles, 1992


 Convergence thresholds:  THRVAR = 1.00D-08  THRDEN = 1.00D-12

 CCSD(T)     terms to be evaluated (factor= 1.000)


 Number of core orbitals:           2 (   2   0   0   0 )
 Number of closed-shell orbitals:   5 (   3   1   1   0 )
 Number of external orbitals:      67 (  28  16  16   7 )

 Molecular orbitals read from record     2100.2  Type=RHF/CANONICAL (state 1.1)

 Number of N-1 electron functions:               5
 Number of N-2 electron functions:              15
 Number of singly external CSFs:               116
 Number of doubly external CSFs:             15189
 Total number of CSFs:                       15306

 Length of J-op  integral file:               0.00 MB
 Length of K-op  integral file:               0.15 MB
 Length of 3-ext integral record:             0.00 MB

 Memory could be reduced to 0.93 Mwords without degradation in triples

 Integral transformation finished. Total CPU:   0.01 sec, npass=  1  Memory used:   0.18 MW

 Reference energy:                    -92.90465415

 MP2 singlet pair energy:              -0.21810273
 MP2 triplet pair energy:              -0.12720882
 MP2 correlation energy:               -0.34531155
 MP2 total energy:                    -93.24996569

 SCS-MP2 correlation energy:           -0.34087543   (PS=  1.200000  PT=  0.333333)
 SCS-MP2 total energy:                -93.24552958

 ITER.      SQ.NORM     CORR.ENERGY   TOTAL ENERGY   ENERGY CHANGE        DEN1      VAR(S)    VAR(P)  DIIS     TIME  TIME/IT
   1      1.11499756    -0.34867818   -93.25333233    -0.00336663     0.00946501  0.25D-02  0.30D-02  1  1     0.03     0.02
   2      1.12461805    -0.34906760   -93.25372174    -0.00038941    -0.01007673  0.49D-04  0.42D-03  2  2     0.06     0.03
   3      1.12971010    -0.34929802   -93.25395217    -0.00023042    -0.00255151  0.13D-04  0.42D-04  3  3     0.07     0.02
   4      1.13181238    -0.34939461   -93.25404875    -0.00009659    -0.00076177  0.30D-06  0.44D-05  4  4     0.08     0.02
   5      1.13227161    -0.34939178   -93.25404593     0.00000282    -0.00012827  0.11D-06  0.40D-06  5  5     0.10     0.02
   6      1.13237176    -0.34939049   -93.25404464     0.00000129    -0.00002642  0.89D-08  0.29D-07  6  6     0.11     0.02
   7      1.13237991    -0.34939273   -93.25404688    -0.00000224    -0.00000241  0.63D-09  0.24D-08  6  1     0.12     0.02
   8      1.13238052    -0.34939320   -93.25404735    -0.00000047     0.00000062  0.55D-10  0.14D-09  6  2     0.13     0.02
   9      1.13238120    -0.34939323   -93.25404738    -0.00000003    -0.00000037  0.37D-11  0.11D-10  6  3     0.14     0.02
  10      1.13238116    -0.34939325   -93.25404739    -0.00000002     0.00000009  0.47D-12  0.11D-11  6  4     0.16     0.02
  11      1.13238112    -0.34939325   -93.25404740    -0.00000000     0.00000001  0.46D-13  0.13D-12  6  5     0.17     0.02
  12      1.13238107    -0.34939325   -93.25404740    -0.00000000     0.00000003  0.63D-14  0.25D-13  6  6     0.19     0.02
  13      1.13238103    -0.34939326   -93.25404740    -0.00000000     0.00000001  0.12D-14  0.26D-14  6  2     0.20     0.02
  14      1.13238102    -0.34939326   -93.25404740    -0.00000000     0.00000000  0.58D-16  0.13D-15  6  1     0.21     0.02
  15      1.13238101    -0.34939326   -93.25404740     0.00000000     0.00000000  0.13D-16  0.17D-16  6  3     0.22     0.02
  16      1.13238101    -0.34939326   -93.25404740    -0.00000000     0.00000000  0.90D-18  0.16D-17  6  4     0.23     0.02
  17      1.13238101    -0.34939326   -93.25404740    -0.00000000     0.00000000  0.40D-18  0.14D-18  6  5     0.24     0.02
  18      1.13238101    -0.34939326   -93.25404740     0.00000000    -0.00000000  0.18D-19  0.25D-19  6  6     0.26     0.02
  19      1.13238101    -0.34939326   -93.25404740     0.00000000    -0.00000000  0.52D-20  0.24D-20  6  2     0.27     0.02
  20      1.13238101    -0.34939326   -93.25404740     0.00000000    -0.00000000  0.10D-21  0.59D-21  6  1     0.29     0.02
  21      1.13238101    -0.34939326   -93.25404740     0.00000000    -0.00000000  0.33D-22  0.11D-21  6  3     0.30     0.02

 Norm of t1 vector:      0.06378690      S-energy:    -0.00000000      T1 diagnostic:  0.01426318
                                                                       D1 diagnostic:  0.02861420

 Doubles amplitudes (print threshold =  0.500E-01):

         I         J         SYM. A    SYM. B    A         B      T(IJ, AB)

         4         4         2         2         1         1     -0.08675908
         5         5         3         3         1         1     -0.08675908
         5         4         3         2         1         1     -0.05438770


 Total CPU time for triples:      0.06 sec


 RESULTS
 =======

  Reference energy                    -92.904654145802
  CCSD singlet pair energy             -0.243010542504
  CCSD triplet pair energy             -0.106382713452
  CCSD correlation energy              -0.349393255957

  Triples (T) contribution             -0.017909065222
  Total correlation energy             -0.367302321179

  CCSD total energy                   -93.254047401759
  CCSD[T] energy                      -93.272778751417
  CCSD-T energy                       -93.271546322017
 !CCSD(T) total energy                -93.271956466981

 Timing summary (sec):

 STEP                 CPU(USER)    SYS     CPU(TOT)    WALL
 Transformation          0.01      0.01      0.02      0.02
 CCSD iterations         0.29      0.08      0.37      0.37
 Triples                 0.06      0.00      0.06      0.06

 Program statistics:

 Available memory in ccsd:               994999800
 Min. memory needed in ccsd:                 67993
 Max. memory used in ccsd:                   79450
 Max. memory used in cckext:                107513 (21 integral passes)



 **********************************************************************************************************************************
 DATASETS  * FILE   NREC   LENGTH (MB)   RECORD NAMES
              1      20       29.54       500      610      700      900      950      970     1000      129      960     1100   
                                          VAR    BASINP    GEOM    SYMINP    ZMAT    AOBASIS   BASIS     P2S    ABASIS      S 
                                         1400     1410     1200     1210     1080     1600     1650     1300     1700     1380   
                                           T        V       H0       H01     AOSYM     SMH    MOLCAS    ERIS     OPER     JKOP   

              2       4        2.82       700     1000      520     2100   
                                         GEOM     BASIS   MCVARS     RHF  

 PROGRAMS   *        TOTAL   CCSD(T)        HF       INT
 CPU TIMES  *         1.06      0.39      0.08      0.50
 REAL TIME  *         1.69 SEC
 DISK USED  *        47.00 MB      
 **********************************************************************************************************************************

 CCSD(T)/cc-pVTZ-DK energy=    -93.271956466981

        CCSD(T)         HF-SCF  
    -93.27195647    -92.90465415
 **********************************************************************************************************************************
 Molpro calculation terminated
 Variable memory released
