
 Primary working directories    : /tmp/r2666/232596.maple
 Secondary working directories  : /tmp/r2666/232596.maple
 Wavefunction directory         : /ddn/home4/r2666/wfu/
 Main file repository           : /tmp/r2666/232596.maple/

 SHA1      : d5ffa45e93fdbca01ffc919aa182cfdae0147319
 NAME      : 2015.1.35
 ARCHNAME  : linux/x86_64
 FC        : /opt/intel/composer_xe_2015.1.133/bin/intel64/ifort
 BLASLIB   : -Wl,-_start-group /opt/intel/mkl/lib/intel64/libmkl_intel_ilp64.a /opt/intel/mkl/lib/intel64/libmkl_intel_thread.a /opt/intel/mkl/lib/intel64/libmkl_core.a -Wl,-_end-group
 id        : olemiss

 Nodes     nprocs
 cn080        1

 Using customized tuning parameters: mindgm=1; mindgv=20; mindgc=4; mindgr=1; noblas=0; minvec=7
 default implementation of scratch files=df  

 ***,hcn CCSD(T)/TZ-F12 QFF
 memory, 995, m;
 gthresh,energy=1.d-12,zero=1.d-22,oneint=1.d-22,twoint=1.d-22;
 gthresh,optgrad=1.d-8,optstep=1.d-8;
 nocompress;
 geomtyp=xyz
 bohr
 geometry={
 3
         40        40
 N        0.0000000000        0.0000000000        1.1310004776
 C        0.0000000000        0.0000000000       -1.0572978193
 H        0.0000000000        0.0000000000       -3.0707726403
 }
 
 basis=vtz-dk
 dkroll=0
   {hf,maxit=500;accu,20;}
 {ccsd(t),nocheck,maxit=250;orbital,IGNORE_ERROR;}

 Variables initialized (889), CPU time= 0.00 sec
 Commands  initialized (702), CPU time= 0.01 sec, 572 directives.
 Default parameters read. Elapsed time= 0.07 sec

 Checking input...
 Passed
1


                                         ***  PROGRAM SYSTEM MOLPRO  ***
                                       Copyright, TTI GmbH Stuttgart, 2015
                                    Version 2015.1 linked Jul  9 2018 13:16:40


 **********************************************************************************************************************************
 LABEL *   hcn CCSD(T)/TZ-F12 QFF                                                        
  64 bit serial version                                                                  DATE: 06-Feb-20          TIME: 09:54:36  
 **********************************************************************************************************************************

 SHA1:             d5ffa45e93fdbca01ffc919aa182cfdae0147319
 **********************************************************************************************************************************

 THRESHOLDS:

 ZERO    =  1.00D-22  ONEINT  =  1.00D-22  TWOINT  =  1.00D-22  PREFAC  =  1.00D-14  LOCALI  =  1.00D-09  EORDER  =  1.00D-04
 ENERGY  =  1.00D-12  ETEST   =  0.00D+00  EDENS   =  0.00D+00  THRDEDEF=  1.00D-06  GRADIENT=  1.00D-02  STEP    =  1.00D-03
 ORBITAL =  1.00D-05  CIVEC   =  1.00D-05  COEFF   =  1.00D-04  PRINTCI =  5.00D-02  PUNCHCI =  9.90D+01  OPTGRAD =  3.00D-04
 OPTENERG=  1.00D-06  OPTSTEP =  3.00D-04  THRGRAD =  1.00D-10  COMPRESS=  1.00D-11  VARMIN  =  1.00D-07  VARMAX  =  1.00D-03
 THRDOUB =  0.00D+00  THRDIV  =  1.00D-05  THRRED  =  1.00D-07  THRPSP  =  1.00D+00  THRDC   =  1.00D-10  THRCS   =  1.00D-10
 THRNRM  =  1.00D-08  THREQ   =  0.00D+00  THRDE   =  1.00D+00  THRREF  =  1.00D-05  SPARFAC =  1.00D+00  THRDLP  =  1.00D-07
 THRDIA  =  1.00D-10  THRDLS  =  1.00D-07  THRGPS  =  0.00D+00  THRKEX  =  0.00D+00  THRDIS  =  2.00D-01  THRVAR  =  1.00D-10
 THRLOC  =  1.00D-06  THRGAP  =  1.00D-06  THRLOCT = -1.00D+00  THRGAPT = -1.00D+00  THRORB  =  1.00D-06  THRMLTP =  0.00D+00
 THRCPQCI=  1.00D-10  KEXTA   =  0.00D+00  THRCOARS=  0.00D+00  SYMTOL  =  1.00D-06  GRADTOL =  1.00D-06  THROVL  =  1.00D-08
 THRORTH =  1.00D-08  GRID    =  1.00D-06  GRIDMAX =  1.00D-03  DTMAX   =  0.00D+00  THROCCDE=  1.00D-01  THROCCDE=  1.00D-01



 THRESHOLDS:

 ZERO    =  1.00D-22  ONEINT  =  1.00D-22  TWOINT  =  1.00D-22  PREFAC  =  1.00D-14  LOCALI  =  1.00D-09  EORDER  =  1.00D-04
 ENERGY  =  1.00D-12  ETEST   =  0.00D+00  EDENS   =  0.00D+00  THRDEDEF=  1.00D-06  GRADIENT=  1.00D-02  STEP    =  1.00D-03
 ORBITAL =  1.00D-05  CIVEC   =  1.00D-05  COEFF   =  1.00D-04  PRINTCI =  5.00D-02  PUNCHCI =  9.90D+01  OPTGRAD =  1.00D-08
 OPTENERG=  1.00D-06  OPTSTEP =  1.00D-08  THRGRAD =  1.00D-10  COMPRESS=  1.00D-11  VARMIN  =  1.00D-07  VARMAX  =  1.00D-03
 THRDOUB =  0.00D+00  THRDIV  =  1.00D-05  THRRED  =  1.00D-07  THRPSP  =  1.00D+00  THRDC   =  1.00D-10  THRCS   =  1.00D-10
 THRNRM  =  1.00D-08  THREQ   =  0.00D+00  THRDE   =  1.00D+00  THRREF  =  1.00D-05  SPARFAC =  1.00D+00  THRDLP  =  1.00D-07
 THRDIA  =  1.00D-10  THRDLS  =  1.00D-07  THRGPS  =  0.00D+00  THRKEX  =  0.00D+00  THRDIS  =  2.00D-01  THRVAR  =  1.00D-10
 THRLOC  =  1.00D-06  THRGAP  =  1.00D-06  THRLOCT = -1.00D+00  THRGAPT = -1.00D+00  THRORB  =  1.00D-06  THRMLTP =  0.00D+00
 THRCPQCI=  1.00D-10  KEXTA   =  0.00D+00  THRCOARS=  0.00D+00  SYMTOL  =  1.00D-06  GRADTOL =  1.00D-06  THROVL  =  1.00D-08
 THRORTH =  1.00D-08  GRID    =  1.00D-06  GRIDMAX =  1.00D-03  DTMAX   =  0.00D+00  THROCCDE=  1.00D-01  THROCCDE=  1.00D-01



 Input parameters for SORTINT:

 COMPRESS =    0.000000
 C_FINAL  =    1.000000
 DEBUG    =   -1.000000
 C_SORT1  =    0.000000
 C_SEWARD =    0.000000
 THRESH   =    0.000000
 IO       =  molpro                                                          
 SPRI     =    0.000000
 SETTING GEOMTYP        =    XYZ
 ZUNIT=BOHR
 

 Variable memory set to  995000000 words,  buffer space   230000 words

 SETTING BASIS          =    VTZ-DK
 SETTING DKROLL         =     0.00000000D+00                                  


 Recomputing integrals since basis changed


 Using spherical harmonics

 Library entry N      S cc-pVTZ-DK           selected for orbital group  1
 Library entry N      P cc-pVTZ-DK           selected for orbital group  1
 Library entry N      D cc-pVTZ-DK           selected for orbital group  1
 Library entry N      F cc-pVTZ-DK           selected for orbital group  1
 Library entry C      S cc-pVTZ-DK           selected for orbital group  2
 Library entry C      P cc-pVTZ-DK           selected for orbital group  2
 Library entry C      D cc-pVTZ-DK           selected for orbital group  2
 Library entry C      F cc-pVTZ-DK           selected for orbital group  2
 Library entry H      S cc-pVTZ-DK           selected for orbital group  3
 Library entry H      P cc-pVTZ-DK           selected for orbital group  3
 Library entry H      D cc-pVTZ-DK           selected for orbital group  3


 PROGRAM * SEWARD (Integral evaluation for generally contracted gaussian basis sets)     Author: Roland Lindh, 1990

 Geometry written to block  1 of record 700


 Point group  C2v 



 ATOMIC COORDINATES

 NR  ATOM    CHARGE       X              Y              Z

   1  N       7.00    0.000000000    0.000000000    1.131000478
   2  C       6.00    0.000000000    0.000000000   -1.057297819
   3  H       1.00    0.000000000    0.000000000   -3.070772640

 Bond lengths in Bohr (Angstrom)

 1-2  2.188298297  2-3  2.013474821
     ( 1.157997589)     ( 1.065484990)

 Bond angles

  1-2-3  180.00000000

 NUCLEAR CHARGE:                   14
 NUMBER OF PRIMITIVE AOS:         111
 NUMBER OF SYMMETRY AOS:          100
 NUMBER OF CONTRACTIONS:           74   (  33A1  +  17B1  +  17B2  +   7A2  )
 NUMBER OF CORE ORBITALS:           2   (   2A1  +   0B1  +   0B2  +   0A2  )
 NUMBER OF VALENCE ORBITALS:        9   (   5A1  +   2B1  +   2B2  +   0A2  )


 NUCLEAR REPULSION ENERGY   23.83888217

 EXTRA SYMMETRY OF AOS IN SYMMETRY 1:   1 1 1 1 1 1 1 1 2 1   2 1 2 1 1 1 1 1 1 1   1 2 1 2 1 2 1 1 1 1   1 1 2
 EXTRA SYMMETRY OF AOS IN SYMMETRY 2:   1 1 1 1 1 1 2 1 1 1   1 1 1 2 1 1 1
 EXTRA SYMMETRY OF AOS IN SYMMETRY 3:   1 1 1 1 1 1 2 1 1 1   1 1 1 2 1 1 1

 Eigenvalues of metric

         1 0.109E-02 0.146E-02 0.246E-02 0.634E-02 0.110E-01 0.194E-01 0.293E-01 0.474E-01
         2 0.156E-01 0.364E-01 0.608E-01 0.894E-01 0.133E+00 0.286E+00 0.378E+00 0.431E+00
         3 0.156E-01 0.364E-01 0.608E-01 0.894E-01 0.133E+00 0.286E+00 0.378E+00 0.431E+00
         4 0.294E+00 0.455E+00 0.574E+00 0.847E+00 0.125E+01 0.156E+01 0.202E+01


 Contracted 2-electron integrals neglected if value below      1.0D-22

         874866. INTEGRALS WRITTEN OUT IN     214 BLOCKS ON RECORD 1290 OF FILE 1


 NUMBER OF SORTED TWO-ELECTRON INTEGRALS:    1039939.     BUFFER LENGTH:  32768
 NUMBER OF SEGMENTS:   1  SEGMENT LENGTH:    1039939      RECORD LENGTH: 524288

 Memory used in sort:       1.60 MW

 SORT1 READ      874866. AND WROTE      911174. INTEGRALS IN      3 RECORDS. CPU TIME:     0.02 SEC, REAL TIME:     0.03 SEC
 SORT2 READ      911174. AND WROTE     1039939. INTEGRALS IN      1 RECORDS. CPU TIME:     0.04 SEC, REAL TIME:     0.05 SEC

 FILE SIZES:   FILE 1:    34.1 MBYTE,  FILE 4:    12.6 MBYTE,   TOTAL:     46.7 MBYTE

 OPERATOR DM      FOR CENTER  0  COORDINATES:    0.000000    0.000000    0.000000


 **********************************************************************************************************************************
 DATASETS  * FILE   NREC   LENGTH (MB)   RECORD NAMES
              1      19       27.60       500      610      700      900      950      970     1000      129      960     1100   
                                          VAR    BASINP    GEOM    SYMINP    ZMAT    AOBASIS   BASIS     P2S    ABASIS      S 
                                         1400     1410     1200     1210     1080     1600     1650     1300     1700   
                                           T        V       H0       H01     AOSYM     SMH    MOLCAS    ERIS     OPER   

 PROGRAMS   *        TOTAL       INT
 CPU TIMES  *         0.65      0.54
 REAL TIME  *         1.16 SEC
 DISK USED  *        47.00 MB      
 **********************************************************************************************************************************


 PROGRAM * RHF-SCF (CLOSED SHELL)       Authors: W. Meyer, H.-J. Werner


 NUMBER OF ELECTRONS:       7+    7-
 CONVERGENCE THRESHOLDS:    1.00E-10 (Density)    1.00E-13 (Energy)
 MAX. NUMBER OF ITERATIONS:      500
 INTERPOLATION TYPE:            DIIS
 INTERPOLATION STEPS:              2 (START)      1 (STEP)
 LEVEL SHIFTS:                  0.00 (CLOSED)  0.00 (OPEN) 



 Orbital guess generated from atomic densities. Full valence occupancy:    7   2   2   0

 Molecular orbital dump at record        2100.2

 Initial occupancy:   5   1   1   0

 ITERATION    DDIFF          GRAD             ENERGY        2-EL.EN.            DIPOLE MOMENTS         DIIS   ORB.
    1      0.000D+00      0.000D+00       -92.88032988    111.779100    0.00000    0.00000   -1.76914    0    start
    2      0.000D+00      0.115D-01       -92.88913306    110.978782    0.00000    0.00000   -0.88216    1    diag
    3      0.190D-01      0.104D-01       -92.90418316    111.491850    0.00000    0.00000   -1.29161    2    diag
    4      0.955D-02      0.837D-03       -92.90440498    111.452760    0.00000    0.00000   -1.28280    3    diag
    5      0.151D-02      0.185D-03       -92.90441749    111.464558    0.00000    0.00000   -1.28151    4    diag
    6      0.406D-03      0.517D-04       -92.90441831    111.459408    0.00000    0.00000   -1.28151    5    diag
    7      0.975D-04      0.188D-04       -92.90441839    111.460482    0.00000    0.00000   -1.28165    6    diag
    8      0.330D-04      0.357D-05       -92.90441839    111.460433    0.00000    0.00000   -1.28163    7    diag
    9      0.609D-05      0.389D-06       -92.90441839    111.460440    0.00000    0.00000   -1.28163    8    diag
   10      0.843D-06      0.390D-07       -92.90441839    111.460440    0.00000    0.00000   -1.28163    9    orth
   11      0.760D-07      0.459D-08       -92.90441839    111.460440    0.00000    0.00000   -1.28163    9    diag
   12      0.132D-07      0.423D-09       -92.90441839    111.460440    0.00000    0.00000   -1.28163    9    diag
   13      0.174D-08      0.445D-10       -92.90441839    111.460440    0.00000    0.00000   -1.28163    9    diag
   14      0.253D-09      0.893D-11       -92.90441839    111.460440    0.00000    0.00000   -1.28163    9    diag
   15      0.438D-10      0.132D-11       -92.90441839    111.460440    0.00000    0.00000   -1.28163    9    diag
   16      0.441D-11      0.195D-12       -92.90441839    111.460440    0.00000    0.00000   -1.28163    9    diag
   17      0.503D-12      0.534D-13       -92.90441839    111.460440    0.00000    0.00000   -1.28163    9    diag
   18      0.221D-12      0.315D-13       -92.90441839    111.460440    0.00000    0.00000   -1.28163    9    diag
   19      0.119D-12      0.337D-13       -92.90441839    111.460440    0.00000    0.00000   -1.28163    0    orth

 Final occupancy:   5   1   1   0

 !RHF STATE 1.1 Energy                -92.904418393023
 Nuclear energy                        23.83888217
 One-electron energy                 -172.47352069
 Two-electron energy                   55.73022013
 Virial quotient                       -1.00121362
 !RHF STATE 1.1 Dipole moment           0.00000000     0.00000000    -1.28162598
 Dipole moment /Debye                   0.00000000     0.00000000    -3.25735497

 Orbital energies:

         1.1          2.1          3.1          4.1          5.1          6.1          7.1
    -15.599274   -11.292249    -1.233034    -0.812537    -0.581230     0.141681     0.240503

         1.2          2.2          3.2
     -0.494108     0.165317     0.446474

         1.3          2.3          3.3
     -0.494108     0.165317     0.446474

         1.4          2.4
      0.810370     1.418772

 HOMO      1.2    -0.494108 =     -13.4454eV
 LUMO      6.1     0.141681 =       3.8553eV
 LUMO-HOMO         0.635790 =      17.3007eV


 **********************************************************************************************************************************
 DATASETS  * FILE   NREC   LENGTH (MB)   RECORD NAMES
              1      19       27.60       500      610      700      900      950      970     1000      129      960     1100   
                                          VAR    BASINP    GEOM    SYMINP    ZMAT    AOBASIS   BASIS     P2S    ABASIS      S 
                                         1400     1410     1200     1210     1080     1600     1650     1300     1700   
                                           T        V       H0       H01     AOSYM     SMH    MOLCAS    ERIS     OPER   

              2       4        2.82       700     1000      520     2100   
                                         GEOM     BASIS   MCVARS     RHF  

 PROGRAMS   *        TOTAL        HF       INT
 CPU TIMES  *         0.75      0.10      0.54
 REAL TIME  *         1.29 SEC
 DISK USED  *        47.00 MB      
 **********************************************************************************************************************************


 PROGRAM * CCSD (Closed-shell coupled cluster)     Authors: C. Hampel, H.-J. Werner, 1991, M. Deegan, P.J. Knowles, 1992


 Convergence thresholds:  THRVAR = 1.00D-08  THRDEN = 1.00D-12

 CCSD(T)     terms to be evaluated (factor= 1.000)


 Number of core orbitals:           2 (   2   0   0   0 )
 Number of closed-shell orbitals:   5 (   3   1   1   0 )
 Number of external orbitals:      67 (  28  16  16   7 )

 Molecular orbitals read from record     2100.2  Type=RHF/CANONICAL (state 1.1)

 Number of N-1 electron functions:               5
 Number of N-2 electron functions:              15
 Number of singly external CSFs:               116
 Number of doubly external CSFs:             15189
 Total number of CSFs:                       15306

 Length of J-op  integral file:               0.00 MB
 Length of K-op  integral file:               0.15 MB
 Length of 3-ext integral record:             0.00 MB

 Memory could be reduced to 0.93 Mwords without degradation in triples

 Integral transformation finished. Total CPU:   0.01 sec, npass=  1  Memory used:   0.18 MW

 Reference energy:                    -92.90441839

 MP2 singlet pair energy:              -0.21851458
 MP2 triplet pair energy:              -0.12759643
 MP2 correlation energy:               -0.34611101
 MP2 total energy:                    -93.25052940

 SCS-MP2 correlation energy:           -0.34161083   (PS=  1.200000  PT=  0.333333)
 SCS-MP2 total energy:                -93.24602922

 ITER.      SQ.NORM     CORR.ENERGY   TOTAL ENERGY   ENERGY CHANGE        DEN1      VAR(S)    VAR(P)  DIIS     TIME  TIME/IT
   1      1.11525348    -0.34921167   -93.25363007    -0.00310067     0.00988221  0.26D-02  0.30D-02  1  1     0.02     0.02
   2      1.12492552    -0.34954554   -93.25396393    -0.00033386    -0.01015266  0.51D-04  0.42D-03  2  2     0.04     0.02
   3      1.13004478    -0.34977382   -93.25419221    -0.00022828    -0.00255754  0.12D-04  0.43D-04  3  3     0.05     0.02
   4      1.13218686    -0.34987262   -93.25429101    -0.00009880    -0.00077284  0.29D-06  0.45D-05  4  4     0.07     0.02
   5      1.13265671    -0.34986894   -93.25428733     0.00000367    -0.00013094  0.10D-06  0.41D-06  5  5     0.08     0.02
   6      1.13275627    -0.34986791   -93.25428630     0.00000103    -0.00002616  0.90D-08  0.30D-07  6  6     0.10     0.02
   7      1.13276427    -0.34987028   -93.25428867    -0.00000237    -0.00000235  0.60D-09  0.26D-08  6  1     0.11     0.02
   8      1.13276474    -0.34987078   -93.25428917    -0.00000050     0.00000069  0.41D-10  0.15D-09  6  2     0.12     0.02
   9      1.13276542    -0.34987081   -93.25428921    -0.00000003    -0.00000039  0.49D-11  0.10D-10  6  3     0.13     0.02
  10      1.13276536    -0.34987083   -93.25428922    -0.00000002     0.00000010  0.28D-12  0.11D-11  6  4     0.14     0.02
  11      1.13276532    -0.34987083   -93.25428923    -0.00000000     0.00000001  0.94D-13  0.93D-13  6  5     0.16     0.02
  12      1.13276526    -0.34987084   -93.25428923    -0.00000000     0.00000003  0.56D-14  0.21D-13  6  6     0.17     0.02
  13      1.13276523    -0.34987084   -93.25428923    -0.00000000     0.00000001  0.21D-14  0.19D-14  6  2     0.19     0.02
  14      1.13276521    -0.34987084   -93.25428923    -0.00000000     0.00000000  0.22D-16  0.10D-15  6  1     0.20     0.02
  15      1.13276521    -0.34987084   -93.25428923    -0.00000000     0.00000000  0.15D-17  0.84D-17  6  4     0.21     0.02
  16      1.13276521    -0.34987084   -93.25428923    -0.00000000     0.00000000  0.44D-18  0.44D-18  6  3     0.23     0.02
  17      1.13276521    -0.34987084   -93.25428923    -0.00000000     0.00000000  0.50D-19  0.76D-19  6  5     0.24     0.02
  18      1.13276521    -0.34987084   -93.25428923    -0.00000000     0.00000000  0.11D-19  0.53D-20  6  6     0.25     0.02
  19      1.13276521    -0.34987084   -93.25428923     0.00000000    -0.00000000  0.49D-21  0.84D-21  6  2     0.26     0.02
  20      1.13276521    -0.34987084   -93.25428923     0.00000000    -0.00000000  0.83D-22  0.12D-21  6  1     0.26     0.02

 Norm of t1 vector:      0.06428128      S-energy:    -0.00000000      T1 diagnostic:  0.01437373
                                                                       D1 diagnostic:  0.02897030

 Doubles amplitudes (print threshold =  0.500E-01):

         I         J         SYM. A    SYM. B    A         B      T(IJ, AB)

         4         4         2         2         1         1     -0.08799978
         5         5         3         3         1         1     -0.08799978
         5         4         3         2         1         1     -0.05506066


 Total CPU time for triples:      0.05 sec


 RESULTS
 =======

  Reference energy                    -92.904418393023
  CCSD singlet pair energy             -0.243355559748
  CCSD triplet pair energy             -0.106515280082
  CCSD correlation energy              -0.349870839830

  Triples (T) contribution             -0.018016976834
  Total correlation energy             -0.367887816664

  CCSD total energy                   -93.254289232854
  CCSD[T] energy                      -93.273144760624
  CCSD-T energy                       -93.271888787123
 !CCSD(T) total energy                -93.272306209687

 Timing summary (sec):

 STEP                 CPU(USER)    SYS     CPU(TOT)    WALL
 Transformation          0.01      0.01      0.02      0.02
 CCSD iterations         0.27      0.09      0.36      0.34
 Triples                 0.05      0.00      0.05      0.06

 Program statistics:

 Available memory in ccsd:               994999800
 Min. memory needed in ccsd:                 67993
 Max. memory used in ccsd:                   79450
 Max. memory used in cckext:                107513 (20 integral passes)



 **********************************************************************************************************************************
 DATASETS  * FILE   NREC   LENGTH (MB)   RECORD NAMES
              1      20       29.54       500      610      700      900      950      970     1000      129      960     1100   
                                          VAR    BASINP    GEOM    SYMINP    ZMAT    AOBASIS   BASIS     P2S    ABASIS      S 
                                         1400     1410     1200     1210     1080     1600     1650     1300     1700     1380   
                                           T        V       H0       H01     AOSYM     SMH    MOLCAS    ERIS     OPER     JKOP   

              2       4        2.82       700     1000      520     2100   
                                         GEOM     BASIS   MCVARS     RHF  

 PROGRAMS   *        TOTAL   CCSD(T)        HF       INT
 CPU TIMES  *         1.12      0.36      0.10      0.54
 REAL TIME  *         1.79 SEC
 DISK USED  *        47.00 MB      
 **********************************************************************************************************************************

 CCSD(T)/cc-pVTZ-DK energy=    -93.272306209687

        CCSD(T)         HF-SCF  
    -93.27230621    -92.90441839
 **********************************************************************************************************************************
 Molpro calculation terminated
 Variable memory released
