
 Primary working directories    : /tmp/r2666/232583.maple
 Secondary working directories  : /tmp/r2666/232583.maple
 Wavefunction directory         : /ddn/home4/r2666/wfu/
 Main file repository           : /tmp/r2666/232583.maple/

 SHA1      : d5ffa45e93fdbca01ffc919aa182cfdae0147319
 NAME      : 2015.1.35
 ARCHNAME  : linux/x86_64
 FC        : /opt/intel/composer_xe_2015.1.133/bin/intel64/ifort
 BLASLIB   : -Wl,-_start-group /opt/intel/mkl/lib/intel64/libmkl_intel_ilp64.a /opt/intel/mkl/lib/intel64/libmkl_intel_thread.a /opt/intel/mkl/lib/intel64/libmkl_core.a -Wl,-_end-group
 id        : olemiss

 Nodes     nprocs
 cn079        1

 Using customized tuning parameters: mindgm=1; mindgv=20; mindgc=4; mindgr=1; noblas=0; minvec=7
 default implementation of scratch files=df  

 ***,hcn CCSD(T)/TZ-F12 QFF
 memory, 995, m;
 gthresh,energy=1.d-12,zero=1.d-22,oneint=1.d-22,twoint=1.d-22;
 gthresh,optgrad=1.d-8,optstep=1.d-8;
 nocompress;
 geomtyp=xyz
 bohr
 geometry={
 3
         27        27
 N        0.0000000000        0.0000000000        1.1247013910
 C        0.0000000000        0.0000000000       -1.0541482760
 H        0.0000000000        0.0000000000       -3.0676230970
 }
 
 basis=vtz-dk
 dkroll=0
   {hf,maxit=500;accu,20;}
 {ccsd(t),nocheck,maxit=250;orbital,IGNORE_ERROR;}

 Variables initialized (889), CPU time= 0.01 sec
 Commands  initialized (702), CPU time= 0.01 sec, 572 directives.
 Default parameters read. Elapsed time= 0.05 sec

 Checking input...
 Passed
1


                                         ***  PROGRAM SYSTEM MOLPRO  ***
                                       Copyright, TTI GmbH Stuttgart, 2015
                                    Version 2015.1 linked Jul  9 2018 13:16:40


 **********************************************************************************************************************************
 LABEL *   hcn CCSD(T)/TZ-F12 QFF                                                        
  64 bit serial version                                                                  DATE: 06-Feb-20          TIME: 09:54:34  
 **********************************************************************************************************************************

 SHA1:             d5ffa45e93fdbca01ffc919aa182cfdae0147319
 **********************************************************************************************************************************

 THRESHOLDS:

 ZERO    =  1.00D-22  ONEINT  =  1.00D-22  TWOINT  =  1.00D-22  PREFAC  =  1.00D-14  LOCALI  =  1.00D-09  EORDER  =  1.00D-04
 ENERGY  =  1.00D-12  ETEST   =  0.00D+00  EDENS   =  0.00D+00  THRDEDEF=  1.00D-06  GRADIENT=  1.00D-02  STEP    =  1.00D-03
 ORBITAL =  1.00D-05  CIVEC   =  1.00D-05  COEFF   =  1.00D-04  PRINTCI =  5.00D-02  PUNCHCI =  9.90D+01  OPTGRAD =  3.00D-04
 OPTENERG=  1.00D-06  OPTSTEP =  3.00D-04  THRGRAD =  1.00D-10  COMPRESS=  1.00D-11  VARMIN  =  1.00D-07  VARMAX  =  1.00D-03
 THRDOUB =  0.00D+00  THRDIV  =  1.00D-05  THRRED  =  1.00D-07  THRPSP  =  1.00D+00  THRDC   =  1.00D-10  THRCS   =  1.00D-10
 THRNRM  =  1.00D-08  THREQ   =  0.00D+00  THRDE   =  1.00D+00  THRREF  =  1.00D-05  SPARFAC =  1.00D+00  THRDLP  =  1.00D-07
 THRDIA  =  1.00D-10  THRDLS  =  1.00D-07  THRGPS  =  0.00D+00  THRKEX  =  0.00D+00  THRDIS  =  2.00D-01  THRVAR  =  1.00D-10
 THRLOC  =  1.00D-06  THRGAP  =  1.00D-06  THRLOCT = -1.00D+00  THRGAPT = -1.00D+00  THRORB  =  1.00D-06  THRMLTP =  0.00D+00
 THRCPQCI=  1.00D-10  KEXTA   =  0.00D+00  THRCOARS=  0.00D+00  SYMTOL  =  1.00D-06  GRADTOL =  1.00D-06  THROVL  =  1.00D-08
 THRORTH =  1.00D-08  GRID    =  1.00D-06  GRIDMAX =  1.00D-03  DTMAX   =  0.00D+00  THROCCDE=  1.00D-01  THROCCDE=  1.00D-01



 THRESHOLDS:

 ZERO    =  1.00D-22  ONEINT  =  1.00D-22  TWOINT  =  1.00D-22  PREFAC  =  1.00D-14  LOCALI  =  1.00D-09  EORDER  =  1.00D-04
 ENERGY  =  1.00D-12  ETEST   =  0.00D+00  EDENS   =  0.00D+00  THRDEDEF=  1.00D-06  GRADIENT=  1.00D-02  STEP    =  1.00D-03
 ORBITAL =  1.00D-05  CIVEC   =  1.00D-05  COEFF   =  1.00D-04  PRINTCI =  5.00D-02  PUNCHCI =  9.90D+01  OPTGRAD =  1.00D-08
 OPTENERG=  1.00D-06  OPTSTEP =  1.00D-08  THRGRAD =  1.00D-10  COMPRESS=  1.00D-11  VARMIN  =  1.00D-07  VARMAX  =  1.00D-03
 THRDOUB =  0.00D+00  THRDIV  =  1.00D-05  THRRED  =  1.00D-07  THRPSP  =  1.00D+00  THRDC   =  1.00D-10  THRCS   =  1.00D-10
 THRNRM  =  1.00D-08  THREQ   =  0.00D+00  THRDE   =  1.00D+00  THRREF  =  1.00D-05  SPARFAC =  1.00D+00  THRDLP  =  1.00D-07
 THRDIA  =  1.00D-10  THRDLS  =  1.00D-07  THRGPS  =  0.00D+00  THRKEX  =  0.00D+00  THRDIS  =  2.00D-01  THRVAR  =  1.00D-10
 THRLOC  =  1.00D-06  THRGAP  =  1.00D-06  THRLOCT = -1.00D+00  THRGAPT = -1.00D+00  THRORB  =  1.00D-06  THRMLTP =  0.00D+00
 THRCPQCI=  1.00D-10  KEXTA   =  0.00D+00  THRCOARS=  0.00D+00  SYMTOL  =  1.00D-06  GRADTOL =  1.00D-06  THROVL  =  1.00D-08
 THRORTH =  1.00D-08  GRID    =  1.00D-06  GRIDMAX =  1.00D-03  DTMAX   =  0.00D+00  THROCCDE=  1.00D-01  THROCCDE=  1.00D-01



 Input parameters for SORTINT:

 COMPRESS =    0.000000
 C_FINAL  =    1.000000
 DEBUG    =   -1.000000
 C_SORT1  =    0.000000
 C_SEWARD =    0.000000
 THRESH   =    0.000000
 IO       =  molpro                                                          
 SPRI     =    0.000000
 SETTING GEOMTYP        =    XYZ
 ZUNIT=BOHR
 

 Variable memory set to  995000000 words,  buffer space   230000 words

 SETTING BASIS          =    VTZ-DK
 SETTING DKROLL         =     0.00000000D+00                                  


 Recomputing integrals since basis changed


 Using spherical harmonics

 Library entry N      S cc-pVTZ-DK           selected for orbital group  1
 Library entry N      P cc-pVTZ-DK           selected for orbital group  1
 Library entry N      D cc-pVTZ-DK           selected for orbital group  1
 Library entry N      F cc-pVTZ-DK           selected for orbital group  1
 Library entry C      S cc-pVTZ-DK           selected for orbital group  2
 Library entry C      P cc-pVTZ-DK           selected for orbital group  2
 Library entry C      D cc-pVTZ-DK           selected for orbital group  2
 Library entry C      F cc-pVTZ-DK           selected for orbital group  2
 Library entry H      S cc-pVTZ-DK           selected for orbital group  3
 Library entry H      P cc-pVTZ-DK           selected for orbital group  3
 Library entry H      D cc-pVTZ-DK           selected for orbital group  3


 PROGRAM * SEWARD (Integral evaluation for generally contracted gaussian basis sets)     Author: Roland Lindh, 1990

 Geometry written to block  1 of record 700


 Point group  C2v 



 ATOMIC COORDINATES

 NR  ATOM    CHARGE       X              Y              Z

   1  N       7.00    0.000000000    0.000000000    1.124701391
   2  C       6.00    0.000000000    0.000000000   -1.054148276
   3  H       1.00    0.000000000    0.000000000   -3.067623097

 Bond lengths in Bohr (Angstrom)

 1-2  2.178849667  2-3  2.013474821
     ( 1.152997590)     ( 1.065484990)

 Bond angles

  1-2-3  179.99999809

 NUCLEAR CHARGE:                   14
 NUMBER OF PRIMITIVE AOS:         111
 NUMBER OF SYMMETRY AOS:          100
 NUMBER OF CONTRACTIONS:           74   (  33A1  +  17B1  +  17B2  +   7A2  )
 NUMBER OF CORE ORBITALS:           2   (   2A1  +   0B1  +   0B2  +   0A2  )
 NUMBER OF VALENCE ORBITALS:        9   (   5A1  +   2B1  +   2B2  +   0A2  )


 NUCLEAR REPULSION ENERGY   23.92586776

 EXTRA SYMMETRY OF AOS IN SYMMETRY 1:   1 1 1 1 1 1 1 1 2 1   2 1 2 1 1 1 1 1 1 1   1 2 1 2 1 2 1 1 1 1   1 1 2
 EXTRA SYMMETRY OF AOS IN SYMMETRY 2:   1 1 1 1 1 1 2 1 1 1   1 1 1 2 1 1 1
 EXTRA SYMMETRY OF AOS IN SYMMETRY 3:   1 1 1 1 1 1 2 1 1 1   1 1 1 2 1 1 1

 Eigenvalues of metric

         1 0.108E-02 0.145E-02 0.245E-02 0.632E-02 0.109E-01 0.191E-01 0.292E-01 0.473E-01
         2 0.153E-01 0.363E-01 0.608E-01 0.887E-01 0.132E+00 0.284E+00 0.376E+00 0.431E+00
         3 0.153E-01 0.363E-01 0.608E-01 0.887E-01 0.132E+00 0.284E+00 0.376E+00 0.431E+00
         4 0.292E+00 0.453E+00 0.574E+00 0.845E+00 0.125E+01 0.156E+01 0.203E+01


 Contracted 2-electron integrals neglected if value below      1.0D-22

         875105. INTEGRALS WRITTEN OUT IN     214 BLOCKS ON RECORD 1290 OF FILE 1


 NUMBER OF SORTED TWO-ELECTRON INTEGRALS:    1039939.     BUFFER LENGTH:  32768
 NUMBER OF SEGMENTS:   1  SEGMENT LENGTH:    1039939      RECORD LENGTH: 524288

 Memory used in sort:       1.60 MW

 SORT1 READ      875105. AND WROTE      911441. INTEGRALS IN      3 RECORDS. CPU TIME:     0.01 SEC, REAL TIME:     0.03 SEC
 SORT2 READ      911441. AND WROTE     1039939. INTEGRALS IN      1 RECORDS. CPU TIME:     0.04 SEC, REAL TIME:     0.05 SEC

 FILE SIZES:   FILE 1:    34.1 MBYTE,  FILE 4:    12.6 MBYTE,   TOTAL:     46.7 MBYTE

 OPERATOR DM      FOR CENTER  0  COORDINATES:    0.000000    0.000000    0.000000


 **********************************************************************************************************************************
 DATASETS  * FILE   NREC   LENGTH (MB)   RECORD NAMES
              1      19       27.60       500      610      700      900      950      970     1000      129      960     1100   
                                          VAR    BASINP    GEOM    SYMINP    ZMAT    AOBASIS   BASIS     P2S    ABASIS      S 
                                         1400     1410     1200     1210     1080     1600     1650     1300     1700   
                                           T        V       H0       H01     AOSYM     SMH    MOLCAS    ERIS     OPER   

 PROGRAMS   *        TOTAL       INT
 CPU TIMES  *         0.60      0.51
 REAL TIME  *         1.12 SEC
 DISK USED  *        47.00 MB      
 **********************************************************************************************************************************


 PROGRAM * RHF-SCF (CLOSED SHELL)       Authors: W. Meyer, H.-J. Werner


 NUMBER OF ELECTRONS:       7+    7-
 CONVERGENCE THRESHOLDS:    1.00E-10 (Density)    1.00E-13 (Energy)
 MAX. NUMBER OF ITERATIONS:      500
 INTERPOLATION TYPE:            DIIS
 INTERPOLATION STEPS:              2 (START)      1 (STEP)
 LEVEL SHIFTS:                  0.00 (CLOSED)  0.00 (OPEN) 



 Orbital guess generated from atomic densities. Full valence occupancy:    7   2   2   0

 Molecular orbital dump at record        2100.2

 Initial occupancy:   5   1   1   0

 ITERATION    DDIFF          GRAD             ENERGY        2-EL.EN.            DIPOLE MOMENTS         DIIS   ORB.
    1      0.000D+00      0.000D+00       -92.88112482    111.975721    0.00000    0.00000   -1.76552    0    start
    2      0.000D+00      0.115D-01       -92.89014039    111.145568    0.00000    0.00000   -0.88708    1    diag
    3      0.190D-01      0.103D-01       -92.90496094    111.661815    0.00000    0.00000   -1.29042    2    diag
    4      0.951D-02      0.831D-03       -92.90517991    111.625987    0.00000    0.00000   -1.28168    3    diag
    5      0.151D-02      0.181D-03       -92.90519211    111.636315    0.00000    0.00000   -1.28034    4    diag
    6      0.404D-03      0.503D-04       -92.90519286    111.631481    0.00000    0.00000   -1.28041    5    diag
    7      0.926D-04      0.181D-04       -92.90519293    111.632583    0.00000    0.00000   -1.28054    6    diag
    8      0.319D-04      0.346D-05       -92.90519294    111.632531    0.00000    0.00000   -1.28052    7    diag
    9      0.584D-05      0.378D-06       -92.90519294    111.632538    0.00000    0.00000   -1.28051    8    diag
   10      0.818D-06      0.385D-07       -92.90519294    111.632538    0.00000    0.00000   -1.28051    9    orth
   11      0.751D-07      0.459D-08       -92.90519294    111.632538    0.00000    0.00000   -1.28051    9    diag
   12      0.130D-07      0.434D-09       -92.90519294    111.632538    0.00000    0.00000   -1.28051    9    diag
   13      0.178D-08      0.464D-10       -92.90519294    111.632538    0.00000    0.00000   -1.28051    9    diag
   14      0.250D-09      0.936D-11       -92.90519294    111.632538    0.00000    0.00000   -1.28051    9    diag
   15      0.472D-10      0.137D-11       -92.90519294    111.632538    0.00000    0.00000   -1.28051    9    diag
   16      0.487D-11      0.161D-12       -92.90519294    111.632538    0.00000    0.00000   -1.28051    9    diag
   17      0.446D-12      0.522D-13       -92.90519294    111.632538    0.00000    0.00000   -1.28051    9    diag
   18      0.159D-12      0.407D-13       -92.90519294    111.632538    0.00000    0.00000   -1.28051    9    diag
   19      0.124D-12      0.275D-13       -92.90519294    111.632538    0.00000    0.00000   -1.28051    0    orth

 Final occupancy:   5   1   1   0

 !RHF STATE 1.1 Energy                -92.905192936499
 Nuclear energy                        23.92586776
 One-electron energy                 -172.64732963
 Two-electron energy                   55.81626894
 Virial quotient                       -1.00092851
 !RHF STATE 1.1 Dipole moment           0.00000000     0.00000000    -1.28051459
 Dipole moment /Debye                   0.00000000     0.00000000    -3.25453028

 Orbital energies:

         1.1          2.1          3.1          4.1          5.1          6.1          7.1
    -15.597503   -11.290459    -1.235394    -0.811804    -0.580990     0.141883     0.240748

         1.2          2.2          3.2
     -0.495623     0.166938     0.446452

         1.3          2.3          3.3
     -0.495623     0.166938     0.446452

         1.4          2.4
      0.810432     1.420195

 HOMO      1.2    -0.495623 =     -13.4866eV
 LUMO      6.1     0.141883 =       3.8608eV
 LUMO-HOMO         0.637506 =      17.3474eV


 **********************************************************************************************************************************
 DATASETS  * FILE   NREC   LENGTH (MB)   RECORD NAMES
              1      19       27.60       500      610      700      900      950      970     1000      129      960     1100   
                                          VAR    BASINP    GEOM    SYMINP    ZMAT    AOBASIS   BASIS     P2S    ABASIS      S 
                                         1400     1410     1200     1210     1080     1600     1650     1300     1700   
                                           T        V       H0       H01     AOSYM     SMH    MOLCAS    ERIS     OPER   

              2       4        2.82       700     1000      520     2100   
                                         GEOM     BASIS   MCVARS     RHF  

 PROGRAMS   *        TOTAL        HF       INT
 CPU TIMES  *         0.69      0.09      0.51
 REAL TIME  *         1.24 SEC
 DISK USED  *        47.00 MB      
 **********************************************************************************************************************************


 PROGRAM * CCSD (Closed-shell coupled cluster)     Authors: C. Hampel, H.-J. Werner, 1991, M. Deegan, P.J. Knowles, 1992


 Convergence thresholds:  THRVAR = 1.00D-08  THRDEN = 1.00D-12

 CCSD(T)     terms to be evaluated (factor= 1.000)


 Number of core orbitals:           2 (   2   0   0   0 )
 Number of closed-shell orbitals:   5 (   3   1   1   0 )
 Number of external orbitals:      67 (  28  16  16   7 )

 Molecular orbitals read from record     2100.2  Type=RHF/CANONICAL (state 1.1)

 Number of N-1 electron functions:               5
 Number of N-2 electron functions:              15
 Number of singly external CSFs:               116
 Number of doubly external CSFs:             15189
 Total number of CSFs:                       15306

 Length of J-op  integral file:               0.00 MB
 Length of K-op  integral file:               0.15 MB
 Length of 3-ext integral record:             0.00 MB

 Memory could be reduced to 0.93 Mwords without degradation in triples

 Integral transformation finished. Total CPU:   0.01 sec, npass=  1  Memory used:   0.18 MW

 Reference energy:                    -92.90519294

 MP2 singlet pair energy:              -0.21795077
 MP2 triplet pair energy:              -0.12715751
 MP2 correlation energy:               -0.34510828
 MP2 total energy:                    -93.25030122

 SCS-MP2 correlation energy:           -0.34066115   (PS=  1.200000  PT=  0.333333)
 SCS-MP2 total energy:                -93.24585409

 ITER.      SQ.NORM     CORR.ENERGY   TOTAL ENERGY   ENERGY CHANGE        DEN1      VAR(S)    VAR(P)  DIIS     TIME  TIME/IT
   1      1.11462950    -0.34846593   -93.25365886    -0.00335765     0.00942170  0.25D-02  0.30D-02  1  1     0.03     0.01
   2      1.12417778    -0.34883907   -93.25403201    -0.00037315    -0.01003742  0.49D-04  0.41D-03  2  2     0.04     0.02
   3      1.12919856    -0.34906231   -93.25425524    -0.00022323    -0.00252139  0.12D-04  0.41D-04  3  3     0.05     0.02
   4      1.13128304    -0.34915767   -93.25435061    -0.00009537    -0.00075633  0.28D-06  0.44D-05  4  4     0.07     0.02
   5      1.13173700    -0.34915399   -93.25434693     0.00000369    -0.00012727  0.10D-06  0.39D-06  5  5     0.08     0.02
   6      1.13183174    -0.34915303   -93.25434597     0.00000095    -0.00002501  0.85D-08  0.28D-07  6  6     0.10     0.02
   7      1.13183937    -0.34915528   -93.25434821    -0.00000224    -0.00000227  0.59D-09  0.24D-08  6  1     0.11     0.02
   8      1.13183981    -0.34915576   -93.25434870    -0.00000049     0.00000067  0.42D-10  0.14D-09  6  2     0.12     0.02
   9      1.13184047    -0.34915579   -93.25434873    -0.00000003    -0.00000037  0.41D-11  0.95D-11  6  3     0.13     0.02
  10      1.13184041    -0.34915581   -93.25434875    -0.00000002     0.00000009  0.27D-12  0.97D-12  6  4     0.15     0.02
  11      1.13184037    -0.34915581   -93.25434875    -0.00000000     0.00000001  0.63D-13  0.93D-13  6  5     0.17     0.02
  12      1.13184032    -0.34915582   -93.25434875    -0.00000000     0.00000002  0.33D-14  0.20D-13  6  6     0.18     0.02
  13      1.13184028    -0.34915582   -93.25434875    -0.00000000     0.00000001  0.14D-14  0.19D-14  6  2     0.20     0.02
  14      1.13184027    -0.34915582   -93.25434875    -0.00000000     0.00000000  0.15D-16  0.93D-16  6  1     0.21     0.02
  15      1.13184027    -0.34915582   -93.25434875    -0.00000000     0.00000000  0.24D-17  0.70D-17  6  4     0.22     0.02
  16      1.13184027    -0.34915582   -93.25434875    -0.00000000     0.00000000  0.10D-18  0.42D-18  6  3     0.24     0.02
  17      1.13184027    -0.34915582   -93.25434875    -0.00000000     0.00000000  0.21D-19  0.56D-19  6  5     0.26     0.02
  18      1.13184027    -0.34915582   -93.25434875    -0.00000000     0.00000000  0.11D-20  0.46D-20  6  6     0.27     0.02
  19      1.13184027    -0.34915582   -93.25434875     0.00000000    -0.00000000  0.46D-21  0.28D-21  6  2     0.28     0.02
  20      1.13184027    -0.34915582   -93.25434875     0.00000000    -0.00000000  0.30D-22  0.47D-22  6  1     0.30     0.02

 Norm of t1 vector:      0.06360226      S-energy:    -0.00000000      T1 diagnostic:  0.01422190
                                                                       D1 diagnostic:  0.02863557

 Doubles amplitudes (print threshold =  0.500E-01):

         I         J         SYM. A    SYM. B    A         B      T(IJ, AB)

         4         4         2         2         1         1     -0.08693732
         5         5         3         3         1         1     -0.08693732
         5         4         3         2         1         1     -0.05450154


 Total CPU time for triples:      0.05 sec


 RESULTS
 =======

  Reference energy                    -92.905192936499
  CCSD singlet pair energy             -0.242755651379
  CCSD triplet pair energy             -0.106400166822
  CCSD correlation energy              -0.349155818201

  Triples (T) contribution             -0.017859092427
  Total correlation energy             -0.367014910628

  CCSD total energy                   -93.254348754701
  CCSD[T] energy                      -93.273026676597
  CCSD-T energy                       -93.271798821262
 !CCSD(T) total energy                -93.272207847127

 Timing summary (sec):

 STEP                 CPU(USER)    SYS     CPU(TOT)    WALL
 Transformation          0.01      0.01      0.02      0.02
 CCSD iterations         0.30      0.03      0.33      0.32
 Triples                 0.05      0.01      0.06      0.06

 Program statistics:

 Available memory in ccsd:               994999800
 Min. memory needed in ccsd:                 67993
 Max. memory used in ccsd:                   79450
 Max. memory used in cckext:                107513 (20 integral passes)



 **********************************************************************************************************************************
 DATASETS  * FILE   NREC   LENGTH (MB)   RECORD NAMES
              1      20       29.54       500      610      700      900      950      970     1000      129      960     1100   
                                          VAR    BASINP    GEOM    SYMINP    ZMAT    AOBASIS   BASIS     P2S    ABASIS      S 
                                         1400     1410     1200     1210     1080     1600     1650     1300     1700     1380   
                                           T        V       H0       H01     AOSYM     SMH    MOLCAS    ERIS     OPER     JKOP   

              2       4        2.82       700     1000      520     2100   
                                         GEOM     BASIS   MCVARS     RHF  

 PROGRAMS   *        TOTAL   CCSD(T)        HF       INT
 CPU TIMES  *         1.08      0.39      0.09      0.51
 REAL TIME  *         1.72 SEC
 DISK USED  *        47.00 MB      
 **********************************************************************************************************************************

 CCSD(T)/cc-pVTZ-DK energy=    -93.272207847127

        CCSD(T)         HF-SCF  
    -93.27220785    -92.90519294
 **********************************************************************************************************************************
 Molpro calculation terminated
 Variable memory released
