
 Primary working directories    : /tmp/r2666/232607.maple
 Secondary working directories  : /tmp/r2666/232607.maple
 Wavefunction directory         : /ddn/home4/r2666/wfu/
 Main file repository           : /tmp/r2666/232607.maple/

 SHA1      : d5ffa45e93fdbca01ffc919aa182cfdae0147319
 NAME      : 2015.1.35
 ARCHNAME  : linux/x86_64
 FC        : /opt/intel/composer_xe_2015.1.133/bin/intel64/ifort
 BLASLIB   : -Wl,-_start-group /opt/intel/mkl/lib/intel64/libmkl_intel_ilp64.a /opt/intel/mkl/lib/intel64/libmkl_intel_thread.a /opt/intel/mkl/lib/intel64/libmkl_core.a -Wl,-_end-group
 id        : olemiss

 Nodes     nprocs
 cn093        1

 Using customized tuning parameters: mindgm=1; mindgv=20; mindgc=4; mindgr=1; noblas=0; minvec=7
 default implementation of scratch files=df  

 ***,hcn CCSD(T)/TZ-F12 QFF
 memory, 995, m;
 gthresh,energy=1.d-12,zero=1.d-22,oneint=1.d-22,twoint=1.d-22;
 gthresh,optgrad=1.d-8,optstep=1.d-8;
 nocompress;
 geomtyp=xyz
 bohr
 geometry={
 3
         51        51
 N        0.0000000000        0.0000000000        1.1435986509
 C        0.0000000000        0.0000000000       -1.0541482760
 H        0.0000000000        0.0000000000       -3.0865203569
 }
 
 basis=vtz-dk
 dkroll=0
   {hf,maxit=500;accu,20;}
 {ccsd(t),nocheck,maxit=250;orbital,IGNORE_ERROR;}

 Variables initialized (889), CPU time= 0.01 sec
 Commands  initialized (702), CPU time= 0.01 sec, 572 directives.
 Default parameters read. Elapsed time= 0.07 sec

 Checking input...
 Passed
1


                                         ***  PROGRAM SYSTEM MOLPRO  ***
                                       Copyright, TTI GmbH Stuttgart, 2015
                                    Version 2015.1 linked Jul  9 2018 13:16:40


 **********************************************************************************************************************************
 LABEL *   hcn CCSD(T)/TZ-F12 QFF                                                        
  64 bit serial version                                                                  DATE: 06-Feb-20          TIME: 09:54:37  
 **********************************************************************************************************************************

 SHA1:             d5ffa45e93fdbca01ffc919aa182cfdae0147319
 **********************************************************************************************************************************

 THRESHOLDS:

 ZERO    =  1.00D-22  ONEINT  =  1.00D-22  TWOINT  =  1.00D-22  PREFAC  =  1.00D-14  LOCALI  =  1.00D-09  EORDER  =  1.00D-04
 ENERGY  =  1.00D-12  ETEST   =  0.00D+00  EDENS   =  0.00D+00  THRDEDEF=  1.00D-06  GRADIENT=  1.00D-02  STEP    =  1.00D-03
 ORBITAL =  1.00D-05  CIVEC   =  1.00D-05  COEFF   =  1.00D-04  PRINTCI =  5.00D-02  PUNCHCI =  9.90D+01  OPTGRAD =  3.00D-04
 OPTENERG=  1.00D-06  OPTSTEP =  3.00D-04  THRGRAD =  1.00D-10  COMPRESS=  1.00D-11  VARMIN  =  1.00D-07  VARMAX  =  1.00D-03
 THRDOUB =  0.00D+00  THRDIV  =  1.00D-05  THRRED  =  1.00D-07  THRPSP  =  1.00D+00  THRDC   =  1.00D-10  THRCS   =  1.00D-10
 THRNRM  =  1.00D-08  THREQ   =  0.00D+00  THRDE   =  1.00D+00  THRREF  =  1.00D-05  SPARFAC =  1.00D+00  THRDLP  =  1.00D-07
 THRDIA  =  1.00D-10  THRDLS  =  1.00D-07  THRGPS  =  0.00D+00  THRKEX  =  0.00D+00  THRDIS  =  2.00D-01  THRVAR  =  1.00D-10
 THRLOC  =  1.00D-06  THRGAP  =  1.00D-06  THRLOCT = -1.00D+00  THRGAPT = -1.00D+00  THRORB  =  1.00D-06  THRMLTP =  0.00D+00
 THRCPQCI=  1.00D-10  KEXTA   =  0.00D+00  THRCOARS=  0.00D+00  SYMTOL  =  1.00D-06  GRADTOL =  1.00D-06  THROVL  =  1.00D-08
 THRORTH =  1.00D-08  GRID    =  1.00D-06  GRIDMAX =  1.00D-03  DTMAX   =  0.00D+00  THROCCDE=  1.00D-01  THROCCDE=  1.00D-01



 THRESHOLDS:

 ZERO    =  1.00D-22  ONEINT  =  1.00D-22  TWOINT  =  1.00D-22  PREFAC  =  1.00D-14  LOCALI  =  1.00D-09  EORDER  =  1.00D-04
 ENERGY  =  1.00D-12  ETEST   =  0.00D+00  EDENS   =  0.00D+00  THRDEDEF=  1.00D-06  GRADIENT=  1.00D-02  STEP    =  1.00D-03
 ORBITAL =  1.00D-05  CIVEC   =  1.00D-05  COEFF   =  1.00D-04  PRINTCI =  5.00D-02  PUNCHCI =  9.90D+01  OPTGRAD =  1.00D-08
 OPTENERG=  1.00D-06  OPTSTEP =  1.00D-08  THRGRAD =  1.00D-10  COMPRESS=  1.00D-11  VARMIN  =  1.00D-07  VARMAX  =  1.00D-03
 THRDOUB =  0.00D+00  THRDIV  =  1.00D-05  THRRED  =  1.00D-07  THRPSP  =  1.00D+00  THRDC   =  1.00D-10  THRCS   =  1.00D-10
 THRNRM  =  1.00D-08  THREQ   =  0.00D+00  THRDE   =  1.00D+00  THRREF  =  1.00D-05  SPARFAC =  1.00D+00  THRDLP  =  1.00D-07
 THRDIA  =  1.00D-10  THRDLS  =  1.00D-07  THRGPS  =  0.00D+00  THRKEX  =  0.00D+00  THRDIS  =  2.00D-01  THRVAR  =  1.00D-10
 THRLOC  =  1.00D-06  THRGAP  =  1.00D-06  THRLOCT = -1.00D+00  THRGAPT = -1.00D+00  THRORB  =  1.00D-06  THRMLTP =  0.00D+00
 THRCPQCI=  1.00D-10  KEXTA   =  0.00D+00  THRCOARS=  0.00D+00  SYMTOL  =  1.00D-06  GRADTOL =  1.00D-06  THROVL  =  1.00D-08
 THRORTH =  1.00D-08  GRID    =  1.00D-06  GRIDMAX =  1.00D-03  DTMAX   =  0.00D+00  THROCCDE=  1.00D-01  THROCCDE=  1.00D-01



 Input parameters for SORTINT:

 COMPRESS =    0.000000
 C_FINAL  =    1.000000
 DEBUG    =   -1.000000
 C_SORT1  =    0.000000
 C_SEWARD =    0.000000
 THRESH   =    0.000000
 IO       =  molpro                                                          
 SPRI     =    0.000000
 SETTING GEOMTYP        =    XYZ
 ZUNIT=BOHR
 

 Variable memory set to  995000000 words,  buffer space   230000 words

 SETTING BASIS          =    VTZ-DK
 SETTING DKROLL         =     0.00000000D+00                                  


 Recomputing integrals since basis changed


 Using spherical harmonics

 Library entry N      S cc-pVTZ-DK           selected for orbital group  1
 Library entry N      P cc-pVTZ-DK           selected for orbital group  1
 Library entry N      D cc-pVTZ-DK           selected for orbital group  1
 Library entry N      F cc-pVTZ-DK           selected for orbital group  1
 Library entry C      S cc-pVTZ-DK           selected for orbital group  2
 Library entry C      P cc-pVTZ-DK           selected for orbital group  2
 Library entry C      D cc-pVTZ-DK           selected for orbital group  2
 Library entry C      F cc-pVTZ-DK           selected for orbital group  2
 Library entry H      S cc-pVTZ-DK           selected for orbital group  3
 Library entry H      P cc-pVTZ-DK           selected for orbital group  3
 Library entry H      D cc-pVTZ-DK           selected for orbital group  3


 PROGRAM * SEWARD (Integral evaluation for generally contracted gaussian basis sets)     Author: Roland Lindh, 1990

 Geometry written to block  1 of record 700


 Point group  C2v 



 ATOMIC COORDINATES

 NR  ATOM    CHARGE       X              Y              Z

   1  N       7.00    0.000000000    0.000000000    1.143598651
   2  C       6.00    0.000000000    0.000000000   -1.054148276
   3  H       1.00    0.000000000    0.000000000   -3.086520357

 Bond lengths in Bohr (Angstrom)

 1-2  2.197746927  2-3  2.032372081
     ( 1.162997589)     ( 1.075484989)

 Bond angles

  1-2-3  180.00000000

 NUCLEAR CHARGE:                   14
 NUMBER OF PRIMITIVE AOS:         111
 NUMBER OF SYMMETRY AOS:          100
 NUMBER OF CONTRACTIONS:           74   (  33A1  +  17B1  +  17B2  +   7A2  )
 NUMBER OF CORE ORBITALS:           2   (   2A1  +   0B1  +   0B2  +   0A2  )
 NUMBER OF VALENCE ORBITALS:        9   (   5A1  +   2B1  +   2B2  +   0A2  )


 NUCLEAR REPULSION ENERGY   23.71749570

 EXTRA SYMMETRY OF AOS IN SYMMETRY 1:   1 1 1 1 1 1 1 1 2 1   2 1 2 1 1 1 1 1 1 1   1 2 1 2 1 2 1 1 1 1   1 1 2
 EXTRA SYMMETRY OF AOS IN SYMMETRY 2:   1 1 1 1 1 1 2 1 1 1   1 1 1 2 1 1 1
 EXTRA SYMMETRY OF AOS IN SYMMETRY 3:   1 1 1 1 1 1 2 1 1 1   1 1 1 2 1 1 1

 Eigenvalues of metric

         1 0.111E-02 0.150E-02 0.249E-02 0.653E-02 0.111E-01 0.198E-01 0.296E-01 0.479E-01
         2 0.160E-01 0.367E-01 0.614E-01 0.919E-01 0.135E+00 0.292E+00 0.383E+00 0.432E+00
         3 0.160E-01 0.367E-01 0.614E-01 0.919E-01 0.135E+00 0.292E+00 0.383E+00 0.432E+00
         4 0.296E+00 0.459E+00 0.576E+00 0.852E+00 0.125E+01 0.155E+01 0.202E+01


 Contracted 2-electron integrals neglected if value below      1.0D-22

         875112. INTEGRALS WRITTEN OUT IN     214 BLOCKS ON RECORD 1290 OF FILE 1


 NUMBER OF SORTED TWO-ELECTRON INTEGRALS:    1039939.     BUFFER LENGTH:  32768
 NUMBER OF SEGMENTS:   1  SEGMENT LENGTH:    1039939      RECORD LENGTH: 524288

 Memory used in sort:       1.60 MW

 SORT1 READ      875112. AND WROTE      911390. INTEGRALS IN      3 RECORDS. CPU TIME:     0.02 SEC, REAL TIME:     0.02 SEC
 SORT2 READ      911390. AND WROTE     1039939. INTEGRALS IN      1 RECORDS. CPU TIME:     0.04 SEC, REAL TIME:     0.05 SEC

 FILE SIZES:   FILE 1:    34.1 MBYTE,  FILE 4:    12.6 MBYTE,   TOTAL:     46.7 MBYTE

 OPERATOR DM      FOR CENTER  0  COORDINATES:    0.000000    0.000000    0.000000


 **********************************************************************************************************************************
 DATASETS  * FILE   NREC   LENGTH (MB)   RECORD NAMES
              1      19       27.60       500      610      700      900      950      970     1000      129      960     1100   
                                          VAR    BASINP    GEOM    SYMINP    ZMAT    AOBASIS   BASIS     P2S    ABASIS      S 
                                         1400     1410     1200     1210     1080     1600     1650     1300     1700   
                                           T        V       H0       H01     AOSYM     SMH    MOLCAS    ERIS     OPER   

 PROGRAMS   *        TOTAL       INT
 CPU TIMES  *         0.67      0.55
 REAL TIME  *         1.34 SEC
 DISK USED  *        47.00 MB      
 **********************************************************************************************************************************


 PROGRAM * RHF-SCF (CLOSED SHELL)       Authors: W. Meyer, H.-J. Werner


 NUMBER OF ELECTRONS:       7+    7-
 CONVERGENCE THRESHOLDS:    1.00E-10 (Density)    1.00E-13 (Energy)
 MAX. NUMBER OF ITERATIONS:      500
 INTERPOLATION TYPE:            DIIS
 INTERPOLATION STEPS:              2 (START)      1 (STEP)
 LEVEL SHIFTS:                  0.00 (CLOSED)  0.00 (OPEN) 



 Orbital guess generated from atomic densities. Full valence occupancy:    7   2   2   0

 Molecular orbital dump at record        2100.2

 Initial occupancy:   5   1   1   0

 ITERATION    DDIFF          GRAD             ENERGY        2-EL.EN.            DIPOLE MOMENTS         DIIS   ORB.
    1      0.000D+00      0.000D+00       -92.87884115    111.536752    0.00000    0.00000   -1.78573    0    start
    2      0.000D+00      0.115D-01       -92.88744583    110.753276    0.00000    0.00000   -0.87847    1    diag
    3      0.191D-01      0.105D-01       -92.90310029    111.268415    0.00000    0.00000   -1.29813    2    diag
    4      0.968D-02      0.837D-03       -92.90332351    111.226808    0.00000    0.00000   -1.28931    3    diag
    5      0.151D-02      0.190D-03       -92.90333650    111.240084    0.00000    0.00000   -1.28807    4    diag
    6      0.409D-03      0.537D-04       -92.90333742    111.234646    0.00000    0.00000   -1.28800    5    diag
    7      0.104D-03      0.196D-04       -92.90333751    111.235713    0.00000    0.00000   -1.28816    6    diag
    8      0.344D-04      0.372D-05       -92.90333751    111.235665    0.00000    0.00000   -1.28814    7    diag
    9      0.635D-05      0.402D-06       -92.90333751    111.235673    0.00000    0.00000   -1.28814    8    diag
   10      0.874D-06      0.392D-07       -92.90333751    111.235673    0.00000    0.00000   -1.28814    9    orth
   11      0.767D-07      0.453D-08       -92.90333751    111.235673    0.00000    0.00000   -1.28814    9    diag
   12      0.134D-07      0.387D-09       -92.90333751    111.235673    0.00000    0.00000   -1.28814    9    diag
   13      0.165D-08      0.461D-10       -92.90333751    111.235673    0.00000    0.00000   -1.28814    9    diag
   14      0.255D-09      0.858D-11       -92.90333751    111.235673    0.00000    0.00000   -1.28814    9    diag
   15      0.416D-10      0.757D-12       -92.90333751    111.235673    0.00000    0.00000   -1.28814    0    orth

 Final occupancy:   5   1   1   0

 !RHF STATE 1.1 Energy                -92.903337510843
 Nuclear energy                        23.71749570
 One-electron energy                 -172.23866959
 Two-electron energy                   55.61783638
 Virial quotient                       -1.00164709
 !RHF STATE 1.1 Dipole moment           0.00000000     0.00000000    -1.28813525
 Dipole moment /Debye                   0.00000000     0.00000000    -3.27389878

 Orbital energies:

         1.1          2.1          3.1          4.1          5.1          6.1          7.1
    -15.600826   -11.294756    -1.230528    -0.809384    -0.581103     0.140519     0.239865

         1.2          2.2          3.2
     -0.492450     0.163860     0.446735

         1.3          2.3          3.3
     -0.492450     0.163860     0.446735

         1.4          2.4
      0.810535     1.417535

 HOMO      1.2    -0.492450 =     -13.4003eV
 LUMO      6.1     0.140519 =       3.8237eV
 LUMO-HOMO         0.632969 =      17.2240eV


 **********************************************************************************************************************************
 DATASETS  * FILE   NREC   LENGTH (MB)   RECORD NAMES
              1      19       27.60       500      610      700      900      950      970     1000      129      960     1100   
                                          VAR    BASINP    GEOM    SYMINP    ZMAT    AOBASIS   BASIS     P2S    ABASIS      S 
                                         1400     1410     1200     1210     1080     1600     1650     1300     1700   
                                           T        V       H0       H01     AOSYM     SMH    MOLCAS    ERIS     OPER   

              2       4        2.82       700     1000      520     2100   
                                         GEOM     BASIS   MCVARS     RHF  

 PROGRAMS   *        TOTAL        HF       INT
 CPU TIMES  *         0.74      0.07      0.55
 REAL TIME  *         1.47 SEC
 DISK USED  *        47.00 MB      
 **********************************************************************************************************************************


 PROGRAM * CCSD (Closed-shell coupled cluster)     Authors: C. Hampel, H.-J. Werner, 1991, M. Deegan, P.J. Knowles, 1992


 Convergence thresholds:  THRVAR = 1.00D-08  THRDEN = 1.00D-12

 CCSD(T)     terms to be evaluated (factor= 1.000)


 Number of core orbitals:           2 (   2   0   0   0 )
 Number of closed-shell orbitals:   5 (   3   1   1   0 )
 Number of external orbitals:      67 (  28  16  16   7 )

 Molecular orbitals read from record     2100.2  Type=RHF/CANONICAL (state 1.1)

 Number of N-1 electron functions:               5
 Number of N-2 electron functions:              15
 Number of singly external CSFs:               116
 Number of doubly external CSFs:             15189
 Total number of CSFs:                       15306

 Length of J-op  integral file:               0.00 MB
 Length of K-op  integral file:               0.15 MB
 Length of 3-ext integral record:             0.00 MB

 Memory could be reduced to 0.93 Mwords without degradation in triples

 Integral transformation finished. Total CPU:   0.01 sec, npass=  1  Memory used:   0.18 MW

 Reference energy:                    -92.90333751

 MP2 singlet pair energy:              -0.21915766
 MP2 triplet pair energy:              -0.12806629
 MP2 correlation energy:               -0.34722395
 MP2 total energy:                    -93.25056146

 SCS-MP2 correlation energy:           -0.34267488   (PS=  1.200000  PT=  0.333333)
 SCS-MP2 total energy:                -93.24601239

 ITER.      SQ.NORM     CORR.ENERGY   TOTAL ENERGY   ENERGY CHANGE        DEN1      VAR(S)    VAR(P)  DIIS     TIME  TIME/IT
   1      1.11606247    -0.35006737   -93.25340488    -0.00284342     0.01037374  0.26D-02  0.31D-02  1  1     0.02     0.02
   2      1.12589597    -0.35036809   -93.25370560    -0.00030072    -0.01028967  0.53D-04  0.43D-03  2  2     0.04     0.02
   3      1.13115075    -0.35060502   -93.25394253    -0.00023693    -0.00260899  0.13D-04  0.44D-04  3  3     0.06     0.02
   4      1.13336047    -0.35070797   -93.25404548    -0.00010295    -0.00079228  0.31D-06  0.48D-05  4  4     0.08     0.02
   5      1.13384939    -0.35070477   -93.25404228     0.00000320    -0.00013521  0.11D-06  0.44D-06  5  5     0.10     0.02
   6      1.13395688    -0.35070347   -93.25404098     0.00000130    -0.00002812  0.98D-08  0.32D-07  6  6     0.11     0.02
   7      1.13396553    -0.35070597   -93.25404348    -0.00000250    -0.00000251  0.63D-09  0.27D-08  6  1     0.12     0.02
   8      1.13396609    -0.35070648   -93.25404400    -0.00000052     0.00000068  0.45D-10  0.16D-09  6  2     0.14     0.02
   9      1.13396682    -0.35070652   -93.25404403    -0.00000003    -0.00000041  0.55D-11  0.11D-10  6  3     0.16     0.02
  10      1.13396676    -0.35070654   -93.25404405    -0.00000002     0.00000010  0.31D-12  0.12D-11  6  4     0.18     0.02
  11      1.13396672    -0.35070654   -93.25404405    -0.00000000     0.00000001  0.11D-12  0.10D-12  6  5     0.19     0.02
  12      1.13396665    -0.35070654   -93.25404406    -0.00000000     0.00000003  0.64D-14  0.23D-13  6  6     0.21     0.02
  13      1.13396661    -0.35070655   -93.25404406    -0.00000000     0.00000001  0.24D-14  0.22D-14  6  2     0.22     0.02
  14      1.13396660    -0.35070655   -93.25404406    -0.00000000     0.00000000  0.26D-16  0.12D-15  6  1     0.24     0.02
  15      1.13396660    -0.35070655   -93.25404406    -0.00000000     0.00000000  0.17D-17  0.10D-16  6  4     0.25     0.02
  16      1.13396659    -0.35070655   -93.25404406    -0.00000000     0.00000000  0.51D-18  0.54D-18  6  3     0.27     0.02
  17      1.13396659    -0.35070655   -93.25404406    -0.00000000     0.00000000  0.60D-19  0.92D-19  6  5     0.29     0.02
  18      1.13396659    -0.35070655   -93.25404406    -0.00000000     0.00000000  0.13D-19  0.64D-20  6  6     0.31     0.02
  19      1.13396659    -0.35070655   -93.25404406     0.00000000    -0.00000000  0.60D-21  0.10D-20  6  2     0.33     0.02
  20      1.13396659    -0.35070655   -93.25404406     0.00000000    -0.00000000  0.10D-21  0.15D-21  6  1     0.34     0.02

 Norm of t1 vector:      0.06505465      S-energy:     0.00000000      T1 diagnostic:  0.01454666
                                                                       D1 diagnostic:  0.02929655

 Doubles amplitudes (print threshold =  0.500E-01):

         I         J         SYM. A    SYM. B    A         B      T(IJ, AB)

         4         4         2         2         1         1     -0.08897434
         5         5         3         3         1         1     -0.08897434
         5         4         3         2         1         1     -0.05556100


 Total CPU time for triples:      0.07 sec


 RESULTS
 =======

  Reference energy                    -92.903337510843
  CCSD singlet pair energy             -0.244084829654
  CCSD triplet pair energy             -0.106621716272
  CCSD correlation energy              -0.350706545926

  Triples (T) contribution             -0.018201419572
  Total correlation energy             -0.368907965498

  CCSD total energy                   -93.254044056769
  CCSD[T] energy                      -93.273105924751
  CCSD-T energy                       -93.271818969260
 !CCSD(T) total energy                -93.272245476341

 Timing summary (sec):

 STEP                 CPU(USER)    SYS     CPU(TOT)    WALL
 Transformation          0.01      0.01      0.02      0.02
 CCSD iterations         0.34      0.07      0.41      0.42
 Triples                 0.07      0.00      0.07      0.07

 Program statistics:

 Available memory in ccsd:               994999800
 Min. memory needed in ccsd:                 67993
 Max. memory used in ccsd:                   79450
 Max. memory used in cckext:                107513 (20 integral passes)



 **********************************************************************************************************************************
 DATASETS  * FILE   NREC   LENGTH (MB)   RECORD NAMES
              1      20       29.54       500      610      700      900      950      970     1000      129      960     1100   
                                          VAR    BASINP    GEOM    SYMINP    ZMAT    AOBASIS   BASIS     P2S    ABASIS      S 
                                         1400     1410     1200     1210     1080     1600     1650     1300     1700     1380   
                                           T        V       H0       H01     AOSYM     SMH    MOLCAS    ERIS     OPER     JKOP   

              2       4        2.82       700     1000      520     2100   
                                         GEOM     BASIS   MCVARS     RHF  

 PROGRAMS   *        TOTAL   CCSD(T)        HF       INT
 CPU TIMES  *         1.18      0.44      0.07      0.55
 REAL TIME  *         2.01 SEC
 DISK USED  *        47.00 MB      
 **********************************************************************************************************************************

 CCSD(T)/cc-pVTZ-DK energy=    -93.272245476341

        CCSD(T)         HF-SCF  
    -93.27224548    -92.90333751
 **********************************************************************************************************************************
 Molpro calculation terminated
 Variable memory released
