
 Primary working directories    : /tmp/r2666/232580.maple
 Secondary working directories  : /tmp/r2666/232580.maple
 Wavefunction directory         : /ddn/home4/r2666/wfu/
 Main file repository           : /tmp/r2666/232580.maple/

 SHA1      : d5ffa45e93fdbca01ffc919aa182cfdae0147319
 NAME      : 2015.1.35
 ARCHNAME  : linux/x86_64
 FC        : /opt/intel/composer_xe_2015.1.133/bin/intel64/ifort
 BLASLIB   : -Wl,-_start-group /opt/intel/mkl/lib/intel64/libmkl_intel_ilp64.a /opt/intel/mkl/lib/intel64/libmkl_intel_thread.a /opt/intel/mkl/lib/intel64/libmkl_core.a -Wl,-_end-group
 id        : olemiss

 Nodes     nprocs
 cn079        1

 Using customized tuning parameters: mindgm=1; mindgv=20; mindgc=4; mindgr=1; noblas=0; minvec=7
 default implementation of scratch files=df  

 ***,hcn CCSD(T)/TZ-F12 QFF
 memory, 995, m;
 gthresh,energy=1.d-12,zero=1.d-22,oneint=1.d-22,twoint=1.d-22;
 gthresh,optgrad=1.d-8,optstep=1.d-8;
 nocompress;
 geomtyp=xyz
 bohr
 geometry={
 3
         24        24
 N       -0.0045934186       -0.0000001558        1.1183539894
 C        0.0095638540        0.0000000040       -1.0604496830
 H       -0.0049704354        0.0000001518       -3.0549742884
 }
 
 basis=vtz-dk
 dkroll=0
   {hf,maxit=500;accu,20;}
 {ccsd(t),nocheck,maxit=250;orbital,IGNORE_ERROR;}

 Variables initialized (889), CPU time= 0.01 sec
 Commands  initialized (702), CPU time= 0.01 sec, 572 directives.
 Default parameters read. Elapsed time= 0.05 sec

 Checking input...
 Passed
1


                                         ***  PROGRAM SYSTEM MOLPRO  ***
                                       Copyright, TTI GmbH Stuttgart, 2015
                                    Version 2015.1 linked Jul  9 2018 13:16:40


 **********************************************************************************************************************************
 LABEL *   hcn CCSD(T)/TZ-F12 QFF                                                        
  64 bit serial version                                                                  DATE: 06-Feb-20          TIME: 09:54:33  
 **********************************************************************************************************************************

 SHA1:             d5ffa45e93fdbca01ffc919aa182cfdae0147319
 **********************************************************************************************************************************

 THRESHOLDS:

 ZERO    =  1.00D-22  ONEINT  =  1.00D-22  TWOINT  =  1.00D-22  PREFAC  =  1.00D-14  LOCALI  =  1.00D-09  EORDER  =  1.00D-04
 ENERGY  =  1.00D-12  ETEST   =  0.00D+00  EDENS   =  0.00D+00  THRDEDEF=  1.00D-06  GRADIENT=  1.00D-02  STEP    =  1.00D-03
 ORBITAL =  1.00D-05  CIVEC   =  1.00D-05  COEFF   =  1.00D-04  PRINTCI =  5.00D-02  PUNCHCI =  9.90D+01  OPTGRAD =  3.00D-04
 OPTENERG=  1.00D-06  OPTSTEP =  3.00D-04  THRGRAD =  1.00D-10  COMPRESS=  1.00D-11  VARMIN  =  1.00D-07  VARMAX  =  1.00D-03
 THRDOUB =  0.00D+00  THRDIV  =  1.00D-05  THRRED  =  1.00D-07  THRPSP  =  1.00D+00  THRDC   =  1.00D-10  THRCS   =  1.00D-10
 THRNRM  =  1.00D-08  THREQ   =  0.00D+00  THRDE   =  1.00D+00  THRREF  =  1.00D-05  SPARFAC =  1.00D+00  THRDLP  =  1.00D-07
 THRDIA  =  1.00D-10  THRDLS  =  1.00D-07  THRGPS  =  0.00D+00  THRKEX  =  0.00D+00  THRDIS  =  2.00D-01  THRVAR  =  1.00D-10
 THRLOC  =  1.00D-06  THRGAP  =  1.00D-06  THRLOCT = -1.00D+00  THRGAPT = -1.00D+00  THRORB  =  1.00D-06  THRMLTP =  0.00D+00
 THRCPQCI=  1.00D-10  KEXTA   =  0.00D+00  THRCOARS=  0.00D+00  SYMTOL  =  1.00D-06  GRADTOL =  1.00D-06  THROVL  =  1.00D-08
 THRORTH =  1.00D-08  GRID    =  1.00D-06  GRIDMAX =  1.00D-03  DTMAX   =  0.00D+00  THROCCDE=  1.00D-01  THROCCDE=  1.00D-01



 THRESHOLDS:

 ZERO    =  1.00D-22  ONEINT  =  1.00D-22  TWOINT  =  1.00D-22  PREFAC  =  1.00D-14  LOCALI  =  1.00D-09  EORDER  =  1.00D-04
 ENERGY  =  1.00D-12  ETEST   =  0.00D+00  EDENS   =  0.00D+00  THRDEDEF=  1.00D-06  GRADIENT=  1.00D-02  STEP    =  1.00D-03
 ORBITAL =  1.00D-05  CIVEC   =  1.00D-05  COEFF   =  1.00D-04  PRINTCI =  5.00D-02  PUNCHCI =  9.90D+01  OPTGRAD =  1.00D-08
 OPTENERG=  1.00D-06  OPTSTEP =  1.00D-08  THRGRAD =  1.00D-10  COMPRESS=  1.00D-11  VARMIN  =  1.00D-07  VARMAX  =  1.00D-03
 THRDOUB =  0.00D+00  THRDIV  =  1.00D-05  THRRED  =  1.00D-07  THRPSP  =  1.00D+00  THRDC   =  1.00D-10  THRCS   =  1.00D-10
 THRNRM  =  1.00D-08  THREQ   =  0.00D+00  THRDE   =  1.00D+00  THRREF  =  1.00D-05  SPARFAC =  1.00D+00  THRDLP  =  1.00D-07
 THRDIA  =  1.00D-10  THRDLS  =  1.00D-07  THRGPS  =  0.00D+00  THRKEX  =  0.00D+00  THRDIS  =  2.00D-01  THRVAR  =  1.00D-10
 THRLOC  =  1.00D-06  THRGAP  =  1.00D-06  THRLOCT = -1.00D+00  THRGAPT = -1.00D+00  THRORB  =  1.00D-06  THRMLTP =  0.00D+00
 THRCPQCI=  1.00D-10  KEXTA   =  0.00D+00  THRCOARS=  0.00D+00  SYMTOL  =  1.00D-06  GRADTOL =  1.00D-06  THROVL  =  1.00D-08
 THRORTH =  1.00D-08  GRID    =  1.00D-06  GRIDMAX =  1.00D-03  DTMAX   =  0.00D+00  THROCCDE=  1.00D-01  THROCCDE=  1.00D-01



 Input parameters for SORTINT:

 COMPRESS =    0.000000
 C_FINAL  =    1.000000
 DEBUG    =   -1.000000
 C_SORT1  =    0.000000
 C_SEWARD =    0.000000
 THRESH   =    0.000000
 IO       =  molpro                                                          
 SPRI     =    0.000000
 SETTING GEOMTYP        =    XYZ
 ZUNIT=BOHR
 

 Variable memory set to  995000000 words,  buffer space   230000 words

 SETTING BASIS          =    VTZ-DK
 SETTING DKROLL         =     0.00000000D+00                                  


 Recomputing integrals since basis changed


 Using spherical harmonics

 Library entry N      S cc-pVTZ-DK           selected for orbital group  1
 Library entry N      P cc-pVTZ-DK           selected for orbital group  1
 Library entry N      D cc-pVTZ-DK           selected for orbital group  1
 Library entry N      F cc-pVTZ-DK           selected for orbital group  1
 Library entry C      S cc-pVTZ-DK           selected for orbital group  2
 Library entry C      P cc-pVTZ-DK           selected for orbital group  2
 Library entry C      D cc-pVTZ-DK           selected for orbital group  2
 Library entry C      F cc-pVTZ-DK           selected for orbital group  2
 Library entry H      S cc-pVTZ-DK           selected for orbital group  3
 Library entry H      P cc-pVTZ-DK           selected for orbital group  3
 Library entry H      D cc-pVTZ-DK           selected for orbital group  3


 PROGRAM * SEWARD (Integral evaluation for generally contracted gaussian basis sets)     Author: Roland Lindh, 1990

 Geometry written to block  1 of record 700


 Point group  Cs  



 ATOMIC COORDINATES

 NR  ATOM    CHARGE       X              Y              Z

   1  N       7.00   -0.004593419    0.000000000    1.118353989
   2  C       6.00    0.009563854    0.000000000   -1.060449683
   3  H       1.00   -0.004970435    0.000000000   -3.054974288

 Bond lengths in Bohr (Angstrom)

 1-2  2.178849667  2-3  1.994577561
     ( 1.152997590)     ( 1.055484991)

 Bond angles

  1-2-3  179.21020050

 NUCLEAR CHARGE:                   14
 NUMBER OF PRIMITIVE AOS:         111
 NUMBER OF SYMMETRY AOS:          100
 NUMBER OF CONTRACTIONS:           74   (  50A'  +  24A"  )
 NUMBER OF CORE ORBITALS:           2   (   2A'  +   0A"  )
 NUMBER OF VALENCE ORBITALS:        9   (   7A'  +   2A"  )


 NUCLEAR REPULSION ENERGY   23.96170073

 Eigenvalues of metric

         1 0.107E-02 0.143E-02 0.243E-02 0.615E-02 0.108E-01 0.152E-01 0.191E-01 0.291E-01
         2 0.152E-01 0.360E-01 0.602E-01 0.870E-01 0.132E+00 0.280E+00 0.292E+00 0.373E+00


 Contracted 2-electron integrals neglected if value below      1.0D-22

        1874114. INTEGRALS WRITTEN OUT IN     458 BLOCKS ON RECORD 1290 OF FILE 1


 NUMBER OF SORTED TWO-ELECTRON INTEGRALS:    2006100.     BUFFER LENGTH:  32768
 NUMBER OF SEGMENTS:   1  SEGMENT LENGTH:    2006100      RECORD LENGTH: 524288

 Memory used in sort:       2.56 MW

 SORT1 READ     1874114. AND WROTE     1914027. INTEGRALS IN      6 RECORDS. CPU TIME:     0.03 SEC, REAL TIME:     0.04 SEC
 SORT2 READ     1914027. AND WROTE     2006100. INTEGRALS IN      1 RECORDS. CPU TIME:     0.05 SEC, REAL TIME:     0.06 SEC

 FILE SIZES:   FILE 1:    50.1 MBYTE,  FILE 4:    25.2 MBYTE,   TOTAL:     75.3 MBYTE

 OPERATOR DM      FOR CENTER  0  COORDINATES:    0.000000    0.000000    0.000000


 **********************************************************************************************************************************
 DATASETS  * FILE   NREC   LENGTH (MB)   RECORD NAMES
              1      19       35.89       500      610      700      900      950      970     1000      129      960     1100   
                                          VAR    BASINP    GEOM    SYMINP    ZMAT    AOBASIS   BASIS     P2S    ABASIS      S 
                                         1400     1410     1200     1210     1080     1600     1650     1300     1700   
                                           T        V       H0       H01     AOSYM     SMH    MOLCAS    ERIS     OPER   

 PROGRAMS   *        TOTAL       INT
 CPU TIMES  *         0.60      0.50
 REAL TIME  *         1.11 SEC
 DISK USED  *        75.59 MB      
 **********************************************************************************************************************************


 PROGRAM * RHF-SCF (CLOSED SHELL)       Authors: W. Meyer, H.-J. Werner


 NUMBER OF ELECTRONS:       7+    7-
 CONVERGENCE THRESHOLDS:    1.00E-10 (Density)    1.00E-13 (Energy)
 MAX. NUMBER OF ITERATIONS:      500
 INTERPOLATION TYPE:            DIIS
 INTERPOLATION STEPS:              2 (START)      1 (STEP)
 LEVEL SHIFTS:                  0.00 (CLOSED)  0.00 (OPEN) 



 Orbital guess generated from atomic densities. Full valence occupancy:    9   2

 Molecular orbital dump at record        2100.2

 Initial occupancy:   6   1

 ITERATION    DDIFF          GRAD             ENERGY        2-EL.EN.            DIPOLE MOMENTS         DIIS   ORB.
    1      0.000D+00      0.000D+00       -92.88154712    112.024177    0.00686    0.00000   -1.75250    0    start
    2      0.000D+00      0.881D-02       -92.89053605    111.206422   -0.00239    0.00000   -0.88566    1    diag
    3      0.142D-01      0.787D-02       -92.90500120    111.717582    0.00137    0.00000   -1.28512    2    diag
    4      0.711D-02      0.648D-03       -92.90522172    111.680967    0.00102    0.00000   -1.27628    3    diag
    5      0.114D-02      0.140D-03       -92.90523377    111.691223    0.00092    0.00000   -1.27495    4    diag
    6      0.304D-03      0.384D-04       -92.90523450    111.686414    0.00090    0.00000   -1.27502    5    diag
    7      0.689D-04      0.138D-04       -92.90523457    111.687496    0.00090    0.00000   -1.27514    6    diag
    8      0.238D-04      0.266D-05       -92.90523457    111.687445    0.00090    0.00000   -1.27512    7    diag
    9      0.440D-05      0.292D-06       -92.90523457    111.687452    0.00090    0.00000   -1.27511    8    diag
   10      0.615D-06      0.315D-07       -92.90523457    111.687453    0.00090    0.00000   -1.27511    9    orth
   11      0.600D-07      0.616D-08       -92.90523457    111.687453    0.00090    0.00000   -1.27511    9    diag
   12      0.147D-07      0.272D-08       -92.90523457    111.687453    0.00090    0.00000   -1.27511    9    diag
   13      0.843D-08      0.106D-08       -92.90523457    111.687453    0.00090    0.00000   -1.27511    9    diag
   14      0.457D-08      0.280D-09       -92.90523457    111.687453    0.00090    0.00000   -1.27511    9    diag
   15      0.946D-09      0.101D-09       -92.90523457    111.687453    0.00090    0.00000   -1.27511    9    diag
   16      0.325D-09      0.118D-10       -92.90523457    111.687453    0.00090    0.00000   -1.27511    9    diag
   17      0.453D-10      0.275D-11       -92.90523457    111.687453    0.00090    0.00000   -1.27511    9    diag
   18      0.118D-10      0.711D-12       -92.90523457    111.687453    0.00090    0.00000   -1.27511    9    diag
   19      0.247D-11      0.309D-12       -92.90523457    111.687453    0.00090    0.00000   -1.27511    9    fixocc
   20      0.522D-12      0.424D-13       -92.90523457    111.687453    0.00090    0.00000   -1.27511    0    orth

 Final occupancy:   6   1

 !RHF STATE 1.1 Energy                -92.905234571822
 Nuclear energy                        23.96170073
 One-electron energy                 -172.71066169
 Two-electron energy                   55.84372638
 Virial quotient                       -1.00076801
 !RHF STATE 1.1 Dipole moment           0.00089823     0.00000000    -1.27511451
 Dipole moment /Debye                   0.00228294     0.00000000    -3.24080555

 Orbital energies:

         1.1          2.1          3.1          4.1          5.1          6.1          7.1          8.1
    -15.597714   -11.289723    -1.235540    -0.815733    -0.581334    -0.495779     0.142748     0.166772

         1.2          2.2          3.2
     -0.495781     0.166779     0.446209

 HOMO      6.1    -0.495779 =     -13.4908eV
 LUMO      7.1     0.142748 =       3.8844eV
 LUMO-HOMO         0.638527 =      17.3752eV


 **********************************************************************************************************************************
 DATASETS  * FILE   NREC   LENGTH (MB)   RECORD NAMES
              1      19       35.89       500      610      700      900      950      970     1000      129      960     1100   
                                          VAR    BASINP    GEOM    SYMINP    ZMAT    AOBASIS   BASIS     P2S    ABASIS      S 
                                         1400     1410     1200     1210     1080     1600     1650     1300     1700   
                                           T        V       H0       H01     AOSYM     SMH    MOLCAS    ERIS     OPER   

              2       4        2.85       700     1000      520     2100   
                                         GEOM     BASIS   MCVARS     RHF  

 PROGRAMS   *        TOTAL        HF       INT
 CPU TIMES  *         0.83      0.23      0.50
 REAL TIME  *         1.37 SEC
 DISK USED  *        75.59 MB      
 **********************************************************************************************************************************


 PROGRAM * CCSD (Closed-shell coupled cluster)     Authors: C. Hampel, H.-J. Werner, 1991, M. Deegan, P.J. Knowles, 1992


 Convergence thresholds:  THRVAR = 1.00D-08  THRDEN = 1.00D-12

 CCSD(T)     terms to be evaluated (factor= 1.000)


 Number of core orbitals:           2 (   2   0 )
 Number of closed-shell orbitals:   5 (   4   1 )
 Number of external orbitals:      67 (  44  23 )

 Molecular orbitals read from record     2100.2  Type=RHF/CANONICAL (state 1.1)

 Number of N-1 electron functions:               5
 Number of N-2 electron functions:              15
 Number of singly external CSFs:               199
 Number of doubly external CSFs:             29216
 Total number of CSFs:                       29416

 Length of J-op  integral file:               0.00 MB
 Length of K-op  integral file:               0.25 MB
 Length of 3-ext integral record:             0.00 MB

 Memory could be reduced to 1.53 Mwords without degradation in triples

 Integral transformation finished. Total CPU:   0.02 sec, npass=  1  Memory used:   0.47 MW

 Reference energy:                    -92.90523457

 MP2 singlet pair energy:              -0.21787986
 MP2 triplet pair energy:              -0.12713423
 MP2 correlation energy:               -0.34501409
 MP2 total energy:                    -93.25024866

 SCS-MP2 correlation energy:           -0.34056158   (PS=  1.200000  PT=  0.333333)
 SCS-MP2 total energy:                -93.24579615

 ITER.      SQ.NORM     CORR.ENERGY   TOTAL ENERGY   ENERGY CHANGE        DEN1      VAR(S)    VAR(P)  DIIS     TIME  TIME/IT
   1      1.11445228    -0.34836752   -93.25360209    -0.00335342     0.00940135  0.25D-02  0.30D-02  1  1     0.06     0.04
   2      1.12396660    -0.34873291   -93.25396748    -0.00036540    -0.01001883  0.49D-04  0.41D-03  2  2     0.09     0.04
   3      1.12895416    -0.34895283   -93.25418741    -0.00021992    -0.00250714  0.12D-04  0.41D-04  3  3     0.12     0.04
   4      1.13103093    -0.34904764   -93.25428221    -0.00009481    -0.00075395  0.28D-06  0.43D-05  4  4     0.14     0.03
   5      1.13148254    -0.34904355   -93.25427812     0.00000409    -0.00012682  0.95D-07  0.38D-06  5  5     0.17     0.03
   6      1.13157473    -0.34904277   -93.25427734     0.00000078    -0.00002432  0.83D-08  0.28D-07  6  6     0.20     0.03
   7      1.13158213    -0.34904501   -93.25427958    -0.00000224    -0.00000220  0.57D-09  0.24D-08  6  1     0.23     0.03
   8      1.13158251    -0.34904550   -93.25428007    -0.00000049     0.00000069  0.38D-10  0.14D-09  6  2     0.26     0.03
   9      1.13158315    -0.34904553   -93.25428010    -0.00000003    -0.00000037  0.45D-11  0.91D-11  6  3     0.28     0.03
  10      1.13158309    -0.34904555   -93.25428012    -0.00000002     0.00000009  0.29D-12  0.95D-12  6  4     0.30     0.03
  11      1.13158306    -0.34904555   -93.25428012    -0.00000000     0.00000001  0.92D-13  0.85D-13  6  5     0.33     0.03
  12      1.13158300    -0.34904555   -93.25428013    -0.00000000     0.00000002  0.77D-14  0.19D-13  6  6     0.36     0.03
  13      1.13158297    -0.34904555   -93.25428013    -0.00000000     0.00000001  0.24D-14  0.17D-14  6  2     0.39     0.03
  14      1.13158295    -0.34904555   -93.25428013    -0.00000000     0.00000000  0.12D-15  0.11D-15  6  1     0.41     0.03
  15      1.13158295    -0.34904555   -93.25428013     0.00000000     0.00000000  0.30D-16  0.14D-16  6  4     0.44     0.03
  16      1.13158295    -0.34904555   -93.25428013    -0.00000000     0.00000000  0.60D-17  0.21D-17  6  3     0.46     0.03
  17      1.13158295    -0.34904555   -93.25428013    -0.00000000    -0.00000000  0.97D-18  0.45D-18  6  5     0.49     0.03
  18      1.13158295    -0.34904555   -93.25428013     0.00000000    -0.00000000  0.32D-19  0.58D-19  6  6     0.52     0.03
  19      1.13158295    -0.34904555   -93.25428013     0.00000000    -0.00000000  0.73D-20  0.36D-20  6  2     0.55     0.03
  20      1.13158295    -0.34904555   -93.25428013     0.00000000    -0.00000000  0.68D-21  0.74D-21  6  1     0.57     0.03
  21      1.13158295    -0.34904555   -93.25428013    -0.00000000    -0.00000000  0.32D-21  0.11D-21  6  4     0.60     0.03

 Norm of t1 vector:      0.06351849      S-energy:    -0.00000000      T1 diagnostic:  0.01420317
                                                                       D1 diagnostic:  0.02864764

 Doubles amplitudes (print threshold =  0.500E-01):

         I         J         SYM. A    SYM. B    A         B      T(IJ, AB)

         4         4         1         1         2         2     -0.08693018
         5         5         2         2         1         1     -0.08702716
         5         4         2         1         1         2     -0.05452659


 Total CPU time for triples:      0.15 sec


 RESULTS
 =======

  Reference energy                    -92.905234571822
  CCSD singlet pair energy             -0.242636086618
  CCSD triplet pair energy             -0.106409468085
  CCSD correlation energy              -0.349045554704

  Triples (T) contribution             -0.017835151647
  Total correlation energy             -0.366880706351

  CCSD total energy                   -93.254280126525
  CCSD[T] energy                      -93.272932470523
  CCSD-T energy                       -93.271706788923
 !CCSD(T) total energy                -93.272115278173

 Timing summary (sec):

 STEP                 CPU(USER)    SYS     CPU(TOT)    WALL
 Transformation          0.03      0.02      0.05      0.05
 CCSD iterations         0.57      0.09      0.66      0.69
 Triples                 0.15      0.00      0.15      0.14

 Program statistics:

 Available memory in ccsd:               994999800
 Min. memory needed in ccsd:                125648
 Max. memory used in ccsd:                  146560
 Max. memory used in cckext:                201693 (21 integral passes)



 **********************************************************************************************************************************
 DATASETS  * FILE   NREC   LENGTH (MB)   RECORD NAMES
              1      20       39.60       500      610      700      900      950      970     1000      129      960     1100   
                                          VAR    BASINP    GEOM    SYMINP    ZMAT    AOBASIS   BASIS     P2S    ABASIS      S 
                                         1400     1410     1200     1210     1080     1600     1650     1300     1700     1380   
                                           T        V       H0       H01     AOSYM     SMH    MOLCAS    ERIS     OPER     JKOP   

              2       4        2.85       700     1000      520     2100   
                                         GEOM     BASIS   MCVARS     RHF  

 PROGRAMS   *        TOTAL   CCSD(T)        HF       INT
 CPU TIMES  *         1.61      0.78      0.23      0.50
 REAL TIME  *         2.38 SEC
 DISK USED  *        75.59 MB      
 **********************************************************************************************************************************

 CCSD(T)/cc-pVTZ-DK energy=    -93.272115278173

        CCSD(T)         HF-SCF  
    -93.27211528    -92.90523457
 **********************************************************************************************************************************
 Molpro calculation terminated
 Variable memory released
