
 Primary working directories    : /tmp/r2666/232601.maple
 Secondary working directories  : /tmp/r2666/232601.maple
 Wavefunction directory         : /ddn/home4/r2666/wfu/
 Main file repository           : /tmp/r2666/232601.maple/

 SHA1      : d5ffa45e93fdbca01ffc919aa182cfdae0147319
 NAME      : 2015.1.35
 ARCHNAME  : linux/x86_64
 FC        : /opt/intel/composer_xe_2015.1.133/bin/intel64/ifort
 BLASLIB   : -Wl,-_start-group /opt/intel/mkl/lib/intel64/libmkl_intel_ilp64.a /opt/intel/mkl/lib/intel64/libmkl_intel_thread.a /opt/intel/mkl/lib/intel64/libmkl_core.a -Wl,-_end-group
 id        : olemiss

 Nodes     nprocs
 cn080        1

 Using customized tuning parameters: mindgm=1; mindgv=20; mindgc=4; mindgr=1; noblas=0; minvec=7
 default implementation of scratch files=df  

 ***,hcn CCSD(T)/TZ-F12 QFF
 memory, 995, m;
 gthresh,energy=1.d-12,zero=1.d-22,oneint=1.d-22,twoint=1.d-22;
 gthresh,optgrad=1.d-8,optstep=1.d-8;
 nocompress;
 geomtyp=xyz
 bohr
 geometry={
 3
         45        45
 N        0.0000000000        0.0000000000        1.1404491076
 C        0.0000000000        0.0000000000       -1.0478491894
 H        0.0000000000        0.0000000000       -3.0896699002
 }
 
 basis=vtz-dk
 dkroll=0
   {hf,maxit=500;accu,20;}
 {ccsd(t),nocheck,maxit=250;orbital,IGNORE_ERROR;}

 Variables initialized (889), CPU time= 0.01 sec
 Commands  initialized (702), CPU time= 0.01 sec, 572 directives.
 Default parameters read. Elapsed time= 0.09 sec

 Checking input...
 Passed
1


                                         ***  PROGRAM SYSTEM MOLPRO  ***
                                       Copyright, TTI GmbH Stuttgart, 2015
                                    Version 2015.1 linked Jul  9 2018 13:16:40


 **********************************************************************************************************************************
 LABEL *   hcn CCSD(T)/TZ-F12 QFF                                                        
  64 bit serial version                                                                  DATE: 06-Feb-20          TIME: 09:54:37  
 **********************************************************************************************************************************

 SHA1:             d5ffa45e93fdbca01ffc919aa182cfdae0147319
 **********************************************************************************************************************************

 THRESHOLDS:

 ZERO    =  1.00D-22  ONEINT  =  1.00D-22  TWOINT  =  1.00D-22  PREFAC  =  1.00D-14  LOCALI  =  1.00D-09  EORDER  =  1.00D-04
 ENERGY  =  1.00D-12  ETEST   =  0.00D+00  EDENS   =  0.00D+00  THRDEDEF=  1.00D-06  GRADIENT=  1.00D-02  STEP    =  1.00D-03
 ORBITAL =  1.00D-05  CIVEC   =  1.00D-05  COEFF   =  1.00D-04  PRINTCI =  5.00D-02  PUNCHCI =  9.90D+01  OPTGRAD =  3.00D-04
 OPTENERG=  1.00D-06  OPTSTEP =  3.00D-04  THRGRAD =  1.00D-10  COMPRESS=  1.00D-11  VARMIN  =  1.00D-07  VARMAX  =  1.00D-03
 THRDOUB =  0.00D+00  THRDIV  =  1.00D-05  THRRED  =  1.00D-07  THRPSP  =  1.00D+00  THRDC   =  1.00D-10  THRCS   =  1.00D-10
 THRNRM  =  1.00D-08  THREQ   =  0.00D+00  THRDE   =  1.00D+00  THRREF  =  1.00D-05  SPARFAC =  1.00D+00  THRDLP  =  1.00D-07
 THRDIA  =  1.00D-10  THRDLS  =  1.00D-07  THRGPS  =  0.00D+00  THRKEX  =  0.00D+00  THRDIS  =  2.00D-01  THRVAR  =  1.00D-10
 THRLOC  =  1.00D-06  THRGAP  =  1.00D-06  THRLOCT = -1.00D+00  THRGAPT = -1.00D+00  THRORB  =  1.00D-06  THRMLTP =  0.00D+00
 THRCPQCI=  1.00D-10  KEXTA   =  0.00D+00  THRCOARS=  0.00D+00  SYMTOL  =  1.00D-06  GRADTOL =  1.00D-06  THROVL  =  1.00D-08
 THRORTH =  1.00D-08  GRID    =  1.00D-06  GRIDMAX =  1.00D-03  DTMAX   =  0.00D+00  THROCCDE=  1.00D-01  THROCCDE=  1.00D-01



 THRESHOLDS:

 ZERO    =  1.00D-22  ONEINT  =  1.00D-22  TWOINT  =  1.00D-22  PREFAC  =  1.00D-14  LOCALI  =  1.00D-09  EORDER  =  1.00D-04
 ENERGY  =  1.00D-12  ETEST   =  0.00D+00  EDENS   =  0.00D+00  THRDEDEF=  1.00D-06  GRADIENT=  1.00D-02  STEP    =  1.00D-03
 ORBITAL =  1.00D-05  CIVEC   =  1.00D-05  COEFF   =  1.00D-04  PRINTCI =  5.00D-02  PUNCHCI =  9.90D+01  OPTGRAD =  1.00D-08
 OPTENERG=  1.00D-06  OPTSTEP =  1.00D-08  THRGRAD =  1.00D-10  COMPRESS=  1.00D-11  VARMIN  =  1.00D-07  VARMAX  =  1.00D-03
 THRDOUB =  0.00D+00  THRDIV  =  1.00D-05  THRRED  =  1.00D-07  THRPSP  =  1.00D+00  THRDC   =  1.00D-10  THRCS   =  1.00D-10
 THRNRM  =  1.00D-08  THREQ   =  0.00D+00  THRDE   =  1.00D+00  THRREF  =  1.00D-05  SPARFAC =  1.00D+00  THRDLP  =  1.00D-07
 THRDIA  =  1.00D-10  THRDLS  =  1.00D-07  THRGPS  =  0.00D+00  THRKEX  =  0.00D+00  THRDIS  =  2.00D-01  THRVAR  =  1.00D-10
 THRLOC  =  1.00D-06  THRGAP  =  1.00D-06  THRLOCT = -1.00D+00  THRGAPT = -1.00D+00  THRORB  =  1.00D-06  THRMLTP =  0.00D+00
 THRCPQCI=  1.00D-10  KEXTA   =  0.00D+00  THRCOARS=  0.00D+00  SYMTOL  =  1.00D-06  GRADTOL =  1.00D-06  THROVL  =  1.00D-08
 THRORTH =  1.00D-08  GRID    =  1.00D-06  GRIDMAX =  1.00D-03  DTMAX   =  0.00D+00  THROCCDE=  1.00D-01  THROCCDE=  1.00D-01



 Input parameters for SORTINT:

 COMPRESS =    0.000000
 C_FINAL  =    1.000000
 DEBUG    =   -1.000000
 C_SORT1  =    0.000000
 C_SEWARD =    0.000000
 THRESH   =    0.000000
 IO       =  molpro                                                          
 SPRI     =    0.000000
 SETTING GEOMTYP        =    XYZ
 ZUNIT=BOHR
 

 Variable memory set to  995000000 words,  buffer space   230000 words

 SETTING BASIS          =    VTZ-DK
 SETTING DKROLL         =     0.00000000D+00                                  


 Recomputing integrals since basis changed


 Using spherical harmonics

 Library entry N      S cc-pVTZ-DK           selected for orbital group  1
 Library entry N      P cc-pVTZ-DK           selected for orbital group  1
 Library entry N      D cc-pVTZ-DK           selected for orbital group  1
 Library entry N      F cc-pVTZ-DK           selected for orbital group  1
 Library entry C      S cc-pVTZ-DK           selected for orbital group  2
 Library entry C      P cc-pVTZ-DK           selected for orbital group  2
 Library entry C      D cc-pVTZ-DK           selected for orbital group  2
 Library entry C      F cc-pVTZ-DK           selected for orbital group  2
 Library entry H      S cc-pVTZ-DK           selected for orbital group  3
 Library entry H      P cc-pVTZ-DK           selected for orbital group  3
 Library entry H      D cc-pVTZ-DK           selected for orbital group  3


 PROGRAM * SEWARD (Integral evaluation for generally contracted gaussian basis sets)     Author: Roland Lindh, 1990

 Geometry written to block  1 of record 700


 Point group  C2v 



 ATOMIC COORDINATES

 NR  ATOM    CHARGE       X              Y              Z

   1  N       7.00    0.000000000    0.000000000    1.140449108
   2  C       6.00    0.000000000    0.000000000   -1.047849189
   3  H       1.00    0.000000000    0.000000000   -3.089669900

 Bond lengths in Bohr (Angstrom)

 1-2  2.188298297  2-3  2.041820711
     ( 1.157997589)     ( 1.080484989)

 Bond angles

  1-2-3  179.99999829

 NUCLEAR CHARGE:                   14
 NUMBER OF PRIMITIVE AOS:         111
 NUMBER OF SYMMETRY AOS:          100
 NUMBER OF CONTRACTIONS:           74   (  33A1  +  17B1  +  17B2  +   7A2  )
 NUMBER OF CORE ORBITALS:           2   (   2A1  +   0B1  +   0B2  +   0A2  )
 NUMBER OF VALENCE ORBITALS:        9   (   5A1  +   2B1  +   2B2  +   0A2  )


 NUCLEAR REPULSION ENERGY   23.78634936

 EXTRA SYMMETRY OF AOS IN SYMMETRY 1:   1 1 1 1 1 1 1 1 2 1   2 1 2 1 1 1 1 1 1 1   1 2 1 2 1 2 1 1 1 1   1 1 2
 EXTRA SYMMETRY OF AOS IN SYMMETRY 2:   1 1 1 1 1 1 2 1 1 1   1 1 1 2 1 1 1
 EXTRA SYMMETRY OF AOS IN SYMMETRY 3:   1 1 1 1 1 1 2 1 1 1   1 1 1 2 1 1 1

 Eigenvalues of metric

         1 0.111E-02 0.150E-02 0.249E-02 0.659E-02 0.112E-01 0.195E-01 0.295E-01 0.479E-01
         2 0.158E-01 0.368E-01 0.616E-01 0.920E-01 0.134E+00 0.292E+00 0.382E+00 0.432E+00
         3 0.158E-01 0.368E-01 0.616E-01 0.920E-01 0.134E+00 0.292E+00 0.382E+00 0.432E+00
         4 0.294E+00 0.458E+00 0.577E+00 0.853E+00 0.125E+01 0.154E+01 0.202E+01


 Contracted 2-electron integrals neglected if value below      1.0D-22

         874933. INTEGRALS WRITTEN OUT IN     214 BLOCKS ON RECORD 1290 OF FILE 1


 NUMBER OF SORTED TWO-ELECTRON INTEGRALS:    1039939.     BUFFER LENGTH:  32768
 NUMBER OF SEGMENTS:   1  SEGMENT LENGTH:    1039939      RECORD LENGTH: 524288

 Memory used in sort:       1.60 MW

 SORT1 READ      874933. AND WROTE      911269. INTEGRALS IN      3 RECORDS. CPU TIME:     0.01 SEC, REAL TIME:     0.02 SEC
 SORT2 READ      911269. AND WROTE     1039939. INTEGRALS IN      1 RECORDS. CPU TIME:     0.04 SEC, REAL TIME:     0.05 SEC

 FILE SIZES:   FILE 1:    34.1 MBYTE,  FILE 4:    12.6 MBYTE,   TOTAL:     46.7 MBYTE

 OPERATOR DM      FOR CENTER  0  COORDINATES:    0.000000    0.000000    0.000000


 **********************************************************************************************************************************
 DATASETS  * FILE   NREC   LENGTH (MB)   RECORD NAMES
              1      19       27.60       500      610      700      900      950      970     1000      129      960     1100   
                                          VAR    BASINP    GEOM    SYMINP    ZMAT    AOBASIS   BASIS     P2S    ABASIS      S 
                                         1400     1410     1200     1210     1080     1600     1650     1300     1700   
                                           T        V       H0       H01     AOSYM     SMH    MOLCAS    ERIS     OPER   

 PROGRAMS   *        TOTAL       INT
 CPU TIMES  *         0.63      0.51
 REAL TIME  *         1.17 SEC
 DISK USED  *        47.00 MB      
 **********************************************************************************************************************************


 PROGRAM * RHF-SCF (CLOSED SHELL)       Authors: W. Meyer, H.-J. Werner


 NUMBER OF ELECTRONS:       7+    7-
 CONVERGENCE THRESHOLDS:    1.00E-10 (Density)    1.00E-13 (Energy)
 MAX. NUMBER OF ITERATIONS:      500
 INTERPOLATION TYPE:            DIIS
 INTERPOLATION STEPS:              2 (START)      1 (STEP)
 LEVEL SHIFTS:                  0.00 (CLOSED)  0.00 (OPEN) 



 Orbital guess generated from atomic densities. Full valence occupancy:    7   2   2   0

 Molecular orbital dump at record        2100.2

 Initial occupancy:   5   1   1   0

 ITERATION    DDIFF          GRAD             ENERGY        2-EL.EN.            DIPOLE MOMENTS         DIIS   ORB.
    1      0.000D+00      0.000D+00       -92.87941919    111.708126    0.00000    0.00000   -1.78839    0    start
    2      0.000D+00      0.116D-01       -92.88825189    110.889425    0.00000    0.00000   -0.88441    1    diag
    3      0.192D-01      0.105D-01       -92.90383711    111.409866    0.00000    0.00000   -1.29957    2    diag
    4      0.968D-02      0.828D-03       -92.90405681    111.371948    0.00000    0.00000   -1.29090    3    diag
    5      0.150D-02      0.186D-03       -92.90406954    111.383838    0.00000    0.00000   -1.28959    4    diag
    6      0.408D-03      0.527D-04       -92.90407039    111.378647    0.00000    0.00000   -1.28959    5    diag
    7      0.992D-04      0.191D-04       -92.90407048    111.379752    0.00000    0.00000   -1.28974    6    diag
    8      0.336D-04      0.361D-05       -92.90407048    111.379701    0.00000    0.00000   -1.28972    7    diag
    9      0.610D-05      0.392D-06       -92.90407048    111.379708    0.00000    0.00000   -1.28971    8    diag
   10      0.850D-06      0.386D-07       -92.90407048    111.379709    0.00000    0.00000   -1.28971    9    orth
   11      0.756D-07      0.449D-08       -92.90407048    111.379709    0.00000    0.00000   -1.28971    9    diag
   12      0.132D-07      0.387D-09       -92.90407048    111.379709    0.00000    0.00000   -1.28971    9    diag
   13      0.166D-08      0.451D-10       -92.90407048    111.379709    0.00000    0.00000   -1.28971    9    diag
   14      0.252D-09      0.903D-11       -92.90407048    111.379709    0.00000    0.00000   -1.28971    9    diag
   15      0.425D-10      0.965D-12       -92.90407048    111.379709    0.00000    0.00000   -1.28971    0    orth

 Final occupancy:   5   1   1   0

 !RHF STATE 1.1 Energy                -92.904070477964
 Nuclear energy                        23.78634936
 One-electron energy                 -172.38027412
 Two-electron energy                   55.68985428
 Virial quotient                       -1.00144339
 !RHF STATE 1.1 Dipole moment           0.00000000     0.00000000    -1.28971451
 Dipole moment /Debye                   0.00000000     0.00000000    -3.27791259

 Orbital energies:

         1.1          2.1          3.1          4.1          5.1          6.1          7.1
    -15.598965   -11.293333    -1.232816    -0.806719    -0.580702     0.140225     0.239916

         1.2          2.2          3.2
     -0.493874     0.165562     0.446830

         1.3          2.3          3.3
     -0.493874     0.165562     0.446830

         1.4          2.4
      0.810705     1.419041

 HOMO      1.2    -0.493874 =     -13.4390eV
 LUMO      6.1     0.140225 =       3.8157eV
 LUMO-HOMO         0.634099 =      17.2547eV


 **********************************************************************************************************************************
 DATASETS  * FILE   NREC   LENGTH (MB)   RECORD NAMES
              1      19       27.60       500      610      700      900      950      970     1000      129      960     1100   
                                          VAR    BASINP    GEOM    SYMINP    ZMAT    AOBASIS   BASIS     P2S    ABASIS      S 
                                         1400     1410     1200     1210     1080     1600     1650     1300     1700   
                                           T        V       H0       H01     AOSYM     SMH    MOLCAS    ERIS     OPER   

              2       4        2.82       700     1000      520     2100   
                                         GEOM     BASIS   MCVARS     RHF  

 PROGRAMS   *        TOTAL        HF       INT
 CPU TIMES  *         0.70      0.07      0.51
 REAL TIME  *         1.28 SEC
 DISK USED  *        47.00 MB      
 **********************************************************************************************************************************


 PROGRAM * CCSD (Closed-shell coupled cluster)     Authors: C. Hampel, H.-J. Werner, 1991, M. Deegan, P.J. Knowles, 1992


 Convergence thresholds:  THRVAR = 1.00D-08  THRDEN = 1.00D-12

 CCSD(T)     terms to be evaluated (factor= 1.000)


 Number of core orbitals:           2 (   2   0   0   0 )
 Number of closed-shell orbitals:   5 (   3   1   1   0 )
 Number of external orbitals:      67 (  28  16  16   7 )

 Molecular orbitals read from record     2100.2  Type=RHF/CANONICAL (state 1.1)

 Number of N-1 electron functions:               5
 Number of N-2 electron functions:              15
 Number of singly external CSFs:               116
 Number of doubly external CSFs:             15189
 Total number of CSFs:                       15306

 Length of J-op  integral file:               0.00 MB
 Length of K-op  integral file:               0.15 MB
 Length of 3-ext integral record:             0.00 MB

 Memory could be reduced to 0.93 Mwords without degradation in triples

 Integral transformation finished. Total CPU:   0.01 sec, npass=  1  Memory used:   0.18 MW

 Reference energy:                    -92.90407048

 MP2 singlet pair energy:              -0.21862763
 MP2 triplet pair energy:              -0.12763521
 MP2 correlation energy:               -0.34626284
 MP2 total energy:                    -93.25033332

 SCS-MP2 correlation energy:           -0.34177062   (PS=  1.200000  PT=  0.333333)
 SCS-MP2 total energy:                -93.24584110

 ITER.      SQ.NORM     CORR.ENERGY   TOTAL ENERGY   ENERGY CHANGE        DEN1      VAR(S)    VAR(P)  DIIS     TIME  TIME/IT
   1      1.11552827    -0.34936969   -93.25344017    -0.00310685     0.00991524  0.26D-02  0.31D-02  1  1     0.02     0.02
   2      1.12525395    -0.34971545   -93.25378593    -0.00034576    -0.01018195  0.51D-04  0.42D-03  2  2     0.03     0.02
   3      1.13042654    -0.34994911   -93.25401959    -0.00023366    -0.00258006  0.13D-04  0.43D-04  3  3     0.05     0.02
   4      1.13258173    -0.35004881   -93.25411929    -0.00009970    -0.00077684  0.30D-06  0.46D-05  4  4     0.06     0.02
   5      1.13305553    -0.35004580   -93.25411628     0.00000301    -0.00013169  0.11D-06  0.42D-06  5  5     0.07     0.02
   6      1.13315925    -0.35004450   -93.25411498     0.00000130    -0.00002725  0.93D-08  0.31D-07  6  6     0.09     0.02
   7      1.13316763    -0.35004687   -93.25411735    -0.00000237    -0.00000246  0.62D-09  0.26D-08  6  1     0.10     0.02
   8      1.13316821    -0.35004736   -93.25411784    -0.00000049     0.00000065  0.49D-10  0.15D-09  6  2     0.12     0.02
   9      1.13316892    -0.35004739   -93.25411787    -0.00000003    -0.00000039  0.44D-11  0.11D-10  6  3     0.13     0.02
  10      1.13316887    -0.35004741   -93.25411789    -0.00000002     0.00000010  0.33D-12  0.11D-11  6  4     0.15     0.02
  11      1.13316883    -0.35004741   -93.25411789    -0.00000000     0.00000001  0.65D-13  0.11D-12  6  5     0.16     0.02
  12      1.13316877    -0.35004742   -93.25411790    -0.00000000     0.00000003  0.36D-14  0.23D-13  6  6     0.18     0.02
  13      1.13316873    -0.35004742   -93.25411790    -0.00000000     0.00000001  0.14D-14  0.23D-14  6  2     0.19     0.02
  14      1.13316871    -0.35004742   -93.25411790    -0.00000000     0.00000000  0.23D-16  0.12D-15  6  1     0.21     0.02
  15      1.13316871    -0.35004742   -93.25411790    -0.00000000     0.00000000  0.54D-17  0.88D-17  6  4     0.22     0.02
  16      1.13316871    -0.35004742   -93.25411790    -0.00000000     0.00000000  0.23D-18  0.63D-18  6  3     0.23     0.02
  17      1.13316871    -0.35004742   -93.25411790    -0.00000000     0.00000000  0.10D-18  0.82D-19  6  5     0.24     0.02
  18      1.13316871    -0.35004742   -93.25411790    -0.00000000     0.00000000  0.58D-20  0.88D-20  6  6     0.26     0.02
  19      1.13316871    -0.35004742   -93.25411790     0.00000000    -0.00000000  0.20D-20  0.53D-21  6  2     0.27     0.02
  20      1.13316871    -0.35004742   -93.25411790     0.00000000    -0.00000000  0.11D-21  0.13D-21  6  1     0.29     0.02

 Norm of t1 vector:      0.06441813      S-energy:    -0.00000000      T1 diagnostic:  0.01440433
                                                                       D1 diagnostic:  0.02895442

 Doubles amplitudes (print threshold =  0.500E-01):

         I         J         SYM. A    SYM. B    A         B      T(IJ, AB)

         4         4         2         2         1         1     -0.08786552
         5         5         3         3         1         1     -0.08786552
         5         4         3         2         1         1     -0.05497509


 Total CPU time for triples:      0.07 sec


 RESULTS
 =======

  Reference energy                    -92.904070477964
  CCSD singlet pair energy             -0.243545011421
  CCSD triplet pair energy             -0.106502408151
  CCSD correlation energy              -0.350047419572

  Triples (T) contribution             -0.018054541986
  Total correlation energy             -0.368101961558

  CCSD total energy                   -93.254117897536
  CCSD[T] energy                      -93.273013608359
  CCSD-T energy                       -93.271754173728
 !CCSD(T) total energy                -93.272172439522

 Timing summary (sec):

 STEP                 CPU(USER)    SYS     CPU(TOT)    WALL
 Transformation          0.01      0.01      0.02      0.02
 CCSD iterations         0.28      0.05      0.33      0.34
 Triples                 0.07      0.00      0.07      0.07

 Program statistics:

 Available memory in ccsd:               994999800
 Min. memory needed in ccsd:                 67993
 Max. memory used in ccsd:                   79450
 Max. memory used in cckext:                107513 (20 integral passes)



 **********************************************************************************************************************************
 DATASETS  * FILE   NREC   LENGTH (MB)   RECORD NAMES
              1      20       29.54       500      610      700      900      950      970     1000      129      960     1100   
                                          VAR    BASINP    GEOM    SYMINP    ZMAT    AOBASIS   BASIS     P2S    ABASIS      S 
                                         1400     1410     1200     1210     1080     1600     1650     1300     1700     1380   
                                           T        V       H0       H01     AOSYM     SMH    MOLCAS    ERIS     OPER     JKOP   

              2       4        2.82       700     1000      520     2100   
                                         GEOM     BASIS   MCVARS     RHF  

 PROGRAMS   *        TOTAL   CCSD(T)        HF       INT
 CPU TIMES  *         1.11      0.41      0.07      0.51
 REAL TIME  *         1.87 SEC
 DISK USED  *        47.00 MB      
 **********************************************************************************************************************************

 CCSD(T)/cc-pVTZ-DK energy=    -93.272172439522

        CCSD(T)         HF-SCF  
    -93.27217244    -92.90407048
 **********************************************************************************************************************************
 Molpro calculation terminated
 Variable memory released
