
 Primary working directories    : /tmp/r2666/232516.maple
 Secondary working directories  : /tmp/r2666/232516.maple
 Wavefunction directory         : /ddn/home4/r2666/wfu/
 Main file repository           : /tmp/r2666/232516.maple/

 SHA1      : d5ffa45e93fdbca01ffc919aa182cfdae0147319
 NAME      : 2015.1.35
 ARCHNAME  : linux/x86_64
 FC        : /opt/intel/composer_xe_2015.1.133/bin/intel64/ifort
 BLASLIB   : -Wl,-_start-group /opt/intel/mkl/lib/intel64/libmkl_intel_ilp64.a /opt/intel/mkl/lib/intel64/libmkl_intel_thread.a /opt/intel/mkl/lib/intel64/libmkl_core.a -Wl,-_end-group
 id        : olemiss

 Nodes     nprocs
 cn079        1

 Using customized tuning parameters: mindgm=1; mindgv=20; mindgc=4; mindgr=1; noblas=0; minvec=7
 default implementation of scratch files=df  

 ***,hcn CCSD(T)/TZ-F12 QFF
 memory, 995, m;
 gthresh,energy=1.d-12,zero=1.d-22,oneint=1.d-22,twoint=1.d-22;
 gthresh,optgrad=1.d-8,optstep=1.d-8;
 nocompress;
 geomtyp=xyz
 bohr
 geometry={
 3
         15        15
 N        0.0000000000        0.0000000000        1.1184023044
 C        0.0000000000        0.0000000000       -1.0509987327
 H        0.0000000000        0.0000000000       -3.0644735537
 }
 
 basis=avtz
   {hf,maxit=500;accu,20;}
 {ccsd(t),nocheck,maxit=250;orbital,IGNORE_ERROR;}

 Variables initialized (889), CPU time= 0.00 sec
 Commands  initialized (702), CPU time= 0.01 sec, 572 directives.
 Default parameters read. Elapsed time= 0.04 sec

 Checking input...
 Passed
1


                                         ***  PROGRAM SYSTEM MOLPRO  ***
                                       Copyright, TTI GmbH Stuttgart, 2015
                                    Version 2015.1 linked Jul  9 2018 13:16:40


 **********************************************************************************************************************************
 LABEL *   hcn CCSD(T)/TZ-F12 QFF                                                        
  64 bit serial version                                                                  DATE: 06-Feb-20          TIME: 09:54:16  
 **********************************************************************************************************************************

 SHA1:             d5ffa45e93fdbca01ffc919aa182cfdae0147319
 **********************************************************************************************************************************

 THRESHOLDS:

 ZERO    =  1.00D-22  ONEINT  =  1.00D-22  TWOINT  =  1.00D-22  PREFAC  =  1.00D-14  LOCALI  =  1.00D-09  EORDER  =  1.00D-04
 ENERGY  =  1.00D-12  ETEST   =  0.00D+00  EDENS   =  0.00D+00  THRDEDEF=  1.00D-06  GRADIENT=  1.00D-02  STEP    =  1.00D-03
 ORBITAL =  1.00D-05  CIVEC   =  1.00D-05  COEFF   =  1.00D-04  PRINTCI =  5.00D-02  PUNCHCI =  9.90D+01  OPTGRAD =  3.00D-04
 OPTENERG=  1.00D-06  OPTSTEP =  3.00D-04  THRGRAD =  1.00D-10  COMPRESS=  1.00D-11  VARMIN  =  1.00D-07  VARMAX  =  1.00D-03
 THRDOUB =  0.00D+00  THRDIV  =  1.00D-05  THRRED  =  1.00D-07  THRPSP  =  1.00D+00  THRDC   =  1.00D-10  THRCS   =  1.00D-10
 THRNRM  =  1.00D-08  THREQ   =  0.00D+00  THRDE   =  1.00D+00  THRREF  =  1.00D-05  SPARFAC =  1.00D+00  THRDLP  =  1.00D-07
 THRDIA  =  1.00D-10  THRDLS  =  1.00D-07  THRGPS  =  0.00D+00  THRKEX  =  0.00D+00  THRDIS  =  2.00D-01  THRVAR  =  1.00D-10
 THRLOC  =  1.00D-06  THRGAP  =  1.00D-06  THRLOCT = -1.00D+00  THRGAPT = -1.00D+00  THRORB  =  1.00D-06  THRMLTP =  0.00D+00
 THRCPQCI=  1.00D-10  KEXTA   =  0.00D+00  THRCOARS=  0.00D+00  SYMTOL  =  1.00D-06  GRADTOL =  1.00D-06  THROVL  =  1.00D-08
 THRORTH =  1.00D-08  GRID    =  1.00D-06  GRIDMAX =  1.00D-03  DTMAX   =  0.00D+00  THROCCDE=  1.00D-01  THROCCDE=  1.00D-01



 THRESHOLDS:

 ZERO    =  1.00D-22  ONEINT  =  1.00D-22  TWOINT  =  1.00D-22  PREFAC  =  1.00D-14  LOCALI  =  1.00D-09  EORDER  =  1.00D-04
 ENERGY  =  1.00D-12  ETEST   =  0.00D+00  EDENS   =  0.00D+00  THRDEDEF=  1.00D-06  GRADIENT=  1.00D-02  STEP    =  1.00D-03
 ORBITAL =  1.00D-05  CIVEC   =  1.00D-05  COEFF   =  1.00D-04  PRINTCI =  5.00D-02  PUNCHCI =  9.90D+01  OPTGRAD =  1.00D-08
 OPTENERG=  1.00D-06  OPTSTEP =  1.00D-08  THRGRAD =  1.00D-10  COMPRESS=  1.00D-11  VARMIN  =  1.00D-07  VARMAX  =  1.00D-03
 THRDOUB =  0.00D+00  THRDIV  =  1.00D-05  THRRED  =  1.00D-07  THRPSP  =  1.00D+00  THRDC   =  1.00D-10  THRCS   =  1.00D-10
 THRNRM  =  1.00D-08  THREQ   =  0.00D+00  THRDE   =  1.00D+00  THRREF  =  1.00D-05  SPARFAC =  1.00D+00  THRDLP  =  1.00D-07
 THRDIA  =  1.00D-10  THRDLS  =  1.00D-07  THRGPS  =  0.00D+00  THRKEX  =  0.00D+00  THRDIS  =  2.00D-01  THRVAR  =  1.00D-10
 THRLOC  =  1.00D-06  THRGAP  =  1.00D-06  THRLOCT = -1.00D+00  THRGAPT = -1.00D+00  THRORB  =  1.00D-06  THRMLTP =  0.00D+00
 THRCPQCI=  1.00D-10  KEXTA   =  0.00D+00  THRCOARS=  0.00D+00  SYMTOL  =  1.00D-06  GRADTOL =  1.00D-06  THROVL  =  1.00D-08
 THRORTH =  1.00D-08  GRID    =  1.00D-06  GRIDMAX =  1.00D-03  DTMAX   =  0.00D+00  THROCCDE=  1.00D-01  THROCCDE=  1.00D-01



 Input parameters for SORTINT:

 COMPRESS =    0.000000
 C_FINAL  =    1.000000
 DEBUG    =   -1.000000
 C_SORT1  =    0.000000
 C_SEWARD =    0.000000
 THRESH   =    0.000000
 IO       =  molpro                                                          
 SPRI     =    0.000000
 SETTING GEOMTYP        =    XYZ
 ZUNIT=BOHR
 

 Variable memory set to  995000000 words,  buffer space   230000 words

 SETTING BASIS          =    AVTZ


 Recomputing integrals since basis changed


 Using spherical harmonics

 Library entry N      S aug-cc-pVTZ          selected for orbital group  1
 Library entry N      P aug-cc-pVTZ          selected for orbital group  1
 Library entry N      D aug-cc-pVTZ          selected for orbital group  1
 Library entry N      F aug-cc-pVTZ          selected for orbital group  1
 Library entry C      S aug-cc-pVTZ          selected for orbital group  2
 Library entry C      P aug-cc-pVTZ          selected for orbital group  2
 Library entry C      D aug-cc-pVTZ          selected for orbital group  2
 Library entry C      F aug-cc-pVTZ          selected for orbital group  2
 Library entry H      S aug-cc-pVTZ          selected for orbital group  3
 Library entry H      P aug-cc-pVTZ          selected for orbital group  3
 Library entry H      D aug-cc-pVTZ          selected for orbital group  3


 PROGRAM * SEWARD (Integral evaluation for generally contracted gaussian basis sets)     Author: Roland Lindh, 1990

 Geometry written to block  1 of record 700


 Point group  C2v 



 ATOMIC COORDINATES

 NR  ATOM    CHARGE       X              Y              Z

   1  N       7.00    0.000000000    0.000000000    1.118402304
   2  C       6.00    0.000000000    0.000000000   -1.050998733
   3  H       1.00    0.000000000    0.000000000   -3.064473554

 Bond lengths in Bohr (Angstrom)

 1-2  2.169401037  2-3  2.013474821
     ( 1.147997590)     ( 1.065484990)

 Bond angles

  1-2-3  180.00000000

 NUCLEAR CHARGE:                   14
 NUMBER OF PRIMITIVE AOS:         161
 NUMBER OF SYMMETRY AOS:          141
 NUMBER OF CONTRACTIONS:          115   (  49A1  +  27B1  +  27B2  +  12A2  )
 NUMBER OF CORE ORBITALS:           2   (   2A1  +   0B1  +   0B2  +   0A2  )
 NUMBER OF VALENCE ORBITALS:        9   (   5A1  +   2B1  +   2B2  +   0A2  )


 NUCLEAR REPULSION ENERGY   24.01359532

 EXTRA SYMMETRY OF AOS IN SYMMETRY 1:   1 1 1 1 1 1 1 1 1 1   2 1 2 1 2 1 2 1 2 1   1 1 1 1 1 1 1 1 1 2   1 2 1 2 1 2 1 2 1 1
                                        1 1 1 1 1 1 2 1 2
 EXTRA SYMMETRY OF AOS IN SYMMETRY 2:   1 1 1 1 1 1 1 1 2 1   2 1 1 1 1 1 1 1 1 2   1 2 1 1 1 1 1
 EXTRA SYMMETRY OF AOS IN SYMMETRY 3:   1 1 1 1 1 1 1 1 2 1   2 1 1 1 1 1 1 1 1 2   1 2 1 1 1 1 1

 Eigenvalues of metric

         1 0.863E-04 0.196E-03 0.615E-03 0.122E-02 0.137E-02 0.177E-02 0.518E-02 0.688E-02
         2 0.223E-02 0.524E-02 0.126E-01 0.161E-01 0.308E-01 0.446E-01 0.803E-01 0.102E+00
         3 0.223E-02 0.524E-02 0.126E-01 0.161E-01 0.308E-01 0.446E-01 0.803E-01 0.102E+00
         4 0.380E-01 0.112E+00 0.146E+00 0.332E+00 0.483E+00 0.510E+00 0.741E+00 0.894E+00


 Contracted 2-electron integrals neglected if value below      1.0D-22

        5028516. INTEGRALS WRITTEN OUT IN    1228 BLOCKS ON RECORD 1290 OF FILE 1


 NUMBER OF SORTED TWO-ELECTRON INTEGRALS:    5853730.     BUFFER LENGTH:  32768
 NUMBER OF SEGMENTS:   1  SEGMENT LENGTH:    5853730      RECORD LENGTH: 524288

 Memory used in sort:       6.41 MW

 SORT1 READ     5028516. AND WROTE     5163591. INTEGRALS IN     15 RECORDS. CPU TIME:     0.11 SEC, REAL TIME:     0.15 SEC
 SORT2 READ     5163591. AND WROTE     5853730. INTEGRALS IN      1 RECORDS. CPU TIME:     0.11 SEC, REAL TIME:     0.14 SEC

 FILE SIZES:   FILE 1:   100.7 MBYTE,  FILE 4:    62.9 MBYTE,   TOTAL:    163.7 MBYTE

 OPERATOR DM      FOR CENTER  0  COORDINATES:    0.000000    0.000000    0.000000


 **********************************************************************************************************************************
 DATASETS  * FILE   NREC   LENGTH (MB)   RECORD NAMES
              1      19       63.47       500      610      700      900      950      970     1000      129      960     1100   
                                          VAR    BASINP    GEOM    SYMINP    ZMAT    AOBASIS   BASIS     P2S    ABASIS      S 
                                         1400     1410     1200     1210     1080     1600     1650     1300     1700   
                                           T        V       H0       H01     AOSYM     SMH    MOLCAS    ERIS     OPER   

 PROGRAMS   *        TOTAL       INT
 CPU TIMES  *         1.15      1.07
 REAL TIME  *         1.75 SEC
 DISK USED  *       163.98 MB      
 **********************************************************************************************************************************


 PROGRAM * RHF-SCF (CLOSED SHELL)       Authors: W. Meyer, H.-J. Werner


 NUMBER OF ELECTRONS:       7+    7-
 CONVERGENCE THRESHOLDS:    1.00E-10 (Density)    1.00E-13 (Energy)
 MAX. NUMBER OF ITERATIONS:      500
 INTERPOLATION TYPE:            DIIS
 INTERPOLATION STEPS:              2 (START)      1 (STEP)
 LEVEL SHIFTS:                  0.00 (CLOSED)  0.00 (OPEN) 



 Orbital guess generated from atomic densities. Full valence occupancy:    7   2   2   0

 Molecular orbital dump at record        2100.2

 Initial occupancy:   5   1   1   0

 ITERATION    DDIFF          GRAD             ENERGY        2-EL.EN.            DIPOLE MOMENTS         DIIS   ORB.
    1      0.000D+00      0.000D+00       -92.88560689    112.145982    0.00000    0.00000   -1.77582    0    start
    2      0.000D+00      0.918D-02       -92.89480371    111.265175    0.00000    0.00000   -0.90712    1    diag
    3      0.135D-01      0.818D-02       -92.90956194    111.797486    0.00000    0.00000   -1.30452    2    diag
    4      0.607D-02      0.662D-03       -92.90978466    111.762818    0.00000    0.00000   -1.29577    3    diag
    5      0.110D-02      0.144D-03       -92.90979747    111.771883    0.00000    0.00000   -1.29436    4    diag
    6      0.260D-03      0.391D-04       -92.90979822    111.767053    0.00000    0.00000   -1.29445    5    diag
    7      0.557D-04      0.139D-04       -92.90979829    111.768209    0.00000    0.00000   -1.29451    6    diag
    8      0.195D-04      0.269D-05       -92.90979829    111.768164    0.00000    0.00000   -1.29448    7    diag
    9      0.376D-05      0.308D-06       -92.90979829    111.768173    0.00000    0.00000   -1.29447    8    diag
   10      0.508D-06      0.357D-07       -92.90979829    111.768173    0.00000    0.00000   -1.29447    9    orth
   11      0.549D-07      0.441D-08       -92.90979829    111.768173    0.00000    0.00000   -1.29447    9    diag
   12      0.102D-07      0.389D-09       -92.90979829    111.768173    0.00000    0.00000   -1.29447    9    diag
   13      0.979D-09      0.449D-10       -92.90979829    111.768173    0.00000    0.00000   -1.29447    9    diag
   14      0.151D-09      0.508D-11       -92.90979829    111.768173    0.00000    0.00000   -1.29447    9    diag
   15      0.261D-10      0.114D-11       -92.90979829    111.768173    0.00000    0.00000   -1.29447    0    orth

 Final occupancy:   5   1   1   0

 !RHF STATE 1.1 Energy                -92.909798291556
 Nuclear energy                        24.01359532
 One-electron energy                 -172.80748020
 Two-electron energy                   55.88408659
 Virial quotient                       -1.00205440
 !RHF STATE 1.1 Dipole moment           0.00000000     0.00000000    -1.29446980
 Dipole moment /Debye                   0.00000000     0.00000000    -3.28999855

 Orbital energies:

         1.1          2.1          3.1          4.1          5.1          6.1          7.1
    -15.598225   -11.290482    -1.239585    -0.812477    -0.581952     0.023113     0.071688

         1.2          2.2          3.2
     -0.498466     0.072949     0.136852

         1.3          2.3          3.3
     -0.498466     0.072949     0.136852

         1.4          2.4
      0.293857     0.550168

 HOMO      1.2    -0.498466 =     -13.5640eV
 LUMO      6.1     0.023113 =       0.6289eV
 LUMO-HOMO         0.521579 =      14.1929eV


 **********************************************************************************************************************************
 DATASETS  * FILE   NREC   LENGTH (MB)   RECORD NAMES
              1      19       63.47       500      610      700      900      950      970     1000      129      960     1100   
                                          VAR    BASINP    GEOM    SYMINP    ZMAT    AOBASIS   BASIS     P2S    ABASIS      S 
                                         1400     1410     1200     1210     1080     1600     1650     1300     1700   
                                           T        V       H0       H01     AOSYM     SMH    MOLCAS    ERIS     OPER   

              2       4        2.88       700     1000      520     2100   
                                         GEOM     BASIS   MCVARS     RHF  

 PROGRAMS   *        TOTAL        HF       INT
 CPU TIMES  *         1.47      0.33      1.07
 REAL TIME  *         2.15 SEC
 DISK USED  *       163.98 MB      
 **********************************************************************************************************************************


 PROGRAM * CCSD (Closed-shell coupled cluster)     Authors: C. Hampel, H.-J. Werner, 1991, M. Deegan, P.J. Knowles, 1992


 Convergence thresholds:  THRVAR = 1.00D-08  THRDEN = 1.00D-12

 CCSD(T)     terms to be evaluated (factor= 1.000)


 Number of core orbitals:           2 (   2   0   0   0 )
 Number of closed-shell orbitals:   5 (   3   1   1   0 )
 Number of external orbitals:     108 (  44  26  26  12 )

 Molecular orbitals read from record     2100.2  Type=RHF/CANONICAL (state 1.1)

 Number of N-1 electron functions:               5
 Number of N-2 electron functions:              15
 Number of singly external CSFs:               184
 Number of doubly external CSFs:             39026
 Total number of CSFs:                       39211

 Length of J-op  integral file:               0.00 MB
 Length of K-op  integral file:               0.31 MB
 Length of 3-ext integral record:             0.00 MB

 Memory could be reduced to 2.91 Mwords without degradation in triples

 Integral transformation finished. Total CPU:   0.06 sec, npass=  1  Memory used:   0.44 MW

 Reference energy:                    -92.90979829

 MP2 singlet pair energy:              -0.22132509
 MP2 triplet pair energy:              -0.12789465
 MP2 correlation energy:               -0.34921974
 MP2 total energy:                    -93.25901804

 SCS-MP2 correlation energy:           -0.34516901   (PS=  1.200000  PT=  0.333333)
 SCS-MP2 total energy:                -93.25496730

 ITER.      SQ.NORM     CORR.ENERGY   TOTAL ENERGY   ENERGY CHANGE        DEN1      VAR(S)    VAR(P)  DIIS     TIME  TIME/IT
   1      1.11515028    -0.35202714   -93.26182543    -0.00280740     0.00967929  0.24D-02  0.30D-02  1  1     0.13     0.06
   2      1.12454484    -0.35245804   -93.26225633    -0.00043090    -0.00986089  0.50D-04  0.40D-03  2  2     0.19     0.07
   3      1.12949352    -0.35268764   -93.26248593    -0.00022960    -0.00247452  0.15D-04  0.40D-04  3  3     0.24     0.07
   4      1.13155457    -0.35277532   -93.26257361    -0.00008768    -0.00074036  0.47D-06  0.43D-05  4  4     0.31     0.07
   5      1.13202041    -0.35277275   -93.26257104     0.00000257    -0.00012873  0.92D-07  0.38D-06  5  5     0.36     0.07
   6      1.13211949    -0.35277058   -93.26256887     0.00000217    -0.00002629  0.82D-08  0.29D-07  6  6     0.42     0.07
   7      1.13212691    -0.35277246   -93.26257075    -0.00000188    -0.00000222  0.91D-09  0.25D-08  6  1     0.47     0.07
   8      1.13212716    -0.35277296   -93.26257125    -0.00000051     0.00000050  0.78D-10  0.20D-09  6  2     0.52     0.07
   9      1.13212758    -0.35277302   -93.26257131    -0.00000006    -0.00000026  0.95D-11  0.13D-10  6  3     0.58     0.07
  10      1.13212749    -0.35277306   -93.26257135    -0.00000003     0.00000008  0.99D-12  0.13D-11  6  4     0.64     0.07
  11      1.13212741    -0.35277306   -93.26257136    -0.00000001     0.00000003  0.14D-12  0.13D-12  6  5     0.70     0.07
  12      1.13212733    -0.35277307   -93.26257136    -0.00000000     0.00000003  0.14D-13  0.13D-13  6  1     0.76     0.07
  13      1.13212730    -0.35277307   -93.26257136    -0.00000000     0.00000001  0.92D-15  0.82D-15  6  6     0.81     0.07
  14      1.13212729    -0.35277307   -93.26257136    -0.00000000     0.00000000  0.22D-15  0.13D-15  6  2     0.87     0.07
  15      1.13212729    -0.35277307   -93.26257136    -0.00000000     0.00000000  0.30D-16  0.16D-16  6  4     0.92     0.07
  16      1.13212729    -0.35277307   -93.26257136     0.00000000    -0.00000000  0.27D-17  0.16D-17  6  3     0.99     0.07
  17      1.13212729    -0.35277307   -93.26257136     0.00000000    -0.00000000  0.26D-18  0.19D-18  6  5     1.03     0.07
  18      1.13212729    -0.35277307   -93.26257136     0.00000000    -0.00000000  0.33D-19  0.31D-19  6  6     1.08     0.07
  19      1.13212729    -0.35277307   -93.26257136    -0.00000000    -0.00000000  0.28D-20  0.28D-20  6  1     1.13     0.07
  20      1.13212729    -0.35277307   -93.26257136    -0.00000000     0.00000000  0.35D-21  0.39D-21  6  2     1.18     0.07

 Norm of t1 vector:      0.06291466      S-energy:     0.00000000      T1 diagnostic:  0.01406815
                                                                       D1 diagnostic:  0.02784705


 Total CPU time for triples:      0.27 sec


 RESULTS
 =======

  Reference energy                    -92.909798291556
  CCSD singlet pair energy             -0.245505083547
  CCSD triplet pair energy             -0.107267988005
  CCSD correlation energy              -0.352773071552

  Triples (T) contribution             -0.018278921222
  Total correlation energy             -0.371051992774

  CCSD total energy                   -93.262571363108
  CCSD[T] energy                      -93.281629539310
  CCSD-T energy                       -93.280463429347
 !CCSD(T) total energy                -93.280850284329

 Timing summary (sec):

 STEP                 CPU(USER)    SYS     CPU(TOT)    WALL
 Transformation          0.07      0.02      0.09      0.09
 CCSD iterations         1.11      0.28      1.39      1.38
 Triples                 0.27      0.01      0.28      0.28

 Program statistics:

 Available memory in ccsd:               994999800
 Min. memory needed in ccsd:                166428
 Max. memory used in ccsd:                  196881
 Max. memory used in cckext:                233267 (20 integral passes)



 **********************************************************************************************************************************
 DATASETS  * FILE   NREC   LENGTH (MB)   RECORD NAMES
              1      20       70.98       500      610      700      900      950      970     1000      129      960     1100   
                                          VAR    BASINP    GEOM    SYMINP    ZMAT    AOBASIS   BASIS     P2S    ABASIS      S 
                                         1400     1410     1200     1210     1080     1600     1650     1300     1700     1380   
                                           T        V       H0       H01     AOSYM     SMH    MOLCAS    ERIS     OPER     JKOP   

              2       4        2.88       700     1000      520     2100   
                                         GEOM     BASIS   MCVARS     RHF  

 PROGRAMS   *        TOTAL   CCSD(T)        HF       INT
 CPU TIMES  *         2.94      1.47      0.33      1.07
 REAL TIME  *         3.94 SEC
 DISK USED  *       163.98 MB      
 **********************************************************************************************************************************

 CCSD(T)/aug-cc-pVTZ energy=    -93.280850284329

        CCSD(T)         HF-SCF  
    -93.28085028    -92.90979829
 **********************************************************************************************************************************
 Molpro calculation terminated
 Variable memory released
