
 Primary working directories    : /tmp/r2666/232513.maple
 Secondary working directories  : /tmp/r2666/232513.maple
 Wavefunction directory         : /ddn/home4/r2666/wfu/
 Main file repository           : /tmp/r2666/232513.maple/

 SHA1      : d5ffa45e93fdbca01ffc919aa182cfdae0147319
 NAME      : 2015.1.35
 ARCHNAME  : linux/x86_64
 FC        : /opt/intel/composer_xe_2015.1.133/bin/intel64/ifort
 BLASLIB   : -Wl,-_start-group /opt/intel/mkl/lib/intel64/libmkl_intel_ilp64.a /opt/intel/mkl/lib/intel64/libmkl_intel_thread.a /opt/intel/mkl/lib/intel64/libmkl_core.a -Wl,-_end-group
 id        : olemiss

 Nodes     nprocs
 cn080        1

 Using customized tuning parameters: mindgm=1; mindgv=20; mindgc=4; mindgr=1; noblas=0; minvec=7
 default implementation of scratch files=df  

 ***,hcn CCSD(T)/TZ-F12 QFF
 memory, 995, m;
 gthresh,energy=1.d-12,zero=1.d-22,oneint=1.d-22,twoint=1.d-22;
 gthresh,optgrad=1.d-8,optstep=1.d-8;
 nocompress;
 geomtyp=xyz
 bohr
 geometry={
 3
         12        12
 N        0.0000000000        0.0000000000        1.1121032177
 C        0.0000000000        0.0000000000       -1.0572978193
 H        0.0000000000        0.0000000000       -3.0518753804
 }
 
 basis=avtz
   {hf,maxit=500;accu,20;}
 {ccsd(t),nocheck,maxit=250;orbital,IGNORE_ERROR;}

 Variables initialized (889), CPU time= 0.01 sec
 Commands  initialized (702), CPU time= 0.02 sec, 572 directives.
 Default parameters read. Elapsed time= 0.04 sec

 Checking input...
 Passed
1


                                         ***  PROGRAM SYSTEM MOLPRO  ***
                                       Copyright, TTI GmbH Stuttgart, 2015
                                    Version 2015.1 linked Jul  9 2018 13:16:40


 **********************************************************************************************************************************
 LABEL *   hcn CCSD(T)/TZ-F12 QFF                                                        
  64 bit serial version                                                                  DATE: 06-Feb-20          TIME: 09:54:13  
 **********************************************************************************************************************************

 SHA1:             d5ffa45e93fdbca01ffc919aa182cfdae0147319
 **********************************************************************************************************************************

 THRESHOLDS:

 ZERO    =  1.00D-22  ONEINT  =  1.00D-22  TWOINT  =  1.00D-22  PREFAC  =  1.00D-14  LOCALI  =  1.00D-09  EORDER  =  1.00D-04
 ENERGY  =  1.00D-12  ETEST   =  0.00D+00  EDENS   =  0.00D+00  THRDEDEF=  1.00D-06  GRADIENT=  1.00D-02  STEP    =  1.00D-03
 ORBITAL =  1.00D-05  CIVEC   =  1.00D-05  COEFF   =  1.00D-04  PRINTCI =  5.00D-02  PUNCHCI =  9.90D+01  OPTGRAD =  3.00D-04
 OPTENERG=  1.00D-06  OPTSTEP =  3.00D-04  THRGRAD =  1.00D-10  COMPRESS=  1.00D-11  VARMIN  =  1.00D-07  VARMAX  =  1.00D-03
 THRDOUB =  0.00D+00  THRDIV  =  1.00D-05  THRRED  =  1.00D-07  THRPSP  =  1.00D+00  THRDC   =  1.00D-10  THRCS   =  1.00D-10
 THRNRM  =  1.00D-08  THREQ   =  0.00D+00  THRDE   =  1.00D+00  THRREF  =  1.00D-05  SPARFAC =  1.00D+00  THRDLP  =  1.00D-07
 THRDIA  =  1.00D-10  THRDLS  =  1.00D-07  THRGPS  =  0.00D+00  THRKEX  =  0.00D+00  THRDIS  =  2.00D-01  THRVAR  =  1.00D-10
 THRLOC  =  1.00D-06  THRGAP  =  1.00D-06  THRLOCT = -1.00D+00  THRGAPT = -1.00D+00  THRORB  =  1.00D-06  THRMLTP =  0.00D+00
 THRCPQCI=  1.00D-10  KEXTA   =  0.00D+00  THRCOARS=  0.00D+00  SYMTOL  =  1.00D-06  GRADTOL =  1.00D-06  THROVL  =  1.00D-08
 THRORTH =  1.00D-08  GRID    =  1.00D-06  GRIDMAX =  1.00D-03  DTMAX   =  0.00D+00  THROCCDE=  1.00D-01  THROCCDE=  1.00D-01



 THRESHOLDS:

 ZERO    =  1.00D-22  ONEINT  =  1.00D-22  TWOINT  =  1.00D-22  PREFAC  =  1.00D-14  LOCALI  =  1.00D-09  EORDER  =  1.00D-04
 ENERGY  =  1.00D-12  ETEST   =  0.00D+00  EDENS   =  0.00D+00  THRDEDEF=  1.00D-06  GRADIENT=  1.00D-02  STEP    =  1.00D-03
 ORBITAL =  1.00D-05  CIVEC   =  1.00D-05  COEFF   =  1.00D-04  PRINTCI =  5.00D-02  PUNCHCI =  9.90D+01  OPTGRAD =  1.00D-08
 OPTENERG=  1.00D-06  OPTSTEP =  1.00D-08  THRGRAD =  1.00D-10  COMPRESS=  1.00D-11  VARMIN  =  1.00D-07  VARMAX  =  1.00D-03
 THRDOUB =  0.00D+00  THRDIV  =  1.00D-05  THRRED  =  1.00D-07  THRPSP  =  1.00D+00  THRDC   =  1.00D-10  THRCS   =  1.00D-10
 THRNRM  =  1.00D-08  THREQ   =  0.00D+00  THRDE   =  1.00D+00  THRREF  =  1.00D-05  SPARFAC =  1.00D+00  THRDLP  =  1.00D-07
 THRDIA  =  1.00D-10  THRDLS  =  1.00D-07  THRGPS  =  0.00D+00  THRKEX  =  0.00D+00  THRDIS  =  2.00D-01  THRVAR  =  1.00D-10
 THRLOC  =  1.00D-06  THRGAP  =  1.00D-06  THRLOCT = -1.00D+00  THRGAPT = -1.00D+00  THRORB  =  1.00D-06  THRMLTP =  0.00D+00
 THRCPQCI=  1.00D-10  KEXTA   =  0.00D+00  THRCOARS=  0.00D+00  SYMTOL  =  1.00D-06  GRADTOL =  1.00D-06  THROVL  =  1.00D-08
 THRORTH =  1.00D-08  GRID    =  1.00D-06  GRIDMAX =  1.00D-03  DTMAX   =  0.00D+00  THROCCDE=  1.00D-01  THROCCDE=  1.00D-01



 Input parameters for SORTINT:

 COMPRESS =    0.000000
 C_FINAL  =    1.000000
 DEBUG    =   -1.000000
 C_SORT1  =    0.000000
 C_SEWARD =    0.000000
 THRESH   =    0.000000
 IO       =  molpro                                                          
 SPRI     =    0.000000
 SETTING GEOMTYP        =    XYZ
 ZUNIT=BOHR
 

 Variable memory set to  995000000 words,  buffer space   230000 words

 SETTING BASIS          =    AVTZ


 Recomputing integrals since basis changed


 Using spherical harmonics

 Library entry N      S aug-cc-pVTZ          selected for orbital group  1
 Library entry N      P aug-cc-pVTZ          selected for orbital group  1
 Library entry N      D aug-cc-pVTZ          selected for orbital group  1
 Library entry N      F aug-cc-pVTZ          selected for orbital group  1
 Library entry C      S aug-cc-pVTZ          selected for orbital group  2
 Library entry C      P aug-cc-pVTZ          selected for orbital group  2
 Library entry C      D aug-cc-pVTZ          selected for orbital group  2
 Library entry C      F aug-cc-pVTZ          selected for orbital group  2
 Library entry H      S aug-cc-pVTZ          selected for orbital group  3
 Library entry H      P aug-cc-pVTZ          selected for orbital group  3
 Library entry H      D aug-cc-pVTZ          selected for orbital group  3


 PROGRAM * SEWARD (Integral evaluation for generally contracted gaussian basis sets)     Author: Roland Lindh, 1990

 Geometry written to block  1 of record 700


 Point group  C2v 



 ATOMIC COORDINATES

 NR  ATOM    CHARGE       X              Y              Z

   1  N       7.00    0.000000000    0.000000000    1.112103218
   2  C       6.00    0.000000000    0.000000000   -1.057297819
   3  H       1.00    0.000000000    0.000000000   -3.051875380

 Bond lengths in Bohr (Angstrom)

 1-2  2.169401037  2-3  1.994577561
     ( 1.147997590)     ( 1.055484991)

 Bond angles

  1-2-3  179.99999879

 NUCLEAR CHARGE:                   14
 NUMBER OF PRIMITIVE AOS:         161
 NUMBER OF SYMMETRY AOS:          141
 NUMBER OF CONTRACTIONS:          115   (  49A1  +  27B1  +  27B2  +  12A2  )
 NUMBER OF CORE ORBITALS:           2   (   2A1  +   0B1  +   0B2  +   0A2  )
 NUMBER OF VALENCE ORBITALS:        9   (   5A1  +   2B1  +   2B2  +   0A2  )


 NUCLEAR REPULSION ENERGY   24.04942280

 EXTRA SYMMETRY OF AOS IN SYMMETRY 1:   1 1 1 1 1 1 1 1 1 1   2 1 2 1 2 1 2 1 2 1   1 1 1 1 1 1 1 1 1 2   1 2 1 2 1 2 1 2 1 1
                                        1 1 1 1 1 1 2 1 2
 EXTRA SYMMETRY OF AOS IN SYMMETRY 2:   1 1 1 1 1 1 1 1 2 1   2 1 1 1 1 1 1 1 1 2   1 2 1 1 1 1 1
 EXTRA SYMMETRY OF AOS IN SYMMETRY 3:   1 1 1 1 1 1 1 1 2 1   2 1 1 1 1 1 1 1 1 2   1 2 1 1 1 1 1

 Eigenvalues of metric

         1 0.841E-04 0.195E-03 0.602E-03 0.120E-02 0.136E-02 0.177E-02 0.515E-02 0.679E-02
         2 0.223E-02 0.510E-02 0.125E-01 0.157E-01 0.306E-01 0.445E-01 0.793E-01 0.102E+00
         3 0.223E-02 0.510E-02 0.125E-01 0.157E-01 0.306E-01 0.445E-01 0.793E-01 0.102E+00
         4 0.377E-01 0.110E+00 0.146E+00 0.331E+00 0.480E+00 0.510E+00 0.740E+00 0.891E+00


 Contracted 2-electron integrals neglected if value below      1.0D-22

        5028387. INTEGRALS WRITTEN OUT IN    1228 BLOCKS ON RECORD 1290 OF FILE 1


 NUMBER OF SORTED TWO-ELECTRON INTEGRALS:    5853730.     BUFFER LENGTH:  32768
 NUMBER OF SEGMENTS:   1  SEGMENT LENGTH:    5853730      RECORD LENGTH: 524288

 Memory used in sort:       6.41 MW

 SORT1 READ     5028387. AND WROTE     5163470. INTEGRALS IN     15 RECORDS. CPU TIME:     0.12 SEC, REAL TIME:     0.14 SEC
 SORT2 READ     5163470. AND WROTE     5853730. INTEGRALS IN      1 RECORDS. CPU TIME:     0.13 SEC, REAL TIME:     0.15 SEC

 FILE SIZES:   FILE 1:   100.7 MBYTE,  FILE 4:    62.9 MBYTE,   TOTAL:    163.7 MBYTE

 OPERATOR DM      FOR CENTER  0  COORDINATES:    0.000000    0.000000    0.000000


 **********************************************************************************************************************************
 DATASETS  * FILE   NREC   LENGTH (MB)   RECORD NAMES
              1      19       63.47       500      610      700      900      950      970     1000      129      960     1100   
                                          VAR    BASINP    GEOM    SYMINP    ZMAT    AOBASIS   BASIS     P2S    ABASIS      S 
                                         1400     1410     1200     1210     1080     1600     1650     1300     1700   
                                           T        V       H0       H01     AOSYM     SMH    MOLCAS    ERIS     OPER   

 PROGRAMS   *        TOTAL       INT
 CPU TIMES  *         1.20      1.10
 REAL TIME  *         1.75 SEC
 DISK USED  *       163.98 MB      
 **********************************************************************************************************************************


 PROGRAM * RHF-SCF (CLOSED SHELL)       Authors: W. Meyer, H.-J. Werner


 NUMBER OF ELECTRONS:       7+    7-
 CONVERGENCE THRESHOLDS:    1.00E-10 (Density)    1.00E-13 (Energy)
 MAX. NUMBER OF ITERATIONS:      500
 INTERPOLATION TYPE:            DIIS
 INTERPOLATION STEPS:              2 (START)      1 (STEP)
 LEVEL SHIFTS:                  0.00 (CLOSED)  0.00 (OPEN) 



 Orbital guess generated from atomic densities. Full valence occupancy:    7   2   2   0

 Molecular orbital dump at record        2100.2

 Initial occupancy:   5   1   1   0

 ITERATION    DDIFF          GRAD             ENERGY        2-EL.EN.            DIPOLE MOMENTS         DIIS   ORB.
    1      0.000D+00      0.000D+00       -92.88603093    112.194895    0.00000    0.00000   -1.76276    0    start
    2      0.000D+00      0.910D-02       -92.89519798    111.326483    0.00000    0.00000   -0.90542    1    diag
    3      0.135D-01      0.808D-02       -92.90960758    111.853578    0.00000    0.00000   -1.29908    2    diag
    4      0.601D-02      0.667D-03       -92.90983183    111.818130    0.00000    0.00000   -1.29027    3    diag
    5      0.111D-02      0.144D-03       -92.90984448    111.827099    0.00000    0.00000   -1.28889    4    diag
    6      0.259D-03      0.387D-04       -92.90984521    111.822296    0.00000    0.00000   -1.28898    5    diag
    7      0.548D-04      0.137D-04       -92.90984528    111.823430    0.00000    0.00000   -1.28904    6    diag
    8      0.193D-04      0.267D-05       -92.90984528    111.823386    0.00000    0.00000   -1.28900    7    diag
    9      0.376D-05      0.306D-06       -92.90984528    111.823395    0.00000    0.00000   -1.28899    8    diag
   10      0.508D-06      0.360D-07       -92.90984528    111.823396    0.00000    0.00000   -1.28899    9    orth
   11      0.550D-07      0.451D-08       -92.90984528    111.823396    0.00000    0.00000   -1.28899    9    diag
   12      0.104D-07      0.400D-09       -92.90984528    111.823396    0.00000    0.00000   -1.28899    9    diag
   13      0.103D-08      0.517D-10       -92.90984528    111.823396    0.00000    0.00000   -1.28899    9    diag
   14      0.155D-09      0.528D-11       -92.90984528    111.823396    0.00000    0.00000   -1.28899    9    diag
   15      0.277D-10      0.149D-11       -92.90984528    111.823396    0.00000    0.00000   -1.28899    0    orth

 Final occupancy:   5   1   1   0

 !RHF STATE 1.1 Energy                -92.909845281000
 Nuclear energy                        24.04942280
 One-electron energy                 -172.87096606
 Two-electron energy                   55.91169797
 Virial quotient                       -1.00188395
 !RHF STATE 1.1 Dipole moment           0.00000000     0.00000000    -1.28899443
 Dipole moment /Debye                   0.00000000     0.00000000    -3.27608245

 Orbital energies:

         1.1          2.1          3.1          4.1          5.1          6.1          7.1
    -15.598416   -11.289730    -1.239715    -0.816412    -0.582284     0.023155     0.071749

         1.2          2.2          3.2
     -0.498614     0.072957     0.136705

         1.3          2.3          3.3
     -0.498614     0.072957     0.136705

         1.4          2.4
      0.293721     0.549993

 HOMO      1.2    -0.498614 =     -13.5680eV
 LUMO      6.1     0.023155 =       0.6301eV
 LUMO-HOMO         0.521768 =      14.1980eV


 **********************************************************************************************************************************
 DATASETS  * FILE   NREC   LENGTH (MB)   RECORD NAMES
              1      19       63.47       500      610      700      900      950      970     1000      129      960     1100   
                                          VAR    BASINP    GEOM    SYMINP    ZMAT    AOBASIS   BASIS     P2S    ABASIS      S 
                                         1400     1410     1200     1210     1080     1600     1650     1300     1700   
                                           T        V       H0       H01     AOSYM     SMH    MOLCAS    ERIS     OPER   

              2       4        2.88       700     1000      520     2100   
                                         GEOM     BASIS   MCVARS     RHF  

 PROGRAMS   *        TOTAL        HF       INT
 CPU TIMES  *         1.52      0.32      1.10
 REAL TIME  *         2.18 SEC
 DISK USED  *       163.98 MB      
 **********************************************************************************************************************************


 PROGRAM * CCSD (Closed-shell coupled cluster)     Authors: C. Hampel, H.-J. Werner, 1991, M. Deegan, P.J. Knowles, 1992


 Convergence thresholds:  THRVAR = 1.00D-08  THRDEN = 1.00D-12

 CCSD(T)     terms to be evaluated (factor= 1.000)


 Number of core orbitals:           2 (   2   0   0   0 )
 Number of closed-shell orbitals:   5 (   3   1   1   0 )
 Number of external orbitals:     108 (  44  26  26  12 )

 Molecular orbitals read from record     2100.2  Type=RHF/CANONICAL (state 1.1)

 Number of N-1 electron functions:               5
 Number of N-2 electron functions:              15
 Number of singly external CSFs:               184
 Number of doubly external CSFs:             39026
 Total number of CSFs:                       39211

 Length of J-op  integral file:               0.00 MB
 Length of K-op  integral file:               0.31 MB
 Length of 3-ext integral record:             0.00 MB

 Memory could be reduced to 2.91 Mwords without degradation in triples

 Integral transformation finished. Total CPU:   0.06 sec, npass=  1  Memory used:   0.44 MW

 Reference energy:                    -92.90984528

 MP2 singlet pair energy:              -0.22125266
 MP2 triplet pair energy:              -0.12787003
 MP2 correlation energy:               -0.34912269
 MP2 total energy:                    -93.25896798

 SCS-MP2 correlation energy:           -0.34506677   (PS=  1.200000  PT=  0.333333)
 SCS-MP2 total energy:                -93.25491205

 ITER.      SQ.NORM     CORR.ENERGY   TOTAL ENERGY   ENERGY CHANGE        DEN1      VAR(S)    VAR(P)  DIIS     TIME  TIME/IT
   1      1.11496853    -0.35192683   -93.26177211    -0.00280413     0.00965750  0.24D-02  0.30D-02  1  1     0.12     0.06
   2      1.12432870    -0.35235008   -93.26219536    -0.00042326    -0.00984185  0.50D-04  0.40D-03  2  2     0.18     0.06
   3      1.12924462    -0.35257650   -93.26242178    -0.00022641    -0.00246044  0.15D-04  0.40D-04  3  3     0.23     0.06
   4      1.13129833    -0.35266368   -93.26250896    -0.00008718    -0.00073804  0.47D-06  0.43D-05  4  4     0.28     0.06
   5      1.13176188    -0.35266072   -93.26250600     0.00000296    -0.00012828  0.87D-07  0.38D-06  5  5     0.33     0.06
   6      1.13185857    -0.35265870   -93.26250398     0.00000202    -0.00002566  0.80D-08  0.28D-07  6  6     0.39     0.06
   7      1.13186576    -0.35266058   -93.26250586    -0.00000188    -0.00000215  0.90D-09  0.25D-08  6  1     0.45     0.06
   8      1.13186595    -0.35266109   -93.26250637    -0.00000051     0.00000052  0.73D-10  0.20D-09  6  2     0.50     0.06
   9      1.13186635    -0.35266115   -93.26250643    -0.00000006    -0.00000026  0.98D-11  0.13D-10  6  3     0.56     0.06
  10      1.13186626    -0.35266118   -93.26250646    -0.00000003     0.00000008  0.10D-11  0.12D-11  6  4     0.62     0.06
  11      1.13186619    -0.35266119   -93.26250647    -0.00000001     0.00000003  0.16D-12  0.12D-12  6  5     0.68     0.06
  12      1.13186610    -0.35266120   -93.26250648    -0.00000000     0.00000003  0.16D-13  0.13D-13  6  1     0.73     0.06
  13      1.13186607    -0.35266120   -93.26250648    -0.00000000     0.00000001  0.12D-14  0.91D-15  6  6     0.79     0.06
  14      1.13186607    -0.35266120   -93.26250648    -0.00000000     0.00000000  0.34D-15  0.15D-15  6  2     0.85     0.06
  15      1.13186607    -0.35266120   -93.26250648     0.00000000     0.00000000  0.29D-16  0.22D-16  6  4     0.90     0.06
  16      1.13186607    -0.35266120   -93.26250648     0.00000000    -0.00000000  0.31D-17  0.21D-17  6  3     0.96     0.06
  17      1.13186607    -0.35266120   -93.26250648     0.00000000    -0.00000000  0.25D-18  0.26D-18  6  5     1.02     0.06
  18      1.13186607    -0.35266120   -93.26250648     0.00000000    -0.00000000  0.31D-19  0.40D-19  6  6     1.06     0.06
  19      1.13186607    -0.35266120   -93.26250648    -0.00000000    -0.00000000  0.35D-20  0.33D-20  6  1     1.12     0.06
  20      1.13186607    -0.35266120   -93.26250648    -0.00000000     0.00000000  0.49D-21  0.43D-21  6  2     1.17     0.06
  21      1.13186607    -0.35266120   -93.26250648    -0.00000000    -0.00000000  0.11D-21  0.55D-22  6  4     1.22     0.06

 Norm of t1 vector:      0.06283846      S-energy:     0.00000000      T1 diagnostic:  0.01405111
                                                                       D1 diagnostic:  0.02786079


 Total CPU time for triples:      0.26 sec


 RESULTS
 =======

  Reference energy                    -92.909845281000
  CCSD singlet pair energy             -0.245384734384
  CCSD triplet pair energy             -0.107276465267
  CCSD correlation energy              -0.352661199650

  Triples (T) contribution             -0.018253344337
  Total correlation energy             -0.370914543987

  CCSD total energy                   -93.262506480651
  CCSD[T] energy                      -93.281537459316
  CCSD-T energy                       -93.280373544585
 !CCSD(T) total energy                -93.280759824988

 Timing summary (sec):

 STEP                 CPU(USER)    SYS     CPU(TOT)    WALL
 Transformation          0.06      0.01      0.07      0.07
 CCSD iterations         1.16      0.18      1.34      1.35
 Triples                 0.26      0.01      0.27      0.27

 Program statistics:

 Available memory in ccsd:               994999800
 Min. memory needed in ccsd:                166428
 Max. memory used in ccsd:                  196881
 Max. memory used in cckext:                233267 (21 integral passes)



 **********************************************************************************************************************************
 DATASETS  * FILE   NREC   LENGTH (MB)   RECORD NAMES
              1      20       70.98       500      610      700      900      950      970     1000      129      960     1100   
                                          VAR    BASINP    GEOM    SYMINP    ZMAT    AOBASIS   BASIS     P2S    ABASIS      S 
                                         1400     1410     1200     1210     1080     1600     1650     1300     1700     1380   
                                           T        V       H0       H01     AOSYM     SMH    MOLCAS    ERIS     OPER     JKOP   

              2       4        2.88       700     1000      520     2100   
                                         GEOM     BASIS   MCVARS     RHF  

 PROGRAMS   *        TOTAL   CCSD(T)        HF       INT
 CPU TIMES  *         3.03      1.50      0.32      1.10
 REAL TIME  *         3.89 SEC
 DISK USED  *       163.98 MB      
 **********************************************************************************************************************************

 CCSD(T)/aug-cc-pVTZ energy=    -93.280759824988

        CCSD(T)         HF-SCF  
    -93.28075982    -92.90984528
 **********************************************************************************************************************************
 Molpro calculation terminated
 Variable memory released
