
 Primary working directories    : /tmp/r2666/232511.maple
 Secondary working directories  : /tmp/r2666/232511.maple
 Wavefunction directory         : /ddn/home4/r2666/wfu/
 Main file repository           : /tmp/r2666/232511.maple/

 SHA1      : d5ffa45e93fdbca01ffc919aa182cfdae0147319
 NAME      : 2015.1.35
 ARCHNAME  : linux/x86_64
 FC        : /opt/intel/composer_xe_2015.1.133/bin/intel64/ifort
 BLASLIB   : -Wl,-_start-group /opt/intel/mkl/lib/intel64/libmkl_intel_ilp64.a /opt/intel/mkl/lib/intel64/libmkl_intel_thread.a /opt/intel/mkl/lib/intel64/libmkl_core.a -Wl,-_end-group
 id        : olemiss

 Nodes     nprocs
 cn090        1

 Using customized tuning parameters: mindgm=1; mindgv=20; mindgc=4; mindgr=1; noblas=0; minvec=7
 default implementation of scratch files=df  

 ***,hcn CCSD(T)/TZ-F12 QFF
 memory, 995, m;
 gthresh,energy=1.d-12,zero=1.d-22,oneint=1.d-22,twoint=1.d-22;
 gthresh,optgrad=1.d-8,optstep=1.d-8;
 nocompress;
 geomtyp=xyz
 bohr
 geometry={
 3
         10        10
 N        0.0000000000        0.0000000000        1.1184023044
 C        0.0000000000        0.0000000000       -1.0415501027
 H        0.0000000000        0.0000000000       -3.0739221836
 }
 
 basis=avtz
   {hf,maxit=500;accu,20;}
 {ccsd(t),nocheck,maxit=250;orbital,IGNORE_ERROR;}

 Variables initialized (889), CPU time= 0.00 sec
 Commands  initialized (702), CPU time= 0.02 sec, 572 directives.
 Default parameters read. Elapsed time= 0.04 sec

 Checking input...
 Passed
1


                                         ***  PROGRAM SYSTEM MOLPRO  ***
                                       Copyright, TTI GmbH Stuttgart, 2015
                                    Version 2015.1 linked Jul  9 2018 13:16:40


 **********************************************************************************************************************************
 LABEL *   hcn CCSD(T)/TZ-F12 QFF                                                        
  64 bit serial version                                                                  DATE: 06-Feb-20          TIME: 09:54:11  
 **********************************************************************************************************************************

 SHA1:             d5ffa45e93fdbca01ffc919aa182cfdae0147319
 **********************************************************************************************************************************

 THRESHOLDS:

 ZERO    =  1.00D-22  ONEINT  =  1.00D-22  TWOINT  =  1.00D-22  PREFAC  =  1.00D-14  LOCALI  =  1.00D-09  EORDER  =  1.00D-04
 ENERGY  =  1.00D-12  ETEST   =  0.00D+00  EDENS   =  0.00D+00  THRDEDEF=  1.00D-06  GRADIENT=  1.00D-02  STEP    =  1.00D-03
 ORBITAL =  1.00D-05  CIVEC   =  1.00D-05  COEFF   =  1.00D-04  PRINTCI =  5.00D-02  PUNCHCI =  9.90D+01  OPTGRAD =  3.00D-04
 OPTENERG=  1.00D-06  OPTSTEP =  3.00D-04  THRGRAD =  1.00D-10  COMPRESS=  1.00D-11  VARMIN  =  1.00D-07  VARMAX  =  1.00D-03
 THRDOUB =  0.00D+00  THRDIV  =  1.00D-05  THRRED  =  1.00D-07  THRPSP  =  1.00D+00  THRDC   =  1.00D-10  THRCS   =  1.00D-10
 THRNRM  =  1.00D-08  THREQ   =  0.00D+00  THRDE   =  1.00D+00  THRREF  =  1.00D-05  SPARFAC =  1.00D+00  THRDLP  =  1.00D-07
 THRDIA  =  1.00D-10  THRDLS  =  1.00D-07  THRGPS  =  0.00D+00  THRKEX  =  0.00D+00  THRDIS  =  2.00D-01  THRVAR  =  1.00D-10
 THRLOC  =  1.00D-06  THRGAP  =  1.00D-06  THRLOCT = -1.00D+00  THRGAPT = -1.00D+00  THRORB  =  1.00D-06  THRMLTP =  0.00D+00
 THRCPQCI=  1.00D-10  KEXTA   =  0.00D+00  THRCOARS=  0.00D+00  SYMTOL  =  1.00D-06  GRADTOL =  1.00D-06  THROVL  =  1.00D-08
 THRORTH =  1.00D-08  GRID    =  1.00D-06  GRIDMAX =  1.00D-03  DTMAX   =  0.00D+00  THROCCDE=  1.00D-01  THROCCDE=  1.00D-01



 THRESHOLDS:

 ZERO    =  1.00D-22  ONEINT  =  1.00D-22  TWOINT  =  1.00D-22  PREFAC  =  1.00D-14  LOCALI  =  1.00D-09  EORDER  =  1.00D-04
 ENERGY  =  1.00D-12  ETEST   =  0.00D+00  EDENS   =  0.00D+00  THRDEDEF=  1.00D-06  GRADIENT=  1.00D-02  STEP    =  1.00D-03
 ORBITAL =  1.00D-05  CIVEC   =  1.00D-05  COEFF   =  1.00D-04  PRINTCI =  5.00D-02  PUNCHCI =  9.90D+01  OPTGRAD =  1.00D-08
 OPTENERG=  1.00D-06  OPTSTEP =  1.00D-08  THRGRAD =  1.00D-10  COMPRESS=  1.00D-11  VARMIN  =  1.00D-07  VARMAX  =  1.00D-03
 THRDOUB =  0.00D+00  THRDIV  =  1.00D-05  THRRED  =  1.00D-07  THRPSP  =  1.00D+00  THRDC   =  1.00D-10  THRCS   =  1.00D-10
 THRNRM  =  1.00D-08  THREQ   =  0.00D+00  THRDE   =  1.00D+00  THRREF  =  1.00D-05  SPARFAC =  1.00D+00  THRDLP  =  1.00D-07
 THRDIA  =  1.00D-10  THRDLS  =  1.00D-07  THRGPS  =  0.00D+00  THRKEX  =  0.00D+00  THRDIS  =  2.00D-01  THRVAR  =  1.00D-10
 THRLOC  =  1.00D-06  THRGAP  =  1.00D-06  THRLOCT = -1.00D+00  THRGAPT = -1.00D+00  THRORB  =  1.00D-06  THRMLTP =  0.00D+00
 THRCPQCI=  1.00D-10  KEXTA   =  0.00D+00  THRCOARS=  0.00D+00  SYMTOL  =  1.00D-06  GRADTOL =  1.00D-06  THROVL  =  1.00D-08
 THRORTH =  1.00D-08  GRID    =  1.00D-06  GRIDMAX =  1.00D-03  DTMAX   =  0.00D+00  THROCCDE=  1.00D-01  THROCCDE=  1.00D-01



 Input parameters for SORTINT:

 COMPRESS =    0.000000
 C_FINAL  =    1.000000
 DEBUG    =   -1.000000
 C_SORT1  =    0.000000
 C_SEWARD =    0.000000
 THRESH   =    0.000000
 IO       =  molpro                                                          
 SPRI     =    0.000000
 SETTING GEOMTYP        =    XYZ
 ZUNIT=BOHR
 

 Variable memory set to  995000000 words,  buffer space   230000 words

 SETTING BASIS          =    AVTZ


 Recomputing integrals since basis changed


 Using spherical harmonics

 Library entry N      S aug-cc-pVTZ          selected for orbital group  1
 Library entry N      P aug-cc-pVTZ          selected for orbital group  1
 Library entry N      D aug-cc-pVTZ          selected for orbital group  1
 Library entry N      F aug-cc-pVTZ          selected for orbital group  1
 Library entry C      S aug-cc-pVTZ          selected for orbital group  2
 Library entry C      P aug-cc-pVTZ          selected for orbital group  2
 Library entry C      D aug-cc-pVTZ          selected for orbital group  2
 Library entry C      F aug-cc-pVTZ          selected for orbital group  2
 Library entry H      S aug-cc-pVTZ          selected for orbital group  3
 Library entry H      P aug-cc-pVTZ          selected for orbital group  3
 Library entry H      D aug-cc-pVTZ          selected for orbital group  3


 PROGRAM * SEWARD (Integral evaluation for generally contracted gaussian basis sets)     Author: Roland Lindh, 1990

 Geometry written to block  1 of record 700


 Point group  C2v 



 ATOMIC COORDINATES

 NR  ATOM    CHARGE       X              Y              Z

   1  N       7.00    0.000000000    0.000000000    1.118402304
   2  C       6.00    0.000000000    0.000000000   -1.041550103
   3  H       1.00    0.000000000    0.000000000   -3.073922184

 Bond lengths in Bohr (Angstrom)

 1-2  2.159952407  2-3  2.032372081
     ( 1.142997591)     ( 1.075484989)

 Bond angles

  1-2-3  180.00000000

 NUCLEAR CHARGE:                   14
 NUMBER OF PRIMITIVE AOS:         161
 NUMBER OF SYMMETRY AOS:          141
 NUMBER OF CONTRACTIONS:          115   (  49A1  +  27B1  +  27B2  +  12A2  )
 NUMBER OF CORE ORBITALS:           2   (   2A1  +   0B1  +   0B2  +   0A2  )
 NUMBER OF VALENCE ORBITALS:        9   (   5A1  +   2B1  +   2B2  +   0A2  )


 NUCLEAR REPULSION ENERGY   24.06680629

 EXTRA SYMMETRY OF AOS IN SYMMETRY 1:   1 1 1 1 1 1 1 1 1 1   2 1 2 1 2 1 2 1 2 1   1 1 1 1 1 1 1 1 1 2   1 2 1 2 1 2 1 2 1 1
                                        1 1 1 1 1 1 2 1 2
 EXTRA SYMMETRY OF AOS IN SYMMETRY 2:   1 1 1 1 1 1 1 1 2 1   2 1 1 1 1 1 1 1 1 2   1 2 1 1 1 1 1
 EXTRA SYMMETRY OF AOS IN SYMMETRY 3:   1 1 1 1 1 1 1 1 2 1   2 1 1 1 1 1 1 1 1 2   1 2 1 1 1 1 1

 Eigenvalues of metric

         1 0.882E-04 0.196E-03 0.627E-03 0.122E-02 0.136E-02 0.177E-02 0.522E-02 0.696E-02
         2 0.220E-02 0.538E-02 0.125E-01 0.165E-01 0.308E-01 0.445E-01 0.804E-01 0.102E+00
         3 0.220E-02 0.538E-02 0.125E-01 0.165E-01 0.308E-01 0.445E-01 0.804E-01 0.102E+00
         4 0.378E-01 0.113E+00 0.146E+00 0.332E+00 0.482E+00 0.510E+00 0.742E+00 0.897E+00


 Contracted 2-electron integrals neglected if value below      1.0D-22

        5028388. INTEGRALS WRITTEN OUT IN    1228 BLOCKS ON RECORD 1290 OF FILE 1


 NUMBER OF SORTED TWO-ELECTRON INTEGRALS:    5853730.     BUFFER LENGTH:  32768
 NUMBER OF SEGMENTS:   1  SEGMENT LENGTH:    5853730      RECORD LENGTH: 524288

 Memory used in sort:       6.41 MW

 SORT1 READ     5028388. AND WROTE     5163463. INTEGRALS IN     15 RECORDS. CPU TIME:     0.10 SEC, REAL TIME:     0.14 SEC
 SORT2 READ     5163463. AND WROTE     5853730. INTEGRALS IN      1 RECORDS. CPU TIME:     0.12 SEC, REAL TIME:     0.14 SEC

 FILE SIZES:   FILE 1:   100.7 MBYTE,  FILE 4:    62.9 MBYTE,   TOTAL:    163.7 MBYTE

 OPERATOR DM      FOR CENTER  0  COORDINATES:    0.000000    0.000000    0.000000


 **********************************************************************************************************************************
 DATASETS  * FILE   NREC   LENGTH (MB)   RECORD NAMES
              1      19       63.47       500      610      700      900      950      970     1000      129      960     1100   
                                          VAR    BASINP    GEOM    SYMINP    ZMAT    AOBASIS   BASIS     P2S    ABASIS      S 
                                         1400     1410     1200     1210     1080     1600     1650     1300     1700   
                                           T        V       H0       H01     AOSYM     SMH    MOLCAS    ERIS     OPER   

 PROGRAMS   *        TOTAL       INT
 CPU TIMES  *         1.16      1.06
 REAL TIME  *         3.90 SEC
 DISK USED  *       163.98 MB      
 **********************************************************************************************************************************


 PROGRAM * RHF-SCF (CLOSED SHELL)       Authors: W. Meyer, H.-J. Werner


 NUMBER OF ELECTRONS:       7+    7-
 CONVERGENCE THRESHOLDS:    1.00E-10 (Density)    1.00E-13 (Energy)
 MAX. NUMBER OF ITERATIONS:      500
 INTERPOLATION TYPE:            DIIS
 INTERPOLATION STEPS:              2 (START)      1 (STEP)
 LEVEL SHIFTS:                  0.00 (CLOSED)  0.00 (OPEN) 



 Orbital guess generated from atomic densities. Full valence occupancy:    7   2   2   0

 Molecular orbital dump at record        2100.2

 Initial occupancy:   5   1   1   0

 ITERATION    DDIFF          GRAD             ENERGY        2-EL.EN.            DIPOLE MOMENTS         DIIS   ORB.
    1      0.000D+00      0.000D+00       -92.88559063    112.298949    0.00000    0.00000   -1.78484    0    start
    2      0.000D+00      0.928D-02       -92.89503687    111.373887    0.00000    0.00000   -0.91370    1    diag
    3      0.135D-01      0.822D-02       -92.90991193    111.915172    0.00000    0.00000   -1.30871    2    diag
    4      0.610D-02      0.654D-03       -92.91013037    111.884605    0.00000    0.00000   -1.29998    3    diag
    5      0.108D-02      0.141D-03       -92.91014304    111.892092    0.00000    0.00000   -1.29854    4    diag
    6      0.259D-03      0.382D-04       -92.91014373    111.887718    0.00000    0.00000   -1.29868    5    diag
    7      0.538D-04      0.133D-04       -92.91014380    111.888921    0.00000    0.00000   -1.29873    6    diag
    8      0.187D-04      0.262D-05       -92.91014380    111.888868    0.00000    0.00000   -1.29870    7    diag
    9      0.359D-05      0.299D-06       -92.91014380    111.888877    0.00000    0.00000   -1.29869    8    diag
   10      0.490D-06      0.347D-07       -92.91014380    111.888877    0.00000    0.00000   -1.29869    9    orth
   11      0.534D-07      0.433D-08       -92.91014380    111.888877    0.00000    0.00000   -1.29869    9    diag
   12      0.990D-08      0.382D-09       -92.91014380    111.888877    0.00000    0.00000   -1.29869    9    diag
   13      0.953D-09      0.435D-10       -92.91014380    111.888877    0.00000    0.00000   -1.29869    9    diag
   14      0.150D-09      0.534D-11       -92.91014380    111.888877    0.00000    0.00000   -1.29869    9    diag
   15      0.241D-10      0.118D-11       -92.91014380    111.888877    0.00000    0.00000   -1.29869    9    diag
   16      0.478D-11      0.326D-12       -92.91014380    111.888877    0.00000    0.00000   -1.29869    9    diag
   17      0.173D-11      0.999D-13       -92.91014380    111.888877    0.00000    0.00000   -1.29869    9    diag
   18      0.138D-11      0.909D-13       -92.91014380    111.888877    0.00000    0.00000   -1.29869    9    diag
   19      0.784D-12      0.604D-13       -92.91014380    111.888877    0.00000    0.00000   -1.29869    0    orth

 Final occupancy:   5   1   1   0

 !RHF STATE 1.1 Energy                -92.910143799469
 Nuclear energy                        24.06680629
 One-electron energy                 -172.92138872
 Two-electron energy                   55.94443862
 Virial quotient                       -1.00191405
 !RHF STATE 1.1 Dipole moment           0.00000000     0.00000000    -1.29869261
 Dipole moment /Debye                   0.00000000     0.00000000    -3.30073115

 Orbital energies:

         1.1          2.1          3.1          4.1          5.1          6.1          7.1
    -15.596211   -11.289386    -1.241804    -0.807823    -0.581338     0.023095     0.071669

         1.2          2.2          3.2
     -0.499847     0.072976     0.137486

         1.3          2.3          3.3
     -0.499847     0.072976     0.137486

         1.4          2.4
      0.293957     0.550376

 HOMO      1.2    -0.499847 =     -13.6015eV
 LUMO      6.1     0.023095 =       0.6285eV
 LUMO-HOMO         0.522942 =      14.2300eV


 **********************************************************************************************************************************
 DATASETS  * FILE   NREC   LENGTH (MB)   RECORD NAMES
              1      19       63.47       500      610      700      900      950      970     1000      129      960     1100   
                                          VAR    BASINP    GEOM    SYMINP    ZMAT    AOBASIS   BASIS     P2S    ABASIS      S 
                                         1400     1410     1200     1210     1080     1600     1650     1300     1700   
                                           T        V       H0       H01     AOSYM     SMH    MOLCAS    ERIS     OPER   

              2       4        2.88       700     1000      520     2100   
                                         GEOM     BASIS   MCVARS     RHF  

 PROGRAMS   *        TOTAL        HF       INT
 CPU TIMES  *         1.53      0.38      1.06
 REAL TIME  *         4.40 SEC
 DISK USED  *       163.98 MB      
 **********************************************************************************************************************************


 PROGRAM * CCSD (Closed-shell coupled cluster)     Authors: C. Hampel, H.-J. Werner, 1991, M. Deegan, P.J. Knowles, 1992


 Convergence thresholds:  THRVAR = 1.00D-08  THRDEN = 1.00D-12

 CCSD(T)     terms to be evaluated (factor= 1.000)


 Number of core orbitals:           2 (   2   0   0   0 )
 Number of closed-shell orbitals:   5 (   3   1   1   0 )
 Number of external orbitals:     108 (  44  26  26  12 )

 Molecular orbitals read from record     2100.2  Type=RHF/CANONICAL (state 1.1)

 Number of N-1 electron functions:               5
 Number of N-2 electron functions:              15
 Number of singly external CSFs:               184
 Number of doubly external CSFs:             39026
 Total number of CSFs:                       39211

 Length of J-op  integral file:               0.00 MB
 Length of K-op  integral file:               0.31 MB
 Length of 3-ext integral record:             0.00 MB

 Memory could be reduced to 2.91 Mwords without degradation in triples

 Integral transformation finished. Total CPU:   0.05 sec, npass=  1  Memory used:   0.44 MW

 Reference energy:                    -92.91014380

 MP2 singlet pair energy:              -0.22084280
 MP2 triplet pair energy:              -0.12748521
 MP2 correlation energy:               -0.34832801
 MP2 total energy:                    -93.25847181

 SCS-MP2 correlation energy:           -0.34433549   (PS=  1.200000  PT=  0.333333)
 SCS-MP2 total energy:                -93.25447929

 ITER.      SQ.NORM     CORR.ENERGY   TOTAL ENERGY   ENERGY CHANGE        DEN1      VAR(S)    VAR(P)  DIIS     TIME  TIME/IT
   1      1.11471275    -0.35139629   -93.26154009    -0.00306828     0.00925209  0.23D-02  0.29D-02  1  1     0.13     0.07
   2      1.12402488    -0.35187076   -93.26201456    -0.00047447    -0.00977021  0.49D-04  0.40D-03  2  2     0.19     0.07
   3      1.12891322    -0.35209825   -93.26224205    -0.00022749    -0.00245488  0.15D-04  0.39D-04  3  3     0.25     0.07
   4      1.13092734    -0.35218356   -93.26232736    -0.00008530    -0.00072716  0.47D-06  0.42D-05  4  4     0.30     0.07
   5      1.13138007    -0.35218134   -93.26232514     0.00000222    -0.00012562  0.97D-07  0.37D-06  5  5     0.36     0.07
   6      1.13147711    -0.35217914   -93.26232294     0.00000220    -0.00002584  0.79D-08  0.27D-07  6  6     0.41     0.07
   7      1.13148449    -0.35218090   -93.26232470    -0.00000176    -0.00000222  0.90D-09  0.24D-08  6  1     0.47     0.07
   8      1.13148482    -0.35218138   -93.26232518    -0.00000048     0.00000045  0.87D-10  0.19D-09  6  2     0.52     0.07
   9      1.13148523    -0.35218144   -93.26232524    -0.00000006    -0.00000025  0.89D-11  0.13D-10  6  3     0.56     0.06
  10      1.13148515    -0.35218147   -93.26232527    -0.00000003     0.00000008  0.11D-11  0.13D-11  6  4     0.62     0.07
  11      1.13148508    -0.35218148   -93.26232528    -0.00000001     0.00000003  0.13D-12  0.14D-12  6  5     0.68     0.07
  12      1.13148502    -0.35218148   -93.26232528    -0.00000000     0.00000002  0.14D-13  0.27D-13  6  6     0.73     0.07
  13      1.13148499    -0.35218149   -93.26232528    -0.00000000     0.00000001  0.13D-14  0.62D-14  6  1     0.79     0.07
  14      1.13148497    -0.35218149   -93.26232529    -0.00000000     0.00000000  0.70D-16  0.84D-15  6  2     0.86     0.07
  15      1.13148497    -0.35218149   -93.26232529     0.00000000     0.00000000  0.22D-16  0.91D-16  6  3     0.92     0.07
  16      1.13148497    -0.35218149   -93.26232528     0.00000000     0.00000000  0.36D-17  0.66D-17  6  5     0.98     0.07
  17      1.13148497    -0.35218149   -93.26232528    -0.00000000     0.00000000  0.22D-18  0.26D-18  6  4     1.02     0.07
  18      1.13148497    -0.35218149   -93.26232528     0.00000000     0.00000000  0.54D-19  0.38D-19  6  6     1.07     0.07
  19      1.13148497    -0.35218149   -93.26232528    -0.00000000     0.00000000  0.11D-19  0.51D-20  6  1     1.13     0.07

 Norm of t1 vector:      0.06232364      S-energy:     0.00000000      T1 diagnostic:  0.01393599
                                                                       D1 diagnostic:  0.02749382


 Total CPU time for triples:      0.26 sec


 RESULTS
 =======

  Reference energy                    -92.910143799469
  CCSD singlet pair energy             -0.245042509990
  CCSD triplet pair energy             -0.107138975537
  CCSD correlation energy              -0.352181485526

  Triples (T) contribution             -0.018146771653
  Total correlation energy             -0.370328257179

  CCSD total energy                   -93.262325284995
  CCSD[T] energy                      -93.281234583964
  CCSD-T energy                       -93.280092336616
 !CCSD(T) total energy                -93.280472056648

 Timing summary (sec):

 STEP                 CPU(USER)    SYS     CPU(TOT)    WALL
 Transformation          0.05      0.02      0.07      0.09
 CCSD iterations         1.08      0.20      1.28      1.28
 Triples                 0.26      0.03      0.29      0.29

 Program statistics:

 Available memory in ccsd:               994999800
 Min. memory needed in ccsd:                166428
 Max. memory used in ccsd:                  196881
 Max. memory used in cckext:                233267 (19 integral passes)



 **********************************************************************************************************************************
 DATASETS  * FILE   NREC   LENGTH (MB)   RECORD NAMES
              1      20       70.98       500      610      700      900      950      970     1000      129      960     1100   
                                          VAR    BASINP    GEOM    SYMINP    ZMAT    AOBASIS   BASIS     P2S    ABASIS      S 
                                         1400     1410     1200     1210     1080     1600     1650     1300     1700     1380   
                                           T        V       H0       H01     AOSYM     SMH    MOLCAS    ERIS     OPER     JKOP   

              2       4        2.88       700     1000      520     2100   
                                         GEOM     BASIS   MCVARS     RHF  

 PROGRAMS   *        TOTAL   CCSD(T)        HF       INT
 CPU TIMES  *         2.94      1.41      0.38      1.06
 REAL TIME  *         6.09 SEC
 DISK USED  *       163.98 MB      
 **********************************************************************************************************************************

 CCSD(T)/aug-cc-pVTZ energy=    -93.280472056648

        CCSD(T)         HF-SCF  
    -93.28047206    -92.91014380
 **********************************************************************************************************************************
 Molpro calculation terminated
 Variable memory released
