
 Primary working directories    : /tmp/r2666/232517.maple
 Secondary working directories  : /tmp/r2666/232517.maple
 Wavefunction directory         : /ddn/home4/r2666/wfu/
 Main file repository           : /tmp/r2666/232517.maple/

 SHA1      : d5ffa45e93fdbca01ffc919aa182cfdae0147319
 NAME      : 2015.1.35
 ARCHNAME  : linux/x86_64
 FC        : /opt/intel/composer_xe_2015.1.133/bin/intel64/ifort
 BLASLIB   : -Wl,-_start-group /opt/intel/mkl/lib/intel64/libmkl_intel_ilp64.a /opt/intel/mkl/lib/intel64/libmkl_intel_thread.a /opt/intel/mkl/lib/intel64/libmkl_core.a -Wl,-_end-group
 id        : olemiss

 Nodes     nprocs
 cn079        1

 Using customized tuning parameters: mindgm=1; mindgv=20; mindgc=4; mindgr=1; noblas=0; minvec=7
 default implementation of scratch files=df  

 ***,hcn CCSD(T)/TZ-F12 QFF
 memory, 995, m;
 gthresh,energy=1.d-12,zero=1.d-22,oneint=1.d-22,twoint=1.d-22;
 gthresh,optgrad=1.d-8,optstep=1.d-8;
 nocompress;
 geomtyp=xyz
 bohr
 geometry={
 3
         16        16
 N       -0.0046066808       -0.0000000631        1.1183537398
 C        0.0095917471        0.0000000016       -1.0510008334
 H       -0.0049850663        0.0000000614       -3.0644228884
 }
 
 basis=avtz
   {hf,maxit=500;accu,20;}
 {ccsd(t),nocheck,maxit=250;orbital,IGNORE_ERROR;}

 Variables initialized (889), CPU time= 0.00 sec
 Commands  initialized (702), CPU time= 0.01 sec, 572 directives.
 Default parameters read. Elapsed time= 0.04 sec

 Checking input...
 Passed
1


                                         ***  PROGRAM SYSTEM MOLPRO  ***
                                       Copyright, TTI GmbH Stuttgart, 2015
                                    Version 2015.1 linked Jul  9 2018 13:16:40


 **********************************************************************************************************************************
 LABEL *   hcn CCSD(T)/TZ-F12 QFF                                                        
  64 bit serial version                                                                  DATE: 06-Feb-20          TIME: 09:54:16  
 **********************************************************************************************************************************

 SHA1:             d5ffa45e93fdbca01ffc919aa182cfdae0147319
 **********************************************************************************************************************************

 THRESHOLDS:

 ZERO    =  1.00D-22  ONEINT  =  1.00D-22  TWOINT  =  1.00D-22  PREFAC  =  1.00D-14  LOCALI  =  1.00D-09  EORDER  =  1.00D-04
 ENERGY  =  1.00D-12  ETEST   =  0.00D+00  EDENS   =  0.00D+00  THRDEDEF=  1.00D-06  GRADIENT=  1.00D-02  STEP    =  1.00D-03
 ORBITAL =  1.00D-05  CIVEC   =  1.00D-05  COEFF   =  1.00D-04  PRINTCI =  5.00D-02  PUNCHCI =  9.90D+01  OPTGRAD =  3.00D-04
 OPTENERG=  1.00D-06  OPTSTEP =  3.00D-04  THRGRAD =  1.00D-10  COMPRESS=  1.00D-11  VARMIN  =  1.00D-07  VARMAX  =  1.00D-03
 THRDOUB =  0.00D+00  THRDIV  =  1.00D-05  THRRED  =  1.00D-07  THRPSP  =  1.00D+00  THRDC   =  1.00D-10  THRCS   =  1.00D-10
 THRNRM  =  1.00D-08  THREQ   =  0.00D+00  THRDE   =  1.00D+00  THRREF  =  1.00D-05  SPARFAC =  1.00D+00  THRDLP  =  1.00D-07
 THRDIA  =  1.00D-10  THRDLS  =  1.00D-07  THRGPS  =  0.00D+00  THRKEX  =  0.00D+00  THRDIS  =  2.00D-01  THRVAR  =  1.00D-10
 THRLOC  =  1.00D-06  THRGAP  =  1.00D-06  THRLOCT = -1.00D+00  THRGAPT = -1.00D+00  THRORB  =  1.00D-06  THRMLTP =  0.00D+00
 THRCPQCI=  1.00D-10  KEXTA   =  0.00D+00  THRCOARS=  0.00D+00  SYMTOL  =  1.00D-06  GRADTOL =  1.00D-06  THROVL  =  1.00D-08
 THRORTH =  1.00D-08  GRID    =  1.00D-06  GRIDMAX =  1.00D-03  DTMAX   =  0.00D+00  THROCCDE=  1.00D-01  THROCCDE=  1.00D-01



 THRESHOLDS:

 ZERO    =  1.00D-22  ONEINT  =  1.00D-22  TWOINT  =  1.00D-22  PREFAC  =  1.00D-14  LOCALI  =  1.00D-09  EORDER  =  1.00D-04
 ENERGY  =  1.00D-12  ETEST   =  0.00D+00  EDENS   =  0.00D+00  THRDEDEF=  1.00D-06  GRADIENT=  1.00D-02  STEP    =  1.00D-03
 ORBITAL =  1.00D-05  CIVEC   =  1.00D-05  COEFF   =  1.00D-04  PRINTCI =  5.00D-02  PUNCHCI =  9.90D+01  OPTGRAD =  1.00D-08
 OPTENERG=  1.00D-06  OPTSTEP =  1.00D-08  THRGRAD =  1.00D-10  COMPRESS=  1.00D-11  VARMIN  =  1.00D-07  VARMAX  =  1.00D-03
 THRDOUB =  0.00D+00  THRDIV  =  1.00D-05  THRRED  =  1.00D-07  THRPSP  =  1.00D+00  THRDC   =  1.00D-10  THRCS   =  1.00D-10
 THRNRM  =  1.00D-08  THREQ   =  0.00D+00  THRDE   =  1.00D+00  THRREF  =  1.00D-05  SPARFAC =  1.00D+00  THRDLP  =  1.00D-07
 THRDIA  =  1.00D-10  THRDLS  =  1.00D-07  THRGPS  =  0.00D+00  THRKEX  =  0.00D+00  THRDIS  =  2.00D-01  THRVAR  =  1.00D-10
 THRLOC  =  1.00D-06  THRGAP  =  1.00D-06  THRLOCT = -1.00D+00  THRGAPT = -1.00D+00  THRORB  =  1.00D-06  THRMLTP =  0.00D+00
 THRCPQCI=  1.00D-10  KEXTA   =  0.00D+00  THRCOARS=  0.00D+00  SYMTOL  =  1.00D-06  GRADTOL =  1.00D-06  THROVL  =  1.00D-08
 THRORTH =  1.00D-08  GRID    =  1.00D-06  GRIDMAX =  1.00D-03  DTMAX   =  0.00D+00  THROCCDE=  1.00D-01  THROCCDE=  1.00D-01



 Input parameters for SORTINT:

 COMPRESS =    0.000000
 C_FINAL  =    1.000000
 DEBUG    =   -1.000000
 C_SORT1  =    0.000000
 C_SEWARD =    0.000000
 THRESH   =    0.000000
 IO       =  molpro                                                          
 SPRI     =    0.000000
 SETTING GEOMTYP        =    XYZ
 ZUNIT=BOHR
 

 Variable memory set to  995000000 words,  buffer space   230000 words

 SETTING BASIS          =    AVTZ


 Recomputing integrals since basis changed


 Using spherical harmonics

 Library entry N      S aug-cc-pVTZ          selected for orbital group  1
 Library entry N      P aug-cc-pVTZ          selected for orbital group  1
 Library entry N      D aug-cc-pVTZ          selected for orbital group  1
 Library entry N      F aug-cc-pVTZ          selected for orbital group  1
 Library entry C      S aug-cc-pVTZ          selected for orbital group  2
 Library entry C      P aug-cc-pVTZ          selected for orbital group  2
 Library entry C      D aug-cc-pVTZ          selected for orbital group  2
 Library entry C      F aug-cc-pVTZ          selected for orbital group  2
 Library entry H      S aug-cc-pVTZ          selected for orbital group  3
 Library entry H      P aug-cc-pVTZ          selected for orbital group  3
 Library entry H      D aug-cc-pVTZ          selected for orbital group  3


 PROGRAM * SEWARD (Integral evaluation for generally contracted gaussian basis sets)     Author: Roland Lindh, 1990

 Geometry written to block  1 of record 700


 Point group  Cs  



 ATOMIC COORDINATES

 NR  ATOM    CHARGE       X              Y              Z

   1  N       7.00   -0.004606681    0.000000000    1.118353740
   2  C       6.00    0.009591747    0.000000000   -1.051000833
   3  H       1.00   -0.004985066    0.000000000   -3.064422888

 Bond lengths in Bohr (Angstrom)

 1-2  2.169401037  2-3  2.013474821
     ( 1.147997590)     ( 1.065484990)

 Bond angles

  1-2-3  179.21020053

 NUCLEAR CHARGE:                   14
 NUMBER OF PRIMITIVE AOS:         161
 NUMBER OF SYMMETRY AOS:          141
 NUMBER OF CONTRACTIONS:          115   (  76A'  +  39A"  )
 NUMBER OF CORE ORBITALS:           2   (   2A'  +   0A"  )
 NUMBER OF VALENCE ORBITALS:        9   (   7A'  +   2A"  )


 NUCLEAR REPULSION ENERGY   24.01363501

 Eigenvalues of metric

         1 0.864E-04 0.196E-03 0.615E-03 0.122E-02 0.137E-02 0.177E-02 0.223E-02 0.517E-02
         2 0.223E-02 0.524E-02 0.126E-01 0.161E-01 0.308E-01 0.380E-01 0.446E-01 0.802E-01


 Contracted 2-electron integrals neglected if value below      1.0D-22

       10788956. INTEGRALS WRITTEN OUT IN    2635 BLOCKS ON RECORD 1290 OF FILE 1


 NUMBER OF SORTED TWO-ELECTRON INTEGRALS:   11433631.     BUFFER LENGTH:  32768
 NUMBER OF SEGMENTS:   1  SEGMENT LENGTH:   11433631      RECORD LENGTH: 524288

 Memory used in sort:      11.99 MW

 SORT1 READ    10788956. AND WROTE    10942524. INTEGRALS IN     32 RECORDS. CPU TIME:     0.15 SEC, REAL TIME:     0.24 SEC
 SORT2 READ    10942524. AND WROTE    11433631. INTEGRALS IN      1 RECORDS. CPU TIME:     0.18 SEC, REAL TIME:     0.23 SEC

 FILE SIZES:   FILE 1:   193.0 MBYTE,  FILE 4:   134.3 MBYTE,   TOTAL:    327.2 MBYTE

 OPERATOR DM      FOR CENTER  0  COORDINATES:    0.000000    0.000000    0.000000


 **********************************************************************************************************************************
 DATASETS  * FILE   NREC   LENGTH (MB)   RECORD NAMES
              1      19      111.05       500      610      700      900      950      970     1000      129      960     1100   
                                          VAR    BASINP    GEOM    SYMINP    ZMAT    AOBASIS   BASIS     P2S    ABASIS      S 
                                         1400     1410     1200     1210     1080     1600     1650     1300     1700   
                                           T        V       H0       H01     AOSYM     SMH    MOLCAS    ERIS     OPER   

 PROGRAMS   *        TOTAL       INT
 CPU TIMES  *         1.31      1.21
 REAL TIME  *         1.99 SEC
 DISK USED  *       327.55 MB      
 **********************************************************************************************************************************


 PROGRAM * RHF-SCF (CLOSED SHELL)       Authors: W. Meyer, H.-J. Werner


 NUMBER OF ELECTRONS:       7+    7-
 CONVERGENCE THRESHOLDS:    1.00E-10 (Density)    1.00E-13 (Energy)
 MAX. NUMBER OF ITERATIONS:      500
 INTERPOLATION TYPE:            DIIS
 INTERPOLATION STEPS:              2 (START)      1 (STEP)
 LEVEL SHIFTS:                  0.00 (CLOSED)  0.00 (OPEN) 



 Orbital guess generated from atomic densities. Full valence occupancy:    9   2

 Molecular orbital dump at record        2100.2

 Initial occupancy:   6   1

 ITERATION    DDIFF          GRAD             ENERGY        2-EL.EN.            DIPOLE MOMENTS         DIIS   ORB.
    1      0.000D+00      0.000D+00       -92.88559878    112.146060    0.00690    0.00000   -1.77575    0    start
    2      0.000D+00      0.708D-02       -92.89479562    111.265229   -0.00234    0.00000   -0.90707    1    diag
    3      0.101D-01      0.630D-02       -92.90955422    111.797546    0.00148    0.00000   -1.30446    2    diag
    4      0.453D-02      0.510D-03       -92.90977698    111.762878    0.00117    0.00000   -1.29570    3    diag
    5      0.818D-03      0.111D-03       -92.90978979    111.771943    0.00107    0.00000   -1.29430    4    diag
    6      0.193D-03      0.302D-04       -92.90979054    111.767113    0.00106    0.00000   -1.29438    5    diag
    7      0.415D-04      0.107D-04       -92.90979061    111.768269    0.00105    0.00000   -1.29445    6    diag
    8      0.145D-04      0.208D-05       -92.90979061    111.768224    0.00105    0.00000   -1.29441    7    diag
    9      0.280D-05      0.238D-06       -92.90979061    111.768233    0.00105    0.00000   -1.29441    8    diag
   10      0.379D-06      0.284D-07       -92.90979061    111.768234    0.00105    0.00000   -1.29441    9    orth
   11      0.427D-07      0.496D-08       -92.90979061    111.768234    0.00105    0.00000   -1.29441    9    diag
   12      0.100D-07      0.201D-08       -92.90979061    111.768234    0.00105    0.00000   -1.29441    9    diag
   13      0.486D-08      0.828D-09       -92.90979061    111.768234    0.00105    0.00000   -1.29441    9    diag
   14      0.294D-08      0.202D-09       -92.90979061    111.768234    0.00105    0.00000   -1.29441    9    diag
   15      0.556D-09      0.803D-10       -92.90979061    111.768234    0.00105    0.00000   -1.29441    9    diag
   16      0.208D-09      0.132D-10       -92.90979061    111.768234    0.00105    0.00000   -1.29441    9    diag
   17      0.360D-10      0.256D-11       -92.90979061    111.768234    0.00105    0.00000   -1.29441    9    diag
   18      0.753D-11      0.966D-12       -92.90979061    111.768234    0.00105    0.00000   -1.29441    9    diag
   19      0.310D-11      0.211D-12       -92.90979061    111.768234    0.00105    0.00000   -1.29441    9    fixocc
   20      0.125D-11      0.108D-12       -92.90979061    111.768234    0.00105    0.00000   -1.29441    0    orth

 Final occupancy:   6   1

 !RHF STATE 1.1 Energy                -92.909790610741
 Nuclear energy                        24.01363501
 One-electron energy                 -172.80754244
 Two-electron energy                   55.88411681
 Virial quotient                       -1.00205416
 !RHF STATE 1.1 Dipole moment           0.00105323     0.00000000    -1.29440758
 Dipole moment /Debye                   0.00267687     0.00000000    -3.28984041

 Orbital energies:

         1.1          2.1          3.1          4.1          5.1          6.1          7.1          8.1
    -15.598228   -11.290480    -1.239588    -0.812470    -0.581954    -0.498466     0.023114     0.071683

         1.2          2.2          3.2
     -0.498468     0.072950     0.136854

 HOMO      6.1    -0.498466 =     -13.5639eV
 LUMO      7.1     0.023114 =       0.6290eV
 LUMO-HOMO         0.521580 =      14.1929eV


 **********************************************************************************************************************************
 DATASETS  * FILE   NREC   LENGTH (MB)   RECORD NAMES
              1      19      111.05       500      610      700      900      950      970     1000      129      960     1100   
                                          VAR    BASINP    GEOM    SYMINP    ZMAT    AOBASIS   BASIS     P2S    ABASIS      S 
                                         1400     1410     1200     1210     1080     1600     1650     1300     1700   
                                           T        V       H0       H01     AOSYM     SMH    MOLCAS    ERIS     OPER   

              2       4        2.94       700     1000      520     2100   
                                         GEOM     BASIS   MCVARS     RHF  

 PROGRAMS   *        TOTAL        HF       INT
 CPU TIMES  *         2.35      1.04      1.21
 REAL TIME  *         3.31 SEC
 DISK USED  *       327.55 MB      
 **********************************************************************************************************************************


 PROGRAM * CCSD (Closed-shell coupled cluster)     Authors: C. Hampel, H.-J. Werner, 1991, M. Deegan, P.J. Knowles, 1992


 Convergence thresholds:  THRVAR = 1.00D-08  THRDEN = 1.00D-12

 CCSD(T)     terms to be evaluated (factor= 1.000)


 Number of core orbitals:           2 (   2   0 )
 Number of closed-shell orbitals:   5 (   4   1 )
 Number of external orbitals:     108 (  70  38 )

 Molecular orbitals read from record     2100.2  Type=RHF/CANONICAL (state 1.1)

 Number of N-1 electron functions:               5
 Number of N-2 electron functions:              15
 Number of singly external CSFs:               318
 Number of doubly external CSFs:             75474
 Total number of CSFs:                       75793

 Length of J-op  integral file:               0.00 MB
 Length of K-op  integral file:               0.54 MB
 Length of 3-ext integral record:             0.00 MB

 Memory could be reduced to 5.36 Mwords without degradation in triples

 Integral transformation finished. Total CPU:   0.13 sec, npass=  1  Memory used:   1.45 MW

 Reference energy:                    -92.90979061

 MP2 singlet pair energy:              -0.22132637
 MP2 triplet pair energy:              -0.12789526
 MP2 correlation energy:               -0.34922164
 MP2 total energy:                    -93.25901225

 SCS-MP2 correlation energy:           -0.34517092   (PS=  1.200000  PT=  0.333333)
 SCS-MP2 total energy:                -93.25496153

 ITER.      SQ.NORM     CORR.ENERGY   TOTAL ENERGY   ENERGY CHANGE        DEN1      VAR(S)    VAR(P)  DIIS     TIME  TIME/IT
   1      1.11515182    -0.35202878   -93.26181939    -0.00280715     0.00967983  0.24D-02  0.30D-02  1  1     0.24     0.13
   2      1.12454672    -0.35245969   -93.26225030    -0.00043091    -0.00986108  0.50D-04  0.40D-03  2  2     0.38     0.13
   3      1.12949571    -0.35268932   -93.26247993    -0.00022962    -0.00247462  0.15D-04  0.40D-04  3  3     0.48     0.13
   4      1.13155696    -0.35277701   -93.26256762    -0.00008770    -0.00074041  0.47D-06  0.43D-05  4  4     0.60     0.13
   5      1.13202285    -0.35277444   -93.26256505     0.00000257    -0.00012874  0.92D-07  0.38D-06  5  5     0.71     0.13
   6      1.13212194    -0.35277227   -93.26256288     0.00000217    -0.00002629  0.82D-08  0.29D-07  6  6     0.81     0.13
   7      1.13212937    -0.35277415   -93.26256476    -0.00000188    -0.00000222  0.91D-09  0.25D-08  6  1     0.94     0.13
   8      1.13212962    -0.35277465   -93.26256526    -0.00000051     0.00000050  0.78D-10  0.20D-09  6  2     1.06     0.14
   9      1.13213003    -0.35277471   -93.26256532    -0.00000006    -0.00000026  0.96D-11  0.13D-10  6  3     1.20     0.14
  10      1.13212994    -0.35277475   -93.26256536    -0.00000003     0.00000008  0.10D-11  0.13D-11  6  4     1.33     0.14
  11      1.13212987    -0.35277476   -93.26256537    -0.00000001     0.00000003  0.15D-12  0.13D-12  6  5     1.47     0.14
  12      1.13212978    -0.35277476   -93.26256537    -0.00000000     0.00000003  0.16D-13  0.14D-13  6  1     1.57     0.14
  13      1.13212975    -0.35277476   -93.26256537    -0.00000000     0.00000001  0.16D-14  0.96D-15  6  6     1.69     0.14
  14      1.13212975    -0.35277476   -93.26256537    -0.00000000     0.00000000  0.47D-15  0.19D-15  6  2     1.81     0.14
  15      1.13212975    -0.35277476   -93.26256537     0.00000000     0.00000000  0.70D-16  0.27D-16  6  4     1.91     0.14
  16      1.13212975    -0.35277476   -93.26256537     0.00000000    -0.00000000  0.88D-17  0.46D-17  6  3     2.03     0.14
  17      1.13212975    -0.35277476   -93.26256537     0.00000000    -0.00000000  0.14D-17  0.72D-18  6  5     2.14     0.14
  18      1.13212975    -0.35277476   -93.26256537     0.00000000    -0.00000000  0.27D-18  0.12D-18  6  1     2.26     0.14
  19      1.13212975    -0.35277476   -93.26256537    -0.00000000     0.00000000  0.46D-19  0.22D-19  6  6     2.39     0.14
  20      1.13212975    -0.35277476   -93.26256537    -0.00000000     0.00000000  0.75D-20  0.38D-20  6  2     2.51     0.14
  21      1.13212975    -0.35277476   -93.26256537     0.00000000    -0.00000000  0.80D-21  0.48D-21  6  4     2.63     0.14

 Norm of t1 vector:      0.06291512      S-energy:    -0.00000000      T1 diagnostic:  0.01406825
                                                                       D1 diagnostic:  0.02784785


 Total CPU time for triples:      0.72 sec


 RESULTS
 =======

  Reference energy                    -92.909790610741
  CCSD singlet pair energy             -0.245506724532
  CCSD triplet pair energy             -0.107268039494
  CCSD correlation energy              -0.352774764027

  Triples (T) contribution             -0.018279205488
  Total correlation energy             -0.371053969515

  CCSD total energy                   -93.262565374767
  CCSD[T] energy                      -93.281623844721
  CCSD-T energy                       -93.280457724441
 !CCSD(T) total energy                -93.280844580256

 Timing summary (sec):

 STEP                 CPU(USER)    SYS     CPU(TOT)    WALL
 Transformation          0.13      0.02      0.15      0.15
 CCSD iterations         2.50      0.44      2.94      2.94
 Triples                 0.72      0.02      0.74      0.74

 Program statistics:

 Available memory in ccsd:               994999800
 Min. memory needed in ccsd:                311547
 Max. memory used in ccsd:                  369090
 Max. memory used in cckext:                513448 (21 integral passes)



 **********************************************************************************************************************************
 DATASETS  * FILE   NREC   LENGTH (MB)   RECORD NAMES
              1      20      125.49       500      610      700      900      950      970     1000      129      960     1100   
                                          VAR    BASINP    GEOM    SYMINP    ZMAT    AOBASIS   BASIS     P2S    ABASIS      S 
                                         1400     1410     1200     1210     1080     1600     1650     1300     1700     1380   
                                           T        V       H0       H01     AOSYM     SMH    MOLCAS    ERIS     OPER     JKOP   

              2       4        2.94       700     1000      520     2100   
                                         GEOM     BASIS   MCVARS     RHF  

 PROGRAMS   *        TOTAL   CCSD(T)        HF       INT
 CPU TIMES  *         5.72      3.37      1.04      1.21
 REAL TIME  *         7.18 SEC
 DISK USED  *       327.55 MB      
 **********************************************************************************************************************************

 CCSD(T)/aug-cc-pVTZ energy=    -93.280844580256

        CCSD(T)         HF-SCF  
    -93.28084458    -92.90979061
 **********************************************************************************************************************************
 Molpro calculation terminated
 Variable memory released
