
 Primary working directories    : /tmp/r2666/232509.maple
 Secondary working directories  : /tmp/r2666/232509.maple
 Wavefunction directory         : /ddn/home4/r2666/wfu/
 Main file repository           : /tmp/r2666/232509.maple/

 SHA1      : d5ffa45e93fdbca01ffc919aa182cfdae0147319
 NAME      : 2015.1.35
 ARCHNAME  : linux/x86_64
 FC        : /opt/intel/composer_xe_2015.1.133/bin/intel64/ifort
 BLASLIB   : -Wl,-_start-group /opt/intel/mkl/lib/intel64/libmkl_intel_ilp64.a /opt/intel/mkl/lib/intel64/libmkl_intel_thread.a /opt/intel/mkl/lib/intel64/libmkl_core.a -Wl,-_end-group
 id        : olemiss

 Nodes     nprocs
 cn087        1

 Using customized tuning parameters: mindgm=1; mindgv=20; mindgc=4; mindgr=1; noblas=0; minvec=7
 default implementation of scratch files=df  

 ***,hcn CCSD(T)/TZ-F12 QFF
 memory, 995, m;
 gthresh,energy=1.d-12,zero=1.d-22,oneint=1.d-22,twoint=1.d-22;
 gthresh,optgrad=1.d-8,optstep=1.d-8;
 nocompress;
 geomtyp=xyz
 bohr
 geometry={
 3
          8         8
 N       -0.0045970670       -0.0000001292        1.1120547195
 C        0.0095718652        0.0000000034       -1.0478512142
 H       -0.0049747982        0.0000001259       -3.0612734872
 }
 
 basis=avtz
   {hf,maxit=500;accu,20;}
 {ccsd(t),nocheck,maxit=250;orbital,IGNORE_ERROR;}

 Variables initialized (889), CPU time= 0.01 sec
 Commands  initialized (702), CPU time= 0.01 sec, 572 directives.
 Default parameters read. Elapsed time= 0.04 sec

 Checking input...
 Passed
1


                                         ***  PROGRAM SYSTEM MOLPRO  ***
                                       Copyright, TTI GmbH Stuttgart, 2015
                                    Version 2015.1 linked Jul  9 2018 13:16:40


 **********************************************************************************************************************************
 LABEL *   hcn CCSD(T)/TZ-F12 QFF                                                        
  64 bit serial version                                                                  DATE: 06-Feb-20          TIME: 09:54:10  
 **********************************************************************************************************************************

 SHA1:             d5ffa45e93fdbca01ffc919aa182cfdae0147319
 **********************************************************************************************************************************

 THRESHOLDS:

 ZERO    =  1.00D-22  ONEINT  =  1.00D-22  TWOINT  =  1.00D-22  PREFAC  =  1.00D-14  LOCALI  =  1.00D-09  EORDER  =  1.00D-04
 ENERGY  =  1.00D-12  ETEST   =  0.00D+00  EDENS   =  0.00D+00  THRDEDEF=  1.00D-06  GRADIENT=  1.00D-02  STEP    =  1.00D-03
 ORBITAL =  1.00D-05  CIVEC   =  1.00D-05  COEFF   =  1.00D-04  PRINTCI =  5.00D-02  PUNCHCI =  9.90D+01  OPTGRAD =  3.00D-04
 OPTENERG=  1.00D-06  OPTSTEP =  3.00D-04  THRGRAD =  1.00D-10  COMPRESS=  1.00D-11  VARMIN  =  1.00D-07  VARMAX  =  1.00D-03
 THRDOUB =  0.00D+00  THRDIV  =  1.00D-05  THRRED  =  1.00D-07  THRPSP  =  1.00D+00  THRDC   =  1.00D-10  THRCS   =  1.00D-10
 THRNRM  =  1.00D-08  THREQ   =  0.00D+00  THRDE   =  1.00D+00  THRREF  =  1.00D-05  SPARFAC =  1.00D+00  THRDLP  =  1.00D-07
 THRDIA  =  1.00D-10  THRDLS  =  1.00D-07  THRGPS  =  0.00D+00  THRKEX  =  0.00D+00  THRDIS  =  2.00D-01  THRVAR  =  1.00D-10
 THRLOC  =  1.00D-06  THRGAP  =  1.00D-06  THRLOCT = -1.00D+00  THRGAPT = -1.00D+00  THRORB  =  1.00D-06  THRMLTP =  0.00D+00
 THRCPQCI=  1.00D-10  KEXTA   =  0.00D+00  THRCOARS=  0.00D+00  SYMTOL  =  1.00D-06  GRADTOL =  1.00D-06  THROVL  =  1.00D-08
 THRORTH =  1.00D-08  GRID    =  1.00D-06  GRIDMAX =  1.00D-03  DTMAX   =  0.00D+00  THROCCDE=  1.00D-01  THROCCDE=  1.00D-01



 THRESHOLDS:

 ZERO    =  1.00D-22  ONEINT  =  1.00D-22  TWOINT  =  1.00D-22  PREFAC  =  1.00D-14  LOCALI  =  1.00D-09  EORDER  =  1.00D-04
 ENERGY  =  1.00D-12  ETEST   =  0.00D+00  EDENS   =  0.00D+00  THRDEDEF=  1.00D-06  GRADIENT=  1.00D-02  STEP    =  1.00D-03
 ORBITAL =  1.00D-05  CIVEC   =  1.00D-05  COEFF   =  1.00D-04  PRINTCI =  5.00D-02  PUNCHCI =  9.90D+01  OPTGRAD =  1.00D-08
 OPTENERG=  1.00D-06  OPTSTEP =  1.00D-08  THRGRAD =  1.00D-10  COMPRESS=  1.00D-11  VARMIN  =  1.00D-07  VARMAX  =  1.00D-03
 THRDOUB =  0.00D+00  THRDIV  =  1.00D-05  THRRED  =  1.00D-07  THRPSP  =  1.00D+00  THRDC   =  1.00D-10  THRCS   =  1.00D-10
 THRNRM  =  1.00D-08  THREQ   =  0.00D+00  THRDE   =  1.00D+00  THRREF  =  1.00D-05  SPARFAC =  1.00D+00  THRDLP  =  1.00D-07
 THRDIA  =  1.00D-10  THRDLS  =  1.00D-07  THRGPS  =  0.00D+00  THRKEX  =  0.00D+00  THRDIS  =  2.00D-01  THRVAR  =  1.00D-10
 THRLOC  =  1.00D-06  THRGAP  =  1.00D-06  THRLOCT = -1.00D+00  THRGAPT = -1.00D+00  THRORB  =  1.00D-06  THRMLTP =  0.00D+00
 THRCPQCI=  1.00D-10  KEXTA   =  0.00D+00  THRCOARS=  0.00D+00  SYMTOL  =  1.00D-06  GRADTOL =  1.00D-06  THROVL  =  1.00D-08
 THRORTH =  1.00D-08  GRID    =  1.00D-06  GRIDMAX =  1.00D-03  DTMAX   =  0.00D+00  THROCCDE=  1.00D-01  THROCCDE=  1.00D-01



 Input parameters for SORTINT:

 COMPRESS =    0.000000
 C_FINAL  =    1.000000
 DEBUG    =   -1.000000
 C_SORT1  =    0.000000
 C_SEWARD =    0.000000
 THRESH   =    0.000000
 IO       =  molpro                                                          
 SPRI     =    0.000000
 SETTING GEOMTYP        =    XYZ
 ZUNIT=BOHR
 

 Variable memory set to  995000000 words,  buffer space   230000 words

 SETTING BASIS          =    AVTZ


 Recomputing integrals since basis changed


 Using spherical harmonics

 Library entry N      S aug-cc-pVTZ          selected for orbital group  1
 Library entry N      P aug-cc-pVTZ          selected for orbital group  1
 Library entry N      D aug-cc-pVTZ          selected for orbital group  1
 Library entry N      F aug-cc-pVTZ          selected for orbital group  1
 Library entry C      S aug-cc-pVTZ          selected for orbital group  2
 Library entry C      P aug-cc-pVTZ          selected for orbital group  2
 Library entry C      D aug-cc-pVTZ          selected for orbital group  2
 Library entry C      F aug-cc-pVTZ          selected for orbital group  2
 Library entry H      S aug-cc-pVTZ          selected for orbital group  3
 Library entry H      P aug-cc-pVTZ          selected for orbital group  3
 Library entry H      D aug-cc-pVTZ          selected for orbital group  3


 PROGRAM * SEWARD (Integral evaluation for generally contracted gaussian basis sets)     Author: Roland Lindh, 1990

 Geometry written to block  1 of record 700


 Point group  Cs  



 ATOMIC COORDINATES

 NR  ATOM    CHARGE       X              Y              Z

   1  N       7.00   -0.004597067    0.000000000    1.112054719
   2  C       6.00    0.009571865    0.000000000   -1.047851214
   3  H       1.00   -0.004974798    0.000000000   -3.061273487

 Bond lengths in Bohr (Angstrom)

 1-2  2.159952407  2-3  2.013474821
     ( 1.142997591)     ( 1.065484990)

 Bond angles

  1-2-3  179.21020051

 NUCLEAR CHARGE:                   14
 NUMBER OF PRIMITIVE AOS:         161
 NUMBER OF SYMMETRY AOS:          141
 NUMBER OF CONTRACTIONS:          115   (  76A'  +  39A"  )
 NUMBER OF CORE ORBITALS:           2   (   2A'  +   0A"  )
 NUMBER OF VALENCE ORBITALS:        9   (   7A'  +   2A"  )


 NUCLEAR REPULSION ENERGY   24.10211427

 Eigenvalues of metric

         1 0.858E-04 0.195E-03 0.613E-03 0.121E-02 0.135E-02 0.176E-02 0.220E-02 0.518E-02
         2 0.220E-02 0.524E-02 0.124E-01 0.161E-01 0.306E-01 0.375E-01 0.444E-01 0.794E-01


 Contracted 2-electron integrals neglected if value below      1.0D-22

       10788927. INTEGRALS WRITTEN OUT IN    2635 BLOCKS ON RECORD 1290 OF FILE 1


 NUMBER OF SORTED TWO-ELECTRON INTEGRALS:   11433631.     BUFFER LENGTH:  32768
 NUMBER OF SEGMENTS:   1  SEGMENT LENGTH:   11433631      RECORD LENGTH: 524288

 Memory used in sort:      11.99 MW

 SORT1 READ    10788927. AND WROTE    10942495. INTEGRALS IN     32 RECORDS. CPU TIME:     0.17 SEC, REAL TIME:     0.22 SEC
 SORT2 READ    10942495. AND WROTE    11433631. INTEGRALS IN      1 RECORDS. CPU TIME:     0.15 SEC, REAL TIME:     0.22 SEC

 FILE SIZES:   FILE 1:   193.0 MBYTE,  FILE 4:   134.3 MBYTE,   TOTAL:    327.2 MBYTE

 OPERATOR DM      FOR CENTER  0  COORDINATES:    0.000000    0.000000    0.000000


 **********************************************************************************************************************************
 DATASETS  * FILE   NREC   LENGTH (MB)   RECORD NAMES
              1      19      111.05       500      610      700      900      950      970     1000      129      960     1100   
                                          VAR    BASINP    GEOM    SYMINP    ZMAT    AOBASIS   BASIS     P2S    ABASIS      S 
                                         1400     1410     1200     1210     1080     1600     1650     1300     1700   
                                           T        V       H0       H01     AOSYM     SMH    MOLCAS    ERIS     OPER   

 PROGRAMS   *        TOTAL       INT
 CPU TIMES  *         1.26      1.18
 REAL TIME  *         1.95 SEC
 DISK USED  *       327.55 MB      
 **********************************************************************************************************************************


 PROGRAM * RHF-SCF (CLOSED SHELL)       Authors: W. Meyer, H.-J. Werner


 NUMBER OF ELECTRONS:       7+    7-
 CONVERGENCE THRESHOLDS:    1.00E-10 (Density)    1.00E-13 (Energy)
 MAX. NUMBER OF ITERATIONS:      500
 INTERPOLATION TYPE:            DIIS
 INTERPOLATION STEPS:              2 (START)      1 (STEP)
 LEVEL SHIFTS:                  0.00 (CLOSED)  0.00 (OPEN) 



 Orbital guess generated from atomic densities. Full valence occupancy:    9   2

 Molecular orbital dump at record        2100.2

 Initial occupancy:   6   1

 ITERATION    DDIFF          GRAD             ENERGY        2-EL.EN.            DIPOLE MOMENTS         DIIS   ORB.
    1      0.000D+00      0.000D+00       -92.88614811    112.347237    0.00690    0.00000   -1.77195    0    start
    2      0.000D+00      0.709D-02       -92.89555915    111.434362   -0.00226    0.00000   -0.91165    1    diag
    3      0.101D-01      0.626D-02       -92.91010163    111.970648    0.00152    0.00000   -1.30317    2    diag
    4      0.451D-02      0.507D-03       -92.91032144    111.939304    0.00120    0.00000   -1.29441    3    diag
    5      0.813D-03      0.108D-03       -92.91033396    111.946724    0.00111    0.00000   -1.29300    4    diag
    6      0.192D-03      0.291D-04       -92.91033463    111.942368    0.00110    0.00000   -1.29314    5    diag
    7      0.395D-04      0.101D-04       -92.91033469    111.943550    0.00109    0.00000   -1.29319    6    diag
    8      0.138D-04      0.200D-05       -92.91033470    111.943498    0.00109    0.00000   -1.29315    7    diag
    9      0.268D-05      0.230D-06       -92.91033470    111.943507    0.00109    0.00000   -1.29315    8    diag
   10      0.367D-06      0.278D-07       -92.91033470    111.943508    0.00109    0.00000   -1.29315    9    orth
   11      0.415D-07      0.481D-08       -92.91033470    111.943508    0.00109    0.00000   -1.29315    9    diag
   12      0.971D-08      0.189D-08       -92.91033470    111.943508    0.00109    0.00000   -1.29315    9    diag
   13      0.445D-08      0.804D-09       -92.91033470    111.943508    0.00109    0.00000   -1.29315    9    diag
   14      0.287D-08      0.183D-09       -92.91033470    111.943508    0.00109    0.00000   -1.29315    9    diag
   15      0.495D-09      0.708D-10       -92.91033470    111.943508    0.00109    0.00000   -1.29315    9    diag
   16      0.179D-09      0.107D-10       -92.91033470    111.943508    0.00109    0.00000   -1.29315    9    diag
   17      0.308D-10      0.175D-11       -92.91033470    111.943508    0.00109    0.00000   -1.29315    9    diag
   18      0.588D-11      0.524D-12       -92.91033470    111.943508    0.00109    0.00000   -1.29315    9    diag
   19      0.273D-11      0.189D-12       -92.91033470    111.943508    0.00109    0.00000   -1.29315    9    fixocc
   20      0.175D-11      0.808D-13       -92.91033470    111.943508    0.00109    0.00000   -1.29315    9    orth
   21      0.119D-11      0.760D-13       -92.91033470    111.943508    0.00109    0.00000   -1.29315    9    diag
   22      0.620D-12      0.793D-13       -92.91033470    111.943508    0.00109    0.00000   -1.29315    9    diag
   23      0.116D-11      0.688D-13       -92.91033470    111.943508    0.00109    0.00000   -1.29315    9    diag
   24      0.401D-12      0.793D-13       -92.91033470    111.943508    0.00109    0.00000   -1.29315    0    orth

 Final occupancy:   6   1

 !RHF STATE 1.1 Energy                -92.910334695325
 Nuclear energy                        24.10211427
 One-electron energy                 -172.98420286
 Two-electron energy                   55.97175389
 Virial quotient                       -1.00174959
 !RHF STATE 1.1 Dipole moment           0.00109227     0.00000000    -1.29314569
 Dipole moment /Debye                   0.00277608     0.00000000    -3.28663322

 Orbital energies:

         1.1          2.1          3.1          4.1          5.1          6.1          7.1          8.1
    -15.596403   -11.288640    -1.241934    -0.811712    -0.581672    -0.499992     0.023140     0.071729

         1.2          2.2          3.2
     -0.499994     0.072985     0.137344

 HOMO      6.1    -0.499992 =     -13.6055eV
 LUMO      7.1     0.023140 =       0.6297eV
 LUMO-HOMO         0.523132 =      14.2352eV


 **********************************************************************************************************************************
 DATASETS  * FILE   NREC   LENGTH (MB)   RECORD NAMES
              1      19      111.05       500      610      700      900      950      970     1000      129      960     1100   
                                          VAR    BASINP    GEOM    SYMINP    ZMAT    AOBASIS   BASIS     P2S    ABASIS      S 
                                         1400     1410     1200     1210     1080     1600     1650     1300     1700   
                                           T        V       H0       H01     AOSYM     SMH    MOLCAS    ERIS     OPER   

              2       4        2.94       700     1000      520     2100   
                                         GEOM     BASIS   MCVARS     RHF  

 PROGRAMS   *        TOTAL        HF       INT
 CPU TIMES  *         2.46      1.20      1.18
 REAL TIME  *         3.50 SEC
 DISK USED  *       327.55 MB      
 **********************************************************************************************************************************


 PROGRAM * CCSD (Closed-shell coupled cluster)     Authors: C. Hampel, H.-J. Werner, 1991, M. Deegan, P.J. Knowles, 1992


 Convergence thresholds:  THRVAR = 1.00D-08  THRDEN = 1.00D-12

 CCSD(T)     terms to be evaluated (factor= 1.000)


 Number of core orbitals:           2 (   2   0 )
 Number of closed-shell orbitals:   5 (   4   1 )
 Number of external orbitals:     108 (  70  38 )

 Molecular orbitals read from record     2100.2  Type=RHF/CANONICAL (state 1.1)

 Number of N-1 electron functions:               5
 Number of N-2 electron functions:              15
 Number of singly external CSFs:               318
 Number of doubly external CSFs:             75474
 Total number of CSFs:                       75793

 Length of J-op  integral file:               0.00 MB
 Length of K-op  integral file:               0.54 MB
 Length of 3-ext integral record:             0.00 MB

 Memory could be reduced to 5.36 Mwords without degradation in triples

 Integral transformation finished. Total CPU:   0.12 sec, npass=  1  Memory used:   1.45 MW

 Reference energy:                    -92.91033470

 MP2 singlet pair energy:              -0.22076877
 MP2 triplet pair energy:              -0.12746042
 MP2 correlation energy:               -0.34822920
 MP2 total energy:                    -93.25856389

 SCS-MP2 correlation energy:           -0.34423124   (PS=  1.200000  PT=  0.333333)
 SCS-MP2 total energy:                -93.25456593

 ITER.      SQ.NORM     CORR.ENERGY   TOTAL ENERGY   ENERGY CHANGE        DEN1      VAR(S)    VAR(P)  DIIS     TIME  TIME/IT
   1      1.11452897    -0.35129334   -93.26162804    -0.00306415     0.00923081  0.23D-02  0.29D-02  1  1     0.25     0.13
   2      1.12380579    -0.35175982   -93.26209451    -0.00046647    -0.00975077  0.49D-04  0.40D-03  2  2     0.37     0.13
   3      1.12866058    -0.35198401   -93.26231871    -0.00022419    -0.00244051  0.15D-04  0.39D-04  3  3     0.47     0.13
   4      1.13066694    -0.35206880   -93.26240350    -0.00008479    -0.00072469  0.47D-06  0.41D-05  4  4     0.59     0.13
   5      1.13111734    -0.35206620   -93.26240089     0.00000261    -0.00012516  0.92D-07  0.36D-06  5  5     0.70     0.13
   6      1.13121198    -0.35206414   -93.26239883     0.00000206    -0.00002521  0.77D-08  0.27D-07  6  6     0.81     0.13
   7      1.13121912    -0.35206591   -93.26240060    -0.00000177    -0.00000215  0.88D-09  0.24D-08  6  1     0.94     0.14
   8      1.13121938    -0.35206639   -93.26240109    -0.00000048     0.00000048  0.80D-10  0.19D-09  6  2     1.05     0.14
   9      1.13121977    -0.35206645   -93.26240114    -0.00000006    -0.00000025  0.90D-11  0.13D-10  6  3     1.17     0.14
  10      1.13121969    -0.35206648   -93.26240117    -0.00000003     0.00000008  0.10D-11  0.12D-11  6  4     1.28     0.14
  11      1.13121962    -0.35206649   -93.26240118    -0.00000001     0.00000003  0.14D-12  0.13D-12  6  5     1.40     0.14
  12      1.13121954    -0.35206649   -93.26240119    -0.00000000     0.00000003  0.16D-13  0.14D-13  6  1     1.51     0.13
  13      1.13121952    -0.35206650   -93.26240119    -0.00000000     0.00000001  0.18D-14  0.97D-15  6  6     1.61     0.13
  14      1.13121951    -0.35206650   -93.26240119    -0.00000000     0.00000000  0.45D-15  0.20D-15  6  2     1.72     0.13
  15      1.13121951    -0.35206650   -93.26240119     0.00000000     0.00000000  0.78D-16  0.25D-16  6  4     1.83     0.13
  16      1.13121951    -0.35206650   -93.26240119     0.00000000    -0.00000000  0.86D-17  0.46D-17  6  3     1.95     0.13
  17      1.13121951    -0.35206650   -93.26240119     0.00000000    -0.00000000  0.14D-17  0.73D-18  6  5     2.07     0.13
  18      1.13121951    -0.35206650   -93.26240119     0.00000000    -0.00000000  0.27D-18  0.14D-18  6  1     2.18     0.13
  19      1.13121951    -0.35206650   -93.26240119    -0.00000000     0.00000000  0.50D-19  0.22D-19  6  6     2.30     0.14
  20      1.13121951    -0.35206650   -93.26240119    -0.00000000     0.00000000  0.71D-20  0.40D-20  6  2     2.42     0.14
  21      1.13121951    -0.35206650   -93.26240119     0.00000000    -0.00000000  0.87D-21  0.41D-21  6  4     2.54     0.14

 Norm of t1 vector:      0.06224301      S-energy:    -0.00000000      T1 diagnostic:  0.01391796
                                                                       D1 diagnostic:  0.02750813


 Total CPU time for triples:      0.75 sec


 RESULTS
 =======

  Reference energy                    -92.910334695325
  CCSD singlet pair energy             -0.244919181515
  CCSD triplet pair energy             -0.107147313750
  CCSD correlation energy              -0.352066495265

  Triples (T) contribution             -0.018121147967
  Total correlation energy             -0.370187643232

  CCSD total energy                   -93.262401190590
  CCSD[T] energy                      -93.281283231412
  CCSD-T energy                       -93.280143199733
 !CCSD(T) total energy                -93.280522338557

 Timing summary (sec):

 STEP                 CPU(USER)    SYS     CPU(TOT)    WALL
 Transformation          0.12      0.03      0.15      0.16
 CCSD iterations         2.43      0.43      2.86      2.84
 Triples                 0.75      0.02      0.77      0.77

 Program statistics:

 Available memory in ccsd:               994999800
 Min. memory needed in ccsd:                311547
 Max. memory used in ccsd:                  369090
 Max. memory used in cckext:                513448 (21 integral passes)



 **********************************************************************************************************************************
 DATASETS  * FILE   NREC   LENGTH (MB)   RECORD NAMES
              1      20      125.49       500      610      700      900      950      970     1000      129      960     1100   
                                          VAR    BASINP    GEOM    SYMINP    ZMAT    AOBASIS   BASIS     P2S    ABASIS      S 
                                         1400     1410     1200     1210     1080     1600     1650     1300     1700     1380   
                                           T        V       H0       H01     AOSYM     SMH    MOLCAS    ERIS     OPER     JKOP   

              2       4        2.94       700     1000      520     2100   
                                         GEOM     BASIS   MCVARS     RHF  

 PROGRAMS   *        TOTAL   CCSD(T)        HF       INT
 CPU TIMES  *         5.78      3.32      1.20      1.18
 REAL TIME  *         7.31 SEC
 DISK USED  *       327.55 MB      
 **********************************************************************************************************************************

 CCSD(T)/aug-cc-pVTZ energy=    -93.280522338557

        CCSD(T)         HF-SCF  
    -93.28052234    -92.91033470
 **********************************************************************************************************************************
 Molpro calculation terminated
 Variable memory released
