
 Primary working directories    : /tmp/r2666/232506.maple
 Secondary working directories  : /tmp/r2666/232506.maple
 Wavefunction directory         : /ddn/home4/r2666/wfu/
 Main file repository           : /tmp/r2666/232506.maple/

 SHA1      : d5ffa45e93fdbca01ffc919aa182cfdae0147319
 NAME      : 2015.1.35
 ARCHNAME  : linux/x86_64
 FC        : /opt/intel/composer_xe_2015.1.133/bin/intel64/ifort
 BLASLIB   : -Wl,-_start-group /opt/intel/mkl/lib/intel64/libmkl_intel_ilp64.a /opt/intel/mkl/lib/intel64/libmkl_intel_thread.a /opt/intel/mkl/lib/intel64/libmkl_core.a -Wl,-_end-group
 id        : olemiss

 Nodes     nprocs
 cn088        1

 Using customized tuning parameters: mindgm=1; mindgv=20; mindgc=4; mindgr=1; noblas=0; minvec=7
 default implementation of scratch files=df  

 ***,hcn CCSD(T)/TZ-F12 QFF
 memory, 995, m;
 gthresh,energy=1.d-12,zero=1.d-22,oneint=1.d-22,twoint=1.d-22;
 gthresh,optgrad=1.d-8,optstep=1.d-8;
 nocompress;
 geomtyp=xyz
 bohr
 geometry={
 3
          5         5
 N        0.0000000000        0.0000000000        1.1058041311
 C        0.0000000000        0.0000000000       -1.0541482760
 H        0.0000000000        0.0000000000       -3.0487258371
 }
 
 basis=avtz
   {hf,maxit=500;accu,20;}
 {ccsd(t),nocheck,maxit=250;orbital,IGNORE_ERROR;}

 Variables initialized (889), CPU time= 0.01 sec
 Commands  initialized (702), CPU time= 0.01 sec, 572 directives.
 Default parameters read. Elapsed time= 0.04 sec

 Checking input...
 Passed
1


                                         ***  PROGRAM SYSTEM MOLPRO  ***
                                       Copyright, TTI GmbH Stuttgart, 2015
                                    Version 2015.1 linked Jul  9 2018 13:16:40


 **********************************************************************************************************************************
 LABEL *   hcn CCSD(T)/TZ-F12 QFF                                                        
  64 bit serial version                                                                  DATE: 06-Feb-20          TIME: 09:54:11  
 **********************************************************************************************************************************

 SHA1:             d5ffa45e93fdbca01ffc919aa182cfdae0147319
 **********************************************************************************************************************************

 THRESHOLDS:

 ZERO    =  1.00D-22  ONEINT  =  1.00D-22  TWOINT  =  1.00D-22  PREFAC  =  1.00D-14  LOCALI  =  1.00D-09  EORDER  =  1.00D-04
 ENERGY  =  1.00D-12  ETEST   =  0.00D+00  EDENS   =  0.00D+00  THRDEDEF=  1.00D-06  GRADIENT=  1.00D-02  STEP    =  1.00D-03
 ORBITAL =  1.00D-05  CIVEC   =  1.00D-05  COEFF   =  1.00D-04  PRINTCI =  5.00D-02  PUNCHCI =  9.90D+01  OPTGRAD =  3.00D-04
 OPTENERG=  1.00D-06  OPTSTEP =  3.00D-04  THRGRAD =  1.00D-10  COMPRESS=  1.00D-11  VARMIN  =  1.00D-07  VARMAX  =  1.00D-03
 THRDOUB =  0.00D+00  THRDIV  =  1.00D-05  THRRED  =  1.00D-07  THRPSP  =  1.00D+00  THRDC   =  1.00D-10  THRCS   =  1.00D-10
 THRNRM  =  1.00D-08  THREQ   =  0.00D+00  THRDE   =  1.00D+00  THRREF  =  1.00D-05  SPARFAC =  1.00D+00  THRDLP  =  1.00D-07
 THRDIA  =  1.00D-10  THRDLS  =  1.00D-07  THRGPS  =  0.00D+00  THRKEX  =  0.00D+00  THRDIS  =  2.00D-01  THRVAR  =  1.00D-10
 THRLOC  =  1.00D-06  THRGAP  =  1.00D-06  THRLOCT = -1.00D+00  THRGAPT = -1.00D+00  THRORB  =  1.00D-06  THRMLTP =  0.00D+00
 THRCPQCI=  1.00D-10  KEXTA   =  0.00D+00  THRCOARS=  0.00D+00  SYMTOL  =  1.00D-06  GRADTOL =  1.00D-06  THROVL  =  1.00D-08
 THRORTH =  1.00D-08  GRID    =  1.00D-06  GRIDMAX =  1.00D-03  DTMAX   =  0.00D+00  THROCCDE=  1.00D-01  THROCCDE=  1.00D-01



 THRESHOLDS:

 ZERO    =  1.00D-22  ONEINT  =  1.00D-22  TWOINT  =  1.00D-22  PREFAC  =  1.00D-14  LOCALI  =  1.00D-09  EORDER  =  1.00D-04
 ENERGY  =  1.00D-12  ETEST   =  0.00D+00  EDENS   =  0.00D+00  THRDEDEF=  1.00D-06  GRADIENT=  1.00D-02  STEP    =  1.00D-03
 ORBITAL =  1.00D-05  CIVEC   =  1.00D-05  COEFF   =  1.00D-04  PRINTCI =  5.00D-02  PUNCHCI =  9.90D+01  OPTGRAD =  1.00D-08
 OPTENERG=  1.00D-06  OPTSTEP =  1.00D-08  THRGRAD =  1.00D-10  COMPRESS=  1.00D-11  VARMIN  =  1.00D-07  VARMAX  =  1.00D-03
 THRDOUB =  0.00D+00  THRDIV  =  1.00D-05  THRRED  =  1.00D-07  THRPSP  =  1.00D+00  THRDC   =  1.00D-10  THRCS   =  1.00D-10
 THRNRM  =  1.00D-08  THREQ   =  0.00D+00  THRDE   =  1.00D+00  THRREF  =  1.00D-05  SPARFAC =  1.00D+00  THRDLP  =  1.00D-07
 THRDIA  =  1.00D-10  THRDLS  =  1.00D-07  THRGPS  =  0.00D+00  THRKEX  =  0.00D+00  THRDIS  =  2.00D-01  THRVAR  =  1.00D-10
 THRLOC  =  1.00D-06  THRGAP  =  1.00D-06  THRLOCT = -1.00D+00  THRGAPT = -1.00D+00  THRORB  =  1.00D-06  THRMLTP =  0.00D+00
 THRCPQCI=  1.00D-10  KEXTA   =  0.00D+00  THRCOARS=  0.00D+00  SYMTOL  =  1.00D-06  GRADTOL =  1.00D-06  THROVL  =  1.00D-08
 THRORTH =  1.00D-08  GRID    =  1.00D-06  GRIDMAX =  1.00D-03  DTMAX   =  0.00D+00  THROCCDE=  1.00D-01  THROCCDE=  1.00D-01



 Input parameters for SORTINT:

 COMPRESS =    0.000000
 C_FINAL  =    1.000000
 DEBUG    =   -1.000000
 C_SORT1  =    0.000000
 C_SEWARD =    0.000000
 THRESH   =    0.000000
 IO       =  molpro                                                          
 SPRI     =    0.000000
 SETTING GEOMTYP        =    XYZ
 ZUNIT=BOHR
 

 Variable memory set to  995000000 words,  buffer space   230000 words

 SETTING BASIS          =    AVTZ


 Recomputing integrals since basis changed


 Using spherical harmonics

 Library entry N      S aug-cc-pVTZ          selected for orbital group  1
 Library entry N      P aug-cc-pVTZ          selected for orbital group  1
 Library entry N      D aug-cc-pVTZ          selected for orbital group  1
 Library entry N      F aug-cc-pVTZ          selected for orbital group  1
 Library entry C      S aug-cc-pVTZ          selected for orbital group  2
 Library entry C      P aug-cc-pVTZ          selected for orbital group  2
 Library entry C      D aug-cc-pVTZ          selected for orbital group  2
 Library entry C      F aug-cc-pVTZ          selected for orbital group  2
 Library entry H      S aug-cc-pVTZ          selected for orbital group  3
 Library entry H      P aug-cc-pVTZ          selected for orbital group  3
 Library entry H      D aug-cc-pVTZ          selected for orbital group  3


 PROGRAM * SEWARD (Integral evaluation for generally contracted gaussian basis sets)     Author: Roland Lindh, 1990

 Geometry written to block  1 of record 700


 Point group  C2v 



 ATOMIC COORDINATES

 NR  ATOM    CHARGE       X              Y              Z

   1  N       7.00    0.000000000    0.000000000    1.105804131
   2  C       6.00    0.000000000    0.000000000   -1.054148276
   3  H       1.00    0.000000000    0.000000000   -3.048725837

 Bond lengths in Bohr (Angstrom)

 1-2  2.159952407  2-3  1.994577561
     ( 1.142997591)     ( 1.055484991)

 Bond angles

  1-2-3  180.00000000

 NUCLEAR CHARGE:                   14
 NUMBER OF PRIMITIVE AOS:         161
 NUMBER OF SYMMETRY AOS:          141
 NUMBER OF CONTRACTIONS:          115   (  49A1  +  27B1  +  27B2  +  12A2  )
 NUMBER OF CORE ORBITALS:           2   (   2A1  +   0B1  +   0B2  +   0A2  )
 NUMBER OF VALENCE ORBITALS:        9   (   5A1  +   2B1  +   2B2  +   0A2  )


 NUCLEAR REPULSION ENERGY   24.13793647

 EXTRA SYMMETRY OF AOS IN SYMMETRY 1:   1 1 1 1 1 1 1 1 1 1   2 1 2 1 2 1 2 1 2 1   1 1 1 1 1 1 1 1 1 2   1 2 1 2 1 2 1 2 1 1
                                        1 1 1 1 1 1 2 1 2
 EXTRA SYMMETRY OF AOS IN SYMMETRY 2:   1 1 1 1 1 1 1 1 2 1   2 1 1 1 1 1 1 1 1 2   1 2 1 1 1 1 1
 EXTRA SYMMETRY OF AOS IN SYMMETRY 3:   1 1 1 1 1 1 1 1 2 1   2 1 1 1 1 1 1 1 1 2   1 2 1 1 1 1 1

 Eigenvalues of metric

         1 0.836E-04 0.194E-03 0.600E-03 0.119E-02 0.134E-02 0.176E-02 0.516E-02 0.678E-02
         2 0.220E-02 0.510E-02 0.123E-01 0.157E-01 0.305E-01 0.444E-01 0.785E-01 0.101E+00
         3 0.220E-02 0.510E-02 0.123E-01 0.157E-01 0.305E-01 0.444E-01 0.785E-01 0.101E+00
         4 0.373E-01 0.110E+00 0.145E+00 0.330E+00 0.477E+00 0.510E+00 0.740E+00 0.890E+00


 Contracted 2-electron integrals neglected if value below      1.0D-22

        5028223. INTEGRALS WRITTEN OUT IN    1228 BLOCKS ON RECORD 1290 OF FILE 1


 NUMBER OF SORTED TWO-ELECTRON INTEGRALS:    5853730.     BUFFER LENGTH:  32768
 NUMBER OF SEGMENTS:   1  SEGMENT LENGTH:    5853730      RECORD LENGTH: 524288

 Memory used in sort:       6.41 MW

 SORT1 READ     5028223. AND WROTE     5163282. INTEGRALS IN     15 RECORDS. CPU TIME:     0.09 SEC, REAL TIME:     0.14 SEC
 SORT2 READ     5163282. AND WROTE     5853730. INTEGRALS IN      1 RECORDS. CPU TIME:     0.11 SEC, REAL TIME:     0.14 SEC

 FILE SIZES:   FILE 1:   100.7 MBYTE,  FILE 4:    62.9 MBYTE,   TOTAL:    163.7 MBYTE

 OPERATOR DM      FOR CENTER  0  COORDINATES:    0.000000    0.000000    0.000000


 **********************************************************************************************************************************
 DATASETS  * FILE   NREC   LENGTH (MB)   RECORD NAMES
              1      19       63.47       500      610      700      900      950      970     1000      129      960     1100   
                                          VAR    BASINP    GEOM    SYMINP    ZMAT    AOBASIS   BASIS     P2S    ABASIS      S 
                                         1400     1410     1200     1210     1080     1600     1650     1300     1700   
                                           T        V       H0       H01     AOSYM     SMH    MOLCAS    ERIS     OPER   

 PROGRAMS   *        TOTAL       INT
 CPU TIMES  *         1.15      1.05
 REAL TIME  *         1.77 SEC
 DISK USED  *       163.98 MB      
 **********************************************************************************************************************************


 PROGRAM * RHF-SCF (CLOSED SHELL)       Authors: W. Meyer, H.-J. Werner


 NUMBER OF ELECTRONS:       7+    7-
 CONVERGENCE THRESHOLDS:    1.00E-10 (Density)    1.00E-13 (Energy)
 MAX. NUMBER OF ITERATIONS:      500
 INTERPOLATION TYPE:            DIIS
 INTERPOLATION STEPS:              2 (START)      1 (STEP)
 LEVEL SHIFTS:                  0.00 (CLOSED)  0.00 (OPEN) 



 Orbital guess generated from atomic densities. Full valence occupancy:    7   2   2   0

 Molecular orbital dump at record        2100.2

 Initial occupancy:   5   1   1   0

 ITERATION    DDIFF          GRAD             ENERGY        2-EL.EN.            DIPOLE MOMENTS         DIIS   ORB.
    1      0.000D+00      0.000D+00       -92.88657962    112.396156    0.00000    0.00000   -1.75904    0    start
    2      0.000D+00      0.912D-02       -92.89595484    111.495671    0.00000    0.00000   -0.90989    1    diag
    3      0.135D-01      0.803D-02       -92.91015737    112.026776    0.00000    0.00000   -1.29780    2    diag
    4      0.599D-02      0.663D-03       -92.91037860    111.994652    0.00000    0.00000   -1.28899    3    diag
    5      0.110D-02      0.140D-03       -92.91039097    112.001984    0.00000    0.00000   -1.28760    4    diag
    6      0.258D-03      0.373D-04       -92.91039162    111.997652    0.00000    0.00000   -1.28775    5    diag
    7      0.521D-04      0.130D-04       -92.91039169    111.998812    0.00000    0.00000   -1.28779    6    diag
    8      0.182D-04      0.258D-05       -92.91039169    111.998762    0.00000    0.00000   -1.28776    7    diag
    9      0.359D-05      0.297D-06       -92.91039169    111.998770    0.00000    0.00000   -1.28775    8    diag
   10      0.492D-06      0.353D-07       -92.91039169    111.998771    0.00000    0.00000   -1.28775    9    orth
   11      0.537D-07      0.454D-08       -92.91039169    111.998771    0.00000    0.00000   -1.28775    9    diag
   12      0.103D-07      0.401D-09       -92.91039169    111.998771    0.00000    0.00000   -1.28775    9    diag
   13      0.105D-08      0.560D-10       -92.91039169    111.998771    0.00000    0.00000   -1.28775    9    diag
   14      0.156D-09      0.560D-11       -92.91039169    111.998771    0.00000    0.00000   -1.28775    9    diag
   15      0.276D-10      0.180D-11       -92.91039169    111.998771    0.00000    0.00000   -1.28775    9    diag
   16      0.314D-11      0.440D-12       -92.91039169    111.998771    0.00000    0.00000   -1.28775    9    diag
   17      0.317D-11      0.124D-12       -92.91039169    111.998771    0.00000    0.00000   -1.28775    9    diag
   18      0.429D-11      0.880D-13       -92.91039169    111.998771    0.00000    0.00000   -1.28775    9    diag
   19      0.135D-11      0.565D-13       -92.91039169    111.998771    0.00000    0.00000   -1.28775    9    fixocc
   20      0.571D-12      0.751D-13       -92.91039169    111.998771    0.00000    0.00000   -1.28775    9    orth
   21      0.562D-12      0.753D-13       -92.91039169    111.998771    0.00000    0.00000   -1.28775    9    diag
   22      0.239D-12      0.430D-13       -92.91039169    111.998771    0.00000    0.00000   -1.28775    0    orth

 Final occupancy:   5   1   1   0

 !RHF STATE 1.1 Energy                -92.910391688176
 Nuclear energy                        24.13793647
 One-electron energy                 -173.04771366
 Two-electron energy                   55.99938550
 Virial quotient                       -1.00157950
 !RHF STATE 1.1 Dipole moment           0.00000000     0.00000000    -1.28775098
 Dipole moment /Debye                   0.00000000     0.00000000    -3.27292214

 Orbital energies:

         1.1          2.1          3.1          4.1          5.1          6.1          7.1
    -15.596590   -11.287890    -1.242059    -0.815658    -0.581997     0.023181     0.071795

         1.2          2.2          3.2
     -0.500139     0.072991     0.137198

         1.3          2.3          3.3
     -0.500139     0.072991     0.137198

         1.4          2.4
      0.293688     0.550025

 HOMO      1.2    -0.500139 =     -13.6095eV
 LUMO      6.1     0.023181 =       0.6308eV
 LUMO-HOMO         0.523320 =      14.2403eV


 **********************************************************************************************************************************
 DATASETS  * FILE   NREC   LENGTH (MB)   RECORD NAMES
              1      19       63.47       500      610      700      900      950      970     1000      129      960     1100   
                                          VAR    BASINP    GEOM    SYMINP    ZMAT    AOBASIS   BASIS     P2S    ABASIS      S 
                                         1400     1410     1200     1210     1080     1600     1650     1300     1700   
                                           T        V       H0       H01     AOSYM     SMH    MOLCAS    ERIS     OPER   

              2       4        2.88       700     1000      520     2100   
                                         GEOM     BASIS   MCVARS     RHF  

 PROGRAMS   *        TOTAL        HF       INT
 CPU TIMES  *         1.59      0.45      1.05
 REAL TIME  *         2.33 SEC
 DISK USED  *       163.98 MB      
 **********************************************************************************************************************************


 PROGRAM * CCSD (Closed-shell coupled cluster)     Authors: C. Hampel, H.-J. Werner, 1991, M. Deegan, P.J. Knowles, 1992


 Convergence thresholds:  THRVAR = 1.00D-08  THRDEN = 1.00D-12

 CCSD(T)     terms to be evaluated (factor= 1.000)


 Number of core orbitals:           2 (   2   0   0   0 )
 Number of closed-shell orbitals:   5 (   3   1   1   0 )
 Number of external orbitals:     108 (  44  26  26  12 )

 Molecular orbitals read from record     2100.2  Type=RHF/CANONICAL (state 1.1)

 Number of N-1 electron functions:               5
 Number of N-2 electron functions:              15
 Number of singly external CSFs:               184
 Number of doubly external CSFs:             39026
 Total number of CSFs:                       39211

 Length of J-op  integral file:               0.00 MB
 Length of K-op  integral file:               0.31 MB
 Length of 3-ext integral record:             0.00 MB

 Memory could be reduced to 2.91 Mwords without degradation in triples

 Integral transformation finished. Total CPU:   0.06 sec, npass=  1  Memory used:   0.44 MW

 Reference energy:                    -92.91039169

 MP2 singlet pair energy:              -0.22069507
 MP2 triplet pair energy:              -0.12743568
 MP2 correlation energy:               -0.34813075
 MP2 total energy:                    -93.25852244

 SCS-MP2 correlation energy:           -0.34412740   (PS=  1.200000  PT=  0.333333)
 SCS-MP2 total energy:                -93.25451909

 ITER.      SQ.NORM     CORR.ENERGY   TOTAL ENERGY   ENERGY CHANGE        DEN1      VAR(S)    VAR(P)  DIIS     TIME  TIME/IT
   1      1.11434576    -0.35119161   -93.26158330    -0.00306086     0.00920895  0.23D-02  0.29D-02  1  1     0.11     0.06
   2      1.12358782    -0.35165030   -93.26204199    -0.00045869    -0.00973156  0.49D-04  0.39D-03  2  2     0.17     0.06
   3      1.12840978    -0.35187132   -93.26226300    -0.00022101    -0.00242639  0.14D-04  0.39D-04  3  3     0.22     0.06
   4      1.13040859    -0.35195559   -93.26234728    -0.00008427    -0.00072232  0.46D-06  0.41D-05  4  4     0.27     0.06
   5      1.13085670    -0.35195261   -93.26234430     0.00000298    -0.00012471  0.86D-07  0.36D-06  5  5     0.32     0.06
   6      1.13094901    -0.35195069   -93.26234238     0.00000192    -0.00002460  0.75D-08  0.27D-07  6  6     0.38     0.06
   7      1.13095592    -0.35195247   -93.26234416    -0.00000178    -0.00000208  0.87D-09  0.24D-08  6  1     0.45     0.06
   8      1.13095612    -0.35195296   -93.26234464    -0.00000049     0.00000050  0.74D-10  0.18D-09  6  2     0.51     0.06
   9      1.13095651    -0.35195301   -93.26234470    -0.00000006    -0.00000025  0.91D-11  0.12D-10  6  3     0.56     0.06
  10      1.13095642    -0.35195305   -93.26234473    -0.00000003     0.00000008  0.98D-12  0.12D-11  6  4     0.62     0.06
  11      1.13095635    -0.35195306   -93.26234474    -0.00000001     0.00000003  0.14D-12  0.12D-12  6  5     0.68     0.06
  12      1.13095628    -0.35195306   -93.26234475    -0.00000000     0.00000003  0.15D-13  0.13D-13  6  1     0.74     0.06
  13      1.13095625    -0.35195306   -93.26234475    -0.00000000     0.00000001  0.11D-14  0.84D-15  6  6     0.79     0.06
  14      1.13095624    -0.35195306   -93.26234475    -0.00000000     0.00000000  0.26D-15  0.14D-15  6  2     0.84     0.06
  15      1.13095624    -0.35195306   -93.26234475     0.00000000     0.00000000  0.31D-16  0.17D-16  6  4     0.90     0.06
  16      1.13095624    -0.35195306   -93.26234475     0.00000000    -0.00000000  0.26D-17  0.17D-17  6  3     0.96     0.06
  17      1.13095624    -0.35195306   -93.26234475     0.00000000    -0.00000000  0.23D-18  0.20D-18  6  5     1.01     0.06
  18      1.13095624    -0.35195306   -93.26234475     0.00000000    -0.00000000  0.28D-19  0.31D-19  6  6     1.06     0.06
  19      1.13095624    -0.35195306   -93.26234475    -0.00000000    -0.00000000  0.28D-20  0.27D-20  6  1     1.13     0.06
  20      1.13095624    -0.35195306   -93.26234475    -0.00000000     0.00000000  0.37D-21  0.37D-21  6  2     1.19     0.06

 Norm of t1 vector:      0.06216643      S-energy:    -0.00000000      T1 diagnostic:  0.01390084
                                                                       D1 diagnostic:  0.02752121


 Total CPU time for triples:      0.26 sec


 RESULTS
 =======

  Reference energy                    -92.910391688175
  CCSD singlet pair energy             -0.244797090324
  CCSD triplet pair energy             -0.107155971207
  CCSD correlation energy              -0.351953061530

  Triples (T) contribution             -0.018095476318
  Total correlation energy             -0.370048537849

  CCSD total energy                   -93.262344749706
  CCSD[T] energy                      -93.281199514698
  CCSD-T energy                       -93.280061656544
 !CCSD(T) total energy                -93.280440226024

 Timing summary (sec):

 STEP                 CPU(USER)    SYS     CPU(TOT)    WALL
 Transformation          0.06      0.01      0.07      0.07
 CCSD iterations         1.14      0.17      1.31      1.30
 Triples                 0.26      0.00      0.26      0.27

 Program statistics:

 Available memory in ccsd:               994999800
 Min. memory needed in ccsd:                166428
 Max. memory used in ccsd:                  196881
 Max. memory used in cckext:                233267 (20 integral passes)



 **********************************************************************************************************************************
 DATASETS  * FILE   NREC   LENGTH (MB)   RECORD NAMES
              1      20       70.98       500      610      700      900      950      970     1000      129      960     1100   
                                          VAR    BASINP    GEOM    SYMINP    ZMAT    AOBASIS   BASIS     P2S    ABASIS      S 
                                         1400     1410     1200     1210     1080     1600     1650     1300     1700     1380   
                                           T        V       H0       H01     AOSYM     SMH    MOLCAS    ERIS     OPER     JKOP   

              2       4        2.88       700     1000      520     2100   
                                         GEOM     BASIS   MCVARS     RHF  

 PROGRAMS   *        TOTAL   CCSD(T)        HF       INT
 CPU TIMES  *         3.06      1.47      0.45      1.05
 REAL TIME  *         3.99 SEC
 DISK USED  *       163.98 MB      
 **********************************************************************************************************************************

 CCSD(T)/aug-cc-pVTZ energy=    -93.280440226024

        CCSD(T)         HF-SCF  
    -93.28044023    -92.91039169
 **********************************************************************************************************************************
 Molpro calculation terminated
 Variable memory released
