
 Primary working directories    : /tmp/r2666/232553.maple
 Secondary working directories  : /tmp/r2666/232553.maple
 Wavefunction directory         : /ddn/home4/r2666/wfu/
 Main file repository           : /tmp/r2666/232553.maple/

 SHA1      : d5ffa45e93fdbca01ffc919aa182cfdae0147319
 NAME      : 2015.1.35
 ARCHNAME  : linux/x86_64
 FC        : /opt/intel/composer_xe_2015.1.133/bin/intel64/ifort
 BLASLIB   : -Wl,-_start-group /opt/intel/mkl/lib/intel64/libmkl_intel_ilp64.a /opt/intel/mkl/lib/intel64/libmkl_intel_thread.a /opt/intel/mkl/lib/intel64/libmkl_core.a -Wl,-_end-group
 id        : olemiss

 Nodes     nprocs
 cn076        1

 Using customized tuning parameters: mindgm=1; mindgv=20; mindgc=4; mindgr=1; noblas=0; minvec=7
 default implementation of scratch files=df  

 ***,hcn CCSD(T)/TZ-F12 QFF
 memory, 995, m;
 gthresh,energy=1.d-12,zero=1.d-22,oneint=1.d-22,twoint=1.d-22;
 gthresh,optgrad=1.d-8,optstep=1.d-8;
 nocompress;
 geomtyp=xyz
 bohr
 geometry={
 3
         52        52
 N        0.0000000000        0.0000000000        1.1404491076
 C        0.0000000000        0.0000000000       -1.0667464493
 H        0.0000000000        0.0000000000       -3.0707726403
 }
 
 basis=avtz
   {hf,maxit=500;accu,20;}
 {ccsd(t),nocheck,maxit=250;orbital,IGNORE_ERROR;}

 Variables initialized (889), CPU time= 0.01 sec
 Commands  initialized (702), CPU time= 0.00 sec, 572 directives.
 Default parameters read. Elapsed time= 0.05 sec

 Checking input...
 Passed
1


                                         ***  PROGRAM SYSTEM MOLPRO  ***
                                       Copyright, TTI GmbH Stuttgart, 2015
                                    Version 2015.1 linked Jul  9 2018 13:16:40


 **********************************************************************************************************************************
 LABEL *   hcn CCSD(T)/TZ-F12 QFF                                                        
  64 bit serial version                                                                  DATE: 06-Feb-20          TIME: 09:54:28  
 **********************************************************************************************************************************

 SHA1:             d5ffa45e93fdbca01ffc919aa182cfdae0147319
 **********************************************************************************************************************************

 THRESHOLDS:

 ZERO    =  1.00D-22  ONEINT  =  1.00D-22  TWOINT  =  1.00D-22  PREFAC  =  1.00D-14  LOCALI  =  1.00D-09  EORDER  =  1.00D-04
 ENERGY  =  1.00D-12  ETEST   =  0.00D+00  EDENS   =  0.00D+00  THRDEDEF=  1.00D-06  GRADIENT=  1.00D-02  STEP    =  1.00D-03
 ORBITAL =  1.00D-05  CIVEC   =  1.00D-05  COEFF   =  1.00D-04  PRINTCI =  5.00D-02  PUNCHCI =  9.90D+01  OPTGRAD =  3.00D-04
 OPTENERG=  1.00D-06  OPTSTEP =  3.00D-04  THRGRAD =  1.00D-10  COMPRESS=  1.00D-11  VARMIN  =  1.00D-07  VARMAX  =  1.00D-03
 THRDOUB =  0.00D+00  THRDIV  =  1.00D-05  THRRED  =  1.00D-07  THRPSP  =  1.00D+00  THRDC   =  1.00D-10  THRCS   =  1.00D-10
 THRNRM  =  1.00D-08  THREQ   =  0.00D+00  THRDE   =  1.00D+00  THRREF  =  1.00D-05  SPARFAC =  1.00D+00  THRDLP  =  1.00D-07
 THRDIA  =  1.00D-10  THRDLS  =  1.00D-07  THRGPS  =  0.00D+00  THRKEX  =  0.00D+00  THRDIS  =  2.00D-01  THRVAR  =  1.00D-10
 THRLOC  =  1.00D-06  THRGAP  =  1.00D-06  THRLOCT = -1.00D+00  THRGAPT = -1.00D+00  THRORB  =  1.00D-06  THRMLTP =  0.00D+00
 THRCPQCI=  1.00D-10  KEXTA   =  0.00D+00  THRCOARS=  0.00D+00  SYMTOL  =  1.00D-06  GRADTOL =  1.00D-06  THROVL  =  1.00D-08
 THRORTH =  1.00D-08  GRID    =  1.00D-06  GRIDMAX =  1.00D-03  DTMAX   =  0.00D+00  THROCCDE=  1.00D-01  THROCCDE=  1.00D-01



 THRESHOLDS:

 ZERO    =  1.00D-22  ONEINT  =  1.00D-22  TWOINT  =  1.00D-22  PREFAC  =  1.00D-14  LOCALI  =  1.00D-09  EORDER  =  1.00D-04
 ENERGY  =  1.00D-12  ETEST   =  0.00D+00  EDENS   =  0.00D+00  THRDEDEF=  1.00D-06  GRADIENT=  1.00D-02  STEP    =  1.00D-03
 ORBITAL =  1.00D-05  CIVEC   =  1.00D-05  COEFF   =  1.00D-04  PRINTCI =  5.00D-02  PUNCHCI =  9.90D+01  OPTGRAD =  1.00D-08
 OPTENERG=  1.00D-06  OPTSTEP =  1.00D-08  THRGRAD =  1.00D-10  COMPRESS=  1.00D-11  VARMIN  =  1.00D-07  VARMAX  =  1.00D-03
 THRDOUB =  0.00D+00  THRDIV  =  1.00D-05  THRRED  =  1.00D-07  THRPSP  =  1.00D+00  THRDC   =  1.00D-10  THRCS   =  1.00D-10
 THRNRM  =  1.00D-08  THREQ   =  0.00D+00  THRDE   =  1.00D+00  THRREF  =  1.00D-05  SPARFAC =  1.00D+00  THRDLP  =  1.00D-07
 THRDIA  =  1.00D-10  THRDLS  =  1.00D-07  THRGPS  =  0.00D+00  THRKEX  =  0.00D+00  THRDIS  =  2.00D-01  THRVAR  =  1.00D-10
 THRLOC  =  1.00D-06  THRGAP  =  1.00D-06  THRLOCT = -1.00D+00  THRGAPT = -1.00D+00  THRORB  =  1.00D-06  THRMLTP =  0.00D+00
 THRCPQCI=  1.00D-10  KEXTA   =  0.00D+00  THRCOARS=  0.00D+00  SYMTOL  =  1.00D-06  GRADTOL =  1.00D-06  THROVL  =  1.00D-08
 THRORTH =  1.00D-08  GRID    =  1.00D-06  GRIDMAX =  1.00D-03  DTMAX   =  0.00D+00  THROCCDE=  1.00D-01  THROCCDE=  1.00D-01



 Input parameters for SORTINT:

 COMPRESS =    0.000000
 C_FINAL  =    1.000000
 DEBUG    =   -1.000000
 C_SORT1  =    0.000000
 C_SEWARD =    0.000000
 THRESH   =    0.000000
 IO       =  molpro                                                          
 SPRI     =    0.000000
 SETTING GEOMTYP        =    XYZ
 ZUNIT=BOHR
 

 Variable memory set to  995000000 words,  buffer space   230000 words

 SETTING BASIS          =    AVTZ


 Recomputing integrals since basis changed


 Using spherical harmonics

 Library entry N      S aug-cc-pVTZ          selected for orbital group  1
 Library entry N      P aug-cc-pVTZ          selected for orbital group  1
 Library entry N      D aug-cc-pVTZ          selected for orbital group  1
 Library entry N      F aug-cc-pVTZ          selected for orbital group  1
 Library entry C      S aug-cc-pVTZ          selected for orbital group  2
 Library entry C      P aug-cc-pVTZ          selected for orbital group  2
 Library entry C      D aug-cc-pVTZ          selected for orbital group  2
 Library entry C      F aug-cc-pVTZ          selected for orbital group  2
 Library entry H      S aug-cc-pVTZ          selected for orbital group  3
 Library entry H      P aug-cc-pVTZ          selected for orbital group  3
 Library entry H      D aug-cc-pVTZ          selected for orbital group  3


 PROGRAM * SEWARD (Integral evaluation for generally contracted gaussian basis sets)     Author: Roland Lindh, 1990

 Geometry written to block  1 of record 700


 Point group  C2v 



 ATOMIC COORDINATES

 NR  ATOM    CHARGE       X              Y              Z

   1  N       7.00    0.000000000    0.000000000    1.140449108
   2  C       6.00    0.000000000    0.000000000   -1.066746449
   3  H       1.00    0.000000000    0.000000000   -3.070772640

 Bond lengths in Bohr (Angstrom)

 1-2  2.207195557  2-3  2.004026191
     ( 1.167997589)     ( 1.060484990)

 Bond angles

  1-2-3  179.99999879

 NUCLEAR CHARGE:                   14
 NUMBER OF PRIMITIVE AOS:         161
 NUMBER OF SYMMETRY AOS:          141
 NUMBER OF CONTRACTIONS:          115   (  49A1  +  27B1  +  27B2  +  12A2  )
 NUMBER OF CORE ORBITALS:           2   (   2A1  +   0B1  +   0B2  +   0A2  )
 NUMBER OF VALENCE ORBITALS:        9   (   5A1  +   2B1  +   2B2  +   0A2  )


 NUCLEAR REPULSION ENERGY   23.68487017

 EXTRA SYMMETRY OF AOS IN SYMMETRY 1:   1 1 1 1 1 1 1 1 1 1   2 1 2 1 2 1 2 1 2 1   1 1 1 1 1 1 1 1 1 2   1 2 1 2 1 2 1 2 1 1
                                        1 1 1 1 1 1 2 1 2
 EXTRA SYMMETRY OF AOS IN SYMMETRY 2:   1 1 1 1 1 1 1 1 2 1   2 1 1 1 1 1 1 1 1 2   1 2 1 1 1 1 1
 EXTRA SYMMETRY OF AOS IN SYMMETRY 3:   1 1 1 1 1 1 1 1 2 1   2 1 1 1 1 1 1 1 1 2   1 2 1 1 1 1 1

 Eigenvalues of metric

         1 0.872E-04 0.200E-03 0.617E-03 0.125E-02 0.144E-02 0.181E-02 0.512E-02 0.688E-02
         2 0.235E-02 0.518E-02 0.131E-01 0.161E-01 0.312E-01 0.452E-01 0.830E-01 0.104E+00
         3 0.235E-02 0.518E-02 0.131E-01 0.161E-01 0.312E-01 0.452E-01 0.830E-01 0.104E+00
         4 0.395E-01 0.113E+00 0.149E+00 0.334E+00 0.492E+00 0.510E+00 0.743E+00 0.898E+00


 Contracted 2-electron integrals neglected if value below      1.0D-22

        5027909. INTEGRALS WRITTEN OUT IN    1228 BLOCKS ON RECORD 1290 OF FILE 1


 NUMBER OF SORTED TWO-ELECTRON INTEGRALS:    5853730.     BUFFER LENGTH:  32768
 NUMBER OF SEGMENTS:   1  SEGMENT LENGTH:    5853730      RECORD LENGTH: 524288

 Memory used in sort:       6.41 MW

 SORT1 READ     5027909. AND WROTE     5162991. INTEGRALS IN     15 RECORDS. CPU TIME:     0.10 SEC, REAL TIME:     0.14 SEC
 SORT2 READ     5162991. AND WROTE     5853730. INTEGRALS IN      1 RECORDS. CPU TIME:     0.10 SEC, REAL TIME:     0.14 SEC

 FILE SIZES:   FILE 1:   100.7 MBYTE,  FILE 4:    62.9 MBYTE,   TOTAL:    163.7 MBYTE

 OPERATOR DM      FOR CENTER  0  COORDINATES:    0.000000    0.000000    0.000000


 **********************************************************************************************************************************
 DATASETS  * FILE   NREC   LENGTH (MB)   RECORD NAMES
              1      19       63.46       500      610      700      900      950      970     1000      129      960     1100   
                                          VAR    BASINP    GEOM    SYMINP    ZMAT    AOBASIS   BASIS     P2S    ABASIS      S 
                                         1400     1410     1200     1210     1080     1600     1650     1300     1700   
                                           T        V       H0       H01     AOSYM     SMH    MOLCAS    ERIS     OPER   

 PROGRAMS   *        TOTAL       INT
 CPU TIMES  *         1.13      1.02
 REAL TIME  *         1.81 SEC
 DISK USED  *       163.98 MB      
 **********************************************************************************************************************************


 PROGRAM * RHF-SCF (CLOSED SHELL)       Authors: W. Meyer, H.-J. Werner


 NUMBER OF ELECTRONS:       7+    7-
 CONVERGENCE THRESHOLDS:    1.00E-10 (Density)    1.00E-13 (Energy)
 MAX. NUMBER OF ITERATIONS:      500
 INTERPOLATION TYPE:            DIIS
 INTERPOLATION STEPS:              2 (START)      1 (STEP)
 LEVEL SHIFTS:                  0.00 (CLOSED)  0.00 (OPEN) 



 Orbital guess generated from atomic densities. Full valence occupancy:    7   2   2   0

 Molecular orbital dump at record        2100.2

 Initial occupancy:   5   1   1   0

 ITERATION    DDIFF          GRAD             ENERGY        2-EL.EN.            DIPOLE MOMENTS         DIIS   ORB.
    1      0.000D+00      0.000D+00       -92.88240694    111.382426    0.00000    0.00000   -1.78452    0    start
    2      0.000D+00      0.908D-02       -92.89075734    110.629459    0.00000    0.00000   -0.88704    1    diag
    3      0.135D-01      0.833D-02       -92.90625195    111.145750    0.00000    0.00000   -1.30720    2    diag
    4      0.616D-02      0.686D-03       -92.90648814    111.096884    0.00000    0.00000   -1.29801    3    diag
    5      0.113D-02      0.159D-03       -92.90650229    111.111825    0.00000    0.00000   -1.29683    4    diag
    6      0.267D-03      0.437D-04       -92.90650336    111.105776    0.00000    0.00000   -1.29664    5    diag
    7      0.678D-04      0.157D-04       -92.90650345    111.106805    0.00000    0.00000   -1.29674    6    diag
    8      0.221D-04      0.306D-05       -92.90650345    111.106775    0.00000    0.00000   -1.29670    7    diag
    9      0.443D-05      0.347D-06       -92.90650345    111.106785    0.00000    0.00000   -1.29670    8    diag
   10      0.579D-06      0.387D-07       -92.90650345    111.106786    0.00000    0.00000   -1.29670    9    orth
   11      0.608D-07      0.438D-08       -92.90650345    111.106786    0.00000    0.00000   -1.29670    9    diag
   12      0.106D-07      0.385D-09       -92.90650345    111.106786    0.00000    0.00000   -1.29670    9    diag
   13      0.925D-09      0.309D-10       -92.90650345    111.106786    0.00000    0.00000   -1.29670    9    diag
   14      0.161D-09      0.445D-11       -92.90650345    111.106786    0.00000    0.00000   -1.29670    9    diag
   15      0.156D-10      0.107D-11       -92.90650345    111.106786    0.00000    0.00000   -1.29670    9    diag
   16      0.495D-11      0.342D-12       -92.90650345    111.106786    0.00000    0.00000   -1.29670    9    diag
   17      0.635D-11      0.118D-12       -92.90650345    111.106786    0.00000    0.00000   -1.29670    9    diag
   18      0.333D-11      0.666D-13       -92.90650345    111.106786    0.00000    0.00000   -1.29670    0    orth

 Final occupancy:   5   1   1   0

 !RHF STATE 1.1 Energy                -92.906503453550
 Nuclear energy                        23.68487017
 One-electron energy                 -172.14476656
 Two-electron energy                   55.55339293
 Virial quotient                       -1.00312427
 !RHF STATE 1.1 Dipole moment           0.00000000     0.00000000    -1.29669951
 Dipole moment /Debye                   0.00000000     0.00000000    -3.29566554

 Orbital energies:

         1.1          2.1          3.1          4.1          5.1          6.1          7.1
    -15.605521   -11.297407    -1.230299    -0.817458    -0.583152     0.023030     0.071535

         1.2          2.2          3.2
     -0.492576     0.072763     0.134693

         1.3          2.3          3.3
     -0.492576     0.072763     0.134693

         1.4          2.4
      0.293912     0.549937

 HOMO      1.2    -0.492576 =     -13.4037eV
 LUMO      6.1     0.023030 =       0.6267eV
 LUMO-HOMO         0.515606 =      14.0304eV


 **********************************************************************************************************************************
 DATASETS  * FILE   NREC   LENGTH (MB)   RECORD NAMES
              1      19       63.46       500      610      700      900      950      970     1000      129      960     1100   
                                          VAR    BASINP    GEOM    SYMINP    ZMAT    AOBASIS   BASIS     P2S    ABASIS      S 
                                         1400     1410     1200     1210     1080     1600     1650     1300     1700   
                                           T        V       H0       H01     AOSYM     SMH    MOLCAS    ERIS     OPER   

              2       4        2.88       700     1000      520     2100   
                                         GEOM     BASIS   MCVARS     RHF  

 PROGRAMS   *        TOTAL        HF       INT
 CPU TIMES  *         1.46      0.34      1.02
 REAL TIME  *         2.26 SEC
 DISK USED  *       163.98 MB      
 **********************************************************************************************************************************


 PROGRAM * CCSD (Closed-shell coupled cluster)     Authors: C. Hampel, H.-J. Werner, 1991, M. Deegan, P.J. Knowles, 1992


 Convergence thresholds:  THRVAR = 1.00D-08  THRDEN = 1.00D-12

 CCSD(T)     terms to be evaluated (factor= 1.000)


 Number of core orbitals:           2 (   2   0   0   0 )
 Number of closed-shell orbitals:   5 (   3   1   1   0 )
 Number of external orbitals:     108 (  44  26  26  12 )

 Molecular orbitals read from record     2100.2  Type=RHF/CANONICAL (state 1.1)

 Number of N-1 electron functions:               5
 Number of N-2 electron functions:              15
 Number of singly external CSFs:               184
 Number of doubly external CSFs:             39026
 Total number of CSFs:                       39211

 Length of J-op  integral file:               0.00 MB
 Length of K-op  integral file:               0.31 MB
 Length of 3-ext integral record:             0.00 MB

 Memory could be reduced to 2.91 Mwords without degradation in triples

 Integral transformation finished. Total CPU:   0.04 sec, npass=  1  Memory used:   0.44 MW

 Reference energy:                    -92.90650345

 MP2 singlet pair energy:              -0.22356320
 MP2 triplet pair energy:              -0.12966903
 MP2 correlation energy:               -0.35323224
 MP2 total energy:                    -93.25973569

 SCS-MP2 correlation energy:           -0.34895880   (PS=  1.200000  PT=  0.333333)
 SCS-MP2 total energy:                -93.25546225

 ITER.      SQ.NORM     CORR.ENERGY   TOTAL ENERGY   ENERGY CHANGE        DEN1      VAR(S)    VAR(P)  DIIS     TIME  TIME/IT
   1      1.11757676    -0.35497023   -93.26147368    -0.00173800     0.01154860  0.26D-02  0.33D-02  1  1     0.09     0.06
   2      1.12744896    -0.35524000   -93.26174345    -0.00026977    -0.01031581  0.57D-04  0.44D-03  2  2     0.15     0.06
   3      1.13277300    -0.35549010   -93.26199356    -0.00025011    -0.00260700  0.16D-04  0.45D-04  3  3     0.20     0.06
   4      1.13506433    -0.35559024   -93.26209370    -0.00010014    -0.00080510  0.51D-06  0.51D-05  4  4     0.26     0.06
   5      1.13559639    -0.35558770   -93.26209115     0.00000255    -0.00014382  0.92D-07  0.47D-06  5  5     0.32     0.06
   6      1.13571437    -0.35558511   -93.26208856     0.00000259    -0.00003079  0.11D-07  0.36D-07  6  6     0.38     0.06
   7      1.13572306    -0.35558746   -93.26209091    -0.00000235    -0.00000249  0.11D-08  0.32D-08  6  1     0.42     0.06
   8      1.13572326    -0.35558807   -93.26209152    -0.00000061     0.00000059  0.77D-10  0.26D-09  6  2     0.48     0.06
   9      1.13572375    -0.35558814   -93.26209159    -0.00000007    -0.00000033  0.14D-10  0.16D-10  6  3     0.53     0.06
  10      1.13572363    -0.35558818   -93.26209163    -0.00000004     0.00000010  0.14D-11  0.17D-11  6  4     0.58     0.06
  11      1.13572354    -0.35558819   -93.26209164    -0.00000001     0.00000004  0.31D-12  0.16D-12  6  5     0.63     0.06
  12      1.13572346    -0.35558819   -93.26209165    -0.00000001     0.00000003  0.44D-13  0.32D-13  6  6     0.69     0.06
  13      1.13572342    -0.35558820   -93.26209165    -0.00000000     0.00000002  0.50D-14  0.90D-14  6  1     0.75     0.06
  14      1.13572340    -0.35558820   -93.26209165    -0.00000000     0.00000001  0.43D-15  0.12D-14  6  2     0.80     0.06
  15      1.13572339    -0.35558820   -93.26209165     0.00000000     0.00000000  0.38D-16  0.14D-15  6  3     0.86     0.06
  16      1.13572339    -0.35558820   -93.26209165     0.00000000     0.00000000  0.50D-17  0.11D-16  6  5     0.90     0.06
  17      1.13572339    -0.35558820   -93.26209165    -0.00000000     0.00000000  0.37D-18  0.47D-18  6  4     0.96     0.06
  18      1.13572339    -0.35558820   -93.26209165     0.00000000     0.00000000  0.87D-19  0.76D-19  6  6     1.02     0.06
  19      1.13572339    -0.35558820   -93.26209165    -0.00000000     0.00000000  0.14D-19  0.10D-19  6  1     1.08     0.06

 Norm of t1 vector:      0.06561739      S-energy:     0.00000000      T1 diagnostic:  0.01467249
                                                                       D1 diagnostic:  0.02923721


 Total CPU time for triples:      0.25 sec


 RESULTS
 =======

  Reference energy                    -92.906503453549
  CCSD singlet pair energy             -0.247835294338
  CCSD triplet pair energy             -0.107752902764
  CCSD correlation energy              -0.355588197102

  Triples (T) contribution             -0.018912421078
  Total correlation energy             -0.374500618180

  CCSD total energy                   -93.262091650651
  CCSD[T] energy                      -93.281860038170
  CCSD-T energy                       -93.280585492996
 !CCSD(T) total energy                -93.281004071729

 Timing summary (sec):

 STEP                 CPU(USER)    SYS     CPU(TOT)    WALL
 Transformation          0.04      0.03      0.07      0.06
 CCSD iterations         1.05      0.15      1.20      1.21
 Triples                 0.25      0.01      0.26      0.26

 Program statistics:

 Available memory in ccsd:               994999800
 Min. memory needed in ccsd:                166428
 Max. memory used in ccsd:                  196881
 Max. memory used in cckext:                233267 (19 integral passes)



 **********************************************************************************************************************************
 DATASETS  * FILE   NREC   LENGTH (MB)   RECORD NAMES
              1      20       70.97       500      610      700      900      950      970     1000      129      960     1100   
                                          VAR    BASINP    GEOM    SYMINP    ZMAT    AOBASIS   BASIS     P2S    ABASIS      S 
                                         1400     1410     1200     1210     1080     1600     1650     1300     1700     1380   
                                           T        V       H0       H01     AOSYM     SMH    MOLCAS    ERIS     OPER     JKOP   

              2       4        2.88       700     1000      520     2100   
                                         GEOM     BASIS   MCVARS     RHF  

 PROGRAMS   *        TOTAL   CCSD(T)        HF       INT
 CPU TIMES  *         2.83      1.37      0.34      1.02
 REAL TIME  *         3.90 SEC
 DISK USED  *       163.98 MB      
 **********************************************************************************************************************************

 CCSD(T)/aug-cc-pVTZ energy=    -93.281004071729

        CCSD(T)         HF-SCF  
    -93.28100407    -92.90650345
 **********************************************************************************************************************************
 Molpro calculation terminated
 Variable memory released
