
 Primary working directories    : /tmp/r2666/232518.maple
 Secondary working directories  : /tmp/r2666/232518.maple
 Wavefunction directory         : /ddn/home4/r2666/wfu/
 Main file repository           : /tmp/r2666/232518.maple/

 SHA1      : d5ffa45e93fdbca01ffc919aa182cfdae0147319
 NAME      : 2015.1.35
 ARCHNAME  : linux/x86_64
 FC        : /opt/intel/composer_xe_2015.1.133/bin/intel64/ifort
 BLASLIB   : -Wl,-_start-group /opt/intel/mkl/lib/intel64/libmkl_intel_ilp64.a /opt/intel/mkl/lib/intel64/libmkl_intel_thread.a /opt/intel/mkl/lib/intel64/libmkl_core.a -Wl,-_end-group
 id        : olemiss

 Nodes     nprocs
 cn077        1

 Using customized tuning parameters: mindgm=1; mindgv=20; mindgc=4; mindgr=1; noblas=0; minvec=7
 default implementation of scratch files=df  

 ***,hcn CCSD(T)/TZ-F12 QFF
 memory, 995, m;
 gthresh,energy=1.d-12,zero=1.d-22,oneint=1.d-22,twoint=1.d-22;
 gthresh,optgrad=1.d-8,optstep=1.d-8;
 nocompress;
 geomtyp=xyz
 bohr
 geometry={
 3
         17        17
 N        0.0000000000        0.0000000000        1.1215518477
 C        0.0000000000        0.0000000000       -1.0478491894
 H        0.0000000000        0.0000000000       -3.0707726403
 }
 
 basis=avtz
   {hf,maxit=500;accu,20;}
 {ccsd(t),nocheck,maxit=250;orbital,IGNORE_ERROR;}

 Variables initialized (889), CPU time= 0.00 sec
 Commands  initialized (702), CPU time= 0.01 sec, 572 directives.
 Default parameters read. Elapsed time= 0.10 sec

 Checking input...
 Passed
1


                                         ***  PROGRAM SYSTEM MOLPRO  ***
                                       Copyright, TTI GmbH Stuttgart, 2015
                                    Version 2015.1 linked Jul  9 2018 13:16:40


 **********************************************************************************************************************************
 LABEL *   hcn CCSD(T)/TZ-F12 QFF                                                        
  64 bit serial version                                                                  DATE: 06-Feb-20          TIME: 09:54:17  
 **********************************************************************************************************************************

 SHA1:             d5ffa45e93fdbca01ffc919aa182cfdae0147319
 **********************************************************************************************************************************

 THRESHOLDS:

 ZERO    =  1.00D-22  ONEINT  =  1.00D-22  TWOINT  =  1.00D-22  PREFAC  =  1.00D-14  LOCALI  =  1.00D-09  EORDER  =  1.00D-04
 ENERGY  =  1.00D-12  ETEST   =  0.00D+00  EDENS   =  0.00D+00  THRDEDEF=  1.00D-06  GRADIENT=  1.00D-02  STEP    =  1.00D-03
 ORBITAL =  1.00D-05  CIVEC   =  1.00D-05  COEFF   =  1.00D-04  PRINTCI =  5.00D-02  PUNCHCI =  9.90D+01  OPTGRAD =  3.00D-04
 OPTENERG=  1.00D-06  OPTSTEP =  3.00D-04  THRGRAD =  1.00D-10  COMPRESS=  1.00D-11  VARMIN  =  1.00D-07  VARMAX  =  1.00D-03
 THRDOUB =  0.00D+00  THRDIV  =  1.00D-05  THRRED  =  1.00D-07  THRPSP  =  1.00D+00  THRDC   =  1.00D-10  THRCS   =  1.00D-10
 THRNRM  =  1.00D-08  THREQ   =  0.00D+00  THRDE   =  1.00D+00  THRREF  =  1.00D-05  SPARFAC =  1.00D+00  THRDLP  =  1.00D-07
 THRDIA  =  1.00D-10  THRDLS  =  1.00D-07  THRGPS  =  0.00D+00  THRKEX  =  0.00D+00  THRDIS  =  2.00D-01  THRVAR  =  1.00D-10
 THRLOC  =  1.00D-06  THRGAP  =  1.00D-06  THRLOCT = -1.00D+00  THRGAPT = -1.00D+00  THRORB  =  1.00D-06  THRMLTP =  0.00D+00
 THRCPQCI=  1.00D-10  KEXTA   =  0.00D+00  THRCOARS=  0.00D+00  SYMTOL  =  1.00D-06  GRADTOL =  1.00D-06  THROVL  =  1.00D-08
 THRORTH =  1.00D-08  GRID    =  1.00D-06  GRIDMAX =  1.00D-03  DTMAX   =  0.00D+00  THROCCDE=  1.00D-01  THROCCDE=  1.00D-01



 THRESHOLDS:

 ZERO    =  1.00D-22  ONEINT  =  1.00D-22  TWOINT  =  1.00D-22  PREFAC  =  1.00D-14  LOCALI  =  1.00D-09  EORDER  =  1.00D-04
 ENERGY  =  1.00D-12  ETEST   =  0.00D+00  EDENS   =  0.00D+00  THRDEDEF=  1.00D-06  GRADIENT=  1.00D-02  STEP    =  1.00D-03
 ORBITAL =  1.00D-05  CIVEC   =  1.00D-05  COEFF   =  1.00D-04  PRINTCI =  5.00D-02  PUNCHCI =  9.90D+01  OPTGRAD =  1.00D-08
 OPTENERG=  1.00D-06  OPTSTEP =  1.00D-08  THRGRAD =  1.00D-10  COMPRESS=  1.00D-11  VARMIN  =  1.00D-07  VARMAX  =  1.00D-03
 THRDOUB =  0.00D+00  THRDIV  =  1.00D-05  THRRED  =  1.00D-07  THRPSP  =  1.00D+00  THRDC   =  1.00D-10  THRCS   =  1.00D-10
 THRNRM  =  1.00D-08  THREQ   =  0.00D+00  THRDE   =  1.00D+00  THRREF  =  1.00D-05  SPARFAC =  1.00D+00  THRDLP  =  1.00D-07
 THRDIA  =  1.00D-10  THRDLS  =  1.00D-07  THRGPS  =  0.00D+00  THRKEX  =  0.00D+00  THRDIS  =  2.00D-01  THRVAR  =  1.00D-10
 THRLOC  =  1.00D-06  THRGAP  =  1.00D-06  THRLOCT = -1.00D+00  THRGAPT = -1.00D+00  THRORB  =  1.00D-06  THRMLTP =  0.00D+00
 THRCPQCI=  1.00D-10  KEXTA   =  0.00D+00  THRCOARS=  0.00D+00  SYMTOL  =  1.00D-06  GRADTOL =  1.00D-06  THROVL  =  1.00D-08
 THRORTH =  1.00D-08  GRID    =  1.00D-06  GRIDMAX =  1.00D-03  DTMAX   =  0.00D+00  THROCCDE=  1.00D-01  THROCCDE=  1.00D-01



 Input parameters for SORTINT:

 COMPRESS =    0.000000
 C_FINAL  =    1.000000
 DEBUG    =   -1.000000
 C_SORT1  =    0.000000
 C_SEWARD =    0.000000
 THRESH   =    0.000000
 IO       =  molpro                                                          
 SPRI     =    0.000000
 SETTING GEOMTYP        =    XYZ
 ZUNIT=BOHR
 

 Variable memory set to  995000000 words,  buffer space   230000 words

 SETTING BASIS          =    AVTZ


 Recomputing integrals since basis changed


 Using spherical harmonics

 Library entry N      S aug-cc-pVTZ          selected for orbital group  1
 Library entry N      P aug-cc-pVTZ          selected for orbital group  1
 Library entry N      D aug-cc-pVTZ          selected for orbital group  1
 Library entry N      F aug-cc-pVTZ          selected for orbital group  1
 Library entry C      S aug-cc-pVTZ          selected for orbital group  2
 Library entry C      P aug-cc-pVTZ          selected for orbital group  2
 Library entry C      D aug-cc-pVTZ          selected for orbital group  2
 Library entry C      F aug-cc-pVTZ          selected for orbital group  2
 Library entry H      S aug-cc-pVTZ          selected for orbital group  3
 Library entry H      P aug-cc-pVTZ          selected for orbital group  3
 Library entry H      D aug-cc-pVTZ          selected for orbital group  3


 PROGRAM * SEWARD (Integral evaluation for generally contracted gaussian basis sets)     Author: Roland Lindh, 1990

 Geometry written to block  1 of record 700


 Point group  C2v 



 ATOMIC COORDINATES

 NR  ATOM    CHARGE       X              Y              Z

   1  N       7.00    0.000000000    0.000000000    1.121551848
   2  C       6.00    0.000000000    0.000000000   -1.047849189
   3  H       1.00    0.000000000    0.000000000   -3.070772640

 Bond lengths in Bohr (Angstrom)

 1-2  2.169401037  2-3  2.022923451
     ( 1.147997590)     ( 1.070484990)

 Bond angles

  1-2-3  179.99999809

 NUCLEAR CHARGE:                   14
 NUMBER OF PRIMITIVE AOS:         161
 NUMBER OF SYMMETRY AOS:          141
 NUMBER OF CONTRACTIONS:          115   (  49A1  +  27B1  +  27B2  +  12A2  )
 NUMBER OF CORE ORBITALS:           2   (   2A1  +   0B1  +   0B2  +   0A2  )
 NUMBER OF VALENCE ORBITALS:        9   (   5A1  +   2B1  +   2B2  +   0A2  )


 NUCLEAR REPULSION ENERGY   23.99590506

 EXTRA SYMMETRY OF AOS IN SYMMETRY 1:   1 1 1 1 1 1 1 1 1 1   2 1 2 1 2 1 2 1 2 1   1 1 1 1 1 1 1 1 1 2   1 2 1 2 1 2 1 2 1 1
                                        1 1 1 1 1 1 2 1 2
 EXTRA SYMMETRY OF AOS IN SYMMETRY 2:   1 1 1 1 1 1 1 1 2 1   2 1 1 1 1 1 1 1 1 2   1 2 1 1 1 1 1
 EXTRA SYMMETRY OF AOS IN SYMMETRY 3:   1 1 1 1 1 1 1 1 2 1   2 1 1 1 1 1 1 1 1 2   1 2 1 1 1 1 1

 Eigenvalues of metric

         1 0.875E-04 0.197E-03 0.622E-03 0.123E-02 0.137E-02 0.178E-02 0.520E-02 0.692E-02
         2 0.223E-02 0.531E-02 0.126E-01 0.163E-01 0.309E-01 0.446E-01 0.807E-01 0.102E+00
         3 0.223E-02 0.531E-02 0.126E-01 0.163E-01 0.309E-01 0.446E-01 0.807E-01 0.102E+00
         4 0.381E-01 0.113E+00 0.147E+00 0.332E+00 0.484E+00 0.510E+00 0.742E+00 0.896E+00


 Contracted 2-electron integrals neglected if value below      1.0D-22

        5027651. INTEGRALS WRITTEN OUT IN    1228 BLOCKS ON RECORD 1290 OF FILE 1


 NUMBER OF SORTED TWO-ELECTRON INTEGRALS:    5853730.     BUFFER LENGTH:  32768
 NUMBER OF SEGMENTS:   1  SEGMENT LENGTH:    5853730      RECORD LENGTH: 524288

 Memory used in sort:       6.41 MW

 SORT1 READ     5027651. AND WROTE     5162698. INTEGRALS IN     15 RECORDS. CPU TIME:     0.10 SEC, REAL TIME:     0.14 SEC
 SORT2 READ     5162698. AND WROTE     5853730. INTEGRALS IN      1 RECORDS. CPU TIME:     0.11 SEC, REAL TIME:     0.13 SEC

 FILE SIZES:   FILE 1:   100.7 MBYTE,  FILE 4:    62.9 MBYTE,   TOTAL:    163.7 MBYTE

 OPERATOR DM      FOR CENTER  0  COORDINATES:    0.000000    0.000000    0.000000


 **********************************************************************************************************************************
 DATASETS  * FILE   NREC   LENGTH (MB)   RECORD NAMES
              1      19       63.46       500      610      700      900      950      970     1000      129      960     1100   
                                          VAR    BASINP    GEOM    SYMINP    ZMAT    AOBASIS   BASIS     P2S    ABASIS      S 
                                         1400     1410     1200     1210     1080     1600     1650     1300     1700   
                                           T        V       H0       H01     AOSYM     SMH    MOLCAS    ERIS     OPER   

 PROGRAMS   *        TOTAL       INT
 CPU TIMES  *         1.16      1.04
 REAL TIME  *         1.88 SEC
 DISK USED  *       163.98 MB      
 **********************************************************************************************************************************


 PROGRAM * RHF-SCF (CLOSED SHELL)       Authors: W. Meyer, H.-J. Werner


 NUMBER OF ELECTRONS:       7+    7-
 CONVERGENCE THRESHOLDS:    1.00E-10 (Density)    1.00E-13 (Energy)
 MAX. NUMBER OF ITERATIONS:      500
 INTERPOLATION TYPE:            DIIS
 INTERPOLATION STEPS:              2 (START)      1 (STEP)
 LEVEL SHIFTS:                  0.00 (CLOSED)  0.00 (OPEN) 



 Orbital guess generated from atomic densities. Full valence occupancy:    7   2   2   0

 Molecular orbital dump at record        2100.2

 Initial occupancy:   5   1   1   0

 ITERATION    DDIFF          GRAD             ENERGY        2-EL.EN.            DIPOLE MOMENTS         DIIS   ORB.
    1      0.000D+00      0.000D+00       -92.88534097    112.121821    0.00000    0.00000   -1.78229    0    start
    2      0.000D+00      0.922D-02       -92.89455248    111.234876    0.00000    0.00000   -0.90805    1    diag
    3      0.135D-01      0.822D-02       -92.90948251    111.769731    0.00000    0.00000   -1.30725    2    diag
    4      0.610D-02      0.660D-03       -92.90970452    111.735450    0.00000    0.00000   -1.29853    3    diag
    5      0.109D-02      0.144D-03       -92.90971741    111.744556    0.00000    0.00000   -1.29711    4    diag
    6      0.260D-03      0.394D-04       -92.90971816    111.739715    0.00000    0.00000   -1.29719    5    diag
    7      0.561D-04      0.139D-04       -92.90971823    111.740881    0.00000    0.00000   -1.29726    6    diag
    8      0.196D-04      0.270D-05       -92.90971824    111.740835    0.00000    0.00000   -1.29722    7    diag
    9      0.376D-05      0.308D-06       -92.90971824    111.740844    0.00000    0.00000   -1.29722    8    diag
   10      0.507D-06      0.356D-07       -92.90971824    111.740845    0.00000    0.00000   -1.29722    9    orth
   11      0.549D-07      0.436D-08       -92.90971824    111.740845    0.00000    0.00000   -1.29722    9    diag
   12      0.101D-07      0.383D-09       -92.90971824    111.740845    0.00000    0.00000   -1.29722    9    diag
   13      0.954D-09      0.414D-10       -92.90971824    111.740845    0.00000    0.00000   -1.29722    9    diag
   14      0.151D-09      0.500D-11       -92.90971824    111.740845    0.00000    0.00000   -1.29722    9    diag
   15      0.234D-10      0.100D-11       -92.90971824    111.740845    0.00000    0.00000   -1.29722    9    diag
   16      0.357D-11      0.268D-12       -92.90971824    111.740845    0.00000    0.00000   -1.29722    0    orth

 Final occupancy:   5   1   1   0

 !RHF STATE 1.1 Energy                -92.909718235360
 Nuclear energy                        23.99590506
 One-electron energy                 -172.77604576
 Two-electron energy                   55.87042247
 Virial quotient                       -1.00213732
 !RHF STATE 1.1 Dipole moment           0.00000000     0.00000000    -1.29721808
 Dipole moment /Debye                   0.00000000     0.00000000    -3.29698353

 Orbital energies:

         1.1          2.1          3.1          4.1          5.1          6.1          7.1
    -15.598130   -11.290854    -1.239520    -0.810526    -0.581785     0.023091     0.071655

         1.2          2.2          3.2
     -0.498393     0.072945     0.136925

         1.3          2.3          3.3
     -0.498393     0.072945     0.136925

         1.4          2.4
      0.293924     0.550255

 HOMO      1.2    -0.498393 =     -13.5620eV
 LUMO      6.1     0.023091 =       0.6283eV
 LUMO-HOMO         0.521484 =      14.1903eV


 **********************************************************************************************************************************
 DATASETS  * FILE   NREC   LENGTH (MB)   RECORD NAMES
              1      19       63.46       500      610      700      900      950      970     1000      129      960     1100   
                                          VAR    BASINP    GEOM    SYMINP    ZMAT    AOBASIS   BASIS     P2S    ABASIS      S 
                                         1400     1410     1200     1210     1080     1600     1650     1300     1700   
                                           T        V       H0       H01     AOSYM     SMH    MOLCAS    ERIS     OPER   

              2       4        2.88       700     1000      520     2100   
                                         GEOM     BASIS   MCVARS     RHF  

 PROGRAMS   *        TOTAL        HF       INT
 CPU TIMES  *         1.46      0.30      1.04
 REAL TIME  *         2.28 SEC
 DISK USED  *       163.98 MB      
 **********************************************************************************************************************************


 PROGRAM * CCSD (Closed-shell coupled cluster)     Authors: C. Hampel, H.-J. Werner, 1991, M. Deegan, P.J. Knowles, 1992


 Convergence thresholds:  THRVAR = 1.00D-08  THRDEN = 1.00D-12

 CCSD(T)     terms to be evaluated (factor= 1.000)


 Number of core orbitals:           2 (   2   0   0   0 )
 Number of closed-shell orbitals:   5 (   3   1   1   0 )
 Number of external orbitals:     108 (  44  26  26  12 )

 Molecular orbitals read from record     2100.2  Type=RHF/CANONICAL (state 1.1)

 Number of N-1 electron functions:               5
 Number of N-2 electron functions:              15
 Number of singly external CSFs:               184
 Number of doubly external CSFs:             39026
 Total number of CSFs:                       39211

 Length of J-op  integral file:               0.00 MB
 Length of K-op  integral file:               0.31 MB
 Length of 3-ext integral record:             0.00 MB

 Memory could be reduced to 2.91 Mwords without degradation in triples

 Integral transformation finished. Total CPU:   0.04 sec, npass=  1  Memory used:   0.44 MW

 Reference energy:                    -92.90971824

 MP2 singlet pair energy:              -0.22136239
 MP2 triplet pair energy:              -0.12790744
 MP2 correlation energy:               -0.34926984
 MP2 total energy:                    -93.25898807

 SCS-MP2 correlation energy:           -0.34522173   (PS=  1.200000  PT=  0.333333)
 SCS-MP2 total energy:                -93.25493996

 ITER.      SQ.NORM     CORR.ENERGY   TOTAL ENERGY   ENERGY CHANGE        DEN1      VAR(S)    VAR(P)  DIIS     TIME  TIME/IT
   1      1.11524252    -0.35207899   -93.26179723    -0.00280915     0.00969038  0.24D-02  0.30D-02  1  1     0.09     0.06
   2      1.12465473    -0.35251380   -93.26223203    -0.00043481    -0.00987064  0.50D-04  0.41D-03  2  2     0.14     0.06
   3      1.12962029    -0.35274505   -93.26246329    -0.00023126    -0.00248173  0.15D-04  0.40D-04  3  3     0.19     0.06
   4      1.13168524    -0.35283300   -93.26255123    -0.00008794    -0.00074159  0.48D-06  0.43D-05  4  4     0.24     0.06
   5      1.13215227    -0.35283062   -93.26254886     0.00000238    -0.00012896  0.95D-07  0.39D-06  5  5     0.28     0.06
   6      1.13225258    -0.35282838   -93.26254662     0.00000224    -0.00002661  0.82D-08  0.29D-07  6  6     0.34     0.06
   7      1.13226013    -0.35283025   -93.26254849    -0.00000187    -0.00000225  0.91D-09  0.25D-08  6  1     0.39     0.06
   8      1.13226041    -0.35283076   -93.26254899    -0.00000050     0.00000048  0.81D-10  0.20D-09  6  2     0.44     0.06
   9      1.13226083    -0.35283081   -93.26254905    -0.00000006    -0.00000026  0.94D-11  0.14D-10  6  3     0.50     0.06
  10      1.13226074    -0.35283085   -93.26254908    -0.00000003     0.00000008  0.10D-11  0.13D-11  6  4     0.55     0.06
  11      1.13226067    -0.35283086   -93.26254909    -0.00000001     0.00000003  0.14D-12  0.14D-12  6  5     0.61     0.06
  12      1.13226058    -0.35283086   -93.26254910    -0.00000000     0.00000003  0.13D-13  0.14D-13  6  1     0.66     0.06
  13      1.13226055    -0.35283087   -93.26254910    -0.00000000     0.00000001  0.87D-15  0.81D-15  6  6     0.72     0.06
  14      1.13226055    -0.35283087   -93.26254910    -0.00000000     0.00000000  0.18D-15  0.13D-15  6  2     0.77     0.06
  15      1.13226055    -0.35283087   -93.26254910    -0.00000000     0.00000000  0.31D-16  0.14D-16  6  4     0.82     0.06
  16      1.13226055    -0.35283087   -93.26254910     0.00000000    -0.00000000  0.24D-17  0.15D-17  6  3     0.87     0.06
  17      1.13226055    -0.35283087   -93.26254910     0.00000000    -0.00000000  0.59D-18  0.27D-18  6  4     0.92     0.06
  18      1.13226055    -0.35283087   -93.26254910     0.00000000    -0.00000000  0.21D-19  0.18D-19  6  1     0.98     0.06
  19      1.13226055    -0.35283087   -93.26254910    -0.00000000    -0.00000000  0.27D-20  0.17D-20  6  5     1.04     0.06
  20      1.13226055    -0.35283087   -93.26254910    -0.00000000     0.00000000  0.31D-21  0.21D-21  6  6     1.10     0.06

 Norm of t1 vector:      0.06295463      S-energy:    -0.00000000      T1 diagnostic:  0.01407708
                                                                       D1 diagnostic:  0.02784029


 Total CPU time for triples:      0.26 sec


 RESULTS
 =======

  Reference energy                    -92.909718235360
  CCSD singlet pair energy             -0.245566949028
  CCSD triplet pair energy             -0.107263916192
  CCSD correlation energy              -0.352830865220

  Triples (T) contribution             -0.018291905916
  Total correlation energy             -0.371122771136

  CCSD total energy                   -93.262549100580
  CCSD[T] energy                      -93.281621090753
  CCSD-T energy                       -93.280453858963
 !CCSD(T) total energy                -93.280841006496

 Timing summary (sec):

 STEP                 CPU(USER)    SYS     CPU(TOT)    WALL
 Transformation          0.04      0.03      0.07      0.07
 CCSD iterations         1.06      0.17      1.23      1.23
 Triples                 0.26      0.00      0.26      0.27

 Program statistics:

 Available memory in ccsd:               994999800
 Min. memory needed in ccsd:                166428
 Max. memory used in ccsd:                  196881
 Max. memory used in cckext:                233267 (20 integral passes)



 **********************************************************************************************************************************
 DATASETS  * FILE   NREC   LENGTH (MB)   RECORD NAMES
              1      20       70.97       500      610      700      900      950      970     1000      129      960     1100   
                                          VAR    BASINP    GEOM    SYMINP    ZMAT    AOBASIS   BASIS     P2S    ABASIS      S 
                                         1400     1410     1200     1210     1080     1600     1650     1300     1700     1380   
                                           T        V       H0       H01     AOSYM     SMH    MOLCAS    ERIS     OPER     JKOP   

              2       4        2.88       700     1000      520     2100   
                                         GEOM     BASIS   MCVARS     RHF  

 PROGRAMS   *        TOTAL   CCSD(T)        HF       INT
 CPU TIMES  *         2.87      1.40      0.30      1.04
 REAL TIME  *         3.93 SEC
 DISK USED  *       163.98 MB      
 **********************************************************************************************************************************

 CCSD(T)/aug-cc-pVTZ energy=    -93.280841006496

        CCSD(T)         HF-SCF  
    -93.28084101    -92.90971824
 **********************************************************************************************************************************
 Molpro calculation terminated
 Variable memory released
