
 Primary working directories    : /tmp/r2666/232521.maple
 Secondary working directories  : /tmp/r2666/232521.maple
 Wavefunction directory         : /ddn/home4/r2666/wfu/
 Main file repository           : /tmp/r2666/232521.maple/

 SHA1      : d5ffa45e93fdbca01ffc919aa182cfdae0147319
 NAME      : 2015.1.35
 ARCHNAME  : linux/x86_64
 FC        : /opt/intel/composer_xe_2015.1.133/bin/intel64/ifort
 BLASLIB   : -Wl,-_start-group /opt/intel/mkl/lib/intel64/libmkl_intel_ilp64.a /opt/intel/mkl/lib/intel64/libmkl_intel_thread.a /opt/intel/mkl/lib/intel64/libmkl_core.a -Wl,-_end-group
 id        : olemiss

 Nodes     nprocs
 cn075        1

 Using customized tuning parameters: mindgm=1; mindgv=20; mindgc=4; mindgr=1; noblas=0; minvec=7
 default implementation of scratch files=df  

 ***,hcn CCSD(T)/TZ-F12 QFF
 memory, 995, m;
 gthresh,energy=1.d-12,zero=1.d-22,oneint=1.d-22,twoint=1.d-22;
 gthresh,optgrad=1.d-8,optstep=1.d-8;
 nocompress;
 geomtyp=xyz
 bohr
 geometry={
 3
         20        20
 N        0.0000000000        0.0000000000        1.1278509343
 C        0.0000000000        0.0000000000       -1.0415501027
 H        0.0000000000        0.0000000000       -3.0833708136
 }
 
 basis=avtz
   {hf,maxit=500;accu,20;}
 {ccsd(t),nocheck,maxit=250;orbital,IGNORE_ERROR;}

 Variables initialized (889), CPU time= 0.01 sec
 Commands  initialized (702), CPU time= 0.02 sec, 572 directives.
 Default parameters read. Elapsed time= 0.05 sec

 Checking input...
 Passed
1


                                         ***  PROGRAM SYSTEM MOLPRO  ***
                                       Copyright, TTI GmbH Stuttgart, 2015
                                    Version 2015.1 linked Jul  9 2018 13:16:40


 **********************************************************************************************************************************
 LABEL *   hcn CCSD(T)/TZ-F12 QFF                                                        
  64 bit serial version                                                                  DATE: 06-Feb-20          TIME: 09:54:17  
 **********************************************************************************************************************************

 SHA1:             d5ffa45e93fdbca01ffc919aa182cfdae0147319
 **********************************************************************************************************************************

 THRESHOLDS:

 ZERO    =  1.00D-22  ONEINT  =  1.00D-22  TWOINT  =  1.00D-22  PREFAC  =  1.00D-14  LOCALI  =  1.00D-09  EORDER  =  1.00D-04
 ENERGY  =  1.00D-12  ETEST   =  0.00D+00  EDENS   =  0.00D+00  THRDEDEF=  1.00D-06  GRADIENT=  1.00D-02  STEP    =  1.00D-03
 ORBITAL =  1.00D-05  CIVEC   =  1.00D-05  COEFF   =  1.00D-04  PRINTCI =  5.00D-02  PUNCHCI =  9.90D+01  OPTGRAD =  3.00D-04
 OPTENERG=  1.00D-06  OPTSTEP =  3.00D-04  THRGRAD =  1.00D-10  COMPRESS=  1.00D-11  VARMIN  =  1.00D-07  VARMAX  =  1.00D-03
 THRDOUB =  0.00D+00  THRDIV  =  1.00D-05  THRRED  =  1.00D-07  THRPSP  =  1.00D+00  THRDC   =  1.00D-10  THRCS   =  1.00D-10
 THRNRM  =  1.00D-08  THREQ   =  0.00D+00  THRDE   =  1.00D+00  THRREF  =  1.00D-05  SPARFAC =  1.00D+00  THRDLP  =  1.00D-07
 THRDIA  =  1.00D-10  THRDLS  =  1.00D-07  THRGPS  =  0.00D+00  THRKEX  =  0.00D+00  THRDIS  =  2.00D-01  THRVAR  =  1.00D-10
 THRLOC  =  1.00D-06  THRGAP  =  1.00D-06  THRLOCT = -1.00D+00  THRGAPT = -1.00D+00  THRORB  =  1.00D-06  THRMLTP =  0.00D+00
 THRCPQCI=  1.00D-10  KEXTA   =  0.00D+00  THRCOARS=  0.00D+00  SYMTOL  =  1.00D-06  GRADTOL =  1.00D-06  THROVL  =  1.00D-08
 THRORTH =  1.00D-08  GRID    =  1.00D-06  GRIDMAX =  1.00D-03  DTMAX   =  0.00D+00  THROCCDE=  1.00D-01  THROCCDE=  1.00D-01



 THRESHOLDS:

 ZERO    =  1.00D-22  ONEINT  =  1.00D-22  TWOINT  =  1.00D-22  PREFAC  =  1.00D-14  LOCALI  =  1.00D-09  EORDER  =  1.00D-04
 ENERGY  =  1.00D-12  ETEST   =  0.00D+00  EDENS   =  0.00D+00  THRDEDEF=  1.00D-06  GRADIENT=  1.00D-02  STEP    =  1.00D-03
 ORBITAL =  1.00D-05  CIVEC   =  1.00D-05  COEFF   =  1.00D-04  PRINTCI =  5.00D-02  PUNCHCI =  9.90D+01  OPTGRAD =  1.00D-08
 OPTENERG=  1.00D-06  OPTSTEP =  1.00D-08  THRGRAD =  1.00D-10  COMPRESS=  1.00D-11  VARMIN  =  1.00D-07  VARMAX  =  1.00D-03
 THRDOUB =  0.00D+00  THRDIV  =  1.00D-05  THRRED  =  1.00D-07  THRPSP  =  1.00D+00  THRDC   =  1.00D-10  THRCS   =  1.00D-10
 THRNRM  =  1.00D-08  THREQ   =  0.00D+00  THRDE   =  1.00D+00  THRREF  =  1.00D-05  SPARFAC =  1.00D+00  THRDLP  =  1.00D-07
 THRDIA  =  1.00D-10  THRDLS  =  1.00D-07  THRGPS  =  0.00D+00  THRKEX  =  0.00D+00  THRDIS  =  2.00D-01  THRVAR  =  1.00D-10
 THRLOC  =  1.00D-06  THRGAP  =  1.00D-06  THRLOCT = -1.00D+00  THRGAPT = -1.00D+00  THRORB  =  1.00D-06  THRMLTP =  0.00D+00
 THRCPQCI=  1.00D-10  KEXTA   =  0.00D+00  THRCOARS=  0.00D+00  SYMTOL  =  1.00D-06  GRADTOL =  1.00D-06  THROVL  =  1.00D-08
 THRORTH =  1.00D-08  GRID    =  1.00D-06  GRIDMAX =  1.00D-03  DTMAX   =  0.00D+00  THROCCDE=  1.00D-01  THROCCDE=  1.00D-01



 Input parameters for SORTINT:

 COMPRESS =    0.000000
 C_FINAL  =    1.000000
 DEBUG    =   -1.000000
 C_SORT1  =    0.000000
 C_SEWARD =    0.000000
 THRESH   =    0.000000
 IO       =  molpro                                                          
 SPRI     =    0.000000
 SETTING GEOMTYP        =    XYZ
 ZUNIT=BOHR
 

 Variable memory set to  995000000 words,  buffer space   230000 words

 SETTING BASIS          =    AVTZ


 Recomputing integrals since basis changed


 Using spherical harmonics

 Library entry N      S aug-cc-pVTZ          selected for orbital group  1
 Library entry N      P aug-cc-pVTZ          selected for orbital group  1
 Library entry N      D aug-cc-pVTZ          selected for orbital group  1
 Library entry N      F aug-cc-pVTZ          selected for orbital group  1
 Library entry C      S aug-cc-pVTZ          selected for orbital group  2
 Library entry C      P aug-cc-pVTZ          selected for orbital group  2
 Library entry C      D aug-cc-pVTZ          selected for orbital group  2
 Library entry C      F aug-cc-pVTZ          selected for orbital group  2
 Library entry H      S aug-cc-pVTZ          selected for orbital group  3
 Library entry H      P aug-cc-pVTZ          selected for orbital group  3
 Library entry H      D aug-cc-pVTZ          selected for orbital group  3


 PROGRAM * SEWARD (Integral evaluation for generally contracted gaussian basis sets)     Author: Roland Lindh, 1990

 Geometry written to block  1 of record 700


 Point group  C2v 



 ATOMIC COORDINATES

 NR  ATOM    CHARGE       X              Y              Z

   1  N       7.00    0.000000000    0.000000000    1.127850934
   2  C       6.00    0.000000000    0.000000000   -1.041550103
   3  H       1.00    0.000000000    0.000000000   -3.083370814

 Bond lengths in Bohr (Angstrom)

 1-2  2.169401037  2-3  2.041820711
     ( 1.147997590)     ( 1.080484989)

 Bond angles

  1-2-3  179.99999829

 NUCLEAR CHARGE:                   14
 NUMBER OF PRIMITIVE AOS:         161
 NUMBER OF SYMMETRY AOS:          141
 NUMBER OF CONTRACTIONS:          115   (  49A1  +  27B1  +  27B2  +  12A2  )
 NUMBER OF CORE ORBITALS:           2   (   2A1  +   0B1  +   0B2  +   0A2  )
 NUMBER OF VALENCE ORBITALS:        9   (   5A1  +   2B1  +   2B2  +   0A2  )


 NUCLEAR REPULSION ENERGY   23.96096176

 EXTRA SYMMETRY OF AOS IN SYMMETRY 1:   1 1 1 1 1 1 1 1 1 1   2 1 2 1 2 1 2 1 2 1   1 1 1 1 1 1 1 1 1 2   1 2 1 2 1 2 1 2 1 1
                                        1 1 1 1 1 1 2 1 2
 EXTRA SYMMETRY OF AOS IN SYMMETRY 2:   1 1 1 1 1 1 1 1 2 1   2 1 1 1 1 1 1 1 1 2   1 2 1 1 1 1 1
 EXTRA SYMMETRY OF AOS IN SYMMETRY 3:   1 1 1 1 1 1 1 1 2 1   2 1 1 1 1 1 1 1 1 2   1 2 1 1 1 1 1

 Eigenvalues of metric

         1 0.899E-04 0.198E-03 0.637E-03 0.124E-02 0.138E-02 0.178E-02 0.522E-02 0.701E-02
         2 0.224E-02 0.546E-02 0.127E-01 0.168E-01 0.310E-01 0.447E-01 0.817E-01 0.102E+00
         3 0.224E-02 0.546E-02 0.127E-01 0.168E-01 0.310E-01 0.447E-01 0.817E-01 0.102E+00
         4 0.384E-01 0.114E+00 0.148E+00 0.333E+00 0.486E+00 0.510E+00 0.743E+00 0.900E+00


 Contracted 2-electron integrals neglected if value below      1.0D-22

        5027745. INTEGRALS WRITTEN OUT IN    1228 BLOCKS ON RECORD 1290 OF FILE 1


 NUMBER OF SORTED TWO-ELECTRON INTEGRALS:    5853730.     BUFFER LENGTH:  32768
 NUMBER OF SEGMENTS:   1  SEGMENT LENGTH:    5853730      RECORD LENGTH: 524288

 Memory used in sort:       6.41 MW

 SORT1 READ     5027745. AND WROTE     5162824. INTEGRALS IN     15 RECORDS. CPU TIME:     0.12 SEC, REAL TIME:     0.15 SEC
 SORT2 READ     5162824. AND WROTE     5853730. INTEGRALS IN      1 RECORDS. CPU TIME:     0.11 SEC, REAL TIME:     0.14 SEC

 FILE SIZES:   FILE 1:   100.7 MBYTE,  FILE 4:    62.9 MBYTE,   TOTAL:    163.7 MBYTE

 OPERATOR DM      FOR CENTER  0  COORDINATES:    0.000000    0.000000    0.000000


 **********************************************************************************************************************************
 DATASETS  * FILE   NREC   LENGTH (MB)   RECORD NAMES
              1      19       63.47       500      610      700      900      950      970     1000      129      960     1100   
                                          VAR    BASINP    GEOM    SYMINP    ZMAT    AOBASIS   BASIS     P2S    ABASIS      S 
                                         1400     1410     1200     1210     1080     1600     1650     1300     1700   
                                           T        V       H0       H01     AOSYM     SMH    MOLCAS    ERIS     OPER   

 PROGRAMS   *        TOTAL       INT
 CPU TIMES  *         1.26      1.15
 REAL TIME  *         1.86 SEC
 DISK USED  *       163.98 MB      
 **********************************************************************************************************************************


 PROGRAM * RHF-SCF (CLOSED SHELL)       Authors: W. Meyer, H.-J. Werner


 NUMBER OF ELECTRONS:       7+    7-
 CONVERGENCE THRESHOLDS:    1.00E-10 (Density)    1.00E-13 (Energy)
 MAX. NUMBER OF ITERATIONS:      500
 INTERPOLATION TYPE:            DIIS
 INTERPOLATION STEPS:              2 (START)      1 (STEP)
 LEVEL SHIFTS:                  0.00 (CLOSED)  0.00 (OPEN) 



 Orbital guess generated from atomic densities. Full valence occupancy:    7   2   2   0

 Molecular orbital dump at record        2100.2

 Initial occupancy:   5   1   1   0

 ITERATION    DDIFF          GRAD             ENERGY        2-EL.EN.            DIPOLE MOMENTS         DIIS   ORB.
    1      0.000D+00      0.000D+00       -92.88470659    112.074084    0.00000    0.00000   -1.79510    0    start
    2      0.000D+00      0.930D-02       -92.89394702    111.174978    0.00000    0.00000   -0.91003    1    diag
    3      0.135D-01      0.831D-02       -92.90921558    111.714792    0.00000    0.00000   -1.31277    2    diag
    4      0.616D-02      0.656D-03       -92.90943626    111.681285    0.00000    0.00000   -1.30407    3    diag
    5      0.108D-02      0.144D-03       -92.90944930    111.690460    0.00000    0.00000   -1.30263    4    diag
    6      0.260D-03      0.398D-04       -92.90945007    111.685597    0.00000    0.00000   -1.30270    5    diag
    7      0.570D-04      0.141D-04       -92.90945015    111.686786    0.00000    0.00000   -1.30278    6    diag
    8      0.199D-04      0.272D-05       -92.90945015    111.686738    0.00000    0.00000   -1.30274    7    diag
    9      0.376D-05      0.310D-06       -92.90945015    111.686747    0.00000    0.00000   -1.30274    8    diag
   10      0.507D-06      0.353D-07       -92.90945015    111.686748    0.00000    0.00000   -1.30274    9    orth
   11      0.548D-07      0.426D-08       -92.90945015    111.686748    0.00000    0.00000   -1.30274    9    diag
   12      0.989D-08      0.369D-09       -92.90945015    111.686748    0.00000    0.00000   -1.30274    9    diag
   13      0.907D-09      0.353D-10       -92.90945015    111.686748    0.00000    0.00000   -1.30274    9    diag
   14      0.148D-09      0.485D-11       -92.90945015    111.686748    0.00000    0.00000   -1.30274    9    diag
   15      0.210D-10      0.910D-12       -92.90945015    111.686748    0.00000    0.00000   -1.30274    9    diag
   16      0.462D-11      0.195D-12       -92.90945015    111.686748    0.00000    0.00000   -1.30274    0    orth

 Final occupancy:   5   1   1   0

 !RHF STATE 1.1 Energy                -92.909450148709
 Nuclear energy                        23.96096176
 One-electron energy                 -172.71378574
 Two-electron energy                   55.84337383
 Virial quotient                       -1.00229866
 !RHF STATE 1.1 Dipole moment           0.00000000     0.00000000    -1.30273602
 Dipole moment /Debye                   0.00000000     0.00000000    -3.31100782

 Orbital energies:

         1.1          2.1          3.1          4.1          5.1          6.1          7.1
    -15.597941   -11.291593    -1.239390    -0.806656    -0.581447     0.023045     0.071586

         1.2          2.2          3.2
     -0.498246     0.072937     0.137071

         1.3          2.3          3.3
     -0.498246     0.072937     0.137071

         1.4          2.4
      0.294059     0.550430

 HOMO      1.2    -0.498246 =     -13.5580eV
 LUMO      6.1     0.023045 =       0.6271eV
 LUMO-HOMO         0.521291 =      14.1851eV


 **********************************************************************************************************************************
 DATASETS  * FILE   NREC   LENGTH (MB)   RECORD NAMES
              1      19       63.47       500      610      700      900      950      970     1000      129      960     1100   
                                          VAR    BASINP    GEOM    SYMINP    ZMAT    AOBASIS   BASIS     P2S    ABASIS      S 
                                         1400     1410     1200     1210     1080     1600     1650     1300     1700   
                                           T        V       H0       H01     AOSYM     SMH    MOLCAS    ERIS     OPER   

              2       4        2.88       700     1000      520     2100   
                                         GEOM     BASIS   MCVARS     RHF  

 PROGRAMS   *        TOTAL        HF       INT
 CPU TIMES  *         1.62      0.36      1.15
 REAL TIME  *         2.31 SEC
 DISK USED  *       163.98 MB      
 **********************************************************************************************************************************


 PROGRAM * CCSD (Closed-shell coupled cluster)     Authors: C. Hampel, H.-J. Werner, 1991, M. Deegan, P.J. Knowles, 1992


 Convergence thresholds:  THRVAR = 1.00D-08  THRDEN = 1.00D-12

 CCSD(T)     terms to be evaluated (factor= 1.000)


 Number of core orbitals:           2 (   2   0   0   0 )
 Number of closed-shell orbitals:   5 (   3   1   1   0 )
 Number of external orbitals:     108 (  44  26  26  12 )

 Molecular orbitals read from record     2100.2  Type=RHF/CANONICAL (state 1.1)

 Number of N-1 electron functions:               5
 Number of N-2 electron functions:              15
 Number of singly external CSFs:               184
 Number of doubly external CSFs:             39026
 Total number of CSFs:                       39211

 Length of J-op  integral file:               0.00 MB
 Length of K-op  integral file:               0.31 MB
 Length of 3-ext integral record:             0.00 MB

 Memory could be reduced to 2.91 Mwords without degradation in triples

 Integral transformation finished. Total CPU:   0.05 sec, npass=  1  Memory used:   0.44 MW

 Reference energy:                    -92.90945015

 MP2 singlet pair energy:              -0.22143917
 MP2 triplet pair energy:              -0.12793399
 MP2 correlation energy:               -0.34937317
 MP2 total energy:                    -93.25882331

 SCS-MP2 correlation energy:           -0.34533038   (PS=  1.200000  PT=  0.333333)
 SCS-MP2 total energy:                -93.25478053

 ITER.      SQ.NORM     CORR.ENERGY   TOTAL ENERGY   ENERGY CHANGE        DEN1      VAR(S)    VAR(P)  DIIS     TIME  TIME/IT
   1      1.11542976    -0.35218609   -93.26163624    -0.00281292     0.00971294  0.24D-02  0.30D-02  1  1     0.12     0.07
   2      1.12487816    -0.35262890   -93.26207905    -0.00044281    -0.00989057  0.50D-04  0.41D-03  2  2     0.18     0.07
   3      1.12987852    -0.35286360   -93.26231375    -0.00023470    -0.00249650  0.15D-04  0.40D-04  3  3     0.25     0.07
   4      1.13195176    -0.35295207   -93.26240222    -0.00008847    -0.00074420  0.48D-06  0.44D-05  4  4     0.31     0.07
   5      1.13242129    -0.35295010   -93.26240025     0.00000197    -0.00012945  0.10D-06  0.40D-06  5  5     0.37     0.07
   6      1.13252413    -0.35294772   -93.26239787     0.00000238    -0.00002726  0.84D-08  0.29D-07  6  6     0.44     0.07
   7      1.13253194    -0.35294959   -93.26239973    -0.00000186    -0.00000233  0.93D-09  0.26D-08  6  1     0.51     0.07
   8      1.13253229    -0.35295008   -93.26240023    -0.00000050     0.00000046  0.89D-10  0.20D-09  6  2     0.58     0.07
   9      1.13253272    -0.35295014   -93.26240029    -0.00000006    -0.00000026  0.93D-11  0.14D-10  6  3     0.65     0.07
  10      1.13253263    -0.35295017   -93.26240032    -0.00000003     0.00000008  0.11D-11  0.13D-11  6  4     0.71     0.07
  11      1.13253256    -0.35295018   -93.26240033    -0.00000001     0.00000003  0.13D-12  0.15D-12  6  5     0.78     0.07
  12      1.13253250    -0.35295019   -93.26240034    -0.00000000     0.00000002  0.14D-13  0.27D-13  6  6     0.84     0.07
  13      1.13253247    -0.35295019   -93.26240034    -0.00000000     0.00000001  0.13D-14  0.65D-14  6  1     0.90     0.07
  14      1.13253245    -0.35295019   -93.26240034    -0.00000000     0.00000001  0.86D-16  0.88D-15  6  2     0.96     0.07
  15      1.13253244    -0.35295019   -93.26240034    -0.00000000     0.00000000  0.23D-16  0.96D-16  6  3     1.04     0.07
  16      1.13253244    -0.35295019   -93.26240034     0.00000000     0.00000000  0.37D-17  0.72D-17  6  5     1.10     0.07
  17      1.13253244    -0.35295019   -93.26240034    -0.00000000     0.00000000  0.20D-18  0.28D-18  6  4     1.17     0.07
  18      1.13253244    -0.35295019   -93.26240034     0.00000000     0.00000000  0.47D-19  0.38D-19  6  6     1.24     0.07
  19      1.13253244    -0.35295019   -93.26240034    -0.00000000    -0.00000000  0.94D-20  0.52D-20  6  1     1.30     0.07

 Norm of t1 vector:      0.06303841      S-energy:     0.00000000      T1 diagnostic:  0.01409582
                                                                       D1 diagnostic:  0.02782699


 Total CPU time for triples:      0.30 sec


 RESULTS
 =======

  Reference energy                    -92.909450148708
  CCSD singlet pair energy             -0.245694086435
  CCSD triplet pair energy             -0.107256104613
  CCSD correlation energy              -0.352950191047

  Triples (T) contribution             -0.018318271276
  Total correlation energy             -0.371268462322

  CCSD total energy                   -93.262400339755
  CCSD[T] energy                      -93.281500391457
  CCSD-T energy                       -93.280330868199
 !CCSD(T) total energy                -93.280718611031

 Timing summary (sec):

 STEP                 CPU(USER)    SYS     CPU(TOT)    WALL
 Transformation          0.05      0.02      0.07      0.07
 CCSD iterations         1.25      0.16      1.41      1.40
 Triples                 0.30      0.03      0.33      0.34

 Program statistics:

 Available memory in ccsd:               994999800
 Min. memory needed in ccsd:                166428
 Max. memory used in ccsd:                  196881
 Max. memory used in cckext:                233267 (19 integral passes)



 **********************************************************************************************************************************
 DATASETS  * FILE   NREC   LENGTH (MB)   RECORD NAMES
              1      20       70.98       500      610      700      900      950      970     1000      129      960     1100   
                                          VAR    BASINP    GEOM    SYMINP    ZMAT    AOBASIS   BASIS     P2S    ABASIS      S 
                                         1400     1410     1200     1210     1080     1600     1650     1300     1700     1380   
                                           T        V       H0       H01     AOSYM     SMH    MOLCAS    ERIS     OPER     JKOP   

              2       4        2.88       700     1000      520     2100   
                                         GEOM     BASIS   MCVARS     RHF  

 PROGRAMS   *        TOTAL   CCSD(T)        HF       INT
 CPU TIMES  *         3.24      1.62      0.36      1.15
 REAL TIME  *         4.16 SEC
 DISK USED  *       163.98 MB      
 **********************************************************************************************************************************

 CCSD(T)/aug-cc-pVTZ energy=    -93.280718611031

        CCSD(T)         HF-SCF  
    -93.28071861    -92.90945015
 **********************************************************************************************************************************
 Molpro calculation terminated
 Variable memory released
