
 Primary working directories    : /tmp/r2666/232514.maple
 Secondary working directories  : /tmp/r2666/232514.maple
 Wavefunction directory         : /ddn/home4/r2666/wfu/
 Main file repository           : /tmp/r2666/232514.maple/

 SHA1      : d5ffa45e93fdbca01ffc919aa182cfdae0147319
 NAME      : 2015.1.35
 ARCHNAME  : linux/x86_64
 FC        : /opt/intel/composer_xe_2015.1.133/bin/intel64/ifort
 BLASLIB   : -Wl,-_start-group /opt/intel/mkl/lib/intel64/libmkl_intel_ilp64.a /opt/intel/mkl/lib/intel64/libmkl_intel_thread.a /opt/intel/mkl/lib/intel64/libmkl_core.a -Wl,-_end-group
 id        : olemiss

 Nodes     nprocs
 cn093        1

 Using customized tuning parameters: mindgm=1; mindgv=20; mindgc=4; mindgr=1; noblas=0; minvec=7
 default implementation of scratch files=df  

 ***,hcn CCSD(T)/TZ-F12 QFF
 memory, 995, m;
 gthresh,energy=1.d-12,zero=1.d-22,oneint=1.d-22,twoint=1.d-22;
 gthresh,optgrad=1.d-8,optstep=1.d-8;
 nocompress;
 geomtyp=xyz
 bohr
 geometry={
 3
         13        13
 N        0.0000000000        0.0000000000        1.1152527611
 C        0.0000000000        0.0000000000       -1.0541482760
 H        0.0000000000        0.0000000000       -3.0581744671
 }
 
 basis=avtz
   {hf,maxit=500;accu,20;}
 {ccsd(t),nocheck,maxit=250;orbital,IGNORE_ERROR;}

 Variables initialized (889), CPU time= 0.01 sec
 Commands  initialized (702), CPU time= 0.01 sec, 572 directives.
 Default parameters read. Elapsed time= 0.04 sec

 Checking input...
 Passed
1


                                         ***  PROGRAM SYSTEM MOLPRO  ***
                                       Copyright, TTI GmbH Stuttgart, 2015
                                    Version 2015.1 linked Jul  9 2018 13:16:40


 **********************************************************************************************************************************
 LABEL *   hcn CCSD(T)/TZ-F12 QFF                                                        
  64 bit serial version                                                                  DATE: 06-Feb-20          TIME: 09:54:15  
 **********************************************************************************************************************************

 SHA1:             d5ffa45e93fdbca01ffc919aa182cfdae0147319
 **********************************************************************************************************************************

 THRESHOLDS:

 ZERO    =  1.00D-22  ONEINT  =  1.00D-22  TWOINT  =  1.00D-22  PREFAC  =  1.00D-14  LOCALI  =  1.00D-09  EORDER  =  1.00D-04
 ENERGY  =  1.00D-12  ETEST   =  0.00D+00  EDENS   =  0.00D+00  THRDEDEF=  1.00D-06  GRADIENT=  1.00D-02  STEP    =  1.00D-03
 ORBITAL =  1.00D-05  CIVEC   =  1.00D-05  COEFF   =  1.00D-04  PRINTCI =  5.00D-02  PUNCHCI =  9.90D+01  OPTGRAD =  3.00D-04
 OPTENERG=  1.00D-06  OPTSTEP =  3.00D-04  THRGRAD =  1.00D-10  COMPRESS=  1.00D-11  VARMIN  =  1.00D-07  VARMAX  =  1.00D-03
 THRDOUB =  0.00D+00  THRDIV  =  1.00D-05  THRRED  =  1.00D-07  THRPSP  =  1.00D+00  THRDC   =  1.00D-10  THRCS   =  1.00D-10
 THRNRM  =  1.00D-08  THREQ   =  0.00D+00  THRDE   =  1.00D+00  THRREF  =  1.00D-05  SPARFAC =  1.00D+00  THRDLP  =  1.00D-07
 THRDIA  =  1.00D-10  THRDLS  =  1.00D-07  THRGPS  =  0.00D+00  THRKEX  =  0.00D+00  THRDIS  =  2.00D-01  THRVAR  =  1.00D-10
 THRLOC  =  1.00D-06  THRGAP  =  1.00D-06  THRLOCT = -1.00D+00  THRGAPT = -1.00D+00  THRORB  =  1.00D-06  THRMLTP =  0.00D+00
 THRCPQCI=  1.00D-10  KEXTA   =  0.00D+00  THRCOARS=  0.00D+00  SYMTOL  =  1.00D-06  GRADTOL =  1.00D-06  THROVL  =  1.00D-08
 THRORTH =  1.00D-08  GRID    =  1.00D-06  GRIDMAX =  1.00D-03  DTMAX   =  0.00D+00  THROCCDE=  1.00D-01  THROCCDE=  1.00D-01



 THRESHOLDS:

 ZERO    =  1.00D-22  ONEINT  =  1.00D-22  TWOINT  =  1.00D-22  PREFAC  =  1.00D-14  LOCALI  =  1.00D-09  EORDER  =  1.00D-04
 ENERGY  =  1.00D-12  ETEST   =  0.00D+00  EDENS   =  0.00D+00  THRDEDEF=  1.00D-06  GRADIENT=  1.00D-02  STEP    =  1.00D-03
 ORBITAL =  1.00D-05  CIVEC   =  1.00D-05  COEFF   =  1.00D-04  PRINTCI =  5.00D-02  PUNCHCI =  9.90D+01  OPTGRAD =  1.00D-08
 OPTENERG=  1.00D-06  OPTSTEP =  1.00D-08  THRGRAD =  1.00D-10  COMPRESS=  1.00D-11  VARMIN  =  1.00D-07  VARMAX  =  1.00D-03
 THRDOUB =  0.00D+00  THRDIV  =  1.00D-05  THRRED  =  1.00D-07  THRPSP  =  1.00D+00  THRDC   =  1.00D-10  THRCS   =  1.00D-10
 THRNRM  =  1.00D-08  THREQ   =  0.00D+00  THRDE   =  1.00D+00  THRREF  =  1.00D-05  SPARFAC =  1.00D+00  THRDLP  =  1.00D-07
 THRDIA  =  1.00D-10  THRDLS  =  1.00D-07  THRGPS  =  0.00D+00  THRKEX  =  0.00D+00  THRDIS  =  2.00D-01  THRVAR  =  1.00D-10
 THRLOC  =  1.00D-06  THRGAP  =  1.00D-06  THRLOCT = -1.00D+00  THRGAPT = -1.00D+00  THRORB  =  1.00D-06  THRMLTP =  0.00D+00
 THRCPQCI=  1.00D-10  KEXTA   =  0.00D+00  THRCOARS=  0.00D+00  SYMTOL  =  1.00D-06  GRADTOL =  1.00D-06  THROVL  =  1.00D-08
 THRORTH =  1.00D-08  GRID    =  1.00D-06  GRIDMAX =  1.00D-03  DTMAX   =  0.00D+00  THROCCDE=  1.00D-01  THROCCDE=  1.00D-01



 Input parameters for SORTINT:

 COMPRESS =    0.000000
 C_FINAL  =    1.000000
 DEBUG    =   -1.000000
 C_SORT1  =    0.000000
 C_SEWARD =    0.000000
 THRESH   =    0.000000
 IO       =  molpro                                                          
 SPRI     =    0.000000
 SETTING GEOMTYP        =    XYZ
 ZUNIT=BOHR
 

 Variable memory set to  995000000 words,  buffer space   230000 words

 SETTING BASIS          =    AVTZ


 Recomputing integrals since basis changed


 Using spherical harmonics

 Library entry N      S aug-cc-pVTZ          selected for orbital group  1
 Library entry N      P aug-cc-pVTZ          selected for orbital group  1
 Library entry N      D aug-cc-pVTZ          selected for orbital group  1
 Library entry N      F aug-cc-pVTZ          selected for orbital group  1
 Library entry C      S aug-cc-pVTZ          selected for orbital group  2
 Library entry C      P aug-cc-pVTZ          selected for orbital group  2
 Library entry C      D aug-cc-pVTZ          selected for orbital group  2
 Library entry C      F aug-cc-pVTZ          selected for orbital group  2
 Library entry H      S aug-cc-pVTZ          selected for orbital group  3
 Library entry H      P aug-cc-pVTZ          selected for orbital group  3
 Library entry H      D aug-cc-pVTZ          selected for orbital group  3


 PROGRAM * SEWARD (Integral evaluation for generally contracted gaussian basis sets)     Author: Roland Lindh, 1990

 Geometry written to block  1 of record 700


 Point group  C2v 



 ATOMIC COORDINATES

 NR  ATOM    CHARGE       X              Y              Z

   1  N       7.00    0.000000000    0.000000000    1.115252761
   2  C       6.00    0.000000000    0.000000000   -1.054148276
   3  H       1.00    0.000000000    0.000000000   -3.058174467

 Bond lengths in Bohr (Angstrom)

 1-2  2.169401037  2-3  2.004026191
     ( 1.147997590)     ( 1.060484990)

 Bond angles

  1-2-3  180.00000000

 NUCLEAR CHARGE:                   14
 NUMBER OF PRIMITIVE AOS:         161
 NUMBER OF SYMMETRY AOS:          141
 NUMBER OF CONTRACTIONS:          115   (  49A1  +  27B1  +  27B2  +  12A2  )
 NUMBER OF CORE ORBITALS:           2   (   2A1  +   0B1  +   0B2  +   0A2  )
 NUMBER OF VALENCE ORBITALS:        9   (   5A1  +   2B1  +   2B2  +   0A2  )


 NUCLEAR REPULSION ENERGY   24.03143391

 EXTRA SYMMETRY OF AOS IN SYMMETRY 1:   1 1 1 1 1 1 1 1 1 1   2 1 2 1 2 1 2 1 2 1   1 1 1 1 1 1 1 1 1 2   1 2 1 2 1 2 1 2 1 1
                                        1 1 1 1 1 1 2 1 2
 EXTRA SYMMETRY OF AOS IN SYMMETRY 2:   1 1 1 1 1 1 1 1 2 1   2 1 1 1 1 1 1 1 1 2   1 2 1 1 1 1 1
 EXTRA SYMMETRY OF AOS IN SYMMETRY 3:   1 1 1 1 1 1 1 1 2 1   2 1 1 1 1 1 1 1 1 2   1 2 1 1 1 1 1

 Eigenvalues of metric

         1 0.852E-04 0.196E-03 0.608E-03 0.121E-02 0.136E-02 0.177E-02 0.516E-02 0.683E-02
         2 0.223E-02 0.517E-02 0.125E-01 0.159E-01 0.307E-01 0.445E-01 0.798E-01 0.102E+00
         3 0.223E-02 0.517E-02 0.125E-01 0.159E-01 0.307E-01 0.445E-01 0.798E-01 0.102E+00
         4 0.378E-01 0.111E+00 0.146E+00 0.331E+00 0.481E+00 0.510E+00 0.741E+00 0.893E+00


 Contracted 2-electron integrals neglected if value below      1.0D-22

        5027751. INTEGRALS WRITTEN OUT IN    1228 BLOCKS ON RECORD 1290 OF FILE 1


 NUMBER OF SORTED TWO-ELECTRON INTEGRALS:    5853730.     BUFFER LENGTH:  32768
 NUMBER OF SEGMENTS:   1  SEGMENT LENGTH:    5853730      RECORD LENGTH: 524288

 Memory used in sort:       6.41 MW

 SORT1 READ     5027751. AND WROTE     5162813. INTEGRALS IN     15 RECORDS. CPU TIME:     0.10 SEC, REAL TIME:     0.16 SEC
 SORT2 READ     5162813. AND WROTE     5853730. INTEGRALS IN      1 RECORDS. CPU TIME:     0.12 SEC, REAL TIME:     0.17 SEC

 FILE SIZES:   FILE 1:   100.7 MBYTE,  FILE 4:    62.9 MBYTE,   TOTAL:    163.7 MBYTE

 OPERATOR DM      FOR CENTER  0  COORDINATES:    0.000000    0.000000    0.000000


 **********************************************************************************************************************************
 DATASETS  * FILE   NREC   LENGTH (MB)   RECORD NAMES
              1      19       63.46       500      610      700      900      950      970     1000      129      960     1100   
                                          VAR    BASINP    GEOM    SYMINP    ZMAT    AOBASIS   BASIS     P2S    ABASIS      S 
                                         1400     1410     1200     1210     1080     1600     1650     1300     1700   
                                           T        V       H0       H01     AOSYM     SMH    MOLCAS    ERIS     OPER   

 PROGRAMS   *        TOTAL       INT
 CPU TIMES  *         1.31      1.20
 REAL TIME  *         2.81 SEC
 DISK USED  *       163.98 MB      
 **********************************************************************************************************************************


 PROGRAM * RHF-SCF (CLOSED SHELL)       Authors: W. Meyer, H.-J. Werner


 NUMBER OF ELECTRONS:       7+    7-
 CONVERGENCE THRESHOLDS:    1.00E-10 (Density)    1.00E-13 (Energy)
 MAX. NUMBER OF ITERATIONS:      500
 INTERPOLATION TYPE:            DIIS
 INTERPOLATION STEPS:              2 (START)      1 (STEP)
 LEVEL SHIFTS:                  0.00 (CLOSED)  0.00 (OPEN) 



 Orbital guess generated from atomic densities. Full valence occupancy:    7   2   2   0

 Molecular orbital dump at record        2100.2

 Initial occupancy:   5   1   1   0

 ITERATION    DDIFF          GRAD             ENERGY        2-EL.EN.            DIPOLE MOMENTS         DIIS   ORB.
    1      0.000D+00      0.000D+00       -92.88583723    112.170340    0.00000    0.00000   -1.76931    0    start
    2      0.000D+00      0.914D-02       -92.89501923    111.295710    0.00000    0.00000   -0.90625    1    diag
    3      0.135D-01      0.813D-02       -92.90960398    111.825435    0.00000    0.00000   -1.30179    2    diag
    4      0.604D-02      0.665D-03       -92.90982745    111.790377    0.00000    0.00000   -1.29302    3    diag
    5      0.110D-02      0.144D-03       -92.90984018    111.799396    0.00000    0.00000   -1.29162    4    diag
    6      0.259D-03      0.389D-04       -92.90984092    111.794580    0.00000    0.00000   -1.29171    5    diag
    7      0.552D-04      0.138D-04       -92.90984099    111.795725    0.00000    0.00000   -1.29177    6    diag
    8      0.194D-04      0.268D-05       -92.90984099    111.795680    0.00000    0.00000   -1.29173    7    diag
    9      0.376D-05      0.307D-06       -92.90984099    111.795689    0.00000    0.00000   -1.29173    8    diag
   10      0.508D-06      0.359D-07       -92.90984099    111.795690    0.00000    0.00000   -1.29173    9    orth
   11      0.550D-07      0.446D-08       -92.90984099    111.795690    0.00000    0.00000   -1.29173    9    diag
   12      0.103D-07      0.395D-09       -92.90984099    111.795690    0.00000    0.00000   -1.29173    9    diag
   13      0.100D-08      0.483D-10       -92.90984099    111.795690    0.00000    0.00000   -1.29173    9    diag
   14      0.154D-09      0.518D-11       -92.90984099    111.795690    0.00000    0.00000   -1.29173    9    diag
   15      0.251D-10      0.130D-11       -92.90984099    111.795690    0.00000    0.00000   -1.29173    0    orth

 Final occupancy:   5   1   1   0

 !RHF STATE 1.1 Energy                -92.909840992196
 Nuclear energy                        24.03143391
 One-electron energy                 -172.83911975
 Two-electron energy                   55.89784485
 Virial quotient                       -1.00196995
 !RHF STATE 1.1 Dipole moment           0.00000000     0.00000000    -1.29172859
 Dipole moment /Debye                   0.00000000     0.00000000    -3.28303156

 Orbital energies:

         1.1          2.1          3.1          4.1          5.1          6.1          7.1
    -15.598321   -11.290107    -1.239650    -0.814440    -0.582119     0.023134     0.071719

         1.2          2.2          3.2
     -0.498540     0.072953     0.136778

         1.3          2.3          3.3
     -0.498540     0.072953     0.136778

         1.4          2.4
      0.293789     0.550080

 HOMO      1.2    -0.498540 =     -13.5660eV
 LUMO      6.1     0.023134 =       0.6295eV
 LUMO-HOMO         0.521674 =      14.1955eV


 **********************************************************************************************************************************
 DATASETS  * FILE   NREC   LENGTH (MB)   RECORD NAMES
              1      19       63.46       500      610      700      900      950      970     1000      129      960     1100   
                                          VAR    BASINP    GEOM    SYMINP    ZMAT    AOBASIS   BASIS     P2S    ABASIS      S 
                                         1400     1410     1200     1210     1080     1600     1650     1300     1700   
                                           T        V       H0       H01     AOSYM     SMH    MOLCAS    ERIS     OPER   

              2       4        2.88       700     1000      520     2100   
                                         GEOM     BASIS   MCVARS     RHF  

 PROGRAMS   *        TOTAL        HF       INT
 CPU TIMES  *         1.65      0.34      1.20
 REAL TIME  *         3.31 SEC
 DISK USED  *       163.98 MB      
 **********************************************************************************************************************************


 PROGRAM * CCSD (Closed-shell coupled cluster)     Authors: C. Hampel, H.-J. Werner, 1991, M. Deegan, P.J. Knowles, 1992


 Convergence thresholds:  THRVAR = 1.00D-08  THRDEN = 1.00D-12

 CCSD(T)     terms to be evaluated (factor= 1.000)


 Number of core orbitals:           2 (   2   0   0   0 )
 Number of closed-shell orbitals:   5 (   3   1   1   0 )
 Number of external orbitals:     108 (  44  26  26  12 )

 Molecular orbitals read from record     2100.2  Type=RHF/CANONICAL (state 1.1)

 Number of N-1 electron functions:               5
 Number of N-2 electron functions:              15
 Number of singly external CSFs:               184
 Number of doubly external CSFs:             39026
 Total number of CSFs:                       39211

 Length of J-op  integral file:               0.00 MB
 Length of K-op  integral file:               0.31 MB
 Length of 3-ext integral record:             0.00 MB

 Memory could be reduced to 2.91 Mwords without degradation in triples

 Integral transformation finished. Total CPU:   0.07 sec, npass=  1  Memory used:   0.44 MW

 Reference energy:                    -92.90984099

 MP2 singlet pair energy:              -0.22128852
 MP2 triplet pair energy:              -0.12788218
 MP2 correlation energy:               -0.34917070
 MP2 total energy:                    -93.25901169

 SCS-MP2 correlation energy:           -0.34511736   (PS=  1.200000  PT=  0.333333)
 SCS-MP2 total energy:                -93.25495835

 ITER.      SQ.NORM     CORR.ENERGY   TOTAL ENERGY   ENERGY CHANGE        DEN1      VAR(S)    VAR(P)  DIIS     TIME  TIME/IT
   1      1.11505895    -0.35197642   -93.26181741    -0.00280572     0.00966833  0.24D-02  0.30D-02  1  1     0.17     0.09
   2      1.12443617    -0.35240347   -93.26224446    -0.00042705    -0.00985130  0.50D-04  0.40D-03  2  2     0.24     0.09
   3      1.12936830    -0.35263145   -93.26247245    -0.00022799    -0.00246743  0.15D-04  0.40D-04  3  3     0.31     0.08
   4      1.13142561    -0.35271888   -93.26255988    -0.00008743    -0.00073918  0.47D-06  0.43D-05  4  4     0.38     0.08
   5      1.13189028    -0.35271612   -93.26255711     0.00000277    -0.00012850  0.89D-07  0.38D-06  5  5     0.44     0.08
   6      1.13198816    -0.35271402   -93.26255501     0.00000210    -0.00002597  0.81D-08  0.28D-07  6  6     0.51     0.08
   7      1.13199546    -0.35271590   -93.26255689    -0.00000188    -0.00000218  0.90D-09  0.25D-08  6  1     0.57     0.08
   8      1.13199568    -0.35271641   -93.26255740    -0.00000051     0.00000051  0.75D-10  0.20D-09  6  2     0.64     0.08
   9      1.13199609    -0.35271647   -93.26255746    -0.00000006    -0.00000026  0.97D-11  0.13D-10  6  3     0.71     0.08
  10      1.13199600    -0.35271650   -93.26255749    -0.00000003     0.00000008  0.99D-12  0.13D-11  6  4     0.78     0.08
  11      1.13199592    -0.35271651   -93.26255750    -0.00000001     0.00000003  0.15D-12  0.13D-12  6  5     0.84     0.08
  12      1.13199584    -0.35271652   -93.26255751    -0.00000000     0.00000003  0.15D-13  0.13D-13  6  1     0.91     0.08
  13      1.13199581    -0.35271652   -93.26255751    -0.00000000     0.00000001  0.10D-14  0.86D-15  6  6     0.97     0.08
  14      1.13199581    -0.35271652   -93.26255751    -0.00000000     0.00000000  0.27D-15  0.14D-15  6  2     1.04     0.08
  15      1.13199581    -0.35271652   -93.26255751    -0.00000000     0.00000000  0.29D-16  0.19D-16  6  4     1.10     0.08
  16      1.13199581    -0.35271652   -93.26255751     0.00000000    -0.00000000  0.30D-17  0.18D-17  6  3     1.18     0.08
  17      1.13199581    -0.35271652   -93.26255751     0.00000000    -0.00000000  0.26D-18  0.23D-18  6  5     1.24     0.08
  18      1.13199581    -0.35271652   -93.26255751     0.00000000    -0.00000000  0.31D-19  0.37D-19  6  6     1.30     0.08
  19      1.13199581    -0.35271652   -93.26255751    -0.00000000    -0.00000000  0.33D-20  0.32D-20  6  1     1.35     0.08
  20      1.13199581    -0.35271652   -93.26255751    -0.00000000     0.00000000  0.44D-21  0.42D-21  6  2     1.42     0.08
  21      1.13199581    -0.35271652   -93.26255751    -0.00000000    -0.00000000  0.10D-21  0.56D-22  6  4     1.49     0.08

 Norm of t1 vector:      0.06287595      S-energy:     0.00000000      T1 diagnostic:  0.01405949
                                                                       D1 diagnostic:  0.02785389


 Total CPU time for triples:      0.35 sec


 RESULTS
 =======

  Reference energy                    -92.909840992196
  CCSD singlet pair energy             -0.245444347276
  CCSD triplet pair energy             -0.107272170959
  CCSD correlation energy              -0.352716518235

  Triples (T) contribution             -0.018266067602
  Total correlation energy             -0.370982585836

  CCSD total energy                   -93.262557510431
  CCSD[T] energy                      -93.281602016351
  CCSD-T energy                       -93.280437012117
 !CCSD(T) total energy                -93.280823578033

 Timing summary (sec):

 STEP                 CPU(USER)    SYS     CPU(TOT)    WALL
 Transformation          0.07      0.02      0.09      0.20
 CCSD iterations         1.42      0.26      1.68      1.67
 Triples                 0.35      0.03      0.38      0.38

 Program statistics:

 Available memory in ccsd:               994999800
 Min. memory needed in ccsd:                166428
 Max. memory used in ccsd:                  196881
 Max. memory used in cckext:                233267 (21 integral passes)



 **********************************************************************************************************************************
 DATASETS  * FILE   NREC   LENGTH (MB)   RECORD NAMES
              1      20       70.97       500      610      700      900      950      970     1000      129      960     1100   
                                          VAR    BASINP    GEOM    SYMINP    ZMAT    AOBASIS   BASIS     P2S    ABASIS      S 
                                         1400     1410     1200     1210     1080     1600     1650     1300     1700     1380   
                                           T        V       H0       H01     AOSYM     SMH    MOLCAS    ERIS     OPER     JKOP   

              2       4        2.88       700     1000      520     2100   
                                         GEOM     BASIS   MCVARS     RHF  

 PROGRAMS   *        TOTAL   CCSD(T)        HF       INT
 CPU TIMES  *         3.53      1.87      0.34      1.20
 REAL TIME  *         6.71 SEC
 DISK USED  *       163.98 MB      
 **********************************************************************************************************************************

 CCSD(T)/aug-cc-pVTZ energy=    -93.280823578033

        CCSD(T)         HF-SCF  
    -93.28082358    -92.90984099
 **********************************************************************************************************************************
 Molpro calculation terminated
 Variable memory released
