
 Primary working directories    : /tmp/r2666/232545.maple
 Secondary working directories  : /tmp/r2666/232545.maple
 Wavefunction directory         : /ddn/home4/r2666/wfu/
 Main file repository           : /tmp/r2666/232545.maple/

 SHA1      : d5ffa45e93fdbca01ffc919aa182cfdae0147319
 NAME      : 2015.1.35
 ARCHNAME  : linux/x86_64
 FC        : /opt/intel/composer_xe_2015.1.133/bin/intel64/ifort
 BLASLIB   : -Wl,-_start-group /opt/intel/mkl/lib/intel64/libmkl_intel_ilp64.a /opt/intel/mkl/lib/intel64/libmkl_intel_thread.a /opt/intel/mkl/lib/intel64/libmkl_core.a -Wl,-_end-group
 id        : olemiss

 Nodes     nprocs
 cn080        1

 Using customized tuning parameters: mindgm=1; mindgv=20; mindgc=4; mindgr=1; noblas=0; minvec=7
 default implementation of scratch files=df  

 ***,hcn CCSD(T)/TZ-F12 QFF
 memory, 995, m;
 gthresh,energy=1.d-12,zero=1.d-22,oneint=1.d-22,twoint=1.d-22;
 gthresh,optgrad=1.d-8,optstep=1.d-8;
 nocompress;
 geomtyp=xyz
 bohr
 geometry={
 3
         44        44
 N        0.0000000000        0.0000000000        1.1372995643
 C        0.0000000000        0.0000000000       -1.0509987327
 H        0.0000000000        0.0000000000       -3.0833708136
 }
 
 basis=avtz
   {hf,maxit=500;accu,20;}
 {ccsd(t),nocheck,maxit=250;orbital,IGNORE_ERROR;}

 Variables initialized (889), CPU time= 0.00 sec
 Commands  initialized (702), CPU time= 0.00 sec, 572 directives.
 Default parameters read. Elapsed time= 0.04 sec

 Checking input...
 Passed
1


                                         ***  PROGRAM SYSTEM MOLPRO  ***
                                       Copyright, TTI GmbH Stuttgart, 2015
                                    Version 2015.1 linked Jul  9 2018 13:16:40


 **********************************************************************************************************************************
 LABEL *   hcn CCSD(T)/TZ-F12 QFF                                                        
  64 bit serial version                                                                  DATE: 06-Feb-20          TIME: 09:54:25  
 **********************************************************************************************************************************

 SHA1:             d5ffa45e93fdbca01ffc919aa182cfdae0147319
 **********************************************************************************************************************************

 THRESHOLDS:

 ZERO    =  1.00D-22  ONEINT  =  1.00D-22  TWOINT  =  1.00D-22  PREFAC  =  1.00D-14  LOCALI  =  1.00D-09  EORDER  =  1.00D-04
 ENERGY  =  1.00D-12  ETEST   =  0.00D+00  EDENS   =  0.00D+00  THRDEDEF=  1.00D-06  GRADIENT=  1.00D-02  STEP    =  1.00D-03
 ORBITAL =  1.00D-05  CIVEC   =  1.00D-05  COEFF   =  1.00D-04  PRINTCI =  5.00D-02  PUNCHCI =  9.90D+01  OPTGRAD =  3.00D-04
 OPTENERG=  1.00D-06  OPTSTEP =  3.00D-04  THRGRAD =  1.00D-10  COMPRESS=  1.00D-11  VARMIN  =  1.00D-07  VARMAX  =  1.00D-03
 THRDOUB =  0.00D+00  THRDIV  =  1.00D-05  THRRED  =  1.00D-07  THRPSP  =  1.00D+00  THRDC   =  1.00D-10  THRCS   =  1.00D-10
 THRNRM  =  1.00D-08  THREQ   =  0.00D+00  THRDE   =  1.00D+00  THRREF  =  1.00D-05  SPARFAC =  1.00D+00  THRDLP  =  1.00D-07
 THRDIA  =  1.00D-10  THRDLS  =  1.00D-07  THRGPS  =  0.00D+00  THRKEX  =  0.00D+00  THRDIS  =  2.00D-01  THRVAR  =  1.00D-10
 THRLOC  =  1.00D-06  THRGAP  =  1.00D-06  THRLOCT = -1.00D+00  THRGAPT = -1.00D+00  THRORB  =  1.00D-06  THRMLTP =  0.00D+00
 THRCPQCI=  1.00D-10  KEXTA   =  0.00D+00  THRCOARS=  0.00D+00  SYMTOL  =  1.00D-06  GRADTOL =  1.00D-06  THROVL  =  1.00D-08
 THRORTH =  1.00D-08  GRID    =  1.00D-06  GRIDMAX =  1.00D-03  DTMAX   =  0.00D+00  THROCCDE=  1.00D-01  THROCCDE=  1.00D-01



 THRESHOLDS:

 ZERO    =  1.00D-22  ONEINT  =  1.00D-22  TWOINT  =  1.00D-22  PREFAC  =  1.00D-14  LOCALI  =  1.00D-09  EORDER  =  1.00D-04
 ENERGY  =  1.00D-12  ETEST   =  0.00D+00  EDENS   =  0.00D+00  THRDEDEF=  1.00D-06  GRADIENT=  1.00D-02  STEP    =  1.00D-03
 ORBITAL =  1.00D-05  CIVEC   =  1.00D-05  COEFF   =  1.00D-04  PRINTCI =  5.00D-02  PUNCHCI =  9.90D+01  OPTGRAD =  1.00D-08
 OPTENERG=  1.00D-06  OPTSTEP =  1.00D-08  THRGRAD =  1.00D-10  COMPRESS=  1.00D-11  VARMIN  =  1.00D-07  VARMAX  =  1.00D-03
 THRDOUB =  0.00D+00  THRDIV  =  1.00D-05  THRRED  =  1.00D-07  THRPSP  =  1.00D+00  THRDC   =  1.00D-10  THRCS   =  1.00D-10
 THRNRM  =  1.00D-08  THREQ   =  0.00D+00  THRDE   =  1.00D+00  THRREF  =  1.00D-05  SPARFAC =  1.00D+00  THRDLP  =  1.00D-07
 THRDIA  =  1.00D-10  THRDLS  =  1.00D-07  THRGPS  =  0.00D+00  THRKEX  =  0.00D+00  THRDIS  =  2.00D-01  THRVAR  =  1.00D-10
 THRLOC  =  1.00D-06  THRGAP  =  1.00D-06  THRLOCT = -1.00D+00  THRGAPT = -1.00D+00  THRORB  =  1.00D-06  THRMLTP =  0.00D+00
 THRCPQCI=  1.00D-10  KEXTA   =  0.00D+00  THRCOARS=  0.00D+00  SYMTOL  =  1.00D-06  GRADTOL =  1.00D-06  THROVL  =  1.00D-08
 THRORTH =  1.00D-08  GRID    =  1.00D-06  GRIDMAX =  1.00D-03  DTMAX   =  0.00D+00  THROCCDE=  1.00D-01  THROCCDE=  1.00D-01



 Input parameters for SORTINT:

 COMPRESS =    0.000000
 C_FINAL  =    1.000000
 DEBUG    =   -1.000000
 C_SORT1  =    0.000000
 C_SEWARD =    0.000000
 THRESH   =    0.000000
 IO       =  molpro                                                          
 SPRI     =    0.000000
 SETTING GEOMTYP        =    XYZ
 ZUNIT=BOHR
 

 Variable memory set to  995000000 words,  buffer space   230000 words

 SETTING BASIS          =    AVTZ


 Recomputing integrals since basis changed


 Using spherical harmonics

 Library entry N      S aug-cc-pVTZ          selected for orbital group  1
 Library entry N      P aug-cc-pVTZ          selected for orbital group  1
 Library entry N      D aug-cc-pVTZ          selected for orbital group  1
 Library entry N      F aug-cc-pVTZ          selected for orbital group  1
 Library entry C      S aug-cc-pVTZ          selected for orbital group  2
 Library entry C      P aug-cc-pVTZ          selected for orbital group  2
 Library entry C      D aug-cc-pVTZ          selected for orbital group  2
 Library entry C      F aug-cc-pVTZ          selected for orbital group  2
 Library entry H      S aug-cc-pVTZ          selected for orbital group  3
 Library entry H      P aug-cc-pVTZ          selected for orbital group  3
 Library entry H      D aug-cc-pVTZ          selected for orbital group  3


 PROGRAM * SEWARD (Integral evaluation for generally contracted gaussian basis sets)     Author: Roland Lindh, 1990

 Geometry written to block  1 of record 700


 Point group  C2v 



 ATOMIC COORDINATES

 NR  ATOM    CHARGE       X              Y              Z

   1  N       7.00    0.000000000    0.000000000    1.137299564
   2  C       6.00    0.000000000    0.000000000   -1.050998733
   3  H       1.00    0.000000000    0.000000000   -3.083370814

 Bond lengths in Bohr (Angstrom)

 1-2  2.188298297  2-3  2.032372081
     ( 1.157997589)     ( 1.075484989)

 Bond angles

  1-2-3  180.00000000

 NUCLEAR CHARGE:                   14
 NUMBER OF PRIMITIVE AOS:         161
 NUMBER OF SYMMETRY AOS:          141
 NUMBER OF CONTRACTIONS:          115   (  49A1  +  27B1  +  27B2  +  12A2  )
 NUMBER OF CORE ORBITALS:           2   (   2A1  +   0B1  +   0B2  +   0A2  )
 NUMBER OF VALENCE ORBITALS:        9   (   5A1  +   2B1  +   2B2  +   0A2  )


 NUCLEAR REPULSION ENERGY   23.80371542

 EXTRA SYMMETRY OF AOS IN SYMMETRY 1:   1 1 1 1 1 1 1 1 1 1   2 1 2 1 2 1 2 1 2 1   1 1 1 1 1 1 1 1 1 2   1 2 1 2 1 2 1 2 1 1
                                        1 1 1 1 1 1 2 1 2
 EXTRA SYMMETRY OF AOS IN SYMMETRY 2:   1 1 1 1 1 1 1 1 2 1   2 1 1 1 1 1 1 1 1 2   1 2 1 1 1 1 1
 EXTRA SYMMETRY OF AOS IN SYMMETRY 3:   1 1 1 1 1 1 1 1 2 1   2 1 1 1 1 1 1 1 1 2   1 2 1 1 1 1 1

 Eigenvalues of metric

         1 0.897E-04 0.200E-03 0.634E-03 0.125E-02 0.141E-02 0.180E-02 0.519E-02 0.699E-02
         2 0.230E-02 0.539E-02 0.130E-01 0.166E-01 0.312E-01 0.449E-01 0.829E-01 0.104E+00
         3 0.230E-02 0.539E-02 0.130E-01 0.166E-01 0.312E-01 0.449E-01 0.829E-01 0.104E+00
         4 0.391E-01 0.114E+00 0.149E+00 0.334E+00 0.491E+00 0.510E+00 0.743E+00 0.900E+00


 Contracted 2-electron integrals neglected if value below      1.0D-22

        5027689. INTEGRALS WRITTEN OUT IN    1228 BLOCKS ON RECORD 1290 OF FILE 1


 NUMBER OF SORTED TWO-ELECTRON INTEGRALS:    5853730.     BUFFER LENGTH:  32768
 NUMBER OF SEGMENTS:   1  SEGMENT LENGTH:    5853730      RECORD LENGTH: 524288

 Memory used in sort:       6.41 MW

 SORT1 READ     5027689. AND WROTE     5162711. INTEGRALS IN     15 RECORDS. CPU TIME:     0.12 SEC, REAL TIME:     0.14 SEC
 SORT2 READ     5162711. AND WROTE     5853730. INTEGRALS IN      1 RECORDS. CPU TIME:     0.09 SEC, REAL TIME:     0.15 SEC

 FILE SIZES:   FILE 1:   100.7 MBYTE,  FILE 4:    62.9 MBYTE,   TOTAL:    163.7 MBYTE

 OPERATOR DM      FOR CENTER  0  COORDINATES:    0.000000    0.000000    0.000000


 **********************************************************************************************************************************
 DATASETS  * FILE   NREC   LENGTH (MB)   RECORD NAMES
              1      19       63.47       500      610      700      900      950      970     1000      129      960     1100   
                                          VAR    BASINP    GEOM    SYMINP    ZMAT    AOBASIS   BASIS     P2S    ABASIS      S 
                                         1400     1410     1200     1210     1080     1600     1650     1300     1700   
                                           T        V       H0       H01     AOSYM     SMH    MOLCAS    ERIS     OPER   

 PROGRAMS   *        TOTAL       INT
 CPU TIMES  *         1.13      1.05
 REAL TIME  *         1.72 SEC
 DISK USED  *       163.98 MB      
 **********************************************************************************************************************************


 PROGRAM * RHF-SCF (CLOSED SHELL)       Authors: W. Meyer, H.-J. Werner


 NUMBER OF ELECTRONS:       7+    7-
 CONVERGENCE THRESHOLDS:    1.00E-10 (Density)    1.00E-13 (Energy)
 MAX. NUMBER OF ITERATIONS:      500
 INTERPOLATION TYPE:            DIIS
 INTERPOLATION STEPS:              2 (START)      1 (STEP)
 LEVEL SHIFTS:                  0.00 (CLOSED)  0.00 (OPEN) 



 Orbital guess generated from atomic densities. Full valence occupancy:    7   2   2   0

 Molecular orbital dump at record        2100.2

 Initial occupancy:   5   1   1   0

 ITERATION    DDIFF          GRAD             ENERGY        2-EL.EN.            DIPOLE MOMENTS         DIIS   ORB.
    1      0.000D+00      0.000D+00       -92.88356199    111.700795    0.00000    0.00000   -1.79652    0    start
    2      0.000D+00      0.923D-02       -92.89235151    110.869779    0.00000    0.00000   -0.89932    1    diag
    3      0.135D-01      0.837D-02       -92.90792185    111.400051    0.00000    0.00000   -1.31265    2    diag
    4      0.619D-02      0.667D-03       -92.90814917    111.359342    0.00000    0.00000   -1.30387    3    diag
    5      0.110D-02      0.151D-03       -92.90816280    111.371600    0.00000    0.00000   -1.30252    4    diag
    6      0.263D-03      0.422D-04       -92.90816373    111.366002    0.00000    0.00000   -1.30247    5    diag
    7      0.628D-04      0.152D-04       -92.90816381    111.367120    0.00000    0.00000   -1.30256    6    diag
    8      0.214D-04      0.291D-05       -92.90816382    111.367082    0.00000    0.00000   -1.30253    7    diag
    9      0.410D-05      0.329D-06       -92.90816382    111.367091    0.00000    0.00000   -1.30252    8    diag
   10      0.542D-06      0.368D-07       -92.90816382    111.367092    0.00000    0.00000   -1.30252    9    orth
   11      0.577D-07      0.427D-08       -92.90816382    111.367092    0.00000    0.00000   -1.30252    9    diag
   12      0.102D-07      0.366D-09       -92.90816382    111.367092    0.00000    0.00000   -1.30252    9    diag
   13      0.886D-09      0.309D-10       -92.90816382    111.367092    0.00000    0.00000   -1.30252    9    diag
   14      0.154D-09      0.434D-11       -92.90816382    111.367092    0.00000    0.00000   -1.30252    9    diag
   15      0.190D-10      0.101D-11       -92.90816382    111.367092    0.00000    0.00000   -1.30252    9    diag
   16      0.467D-11      0.280D-12       -92.90816382    111.367092    0.00000    0.00000   -1.30252    0    orth

 Final occupancy:   5   1   1   0

 !RHF STATE 1.1 Energy                -92.908163815511
 Nuclear energy                        23.80371542
 One-electron energy                 -172.39542511
 Two-electron energy                   55.68354587
 Virial quotient                       -1.00280873
 !RHF STATE 1.1 Dipole moment           0.00000000     0.00000000    -1.30252207
 Dipole moment /Debye                   0.00000000     0.00000000    -3.31046403

 Orbital energies:

         1.1          2.1          3.1          4.1          5.1          6.1          7.1
    -15.601654   -11.294885    -1.234765    -0.810108    -0.582140     0.023014     0.071527

         1.2          2.2          3.2
     -0.495307     0.072856     0.135988

         1.3          2.3          3.3
     -0.495307     0.072856     0.135988

         1.4          2.4
      0.294056     0.550270

 HOMO      1.2    -0.495307 =     -13.4780eV
 LUMO      6.1     0.023014 =       0.6263eV
 LUMO-HOMO         0.518322 =      14.1043eV


 **********************************************************************************************************************************
 DATASETS  * FILE   NREC   LENGTH (MB)   RECORD NAMES
              1      19       63.47       500      610      700      900      950      970     1000      129      960     1100   
                                          VAR    BASINP    GEOM    SYMINP    ZMAT    AOBASIS   BASIS     P2S    ABASIS      S 
                                         1400     1410     1200     1210     1080     1600     1650     1300     1700   
                                           T        V       H0       H01     AOSYM     SMH    MOLCAS    ERIS     OPER   

              2       4        2.88       700     1000      520     2100   
                                         GEOM     BASIS   MCVARS     RHF  

 PROGRAMS   *        TOTAL        HF       INT
 CPU TIMES  *         1.45      0.33      1.05
 REAL TIME  *         2.26 SEC
 DISK USED  *       163.98 MB      
 **********************************************************************************************************************************


 PROGRAM * CCSD (Closed-shell coupled cluster)     Authors: C. Hampel, H.-J. Werner, 1991, M. Deegan, P.J. Knowles, 1992


 Convergence thresholds:  THRVAR = 1.00D-08  THRDEN = 1.00D-12

 CCSD(T)     terms to be evaluated (factor= 1.000)


 Number of core orbitals:           2 (   2   0   0   0 )
 Number of closed-shell orbitals:   5 (   3   1   1   0 )
 Number of external orbitals:     108 (  44  26  26  12 )

 Molecular orbitals read from record     2100.2  Type=RHF/CANONICAL (state 1.1)

 Number of N-1 electron functions:               5
 Number of N-2 electron functions:              15
 Number of singly external CSFs:               184
 Number of doubly external CSFs:             39026
 Total number of CSFs:                       39211

 Length of J-op  integral file:               0.00 MB
 Length of K-op  integral file:               0.31 MB
 Length of 3-ext integral record:             0.00 MB

 Memory could be reduced to 2.91 Mwords without degradation in triples

 Integral transformation finished. Total CPU:   0.06 sec, npass=  1  Memory used:   0.44 MW

 Reference energy:                    -92.90816382

 MP2 singlet pair energy:              -0.22252891
 MP2 triplet pair energy:              -0.12880576
 MP2 correlation energy:               -0.35133467
 MP2 total energy:                    -93.25949848

 SCS-MP2 correlation energy:           -0.34718050   (PS=  1.200000  PT=  0.333333)
 SCS-MP2 total energy:                -93.25534431

 ITER.      SQ.NORM     CORR.ENERGY   TOTAL ENERGY   ENERGY CHANGE        DEN1      VAR(S)    VAR(P)  DIIS     TIME  TIME/IT
   1      1.11658961    -0.35361904   -93.26178286    -0.00228437     0.01062592  0.25D-02  0.31D-02  1  1     0.14     0.08
   2      1.12626249    -0.35398193   -93.26214574    -0.00036289    -0.01010807  0.53D-04  0.42D-03  2  2     0.22     0.08
   3      1.13143881    -0.35422595   -93.26238977    -0.00024403    -0.00255839  0.16D-04  0.43D-04  3  3     0.28     0.08
   4      1.13362187    -0.35432028   -93.26248409    -0.00009432    -0.00077521  0.50D-06  0.47D-05  4  4     0.33     0.08
   5      1.13412282    -0.35431823   -93.26248204     0.00000205    -0.00013668  0.99D-07  0.44D-06  5  5     0.38     0.08
   6      1.13423415    -0.35431567   -93.26247949     0.00000256    -0.00002928  0.94D-08  0.32D-07  6  6     0.43     0.07
   7      1.13424249    -0.35431776   -93.26248158    -0.00000209    -0.00000244  0.99D-09  0.29D-08  6  1     0.51     0.08
   8      1.13424279    -0.35431831   -93.26248212    -0.00000055     0.00000051  0.82D-10  0.23D-09  6  2     0.57     0.08
   9      1.13424325    -0.35431837   -93.26248219    -0.00000006    -0.00000029  0.11D-10  0.15D-10  6  3     0.62     0.07
  10      1.13424315    -0.35431841   -93.26248223    -0.00000004     0.00000009  0.10D-11  0.15D-11  6  4     0.67     0.07
  11      1.13424306    -0.35431842   -93.26248224    -0.00000001     0.00000004  0.17D-12  0.15D-12  6  5     0.72     0.07
  12      1.13424297    -0.35431843   -93.26248224    -0.00000001     0.00000003  0.16D-13  0.15D-13  6  1     0.77     0.07
  13      1.13424293    -0.35431843   -93.26248224    -0.00000000     0.00000001  0.94D-15  0.91D-15  6  6     0.83     0.07
  14      1.13424293    -0.35431843   -93.26248224    -0.00000000     0.00000000  0.29D-15  0.13D-15  6  2     0.89     0.07
  15      1.13424293    -0.35431843   -93.26248224    -0.00000000     0.00000000  0.26D-16  0.22D-16  6  4     0.94     0.07
  16      1.13424293    -0.35431843   -93.26248224     0.00000000    -0.00000000  0.38D-17  0.20D-17  6  3     1.00     0.07
  17      1.13424293    -0.35431843   -93.26248224     0.00000000    -0.00000000  0.34D-18  0.29D-18  6  5     1.06     0.07
  18      1.13424293    -0.35431843   -93.26248224     0.00000000    -0.00000000  0.39D-19  0.50D-19  6  6     1.12     0.07
  19      1.13424293    -0.35431843   -93.26248224    -0.00000000    -0.00000000  0.38D-20  0.39D-20  6  1     1.18     0.07
  20      1.13424293    -0.35431843   -93.26248224    -0.00000000     0.00000000  0.48D-21  0.49D-21  6  2     1.24     0.07
  21      1.13424293    -0.35431843   -93.26248224     0.00000000    -0.00000000  0.10D-21  0.64D-22  6  4     1.29     0.07

 Norm of t1 vector:      0.06435628      S-energy:    -0.00000000      T1 diagnostic:  0.01439050
                                                                       D1 diagnostic:  0.02852062


 Total CPU time for triples:      0.26 sec


 RESULTS
 =======

  Reference energy                    -92.908163815511
  CCSD singlet pair energy             -0.246816946003
  CCSD triplet pair energy             -0.107501482121
  CCSD correlation energy              -0.354318428124

  Triples (T) contribution             -0.018625868982
  Total correlation energy             -0.372944297106

  CCSD total energy                   -93.262482243635
  CCSD[T] energy                      -93.281927052638
  CCSD-T energy                       -93.280704875062
 !CCSD(T) total energy                -93.281108112617

 Timing summary (sec):

 STEP                 CPU(USER)    SYS     CPU(TOT)    WALL
 Transformation          0.06      0.02      0.08      0.11
 CCSD iterations         1.24      0.21      1.45      1.45
 Triples                 0.26      0.02      0.28      0.28

 Program statistics:

 Available memory in ccsd:               994999800
 Min. memory needed in ccsd:                166428
 Max. memory used in ccsd:                  196881
 Max. memory used in cckext:                233267 (21 integral passes)



 **********************************************************************************************************************************
 DATASETS  * FILE   NREC   LENGTH (MB)   RECORD NAMES
              1      20       70.98       500      610      700      900      950      970     1000      129      960     1100   
                                          VAR    BASINP    GEOM    SYMINP    ZMAT    AOBASIS   BASIS     P2S    ABASIS      S 
                                         1400     1410     1200     1210     1080     1600     1650     1300     1700     1380   
                                           T        V       H0       H01     AOSYM     SMH    MOLCAS    ERIS     OPER     JKOP   

              2       4        2.88       700     1000      520     2100   
                                         GEOM     BASIS   MCVARS     RHF  

 PROGRAMS   *        TOTAL   CCSD(T)        HF       INT
 CPU TIMES  *         3.05      1.60      0.33      1.05
 REAL TIME  *         4.31 SEC
 DISK USED  *       163.98 MB      
 **********************************************************************************************************************************

 CCSD(T)/aug-cc-pVTZ energy=    -93.281108112617

        CCSD(T)         HF-SCF  
    -93.28110811    -92.90816382
 **********************************************************************************************************************************
 Molpro calculation terminated
 Variable memory released
