
 Primary working directories    : /tmp/r2666/232540.maple
 Secondary working directories  : /tmp/r2666/232540.maple
 Wavefunction directory         : /ddn/home4/r2666/wfu/
 Main file repository           : /tmp/r2666/232540.maple/

 SHA1      : d5ffa45e93fdbca01ffc919aa182cfdae0147319
 NAME      : 2015.1.35
 ARCHNAME  : linux/x86_64
 FC        : /opt/intel/composer_xe_2015.1.133/bin/intel64/ifort
 BLASLIB   : -Wl,-_start-group /opt/intel/mkl/lib/intel64/libmkl_intel_ilp64.a /opt/intel/mkl/lib/intel64/libmkl_intel_thread.a /opt/intel/mkl/lib/intel64/libmkl_core.a -Wl,-_end-group
 id        : olemiss

 Nodes     nprocs
 cn079        1

 Using customized tuning parameters: mindgm=1; mindgv=20; mindgc=4; mindgr=1; noblas=0; minvec=7
 default implementation of scratch files=df  

 ***,hcn CCSD(T)/TZ-F12 QFF
 memory, 995, m;
 gthresh,energy=1.d-12,zero=1.d-22,oneint=1.d-22,twoint=1.d-22;
 gthresh,optgrad=1.d-8,optstep=1.d-8;
 nocompress;
 geomtyp=xyz
 bohr
 geometry={
 3
         39        39
 N       -0.0046142057       -0.0000000114        1.1278023967
 C        0.0096073494        0.0000000003       -1.0604496874
 H       -0.0049931437        0.0000000111       -3.0644226913
 }
 
 basis=avtz
   {hf,maxit=500;accu,20;}
 {ccsd(t),nocheck,maxit=250;orbital,IGNORE_ERROR;}

 Variables initialized (889), CPU time= 0.00 sec
 Commands  initialized (702), CPU time= 0.01 sec, 572 directives.
 Default parameters read. Elapsed time= 0.04 sec

 Checking input...
 Passed
1


                                         ***  PROGRAM SYSTEM MOLPRO  ***
                                       Copyright, TTI GmbH Stuttgart, 2015
                                    Version 2015.1 linked Jul  9 2018 13:16:40


 **********************************************************************************************************************************
 LABEL *   hcn CCSD(T)/TZ-F12 QFF                                                        
  64 bit serial version                                                                  DATE: 06-Feb-20          TIME: 09:54:23  
 **********************************************************************************************************************************

 SHA1:             d5ffa45e93fdbca01ffc919aa182cfdae0147319
 **********************************************************************************************************************************

 THRESHOLDS:

 ZERO    =  1.00D-22  ONEINT  =  1.00D-22  TWOINT  =  1.00D-22  PREFAC  =  1.00D-14  LOCALI  =  1.00D-09  EORDER  =  1.00D-04
 ENERGY  =  1.00D-12  ETEST   =  0.00D+00  EDENS   =  0.00D+00  THRDEDEF=  1.00D-06  GRADIENT=  1.00D-02  STEP    =  1.00D-03
 ORBITAL =  1.00D-05  CIVEC   =  1.00D-05  COEFF   =  1.00D-04  PRINTCI =  5.00D-02  PUNCHCI =  9.90D+01  OPTGRAD =  3.00D-04
 OPTENERG=  1.00D-06  OPTSTEP =  3.00D-04  THRGRAD =  1.00D-10  COMPRESS=  1.00D-11  VARMIN  =  1.00D-07  VARMAX  =  1.00D-03
 THRDOUB =  0.00D+00  THRDIV  =  1.00D-05  THRRED  =  1.00D-07  THRPSP  =  1.00D+00  THRDC   =  1.00D-10  THRCS   =  1.00D-10
 THRNRM  =  1.00D-08  THREQ   =  0.00D+00  THRDE   =  1.00D+00  THRREF  =  1.00D-05  SPARFAC =  1.00D+00  THRDLP  =  1.00D-07
 THRDIA  =  1.00D-10  THRDLS  =  1.00D-07  THRGPS  =  0.00D+00  THRKEX  =  0.00D+00  THRDIS  =  2.00D-01  THRVAR  =  1.00D-10
 THRLOC  =  1.00D-06  THRGAP  =  1.00D-06  THRLOCT = -1.00D+00  THRGAPT = -1.00D+00  THRORB  =  1.00D-06  THRMLTP =  0.00D+00
 THRCPQCI=  1.00D-10  KEXTA   =  0.00D+00  THRCOARS=  0.00D+00  SYMTOL  =  1.00D-06  GRADTOL =  1.00D-06  THROVL  =  1.00D-08
 THRORTH =  1.00D-08  GRID    =  1.00D-06  GRIDMAX =  1.00D-03  DTMAX   =  0.00D+00  THROCCDE=  1.00D-01  THROCCDE=  1.00D-01



 THRESHOLDS:

 ZERO    =  1.00D-22  ONEINT  =  1.00D-22  TWOINT  =  1.00D-22  PREFAC  =  1.00D-14  LOCALI  =  1.00D-09  EORDER  =  1.00D-04
 ENERGY  =  1.00D-12  ETEST   =  0.00D+00  EDENS   =  0.00D+00  THRDEDEF=  1.00D-06  GRADIENT=  1.00D-02  STEP    =  1.00D-03
 ORBITAL =  1.00D-05  CIVEC   =  1.00D-05  COEFF   =  1.00D-04  PRINTCI =  5.00D-02  PUNCHCI =  9.90D+01  OPTGRAD =  1.00D-08
 OPTENERG=  1.00D-06  OPTSTEP =  1.00D-08  THRGRAD =  1.00D-10  COMPRESS=  1.00D-11  VARMIN  =  1.00D-07  VARMAX  =  1.00D-03
 THRDOUB =  0.00D+00  THRDIV  =  1.00D-05  THRRED  =  1.00D-07  THRPSP  =  1.00D+00  THRDC   =  1.00D-10  THRCS   =  1.00D-10
 THRNRM  =  1.00D-08  THREQ   =  0.00D+00  THRDE   =  1.00D+00  THRREF  =  1.00D-05  SPARFAC =  1.00D+00  THRDLP  =  1.00D-07
 THRDIA  =  1.00D-10  THRDLS  =  1.00D-07  THRGPS  =  0.00D+00  THRKEX  =  0.00D+00  THRDIS  =  2.00D-01  THRVAR  =  1.00D-10
 THRLOC  =  1.00D-06  THRGAP  =  1.00D-06  THRLOCT = -1.00D+00  THRGAPT = -1.00D+00  THRORB  =  1.00D-06  THRMLTP =  0.00D+00
 THRCPQCI=  1.00D-10  KEXTA   =  0.00D+00  THRCOARS=  0.00D+00  SYMTOL  =  1.00D-06  GRADTOL =  1.00D-06  THROVL  =  1.00D-08
 THRORTH =  1.00D-08  GRID    =  1.00D-06  GRIDMAX =  1.00D-03  DTMAX   =  0.00D+00  THROCCDE=  1.00D-01  THROCCDE=  1.00D-01



 Input parameters for SORTINT:

 COMPRESS =    0.000000
 C_FINAL  =    1.000000
 DEBUG    =   -1.000000
 C_SORT1  =    0.000000
 C_SEWARD =    0.000000
 THRESH   =    0.000000
 IO       =  molpro                                                          
 SPRI     =    0.000000
 SETTING GEOMTYP        =    XYZ
 ZUNIT=BOHR
 

 Variable memory set to  995000000 words,  buffer space   230000 words

 SETTING BASIS          =    AVTZ


 Recomputing integrals since basis changed


 Using spherical harmonics

 Library entry N      S aug-cc-pVTZ          selected for orbital group  1
 Library entry N      P aug-cc-pVTZ          selected for orbital group  1
 Library entry N      D aug-cc-pVTZ          selected for orbital group  1
 Library entry N      F aug-cc-pVTZ          selected for orbital group  1
 Library entry C      S aug-cc-pVTZ          selected for orbital group  2
 Library entry C      P aug-cc-pVTZ          selected for orbital group  2
 Library entry C      D aug-cc-pVTZ          selected for orbital group  2
 Library entry C      F aug-cc-pVTZ          selected for orbital group  2
 Library entry H      S aug-cc-pVTZ          selected for orbital group  3
 Library entry H      P aug-cc-pVTZ          selected for orbital group  3
 Library entry H      D aug-cc-pVTZ          selected for orbital group  3


 PROGRAM * SEWARD (Integral evaluation for generally contracted gaussian basis sets)     Author: Roland Lindh, 1990

 Geometry written to block  1 of record 700


 Point group  Cs  



 ATOMIC COORDINATES

 NR  ATOM    CHARGE       X              Y              Z

   1  N       7.00   -0.004614206    0.000000000    1.127802397
   2  C       6.00    0.009607349    0.000000000   -1.060449687
   3  H       1.00   -0.004993144    0.000000000   -3.064422691

 Bond lengths in Bohr (Angstrom)

 1-2  2.188298297  2-3  2.004026191
     ( 1.157997589)     ( 1.060484990)

 Bond angles

  1-2-3  179.21020055

 NUCLEAR CHARGE:                   14
 NUMBER OF PRIMITIVE AOS:         161
 NUMBER OF SYMMETRY AOS:          141
 NUMBER OF CONTRACTIONS:          115   (  76A'  +  39A"  )
 NUMBER OF CORE ORBITALS:           2   (   2A'  +   0A"  )
 NUMBER OF VALENCE ORBITALS:        9   (   7A'  +   2A"  )


 NUCLEAR REPULSION ENERGY   23.85672630

 Eigenvalues of metric

         1 0.862E-04 0.198E-03 0.613E-03 0.123E-02 0.140E-02 0.179E-02 0.229E-02 0.513E-02
         2 0.229E-02 0.517E-02 0.128E-01 0.160E-01 0.310E-01 0.387E-01 0.449E-01 0.813E-01


 Contracted 2-electron integrals neglected if value below      1.0D-22

       10788936. INTEGRALS WRITTEN OUT IN    2635 BLOCKS ON RECORD 1290 OF FILE 1


 NUMBER OF SORTED TWO-ELECTRON INTEGRALS:   11433631.     BUFFER LENGTH:  32768
 NUMBER OF SEGMENTS:   1  SEGMENT LENGTH:   11433631      RECORD LENGTH: 524288

 Memory used in sort:      11.99 MW

 SORT1 READ    10788936. AND WROTE    10942504. INTEGRALS IN     32 RECORDS. CPU TIME:     0.15 SEC, REAL TIME:     0.23 SEC
 SORT2 READ    10942504. AND WROTE    11433631. INTEGRALS IN      1 RECORDS. CPU TIME:     0.18 SEC, REAL TIME:     0.21 SEC

 FILE SIZES:   FILE 1:   193.0 MBYTE,  FILE 4:   134.3 MBYTE,   TOTAL:    327.2 MBYTE

 OPERATOR DM      FOR CENTER  0  COORDINATES:    0.000000    0.000000    0.000000


 **********************************************************************************************************************************
 DATASETS  * FILE   NREC   LENGTH (MB)   RECORD NAMES
              1      19      111.05       500      610      700      900      950      970     1000      129      960     1100   
                                          VAR    BASINP    GEOM    SYMINP    ZMAT    AOBASIS   BASIS     P2S    ABASIS      S 
                                         1400     1410     1200     1210     1080     1600     1650     1300     1700   
                                           T        V       H0       H01     AOSYM     SMH    MOLCAS    ERIS     OPER   

 PROGRAMS   *        TOTAL       INT
 CPU TIMES  *         1.27      1.18
 REAL TIME  *         2.05 SEC
 DISK USED  *       327.55 MB      
 **********************************************************************************************************************************


 PROGRAM * RHF-SCF (CLOSED SHELL)       Authors: W. Meyer, H.-J. Werner


 NUMBER OF ELECTRONS:       7+    7-
 CONVERGENCE THRESHOLDS:    1.00E-10 (Density)    1.00E-13 (Energy)
 MAX. NUMBER OF ITERATIONS:      500
 INTERPOLATION TYPE:            DIIS
 INTERPOLATION STEPS:              2 (START)      1 (STEP)
 LEVEL SHIFTS:                  0.00 (CLOSED)  0.00 (OPEN) 



 Orbital guess generated from atomic densities. Full valence occupancy:    9   2

 Molecular orbital dump at record        2100.2

 Initial occupancy:   6   1

 ITERATION    DDIFF          GRAD             ENERGY        2-EL.EN.            DIPOLE MOMENTS         DIIS   ORB.
    1      0.000D+00      0.000D+00       -92.88435315    111.773104    0.00688    0.00000   -1.77682    0    start
    2      0.000D+00      0.702D-02       -92.89311748    110.960576   -0.00246    0.00000   -0.89681    1    diag
    3      0.101D-01      0.634D-02       -92.90814462    111.483096    0.00142    0.00000   -1.30438    2    diag
    4      0.455D-02      0.520D-03       -92.90837432    111.441224    0.00110    0.00000   -1.29548    3    diag
    5      0.833D-03      0.116D-03       -92.90838772    111.453333    0.00100    0.00000   -1.29416    4    diag
    6      0.196D-03      0.320D-04       -92.90838862    111.447781    0.00099    0.00000   -1.29412    5    diag
    7      0.458D-04      0.115D-04       -92.90838870    111.448866    0.00098    0.00000   -1.29420    6    diag
    8      0.156D-04      0.221D-05       -92.90838870    111.448830    0.00098    0.00000   -1.29416    7    diag
    9      0.305D-05      0.252D-06       -92.90838870    111.448840    0.00098    0.00000   -1.29416    8    diag
   10      0.406D-06      0.299D-07       -92.90838870    111.448840    0.00098    0.00000   -1.29416    9    orth
   11      0.453D-07      0.537D-08       -92.90838870    111.448840    0.00098    0.00000   -1.29416    9    diag
   12      0.108D-07      0.229D-08       -92.90838870    111.448840    0.00098    0.00000   -1.29416    9    diag
   13      0.581D-08      0.893D-09       -92.90838870    111.448840    0.00098    0.00000   -1.29416    9    diag
   14      0.312D-08      0.251D-09       -92.90838870    111.448840    0.00098    0.00000   -1.29416    9    diag
   15      0.711D-09      0.103D-09       -92.90838870    111.448840    0.00098    0.00000   -1.29416    9    diag
   16      0.282D-09      0.187D-10       -92.90838870    111.448840    0.00098    0.00000   -1.29416    9    diag
   17      0.475D-10      0.429D-11       -92.90838870    111.448840    0.00098    0.00000   -1.29416    0    orth

 Final occupancy:   6   1

 !RHF STATE 1.1 Energy                -92.908388702284
 Nuclear energy                        23.85672630
 One-electron energy                 -172.48953517
 Two-electron energy                   55.72442016
 Virial quotient                       -1.00255940
 !RHF STATE 1.1 Dipole moment           0.00097965     0.00000000    -1.29415904
 Dipole moment /Debye                   0.00248987     0.00000000    -3.28920872

 Orbital energies:

         1.1          2.1          3.1          4.1          5.1          6.1          7.1          8.1
    -15.601945   -11.293767    -1.234971    -0.815943    -0.582659    -0.495530     0.023083     0.071622

         1.2          2.2          3.2
     -0.495532     0.072869     0.135762

 HOMO      6.1    -0.495530 =     -13.4841eV
 LUMO      7.1     0.023083 =       0.6281eV
 LUMO-HOMO         0.518613 =      14.1122eV


 **********************************************************************************************************************************
 DATASETS  * FILE   NREC   LENGTH (MB)   RECORD NAMES
              1      19      111.05       500      610      700      900      950      970     1000      129      960     1100   
                                          VAR    BASINP    GEOM    SYMINP    ZMAT    AOBASIS   BASIS     P2S    ABASIS      S 
                                         1400     1410     1200     1210     1080     1600     1650     1300     1700   
                                           T        V       H0       H01     AOSYM     SMH    MOLCAS    ERIS     OPER   

              2       4        2.94       700     1000      520     2100   
                                         GEOM     BASIS   MCVARS     RHF  

 PROGRAMS   *        TOTAL        HF       INT
 CPU TIMES  *         2.15      0.88      1.18
 REAL TIME  *         3.17 SEC
 DISK USED  *       327.55 MB      
 **********************************************************************************************************************************


 PROGRAM * CCSD (Closed-shell coupled cluster)     Authors: C. Hampel, H.-J. Werner, 1991, M. Deegan, P.J. Knowles, 1992


 Convergence thresholds:  THRVAR = 1.00D-08  THRDEN = 1.00D-12

 CCSD(T)     terms to be evaluated (factor= 1.000)


 Number of core orbitals:           2 (   2   0 )
 Number of closed-shell orbitals:   5 (   4   1 )
 Number of external orbitals:     108 (  70  38 )

 Molecular orbitals read from record     2100.2  Type=RHF/CANONICAL (state 1.1)

 Number of N-1 electron functions:               5
 Number of N-2 electron functions:              15
 Number of singly external CSFs:               318
 Number of doubly external CSFs:             75474
 Total number of CSFs:                       75793

 Length of J-op  integral file:               0.00 MB
 Length of K-op  integral file:               0.54 MB
 Length of 3-ext integral record:             0.00 MB

 Memory could be reduced to 5.36 Mwords without degradation in triples

 Integral transformation finished. Total CPU:   0.10 sec, npass=  1  Memory used:   1.45 MW

 Reference energy:                    -92.90838870

 MP2 singlet pair energy:              -0.22241824
 MP2 triplet pair energy:              -0.12876648
 MP2 correlation energy:               -0.35118472
 MP2 total energy:                    -93.25957342

 SCS-MP2 correlation energy:           -0.34702326   (PS=  1.200000  PT=  0.333333)
 SCS-MP2 total energy:                -93.25541196

 ITER.      SQ.NORM     CORR.ENERGY   TOTAL ENERGY   ENERGY CHANGE        DEN1      VAR(S)    VAR(P)  DIIS     TIME  TIME/IT
   1      1.11631420    -0.35346442   -93.26185312    -0.00227969     0.01059175  0.25D-02  0.31D-02  1  1     0.23     0.13
   2      1.12593464    -0.35381598   -93.26220469    -0.00035157    -0.01007898  0.53D-04  0.42D-03  2  2     0.34     0.13
   3      1.13105991    -0.35405497   -93.26244367    -0.00023899    -0.00253667  0.15D-04  0.42D-04  3  3     0.46     0.13
   4      1.13323147    -0.35414854   -93.26253725    -0.00009358    -0.00077156  0.49D-06  0.47D-05  4  4     0.56     0.13
   5      1.13372877    -0.35414586   -93.26253456     0.00000268    -0.00013596  0.91D-07  0.42D-06  5  5     0.68     0.13
   6      1.13383618    -0.35414354   -93.26253224     0.00000232    -0.00002827  0.92D-08  0.32D-07  6  6     0.80     0.13
   7      1.13384413    -0.35414564   -93.26253434    -0.00000210    -0.00000233  0.98D-09  0.29D-08  6  1     0.92     0.14
   8      1.13384434    -0.35414620   -93.26253490    -0.00000056     0.00000055  0.75D-10  0.22D-09  6  2     1.02     0.14
   9      1.13384478    -0.35414626   -93.26253496    -0.00000006    -0.00000029  0.12D-10  0.14D-10  6  3     1.15     0.14
  10      1.13384468    -0.35414630   -93.26253500    -0.00000004     0.00000009  0.11D-11  0.14D-11  6  4     1.26     0.14
  11      1.13384459    -0.35414631   -93.26253501    -0.00000001     0.00000003  0.22D-12  0.14D-12  6  5     1.38     0.14
  12      1.13384450    -0.35414631   -93.26253502    -0.00000001     0.00000003  0.23D-13  0.15D-13  6  1     1.49     0.14
  13      1.13384446    -0.35414632   -93.26253502    -0.00000000     0.00000001  0.22D-14  0.13D-14  6  6     1.62     0.14
  14      1.13384446    -0.35414632   -93.26253502    -0.00000000     0.00000000  0.69D-15  0.24D-15  6  2     1.74     0.14
  15      1.13384446    -0.35414632   -93.26253502     0.00000000     0.00000000  0.63D-16  0.46D-16  6  3     1.88     0.14
  16      1.13384446    -0.35414632   -93.26253502     0.00000000    -0.00000000  0.90D-17  0.59D-17  6  4     2.01     0.14
  17      1.13384446    -0.35414632   -93.26253502     0.00000000    -0.00000000  0.13D-17  0.68D-18  6  5     2.14     0.14
  18      1.13384446    -0.35414632   -93.26253502     0.00000000    -0.00000000  0.23D-18  0.11D-18  6  6     2.26     0.14
  19      1.13384446    -0.35414632   -93.26253502    -0.00000000     0.00000000  0.41D-19  0.18D-19  6  1     2.39     0.14
  20      1.13384446    -0.35414632   -93.26253502    -0.00000000     0.00000000  0.77D-20  0.34D-20  6  2     2.51     0.14
  21      1.13384446    -0.35414632   -93.26253502    -0.00000000     0.00000000  0.36D-21  0.48D-21  6  4     2.64     0.14

 Norm of t1 vector:      0.06423652      S-energy:    -0.00000000      T1 diagnostic:  0.01436372
                                                                       D1 diagnostic:  0.02854144


 Total CPU time for triples:      0.72 sec


 RESULTS
 =======

  Reference energy                    -92.908388702284
  CCSD singlet pair energy             -0.246633324822
  CCSD triplet pair energy             -0.107512991421
  CCSD correlation energy              -0.354146316242

  Triples (T) contribution             -0.018586618915
  Total correlation energy             -0.372732935157

  CCSD total energy                   -93.262535018526
  CCSD[T] energy                      -93.281938016708
  CCSD-T energy                       -93.280719295483
 !CCSD(T) total energy                -93.281121637441

 Timing summary (sec):

 STEP                 CPU(USER)    SYS     CPU(TOT)    WALL
 Transformation          0.10      0.05      0.15      0.16
 CCSD iterations         2.54      0.39      2.93      2.93
 Triples                 0.72      0.04      0.76      0.75

 Program statistics:

 Available memory in ccsd:               994999800
 Min. memory needed in ccsd:                311547
 Max. memory used in ccsd:                  369090
 Max. memory used in cckext:                513448 (21 integral passes)



 **********************************************************************************************************************************
 DATASETS  * FILE   NREC   LENGTH (MB)   RECORD NAMES
              1      20      125.49       500      610      700      900      950      970     1000      129      960     1100   
                                          VAR    BASINP    GEOM    SYMINP    ZMAT    AOBASIS   BASIS     P2S    ABASIS      S 
                                         1400     1410     1200     1210     1080     1600     1650     1300     1700     1380   
                                           T        V       H0       H01     AOSYM     SMH    MOLCAS    ERIS     OPER     JKOP   

              2       4        2.94       700     1000      520     2100   
                                         GEOM     BASIS   MCVARS     RHF  

 PROGRAMS   *        TOTAL   CCSD(T)        HF       INT
 CPU TIMES  *         5.54      3.39      0.88      1.18
 REAL TIME  *         7.21 SEC
 DISK USED  *       327.55 MB      
 **********************************************************************************************************************************

 CCSD(T)/aug-cc-pVTZ energy=    -93.281121637441

        CCSD(T)         HF-SCF  
    -93.28112164    -92.90838870
 **********************************************************************************************************************************
 Molpro calculation terminated
 Variable memory released
