
 Primary working directories    : /tmp/r2666/232531.maple
 Secondary working directories  : /tmp/r2666/232531.maple
 Wavefunction directory         : /ddn/home4/r2666/wfu/
 Main file repository           : /tmp/r2666/232531.maple/

 SHA1      : d5ffa45e93fdbca01ffc919aa182cfdae0147319
 NAME      : 2015.1.35
 ARCHNAME  : linux/x86_64
 FC        : /opt/intel/composer_xe_2015.1.133/bin/intel64/ifort
 BLASLIB   : -Wl,-_start-group /opt/intel/mkl/lib/intel64/libmkl_intel_ilp64.a /opt/intel/mkl/lib/intel64/libmkl_intel_thread.a /opt/intel/mkl/lib/intel64/libmkl_core.a -Wl,-_end-group
 id        : olemiss

 Nodes     nprocs
 cn080        1

 Using customized tuning parameters: mindgm=1; mindgv=20; mindgc=4; mindgr=1; noblas=0; minvec=7
 default implementation of scratch files=df  

 ***,hcn CCSD(T)/TZ-F12 QFF
 memory, 995, m;
 gthresh,energy=1.d-12,zero=1.d-22,oneint=1.d-22,twoint=1.d-22;
 gthresh,optgrad=1.d-8,optstep=1.d-8;
 nocompress;
 geomtyp=xyz
 bohr
 geometry={
 3
         30        30
 N        0.0000000000        0.0000000000        1.1278509343
 C        0.0000000000        0.0000000000       -1.0509987327
 H        0.0000000000        0.0000000000       -3.0739221836
 }
 
 basis=avtz
   {hf,maxit=500;accu,20;}
 {ccsd(t),nocheck,maxit=250;orbital,IGNORE_ERROR;}

 Variables initialized (889), CPU time= 0.01 sec
 Commands  initialized (702), CPU time= 0.00 sec, 572 directives.
 Default parameters read. Elapsed time= 0.05 sec

 Checking input...
 Passed
1


                                         ***  PROGRAM SYSTEM MOLPRO  ***
                                       Copyright, TTI GmbH Stuttgart, 2015
                                    Version 2015.1 linked Jul  9 2018 13:16:40


 **********************************************************************************************************************************
 LABEL *   hcn CCSD(T)/TZ-F12 QFF                                                        
  64 bit serial version                                                                  DATE: 06-Feb-20          TIME: 09:54:21  
 **********************************************************************************************************************************

 SHA1:             d5ffa45e93fdbca01ffc919aa182cfdae0147319
 **********************************************************************************************************************************

 THRESHOLDS:

 ZERO    =  1.00D-22  ONEINT  =  1.00D-22  TWOINT  =  1.00D-22  PREFAC  =  1.00D-14  LOCALI  =  1.00D-09  EORDER  =  1.00D-04
 ENERGY  =  1.00D-12  ETEST   =  0.00D+00  EDENS   =  0.00D+00  THRDEDEF=  1.00D-06  GRADIENT=  1.00D-02  STEP    =  1.00D-03
 ORBITAL =  1.00D-05  CIVEC   =  1.00D-05  COEFF   =  1.00D-04  PRINTCI =  5.00D-02  PUNCHCI =  9.90D+01  OPTGRAD =  3.00D-04
 OPTENERG=  1.00D-06  OPTSTEP =  3.00D-04  THRGRAD =  1.00D-10  COMPRESS=  1.00D-11  VARMIN  =  1.00D-07  VARMAX  =  1.00D-03
 THRDOUB =  0.00D+00  THRDIV  =  1.00D-05  THRRED  =  1.00D-07  THRPSP  =  1.00D+00  THRDC   =  1.00D-10  THRCS   =  1.00D-10
 THRNRM  =  1.00D-08  THREQ   =  0.00D+00  THRDE   =  1.00D+00  THRREF  =  1.00D-05  SPARFAC =  1.00D+00  THRDLP  =  1.00D-07
 THRDIA  =  1.00D-10  THRDLS  =  1.00D-07  THRGPS  =  0.00D+00  THRKEX  =  0.00D+00  THRDIS  =  2.00D-01  THRVAR  =  1.00D-10
 THRLOC  =  1.00D-06  THRGAP  =  1.00D-06  THRLOCT = -1.00D+00  THRGAPT = -1.00D+00  THRORB  =  1.00D-06  THRMLTP =  0.00D+00
 THRCPQCI=  1.00D-10  KEXTA   =  0.00D+00  THRCOARS=  0.00D+00  SYMTOL  =  1.00D-06  GRADTOL =  1.00D-06  THROVL  =  1.00D-08
 THRORTH =  1.00D-08  GRID    =  1.00D-06  GRIDMAX =  1.00D-03  DTMAX   =  0.00D+00  THROCCDE=  1.00D-01  THROCCDE=  1.00D-01



 THRESHOLDS:

 ZERO    =  1.00D-22  ONEINT  =  1.00D-22  TWOINT  =  1.00D-22  PREFAC  =  1.00D-14  LOCALI  =  1.00D-09  EORDER  =  1.00D-04
 ENERGY  =  1.00D-12  ETEST   =  0.00D+00  EDENS   =  0.00D+00  THRDEDEF=  1.00D-06  GRADIENT=  1.00D-02  STEP    =  1.00D-03
 ORBITAL =  1.00D-05  CIVEC   =  1.00D-05  COEFF   =  1.00D-04  PRINTCI =  5.00D-02  PUNCHCI =  9.90D+01  OPTGRAD =  1.00D-08
 OPTENERG=  1.00D-06  OPTSTEP =  1.00D-08  THRGRAD =  1.00D-10  COMPRESS=  1.00D-11  VARMIN  =  1.00D-07  VARMAX  =  1.00D-03
 THRDOUB =  0.00D+00  THRDIV  =  1.00D-05  THRRED  =  1.00D-07  THRPSP  =  1.00D+00  THRDC   =  1.00D-10  THRCS   =  1.00D-10
 THRNRM  =  1.00D-08  THREQ   =  0.00D+00  THRDE   =  1.00D+00  THRREF  =  1.00D-05  SPARFAC =  1.00D+00  THRDLP  =  1.00D-07
 THRDIA  =  1.00D-10  THRDLS  =  1.00D-07  THRGPS  =  0.00D+00  THRKEX  =  0.00D+00  THRDIS  =  2.00D-01  THRVAR  =  1.00D-10
 THRLOC  =  1.00D-06  THRGAP  =  1.00D-06  THRLOCT = -1.00D+00  THRGAPT = -1.00D+00  THRORB  =  1.00D-06  THRMLTP =  0.00D+00
 THRCPQCI=  1.00D-10  KEXTA   =  0.00D+00  THRCOARS=  0.00D+00  SYMTOL  =  1.00D-06  GRADTOL =  1.00D-06  THROVL  =  1.00D-08
 THRORTH =  1.00D-08  GRID    =  1.00D-06  GRIDMAX =  1.00D-03  DTMAX   =  0.00D+00  THROCCDE=  1.00D-01  THROCCDE=  1.00D-01



 Input parameters for SORTINT:

 COMPRESS =    0.000000
 C_FINAL  =    1.000000
 DEBUG    =   -1.000000
 C_SORT1  =    0.000000
 C_SEWARD =    0.000000
 THRESH   =    0.000000
 IO       =  molpro                                                          
 SPRI     =    0.000000
 SETTING GEOMTYP        =    XYZ
 ZUNIT=BOHR
 

 Variable memory set to  995000000 words,  buffer space   230000 words

 SETTING BASIS          =    AVTZ


 Recomputing integrals since basis changed


 Using spherical harmonics

 Library entry N      S aug-cc-pVTZ          selected for orbital group  1
 Library entry N      P aug-cc-pVTZ          selected for orbital group  1
 Library entry N      D aug-cc-pVTZ          selected for orbital group  1
 Library entry N      F aug-cc-pVTZ          selected for orbital group  1
 Library entry C      S aug-cc-pVTZ          selected for orbital group  2
 Library entry C      P aug-cc-pVTZ          selected for orbital group  2
 Library entry C      D aug-cc-pVTZ          selected for orbital group  2
 Library entry C      F aug-cc-pVTZ          selected for orbital group  2
 Library entry H      S aug-cc-pVTZ          selected for orbital group  3
 Library entry H      P aug-cc-pVTZ          selected for orbital group  3
 Library entry H      D aug-cc-pVTZ          selected for orbital group  3


 PROGRAM * SEWARD (Integral evaluation for generally contracted gaussian basis sets)     Author: Roland Lindh, 1990

 Geometry written to block  1 of record 700


 Point group  C2v 



 ATOMIC COORDINATES

 NR  ATOM    CHARGE       X              Y              Z

   1  N       7.00    0.000000000    0.000000000    1.127850934
   2  C       6.00    0.000000000    0.000000000   -1.050998733
   3  H       1.00    0.000000000    0.000000000   -3.073922184

 Bond lengths in Bohr (Angstrom)

 1-2  2.178849667  2-3  2.022923451
     ( 1.152997590)     ( 1.070484990)

 Bond angles

  1-2-3  180.00000000

 NUCLEAR CHARGE:                   14
 NUMBER OF PRIMITIVE AOS:         161
 NUMBER OF SYMMETRY AOS:          141
 NUMBER OF CONTRACTIONS:          115   (  49A1  +  27B1  +  27B2  +  12A2  )
 NUMBER OF CORE ORBITALS:           2   (   2A1  +   0B1  +   0B2  +   0A2  )
 NUMBER OF VALENCE ORBITALS:        9   (   5A1  +   2B1  +   2B2  +   0A2  )


 NUCLEAR REPULSION ENERGY   23.90819446

 EXTRA SYMMETRY OF AOS IN SYMMETRY 1:   1 1 1 1 1 1 1 1 1 1   2 1 2 1 2 1 2 1 2 1   1 1 1 1 1 1 1 1 1 2   1 2 1 2 1 2 1 2 1 1
                                        1 1 1 1 1 1 2 1 2
 EXTRA SYMMETRY OF AOS IN SYMMETRY 2:   1 1 1 1 1 1 1 1 2 1   2 1 1 1 1 1 1 1 1 2   1 2 1 1 1 1 1
 EXTRA SYMMETRY OF AOS IN SYMMETRY 3:   1 1 1 1 1 1 1 1 2 1   2 1 1 1 1 1 1 1 1 2   1 2 1 1 1 1 1

 Eigenvalues of metric

         1 0.880E-04 0.198E-03 0.624E-03 0.124E-02 0.139E-02 0.179E-02 0.518E-02 0.693E-02
         2 0.226E-02 0.531E-02 0.128E-01 0.164E-01 0.310E-01 0.448E-01 0.816E-01 0.103E+00
         3 0.226E-02 0.531E-02 0.128E-01 0.164E-01 0.310E-01 0.448E-01 0.816E-01 0.103E+00
         4 0.385E-01 0.113E+00 0.148E+00 0.333E+00 0.487E+00 0.510E+00 0.742E+00 0.897E+00


 Contracted 2-electron integrals neglected if value below      1.0D-22

        5027796. INTEGRALS WRITTEN OUT IN    1228 BLOCKS ON RECORD 1290 OF FILE 1


 NUMBER OF SORTED TWO-ELECTRON INTEGRALS:    5853730.     BUFFER LENGTH:  32768
 NUMBER OF SEGMENTS:   1  SEGMENT LENGTH:    5853730      RECORD LENGTH: 524288

 Memory used in sort:       6.41 MW

 SORT1 READ     5027796. AND WROTE     5162838. INTEGRALS IN     15 RECORDS. CPU TIME:     0.12 SEC, REAL TIME:     0.15 SEC
 SORT2 READ     5162838. AND WROTE     5853730. INTEGRALS IN      1 RECORDS. CPU TIME:     0.11 SEC, REAL TIME:     0.13 SEC

 FILE SIZES:   FILE 1:   100.7 MBYTE,  FILE 4:    62.9 MBYTE,   TOTAL:    163.7 MBYTE

 OPERATOR DM      FOR CENTER  0  COORDINATES:    0.000000    0.000000    0.000000


 **********************************************************************************************************************************
 DATASETS  * FILE   NREC   LENGTH (MB)   RECORD NAMES
              1      19       63.47       500      610      700      900      950      970     1000      129      960     1100   
                                          VAR    BASINP    GEOM    SYMINP    ZMAT    AOBASIS   BASIS     P2S    ABASIS      S 
                                         1400     1410     1200     1210     1080     1600     1650     1300     1700   
                                           T        V       H0       H01     AOSYM     SMH    MOLCAS    ERIS     OPER   

 PROGRAMS   *        TOTAL       INT
 CPU TIMES  *         1.17      1.09
 REAL TIME  *         1.74 SEC
 DISK USED  *       163.98 MB      
 **********************************************************************************************************************************


 PROGRAM * RHF-SCF (CLOSED SHELL)       Authors: W. Meyer, H.-J. Werner


 NUMBER OF ELECTRONS:       7+    7-
 CONVERGENCE THRESHOLDS:    1.00E-10 (Density)    1.00E-13 (Energy)
 MAX. NUMBER OF ITERATIONS:      500
 INTERPOLATION TYPE:            DIIS
 INTERPOLATION STEPS:              2 (START)      1 (STEP)
 LEVEL SHIFTS:                  0.00 (CLOSED)  0.00 (OPEN) 



 Orbital guess generated from atomic densities. Full valence occupancy:    7   2   2   0

 Molecular orbital dump at record        2100.2

 Initial occupancy:   5   1   1   0

 ITERATION    DDIFF          GRAD             ENERGY        2-EL.EN.            DIPOLE MOMENTS         DIIS   ORB.
    1      0.000D+00      0.000D+00       -92.88466381    111.922401    0.00000    0.00000   -1.78615    0    start
    2      0.000D+00      0.920D-02       -92.89365962    111.066815    0.00000    0.00000   -0.90331    1    diag
    3      0.135D-01      0.827D-02       -92.90881678    111.597981    0.00000    0.00000   -1.30856    2    diag
    4      0.613D-02      0.665D-03       -92.90904178    111.560318    0.00000    0.00000   -1.29981    3    diag
    5      0.110D-02      0.148D-03       -92.90905498    111.571010    0.00000    0.00000   -1.29843    4    diag
    6      0.261D-03      0.407D-04       -92.90905582    111.565765    0.00000    0.00000   -1.29845    5    diag
    7      0.592D-04      0.145D-04       -92.90905590    111.566902    0.00000    0.00000   -1.29853    6    diag
    8      0.205D-04      0.280D-05       -92.90905590    111.566861    0.00000    0.00000   -1.29849    7    diag
    9      0.393D-05      0.318D-06       -92.90905590    111.566870    0.00000    0.00000   -1.29849    8    diag
   10      0.525D-06      0.363D-07       -92.90905590    111.566870    0.00000    0.00000   -1.29849    9    orth
   11      0.563D-07      0.433D-08       -92.90905590    111.566870    0.00000    0.00000   -1.29849    9    diag
   12      0.101D-07      0.379D-09       -92.90905590    111.566870    0.00000    0.00000   -1.29849    9    diag
   13      0.933D-09      0.364D-10       -92.90905590    111.566870    0.00000    0.00000   -1.29849    9    diag
   14      0.153D-09      0.462D-11       -92.90905590    111.566870    0.00000    0.00000   -1.29849    9    diag
   15      0.211D-10      0.822D-12       -92.90905590    111.566870    0.00000    0.00000   -1.29849    9    diag
   16      0.521D-11      0.175D-12       -92.90905590    111.566870    0.00000    0.00000   -1.29849    9    diag
   17      0.257D-11      0.176D-12       -92.90905590    111.566870    0.00000    0.00000   -1.29849    9    diag
   18      0.258D-11      0.911D-13       -92.90905590    111.566870    0.00000    0.00000   -1.29849    9    diag
   19      0.115D-11      0.669D-13       -92.90905590    111.566870    0.00000    0.00000   -1.29849    9    fixocc
   20      0.116D-11      0.630D-13       -92.90905590    111.566870    0.00000    0.00000   -1.29849    9    orth
   21      0.565D-12      0.952D-13       -92.90905590    111.566870    0.00000    0.00000   -1.29849    9    diag
   22      0.748D-12      0.658D-13       -92.90905590    111.566870    0.00000    0.00000   -1.29849    0    orth

 Final occupancy:   5   1   1   0

 !RHF STATE 1.1 Energy                -92.909055901399
 Nuclear energy                        23.90819446
 One-electron energy                 -172.60068550
 Two-electron energy                   55.78343514
 Virial quotient                       -1.00243545
 !RHF STATE 1.1 Dipole moment           0.00000000     0.00000000    -1.29848516
 Dipole moment /Debye                   0.00000000     0.00000000    -3.30020390

 Orbital energies:

         1.1          2.1          3.1          4.1          5.1          6.1          7.1
    -15.599945   -11.292688    -1.237175    -0.811286    -0.582054     0.023064     0.071609

         1.2          2.2          3.2
     -0.496880     0.072905     0.136424

         1.3          2.3          3.3
     -0.496880     0.072905     0.136424

         1.4          2.4
      0.293957     0.550220

 HOMO      1.2    -0.496880 =     -13.5208eV
 LUMO      6.1     0.023064 =       0.6276eV
 LUMO-HOMO         0.519944 =      14.1484eV


 **********************************************************************************************************************************
 DATASETS  * FILE   NREC   LENGTH (MB)   RECORD NAMES
              1      19       63.47       500      610      700      900      950      970     1000      129      960     1100   
                                          VAR    BASINP    GEOM    SYMINP    ZMAT    AOBASIS   BASIS     P2S    ABASIS      S 
                                         1400     1410     1200     1210     1080     1600     1650     1300     1700   
                                           T        V       H0       H01     AOSYM     SMH    MOLCAS    ERIS     OPER   

              2       4        2.88       700     1000      520     2100   
                                         GEOM     BASIS   MCVARS     RHF  

 PROGRAMS   *        TOTAL        HF       INT
 CPU TIMES  *         1.63      0.46      1.09
 REAL TIME  *         2.36 SEC
 DISK USED  *       163.98 MB      
 **********************************************************************************************************************************


 PROGRAM * CCSD (Closed-shell coupled cluster)     Authors: C. Hampel, H.-J. Werner, 1991, M. Deegan, P.J. Knowles, 1992


 Convergence thresholds:  THRVAR = 1.00D-08  THRDEN = 1.00D-12

 CCSD(T)     terms to be evaluated (factor= 1.000)


 Number of core orbitals:           2 (   2   0   0   0 )
 Number of closed-shell orbitals:   5 (   3   1   1   0 )
 Number of external orbitals:     108 (  44  26  26  12 )

 Molecular orbitals read from record     2100.2  Type=RHF/CANONICAL (state 1.1)

 Number of N-1 electron functions:               5
 Number of N-2 electron functions:              15
 Number of singly external CSFs:               184
 Number of doubly external CSFs:             39026
 Total number of CSFs:                       39211

 Length of J-op  integral file:               0.00 MB
 Length of K-op  integral file:               0.31 MB
 Length of 3-ext integral record:             0.00 MB

 Memory could be reduced to 2.91 Mwords without degradation in triples

 Integral transformation finished. Total CPU:   0.06 sec, npass=  1  Memory used:   0.44 MW

 Reference energy:                    -92.90905590

 MP2 singlet pair energy:              -0.22192441
 MP2 triplet pair energy:              -0.12834737
 MP2 correlation energy:               -0.35027178
 MP2 total energy:                    -93.25932768

 SCS-MP2 correlation energy:           -0.34616988   (PS=  1.200000  PT=  0.333333)
 SCS-MP2 total energy:                -93.25522578

 ITER.      SQ.NORM     CORR.ENERGY   TOTAL ENERGY   ENERGY CHANGE        DEN1      VAR(S)    VAR(P)  DIIS     TIME  TIME/IT
   1      1.11586812    -0.35281978   -93.26187568    -0.00254800     0.01014804  0.24D-02  0.30D-02  1  1     0.12     0.07
   2      1.12540058    -0.35321747   -93.26227337    -0.00039769    -0.00998323  0.52D-04  0.41D-03  2  2     0.17     0.07
   3      1.13046201    -0.35345422   -93.26251013    -0.00023675    -0.00251621  0.15D-04  0.41D-04  3  3     0.22     0.07
   4      1.13258327    -0.35354517   -93.26260107    -0.00009095    -0.00075761  0.49D-06  0.45D-05  4  4     0.27     0.07
   5      1.13306634    -0.35354285   -93.26259875     0.00000233    -0.00013265  0.96D-07  0.41D-06  5  5     0.33     0.07
   6      1.13317137    -0.35354049   -93.26259639     0.00000235    -0.00002775  0.88D-08  0.30D-07  6  6     0.37     0.07
   7      1.13317924    -0.35354247   -93.26259837    -0.00000198    -0.00000233  0.95D-09  0.27D-08  6  1     0.43     0.07
   8      1.13317951    -0.35354300   -93.26259890    -0.00000053     0.00000050  0.80D-10  0.21D-09  6  2     0.48     0.07
   9      1.13317995    -0.35354306   -93.26259896    -0.00000006    -0.00000027  0.10D-10  0.14D-10  6  3     0.55     0.07
  10      1.13317985    -0.35354310   -93.26259900    -0.00000004     0.00000008  0.10D-11  0.14D-11  6  4     0.61     0.07
  11      1.13317977    -0.35354311   -93.26259901    -0.00000001     0.00000003  0.15D-12  0.14D-12  6  5     0.68     0.07
  12      1.13317968    -0.35354311   -93.26259901    -0.00000000     0.00000003  0.14D-13  0.14D-13  6  1     0.75     0.07
  13      1.13317965    -0.35354311   -93.26259902    -0.00000000     0.00000001  0.88D-15  0.85D-15  6  6     0.81     0.07
  14      1.13317964    -0.35354311   -93.26259902    -0.00000000     0.00000000  0.24D-15  0.12D-15  6  2     0.87     0.07
  15      1.13317964    -0.35354311   -93.26259902    -0.00000000     0.00000000  0.27D-16  0.18D-16  6  4     0.93     0.07
  16      1.13317964    -0.35354311   -93.26259902     0.00000000    -0.00000000  0.31D-17  0.17D-17  6  3     0.99     0.07
  17      1.13317964    -0.35354311   -93.26259902     0.00000000    -0.00000000  0.30D-18  0.22D-18  6  5     1.05     0.07
  18      1.13317964    -0.35354311   -93.26259902     0.00000000    -0.00000000  0.36D-19  0.40D-19  6  6     1.10     0.07
  19      1.13317964    -0.35354311   -93.26259902    -0.00000000    -0.00000000  0.35D-20  0.34D-20  6  1     1.16     0.07
  20      1.13317964    -0.35354311   -93.26259902    -0.00000000     0.00000000  0.43D-21  0.45D-21  6  2     1.21     0.07
  21      1.13317964    -0.35354311   -93.26259902    -0.00000000    -0.00000000  0.95D-22  0.57D-22  6  4     1.27     0.07

 Norm of t1 vector:      0.06363213      S-energy:    -0.00000000      T1 diagnostic:  0.01422858
                                                                       D1 diagnostic:  0.02818250


 Total CPU time for triples:      0.26 sec


 RESULTS
 =======

  Reference energy                    -92.909055901399
  CCSD singlet pair energy             -0.246158472482
  CCSD triplet pair energy             -0.107384641315
  CCSD correlation energy              -0.353543113797

  Triples (T) contribution             -0.018451505035
  Total correlation energy             -0.371994618832

  CCSD total energy                   -93.262599015196
  CCSD[T] energy                      -93.281849392581
  CCSD-T energy                       -93.280655536639
 !CCSD(T) total energy                -93.281050520232

 Timing summary (sec):

 STEP                 CPU(USER)    SYS     CPU(TOT)    WALL
 Transformation          0.06      0.01      0.07      0.07
 CCSD iterations         1.22      0.25      1.47      1.46
 Triples                 0.26      0.02      0.28      0.28

 Program statistics:

 Available memory in ccsd:               994999800
 Min. memory needed in ccsd:                166428
 Max. memory used in ccsd:                  196881
 Max. memory used in cckext:                233267 (21 integral passes)



 **********************************************************************************************************************************
 DATASETS  * FILE   NREC   LENGTH (MB)   RECORD NAMES
              1      20       70.98       500      610      700      900      950      970     1000      129      960     1100   
                                          VAR    BASINP    GEOM    SYMINP    ZMAT    AOBASIS   BASIS     P2S    ABASIS      S 
                                         1400     1410     1200     1210     1080     1600     1650     1300     1700     1380   
                                           T        V       H0       H01     AOSYM     SMH    MOLCAS    ERIS     OPER     JKOP   

              2       4        2.88       700     1000      520     2100   
                                         GEOM     BASIS   MCVARS     RHF  

 PROGRAMS   *        TOTAL   CCSD(T)        HF       INT
 CPU TIMES  *         3.19      1.56      0.46      1.09
 REAL TIME  *         4.23 SEC
 DISK USED  *       163.98 MB      
 **********************************************************************************************************************************

 CCSD(T)/aug-cc-pVTZ energy=    -93.281050520232

        CCSD(T)         HF-SCF  
    -93.28105052    -92.90905590
 **********************************************************************************************************************************
 Molpro calculation terminated
 Variable memory released
