
 Primary working directories    : /tmp/r2666/232532.maple
 Secondary working directories  : /tmp/r2666/232532.maple
 Wavefunction directory         : /ddn/home4/r2666/wfu/
 Main file repository           : /tmp/r2666/232532.maple/

 SHA1      : d5ffa45e93fdbca01ffc919aa182cfdae0147319
 NAME      : 2015.1.35
 ARCHNAME  : linux/x86_64
 FC        : /opt/intel/composer_xe_2015.1.133/bin/intel64/ifort
 BLASLIB   : -Wl,-_start-group /opt/intel/mkl/lib/intel64/libmkl_intel_ilp64.a /opt/intel/mkl/lib/intel64/libmkl_intel_thread.a /opt/intel/mkl/lib/intel64/libmkl_core.a -Wl,-_end-group
 id        : olemiss

 Nodes     nprocs
 cn080        1

 Using customized tuning parameters: mindgm=1; mindgv=20; mindgc=4; mindgr=1; noblas=0; minvec=7
 default implementation of scratch files=df  

 ***,hcn CCSD(T)/TZ-F12 QFF
 memory, 995, m;
 gthresh,energy=1.d-12,zero=1.d-22,oneint=1.d-22,twoint=1.d-22;
 gthresh,optgrad=1.d-8,optstep=1.d-8;
 nocompress;
 geomtyp=xyz
 bohr
 geometry={
 3
         31        31
 N       -0.0046276102        0.0000000806        1.1278021468
 C        0.0096352225       -0.0000000021       -1.0510008372
 H       -0.0050076123       -0.0000000785       -3.0738712917
 }
 
 basis=avtz
   {hf,maxit=500;accu,20;}
 {ccsd(t),nocheck,maxit=250;orbital,IGNORE_ERROR;}

 Variables initialized (889), CPU time= 0.01 sec
 Commands  initialized (702), CPU time= 0.01 sec, 572 directives.
 Default parameters read. Elapsed time= 0.04 sec

 Checking input...
 Passed
1


                                         ***  PROGRAM SYSTEM MOLPRO  ***
                                       Copyright, TTI GmbH Stuttgart, 2015
                                    Version 2015.1 linked Jul  9 2018 13:16:40


 **********************************************************************************************************************************
 LABEL *   hcn CCSD(T)/TZ-F12 QFF                                                        
  64 bit serial version                                                                  DATE: 06-Feb-20          TIME: 09:54:22  
 **********************************************************************************************************************************

 SHA1:             d5ffa45e93fdbca01ffc919aa182cfdae0147319
 **********************************************************************************************************************************

 THRESHOLDS:

 ZERO    =  1.00D-22  ONEINT  =  1.00D-22  TWOINT  =  1.00D-22  PREFAC  =  1.00D-14  LOCALI  =  1.00D-09  EORDER  =  1.00D-04
 ENERGY  =  1.00D-12  ETEST   =  0.00D+00  EDENS   =  0.00D+00  THRDEDEF=  1.00D-06  GRADIENT=  1.00D-02  STEP    =  1.00D-03
 ORBITAL =  1.00D-05  CIVEC   =  1.00D-05  COEFF   =  1.00D-04  PRINTCI =  5.00D-02  PUNCHCI =  9.90D+01  OPTGRAD =  3.00D-04
 OPTENERG=  1.00D-06  OPTSTEP =  3.00D-04  THRGRAD =  1.00D-10  COMPRESS=  1.00D-11  VARMIN  =  1.00D-07  VARMAX  =  1.00D-03
 THRDOUB =  0.00D+00  THRDIV  =  1.00D-05  THRRED  =  1.00D-07  THRPSP  =  1.00D+00  THRDC   =  1.00D-10  THRCS   =  1.00D-10
 THRNRM  =  1.00D-08  THREQ   =  0.00D+00  THRDE   =  1.00D+00  THRREF  =  1.00D-05  SPARFAC =  1.00D+00  THRDLP  =  1.00D-07
 THRDIA  =  1.00D-10  THRDLS  =  1.00D-07  THRGPS  =  0.00D+00  THRKEX  =  0.00D+00  THRDIS  =  2.00D-01  THRVAR  =  1.00D-10
 THRLOC  =  1.00D-06  THRGAP  =  1.00D-06  THRLOCT = -1.00D+00  THRGAPT = -1.00D+00  THRORB  =  1.00D-06  THRMLTP =  0.00D+00
 THRCPQCI=  1.00D-10  KEXTA   =  0.00D+00  THRCOARS=  0.00D+00  SYMTOL  =  1.00D-06  GRADTOL =  1.00D-06  THROVL  =  1.00D-08
 THRORTH =  1.00D-08  GRID    =  1.00D-06  GRIDMAX =  1.00D-03  DTMAX   =  0.00D+00  THROCCDE=  1.00D-01  THROCCDE=  1.00D-01



 THRESHOLDS:

 ZERO    =  1.00D-22  ONEINT  =  1.00D-22  TWOINT  =  1.00D-22  PREFAC  =  1.00D-14  LOCALI  =  1.00D-09  EORDER  =  1.00D-04
 ENERGY  =  1.00D-12  ETEST   =  0.00D+00  EDENS   =  0.00D+00  THRDEDEF=  1.00D-06  GRADIENT=  1.00D-02  STEP    =  1.00D-03
 ORBITAL =  1.00D-05  CIVEC   =  1.00D-05  COEFF   =  1.00D-04  PRINTCI =  5.00D-02  PUNCHCI =  9.90D+01  OPTGRAD =  1.00D-08
 OPTENERG=  1.00D-06  OPTSTEP =  1.00D-08  THRGRAD =  1.00D-10  COMPRESS=  1.00D-11  VARMIN  =  1.00D-07  VARMAX  =  1.00D-03
 THRDOUB =  0.00D+00  THRDIV  =  1.00D-05  THRRED  =  1.00D-07  THRPSP  =  1.00D+00  THRDC   =  1.00D-10  THRCS   =  1.00D-10
 THRNRM  =  1.00D-08  THREQ   =  0.00D+00  THRDE   =  1.00D+00  THRREF  =  1.00D-05  SPARFAC =  1.00D+00  THRDLP  =  1.00D-07
 THRDIA  =  1.00D-10  THRDLS  =  1.00D-07  THRGPS  =  0.00D+00  THRKEX  =  0.00D+00  THRDIS  =  2.00D-01  THRVAR  =  1.00D-10
 THRLOC  =  1.00D-06  THRGAP  =  1.00D-06  THRLOCT = -1.00D+00  THRGAPT = -1.00D+00  THRORB  =  1.00D-06  THRMLTP =  0.00D+00
 THRCPQCI=  1.00D-10  KEXTA   =  0.00D+00  THRCOARS=  0.00D+00  SYMTOL  =  1.00D-06  GRADTOL =  1.00D-06  THROVL  =  1.00D-08
 THRORTH =  1.00D-08  GRID    =  1.00D-06  GRIDMAX =  1.00D-03  DTMAX   =  0.00D+00  THROCCDE=  1.00D-01  THROCCDE=  1.00D-01



 Input parameters for SORTINT:

 COMPRESS =    0.000000
 C_FINAL  =    1.000000
 DEBUG    =   -1.000000
 C_SORT1  =    0.000000
 C_SEWARD =    0.000000
 THRESH   =    0.000000
 IO       =  molpro                                                          
 SPRI     =    0.000000
 SETTING GEOMTYP        =    XYZ
 ZUNIT=BOHR
 

 Variable memory set to  995000000 words,  buffer space   230000 words

 SETTING BASIS          =    AVTZ


 Recomputing integrals since basis changed


 Using spherical harmonics

 Library entry N      S aug-cc-pVTZ          selected for orbital group  1
 Library entry N      P aug-cc-pVTZ          selected for orbital group  1
 Library entry N      D aug-cc-pVTZ          selected for orbital group  1
 Library entry N      F aug-cc-pVTZ          selected for orbital group  1
 Library entry C      S aug-cc-pVTZ          selected for orbital group  2
 Library entry C      P aug-cc-pVTZ          selected for orbital group  2
 Library entry C      D aug-cc-pVTZ          selected for orbital group  2
 Library entry C      F aug-cc-pVTZ          selected for orbital group  2
 Library entry H      S aug-cc-pVTZ          selected for orbital group  3
 Library entry H      P aug-cc-pVTZ          selected for orbital group  3
 Library entry H      D aug-cc-pVTZ          selected for orbital group  3


 PROGRAM * SEWARD (Integral evaluation for generally contracted gaussian basis sets)     Author: Roland Lindh, 1990

 Geometry written to block  1 of record 700


 Point group  Cs  



 ATOMIC COORDINATES

 NR  ATOM    CHARGE       X              Y              Z

   1  N       7.00   -0.004627610    0.000000000    1.127802147
   2  C       6.00    0.009635223    0.000000000   -1.051000837
   3  H       1.00   -0.005007612    0.000000000   -3.073871292

 Bond lengths in Bohr (Angstrom)

 1-2  2.178849667  2-3  2.022923451
     ( 1.152997590)     ( 1.070484990)

 Bond angles

  1-2-3  179.21020059

 NUCLEAR CHARGE:                   14
 NUMBER OF PRIMITIVE AOS:         161
 NUMBER OF SYMMETRY AOS:          141
 NUMBER OF CONTRACTIONS:          115   (  76A'  +  39A"  )
 NUMBER OF CORE ORBITALS:           2   (   2A'  +   0A"  )
 NUMBER OF VALENCE ORBITALS:        9   (   7A'  +   2A"  )


 NUCLEAR REPULSION ENERGY   23.90823397

 Eigenvalues of metric

         1 0.880E-04 0.198E-03 0.624E-03 0.124E-02 0.139E-02 0.179E-02 0.226E-02 0.518E-02
         2 0.226E-02 0.531E-02 0.128E-01 0.164E-01 0.310E-01 0.385E-01 0.448E-01 0.815E-01


 Contracted 2-electron integrals neglected if value below      1.0D-22

       10788940. INTEGRALS WRITTEN OUT IN    2635 BLOCKS ON RECORD 1290 OF FILE 1


 NUMBER OF SORTED TWO-ELECTRON INTEGRALS:   11433631.     BUFFER LENGTH:  32768
 NUMBER OF SEGMENTS:   1  SEGMENT LENGTH:   11433631      RECORD LENGTH: 524288

 Memory used in sort:      11.99 MW

 SORT1 READ    10788940. AND WROTE    10942508. INTEGRALS IN     32 RECORDS. CPU TIME:     0.16 SEC, REAL TIME:     0.22 SEC
 SORT2 READ    10942508. AND WROTE    11433631. INTEGRALS IN      1 RECORDS. CPU TIME:     0.15 SEC, REAL TIME:     0.21 SEC

 FILE SIZES:   FILE 1:   193.0 MBYTE,  FILE 4:   134.3 MBYTE,   TOTAL:    327.2 MBYTE

 OPERATOR DM      FOR CENTER  0  COORDINATES:    0.000000    0.000000    0.000000


 **********************************************************************************************************************************
 DATASETS  * FILE   NREC   LENGTH (MB)   RECORD NAMES
              1      19      111.05       500      610      700      900      950      970     1000      129      960     1100   
                                          VAR    BASINP    GEOM    SYMINP    ZMAT    AOBASIS   BASIS     P2S    ABASIS      S 
                                         1400     1410     1200     1210     1080     1600     1650     1300     1700   
                                           T        V       H0       H01     AOSYM     SMH    MOLCAS    ERIS     OPER   

 PROGRAMS   *        TOTAL       INT
 CPU TIMES  *         1.33      1.24
 REAL TIME  *         2.02 SEC
 DISK USED  *       327.55 MB      
 **********************************************************************************************************************************


 PROGRAM * RHF-SCF (CLOSED SHELL)       Authors: W. Meyer, H.-J. Werner


 NUMBER OF ELECTRONS:       7+    7-
 CONVERGENCE THRESHOLDS:    1.00E-10 (Density)    1.00E-13 (Energy)
 MAX. NUMBER OF ITERATIONS:      500
 INTERPOLATION TYPE:            DIIS
 INTERPOLATION STEPS:              2 (START)      1 (STEP)
 LEVEL SHIFTS:                  0.00 (CLOSED)  0.00 (OPEN) 



 Orbital guess generated from atomic densities. Full valence occupancy:    9   2

 Molecular orbital dump at record        2100.2

 Initial occupancy:   6   1

 ITERATION    DDIFF          GRAD             ENERGY        2-EL.EN.            DIPOLE MOMENTS         DIIS   ORB.
    1      0.000D+00      0.000D+00       -92.88465581    111.922479    0.00692    0.00000   -1.78608    0    start
    2      0.000D+00      0.709D-02       -92.89365162    111.066869   -0.00246    0.00000   -0.90325    1    diag
    3      0.101D-01      0.637D-02       -92.90880915    111.598040    0.00144    0.00000   -1.30850    2    diag
    4      0.457D-02      0.512D-03       -92.90903419    111.560378    0.00113    0.00000   -1.29975    3    diag
    5      0.818D-03      0.114D-03       -92.90904740    111.571070    0.00103    0.00000   -1.29837    4    diag
    6      0.195D-03      0.314D-04       -92.90904823    111.565825    0.00102    0.00000   -1.29838    5    diag
    7      0.441D-04      0.112D-04       -92.90904831    111.566962    0.00101    0.00000   -1.29846    6    diag
    8      0.153D-04      0.216D-05       -92.90904832    111.566921    0.00101    0.00000   -1.29843    7    diag
    9      0.293D-05      0.246D-06       -92.90904832    111.566930    0.00101    0.00000   -1.29842    8    diag
   10      0.392D-06      0.290D-07       -92.90904832    111.566930    0.00101    0.00000   -1.29842    9    orth
   11      0.439D-07      0.509D-08       -92.90904832    111.566930    0.00101    0.00000   -1.29842    9    diag
   12      0.103D-07      0.212D-08       -92.90904832    111.566930    0.00101    0.00000   -1.29842    9    diag
   13      0.530D-08      0.847D-09       -92.90904832    111.566930    0.00101    0.00000   -1.29842    9    diag
   14      0.297D-08      0.222D-09       -92.90904832    111.566930    0.00101    0.00000   -1.29842    9    diag
   15      0.620D-09      0.932D-10       -92.90904832    111.566930    0.00101    0.00000   -1.29842    9    diag
   16      0.246D-09      0.181D-10       -92.90904832    111.566930    0.00101    0.00000   -1.29842    9    diag
   17      0.454D-10      0.418D-11       -92.90904832    111.566930    0.00101    0.00000   -1.29842    9    diag
   18      0.785D-11      0.102D-11       -92.90904832    111.566930    0.00101    0.00000   -1.29842    9    diag
   19      0.280D-11      0.221D-12       -92.90904832    111.566930    0.00101    0.00000   -1.29842    9    fixocc
   20      0.187D-11      0.709D-13       -92.90904832    111.566930    0.00101    0.00000   -1.29842    9    orth
   21      0.120D-11      0.660D-13       -92.90904832    111.566930    0.00101    0.00000   -1.29842    9    diag
   22      0.106D-11      0.366D-13       -92.90904832    111.566930    0.00101    0.00000   -1.29842    9    diag
   23      0.390D-12      0.608D-13       -92.90904832    111.566930    0.00101    0.00000   -1.29842    9    diag
   24      0.383D-12      0.881D-13       -92.90904832    111.566930    0.00101    0.00000   -1.29842    9    diag
   25      0.247D-12      0.709D-13       -92.90904832    111.566930    0.00101    0.00000   -1.29842    9    diag
   26      0.163D-12      0.435D-13       -92.90904832    111.566930    0.00101    0.00000   -1.29842    9    diag
   27      0.332D-12      0.881D-13       -92.90904832    111.566930    0.00101    0.00000   -1.29842    9    diag
   28      0.194D-12      0.463D-13       -92.90904832    111.566930    0.00101    0.00000   -1.29842    9    diag
   29      0.534D-13      0.632D-13       -92.90904832    111.566930    0.00101    0.00000   -1.29842    0    orth

 Final occupancy:   6   1

 !RHF STATE 1.1 Energy                -92.909048315758
 Nuclear energy                        23.90823397
 One-electron energy                 -172.60074748
 Two-electron energy                   55.78346519
 Virial quotient                       -1.00243521
 !RHF STATE 1.1 Dipole moment           0.00100974     0.00000000    -1.29842265
 Dipole moment /Debye                   0.00256634     0.00000000    -3.30004505

 Orbital energies:

         1.1          2.1          3.1          4.1          5.1          6.1          7.1          8.1
    -15.599948   -11.292686    -1.237178    -0.811279    -0.582057    -0.496880     0.023065     0.071604

         1.2          2.2          3.2
     -0.496882     0.072906     0.136427

 HOMO      6.1    -0.496880 =     -13.5208eV
 LUMO      7.1     0.023065 =       0.6276eV
 LUMO-HOMO         0.519945 =      14.1484eV


 **********************************************************************************************************************************
 DATASETS  * FILE   NREC   LENGTH (MB)   RECORD NAMES
              1      19      111.05       500      610      700      900      950      970     1000      129      960     1100   
                                          VAR    BASINP    GEOM    SYMINP    ZMAT    AOBASIS   BASIS     P2S    ABASIS      S 
                                         1400     1410     1200     1210     1080     1600     1650     1300     1700   
                                           T        V       H0       H01     AOSYM     SMH    MOLCAS    ERIS     OPER   

              2       4        2.94       700     1000      520     2100   
                                         GEOM     BASIS   MCVARS     RHF  

 PROGRAMS   *        TOTAL        HF       INT
 CPU TIMES  *         2.83      1.50      1.24
 REAL TIME  *         4.07 SEC
 DISK USED  *       327.55 MB      
 **********************************************************************************************************************************


 PROGRAM * CCSD (Closed-shell coupled cluster)     Authors: C. Hampel, H.-J. Werner, 1991, M. Deegan, P.J. Knowles, 1992


 Convergence thresholds:  THRVAR = 1.00D-08  THRDEN = 1.00D-12

 CCSD(T)     terms to be evaluated (factor= 1.000)


 Number of core orbitals:           2 (   2   0 )
 Number of closed-shell orbitals:   5 (   4   1 )
 Number of external orbitals:     108 (  70  38 )

 Molecular orbitals read from record     2100.2  Type=RHF/CANONICAL (state 1.1)

 Number of N-1 electron functions:               5
 Number of N-2 electron functions:              15
 Number of singly external CSFs:               318
 Number of doubly external CSFs:             75474
 Total number of CSFs:                       75793

 Length of J-op  integral file:               0.00 MB
 Length of K-op  integral file:               0.54 MB
 Length of 3-ext integral record:             0.00 MB

 Memory could be reduced to 5.36 Mwords without degradation in triples

 Integral transformation finished. Total CPU:   0.11 sec, npass=  1  Memory used:   1.45 MW

 Reference energy:                    -92.90904832

 MP2 singlet pair energy:              -0.22192569
 MP2 triplet pair energy:              -0.12834797
 MP2 correlation energy:               -0.35027366
 MP2 total energy:                    -93.25932198

 SCS-MP2 correlation energy:           -0.34617179   (PS=  1.200000  PT=  0.333333)
 SCS-MP2 total energy:                -93.25522011

 ITER.      SQ.NORM     CORR.ENERGY   TOTAL ENERGY   ENERGY CHANGE        DEN1      VAR(S)    VAR(P)  DIIS     TIME  TIME/IT
   1      1.11586966    -0.35282141   -93.26186973    -0.00254775     0.01014858  0.24D-02  0.30D-02  1  1     0.24     0.13
   2      1.12540247    -0.35321912   -93.26226743    -0.00039771    -0.00998342  0.52D-04  0.41D-03  2  2     0.35     0.14
   3      1.13046422    -0.35345590   -93.26250421    -0.00023678    -0.00251631  0.15D-04  0.41D-04  3  3     0.47     0.14
   4      1.13258567    -0.35354686   -93.26259518    -0.00009096    -0.00075765  0.49D-06  0.45D-05  4  4     0.58     0.14
   5      1.13306880    -0.35354453   -93.26259285     0.00000233    -0.00013266  0.96D-07  0.41D-06  5  5     0.71     0.14
   6      1.13317384    -0.35354218   -93.26259050     0.00000235    -0.00002775  0.88D-08  0.30D-07  6  6     0.85     0.14
   7      1.13318171    -0.35354416   -93.26259247    -0.00000198    -0.00000233  0.95D-09  0.27D-08  6  1     0.97     0.14
   8      1.13318198    -0.35354469   -93.26259300    -0.00000053     0.00000050  0.80D-10  0.21D-09  6  2     1.09     0.14
   9      1.13318242    -0.35354475   -93.26259306    -0.00000006    -0.00000027  0.10D-10  0.14D-10  6  3     1.22     0.15
  10      1.13318232    -0.35354478   -93.26259310    -0.00000004     0.00000008  0.10D-11  0.14D-11  6  4     1.36     0.15
  11      1.13318224    -0.35354479   -93.26259311    -0.00000001     0.00000003  0.16D-12  0.14D-12  6  5     1.49     0.15
  12      1.13318215    -0.35354480   -93.26259311    -0.00000001     0.00000003  0.17D-13  0.14D-13  6  1     1.62     0.14
  13      1.13318212    -0.35354480   -93.26259312    -0.00000000     0.00000001  0.16D-14  0.99D-15  6  6     1.74     0.14
  14      1.13318212    -0.35354480   -93.26259312    -0.00000000     0.00000000  0.49D-15  0.18D-15  6  2     1.85     0.14
  15      1.13318212    -0.35354480   -93.26259312     0.00000000     0.00000000  0.68D-16  0.30D-16  6  4     1.95     0.14
  16      1.13318212    -0.35354480   -93.26259312     0.00000000    -0.00000000  0.92D-17  0.48D-17  6  3     2.06     0.14
  17      1.13318212    -0.35354480   -93.26259312     0.00000000    -0.00000000  0.14D-17  0.74D-18  6  5     2.18     0.14
  18      1.13318212    -0.35354480   -93.26259312     0.00000000    -0.00000000  0.27D-18  0.12D-18  6  1     2.31     0.14
  19      1.13318212    -0.35354480   -93.26259312    -0.00000000     0.00000000  0.45D-19  0.22D-19  6  6     2.42     0.14
  20      1.13318212    -0.35354480   -93.26259312    -0.00000000     0.00000000  0.80D-20  0.38D-20  6  2     2.52     0.14
  21      1.13318212    -0.35354480   -93.26259312     0.00000000    -0.00000000  0.78D-21  0.53D-21  6  4     2.64     0.14

 Norm of t1 vector:      0.06363257      S-energy:    -0.00000000      T1 diagnostic:  0.01422867
                                                                       D1 diagnostic:  0.02818333


 Total CPU time for triples:      0.70 sec


 RESULTS
 =======

  Reference energy                    -92.909048315758
  CCSD singlet pair energy             -0.246160117365
  CCSD triplet pair energy             -0.107384682931
  CCSD correlation energy              -0.353544800297

  Triples (T) contribution             -0.018451790143
  Total correlation energy             -0.371996590440

  CCSD total energy                   -93.262593116055
  CCSD[T] energy                      -93.281843787634
  CCSD-T energy                       -93.280649922017
 !CCSD(T) total energy                -93.281044906198

 Timing summary (sec):

 STEP                 CPU(USER)    SYS     CPU(TOT)    WALL
 Transformation          0.11      0.04      0.15      0.16
 CCSD iterations         2.54      0.50      3.04      3.02
 Triples                 0.70      0.02      0.72      0.72

 Program statistics:

 Available memory in ccsd:               994999800
 Min. memory needed in ccsd:                311547
 Max. memory used in ccsd:                  369090
 Max. memory used in cckext:                513448 (21 integral passes)



 **********************************************************************************************************************************
 DATASETS  * FILE   NREC   LENGTH (MB)   RECORD NAMES
              1      20      125.49       500      610      700      900      950      970     1000      129      960     1100   
                                          VAR    BASINP    GEOM    SYMINP    ZMAT    AOBASIS   BASIS     P2S    ABASIS      S 
                                         1400     1410     1200     1210     1080     1600     1650     1300     1700     1380   
                                           T        V       H0       H01     AOSYM     SMH    MOLCAS    ERIS     OPER     JKOP   

              2       4        2.94       700     1000      520     2100   
                                         GEOM     BASIS   MCVARS     RHF  

 PROGRAMS   *        TOTAL   CCSD(T)        HF       INT
 CPU TIMES  *         6.19      3.36      1.50      1.24
 REAL TIME  *         8.01 SEC
 DISK USED  *       327.55 MB      
 **********************************************************************************************************************************

 CCSD(T)/aug-cc-pVTZ energy=    -93.281044906198

        CCSD(T)         HF-SCF  
    -93.28104491    -92.90904832
 **********************************************************************************************************************************
 Molpro calculation terminated
 Variable memory released
