
 Primary working directories    : /tmp/r2666/232524.maple
 Secondary working directories  : /tmp/r2666/232524.maple
 Wavefunction directory         : /ddn/home4/r2666/wfu/
 Main file repository           : /tmp/r2666/232524.maple/

 SHA1      : d5ffa45e93fdbca01ffc919aa182cfdae0147319
 NAME      : 2015.1.35
 ARCHNAME  : linux/x86_64
 FC        : /opt/intel/composer_xe_2015.1.133/bin/intel64/ifort
 BLASLIB   : -Wl,-_start-group /opt/intel/mkl/lib/intel64/libmkl_intel_ilp64.a /opt/intel/mkl/lib/intel64/libmkl_intel_thread.a /opt/intel/mkl/lib/intel64/libmkl_core.a -Wl,-_end-group
 id        : olemiss

 Nodes     nprocs
 cn095        1

 Using customized tuning parameters: mindgm=1; mindgv=20; mindgc=4; mindgr=1; noblas=0; minvec=7
 default implementation of scratch files=df  

 ***,hcn CCSD(T)/TZ-F12 QFF
 memory, 995, m;
 gthresh,energy=1.d-12,zero=1.d-22,oneint=1.d-22,twoint=1.d-22;
 gthresh,optgrad=1.d-8,optstep=1.d-8;
 nocompress;
 geomtyp=xyz
 bohr
 geometry={
 3
         23        23
 N        0.0000000000        0.0000000000        1.1184023044
 C        0.0000000000        0.0000000000       -1.0604473626
 H        0.0000000000        0.0000000000       -3.0550249237
 }
 
 basis=avtz
   {hf,maxit=500;accu,20;}
 {ccsd(t),nocheck,maxit=250;orbital,IGNORE_ERROR;}

 Variables initialized (889), CPU time= 0.01 sec
 Commands  initialized (702), CPU time= 0.01 sec, 572 directives.
 Default parameters read. Elapsed time= 0.05 sec

 Checking input...
 Passed
1


                                         ***  PROGRAM SYSTEM MOLPRO  ***
                                       Copyright, TTI GmbH Stuttgart, 2015
                                    Version 2015.1 linked Jul  9 2018 13:16:40


 **********************************************************************************************************************************
 LABEL *   hcn CCSD(T)/TZ-F12 QFF                                                        
  64 bit serial version                                                                  DATE: 06-Feb-20          TIME: 09:54:18  
 **********************************************************************************************************************************

 SHA1:             d5ffa45e93fdbca01ffc919aa182cfdae0147319
 **********************************************************************************************************************************

 THRESHOLDS:

 ZERO    =  1.00D-22  ONEINT  =  1.00D-22  TWOINT  =  1.00D-22  PREFAC  =  1.00D-14  LOCALI  =  1.00D-09  EORDER  =  1.00D-04
 ENERGY  =  1.00D-12  ETEST   =  0.00D+00  EDENS   =  0.00D+00  THRDEDEF=  1.00D-06  GRADIENT=  1.00D-02  STEP    =  1.00D-03
 ORBITAL =  1.00D-05  CIVEC   =  1.00D-05  COEFF   =  1.00D-04  PRINTCI =  5.00D-02  PUNCHCI =  9.90D+01  OPTGRAD =  3.00D-04
 OPTENERG=  1.00D-06  OPTSTEP =  3.00D-04  THRGRAD =  1.00D-10  COMPRESS=  1.00D-11  VARMIN  =  1.00D-07  VARMAX  =  1.00D-03
 THRDOUB =  0.00D+00  THRDIV  =  1.00D-05  THRRED  =  1.00D-07  THRPSP  =  1.00D+00  THRDC   =  1.00D-10  THRCS   =  1.00D-10
 THRNRM  =  1.00D-08  THREQ   =  0.00D+00  THRDE   =  1.00D+00  THRREF  =  1.00D-05  SPARFAC =  1.00D+00  THRDLP  =  1.00D-07
 THRDIA  =  1.00D-10  THRDLS  =  1.00D-07  THRGPS  =  0.00D+00  THRKEX  =  0.00D+00  THRDIS  =  2.00D-01  THRVAR  =  1.00D-10
 THRLOC  =  1.00D-06  THRGAP  =  1.00D-06  THRLOCT = -1.00D+00  THRGAPT = -1.00D+00  THRORB  =  1.00D-06  THRMLTP =  0.00D+00
 THRCPQCI=  1.00D-10  KEXTA   =  0.00D+00  THRCOARS=  0.00D+00  SYMTOL  =  1.00D-06  GRADTOL =  1.00D-06  THROVL  =  1.00D-08
 THRORTH =  1.00D-08  GRID    =  1.00D-06  GRIDMAX =  1.00D-03  DTMAX   =  0.00D+00  THROCCDE=  1.00D-01  THROCCDE=  1.00D-01



 THRESHOLDS:

 ZERO    =  1.00D-22  ONEINT  =  1.00D-22  TWOINT  =  1.00D-22  PREFAC  =  1.00D-14  LOCALI  =  1.00D-09  EORDER  =  1.00D-04
 ENERGY  =  1.00D-12  ETEST   =  0.00D+00  EDENS   =  0.00D+00  THRDEDEF=  1.00D-06  GRADIENT=  1.00D-02  STEP    =  1.00D-03
 ORBITAL =  1.00D-05  CIVEC   =  1.00D-05  COEFF   =  1.00D-04  PRINTCI =  5.00D-02  PUNCHCI =  9.90D+01  OPTGRAD =  1.00D-08
 OPTENERG=  1.00D-06  OPTSTEP =  1.00D-08  THRGRAD =  1.00D-10  COMPRESS=  1.00D-11  VARMIN  =  1.00D-07  VARMAX  =  1.00D-03
 THRDOUB =  0.00D+00  THRDIV  =  1.00D-05  THRRED  =  1.00D-07  THRPSP  =  1.00D+00  THRDC   =  1.00D-10  THRCS   =  1.00D-10
 THRNRM  =  1.00D-08  THREQ   =  0.00D+00  THRDE   =  1.00D+00  THRREF  =  1.00D-05  SPARFAC =  1.00D+00  THRDLP  =  1.00D-07
 THRDIA  =  1.00D-10  THRDLS  =  1.00D-07  THRGPS  =  0.00D+00  THRKEX  =  0.00D+00  THRDIS  =  2.00D-01  THRVAR  =  1.00D-10
 THRLOC  =  1.00D-06  THRGAP  =  1.00D-06  THRLOCT = -1.00D+00  THRGAPT = -1.00D+00  THRORB  =  1.00D-06  THRMLTP =  0.00D+00
 THRCPQCI=  1.00D-10  KEXTA   =  0.00D+00  THRCOARS=  0.00D+00  SYMTOL  =  1.00D-06  GRADTOL =  1.00D-06  THROVL  =  1.00D-08
 THRORTH =  1.00D-08  GRID    =  1.00D-06  GRIDMAX =  1.00D-03  DTMAX   =  0.00D+00  THROCCDE=  1.00D-01  THROCCDE=  1.00D-01



 Input parameters for SORTINT:

 COMPRESS =    0.000000
 C_FINAL  =    1.000000
 DEBUG    =   -1.000000
 C_SORT1  =    0.000000
 C_SEWARD =    0.000000
 THRESH   =    0.000000
 IO       =  molpro                                                          
 SPRI     =    0.000000
 SETTING GEOMTYP        =    XYZ
 ZUNIT=BOHR
 

 Variable memory set to  995000000 words,  buffer space   230000 words

 SETTING BASIS          =    AVTZ


 Recomputing integrals since basis changed


 Using spherical harmonics

 Library entry N      S aug-cc-pVTZ          selected for orbital group  1
 Library entry N      P aug-cc-pVTZ          selected for orbital group  1
 Library entry N      D aug-cc-pVTZ          selected for orbital group  1
 Library entry N      F aug-cc-pVTZ          selected for orbital group  1
 Library entry C      S aug-cc-pVTZ          selected for orbital group  2
 Library entry C      P aug-cc-pVTZ          selected for orbital group  2
 Library entry C      D aug-cc-pVTZ          selected for orbital group  2
 Library entry C      F aug-cc-pVTZ          selected for orbital group  2
 Library entry H      S aug-cc-pVTZ          selected for orbital group  3
 Library entry H      P aug-cc-pVTZ          selected for orbital group  3
 Library entry H      D aug-cc-pVTZ          selected for orbital group  3


 PROGRAM * SEWARD (Integral evaluation for generally contracted gaussian basis sets)     Author: Roland Lindh, 1990

 Geometry written to block  1 of record 700


 Point group  C2v 



 ATOMIC COORDINATES

 NR  ATOM    CHARGE       X              Y              Z

   1  N       7.00    0.000000000    0.000000000    1.118402304
   2  C       6.00    0.000000000    0.000000000   -1.060447363
   3  H       1.00    0.000000000    0.000000000   -3.055024924

 Bond lengths in Bohr (Angstrom)

 1-2  2.178849667  2-3  1.994577561
     ( 1.152997590)     ( 1.055484991)

 Bond angles

  1-2-3  180.00000000

 NUCLEAR CHARGE:                   14
 NUMBER OF PRIMITIVE AOS:         161
 NUMBER OF SYMMETRY AOS:          141
 NUMBER OF CONTRACTIONS:          115   (  49A1  +  27B1  +  27B2  +  12A2  )
 NUMBER OF CORE ORBITALS:           2   (   2A1  +   0B1  +   0B2  +   0A2  )
 NUMBER OF VALENCE ORBITALS:        9   (   5A1  +   2B1  +   2B2  +   0A2  )


 NUCLEAR REPULSION ENERGY   23.96166097

 EXTRA SYMMETRY OF AOS IN SYMMETRY 1:   1 1 1 1 1 1 1 1 1 1   2 1 2 1 2 1 2 1 2 1   1 1 1 1 1 1 1 1 1 2   1 2 1 2 1 2 1 2 1 1
                                        1 1 1 1 1 1 2 1 2
 EXTRA SYMMETRY OF AOS IN SYMMETRY 2:   1 1 1 1 1 1 1 1 2 1   2 1 1 1 1 1 1 1 1 2   1 2 1 1 1 1 1
 EXTRA SYMMETRY OF AOS IN SYMMETRY 3:   1 1 1 1 1 1 1 1 2 1   2 1 1 1 1 1 1 1 1 2   1 2 1 1 1 1 1

 Eigenvalues of metric

         1 0.846E-04 0.196E-03 0.604E-03 0.121E-02 0.138E-02 0.178E-02 0.513E-02 0.680E-02
         2 0.226E-02 0.510E-02 0.126E-01 0.158E-01 0.307E-01 0.447E-01 0.801E-01 0.102E+00
         3 0.226E-02 0.510E-02 0.126E-01 0.158E-01 0.307E-01 0.447E-01 0.801E-01 0.102E+00
         4 0.381E-01 0.111E+00 0.147E+00 0.332E+00 0.483E+00 0.510E+00 0.741E+00 0.892E+00


 Contracted 2-electron integrals neglected if value below      1.0D-22

        5028613. INTEGRALS WRITTEN OUT IN    1228 BLOCKS ON RECORD 1290 OF FILE 1


 NUMBER OF SORTED TWO-ELECTRON INTEGRALS:    5853730.     BUFFER LENGTH:  32768
 NUMBER OF SEGMENTS:   1  SEGMENT LENGTH:    5853730      RECORD LENGTH: 524288

 Memory used in sort:       6.41 MW

 SORT1 READ     5028613. AND WROTE     5163744. INTEGRALS IN     15 RECORDS. CPU TIME:     0.11 SEC, REAL TIME:     0.13 SEC
 SORT2 READ     5163744. AND WROTE     5853730. INTEGRALS IN      1 RECORDS. CPU TIME:     0.11 SEC, REAL TIME:     0.14 SEC

 FILE SIZES:   FILE 1:   100.7 MBYTE,  FILE 4:    62.9 MBYTE,   TOTAL:    163.7 MBYTE

 OPERATOR DM      FOR CENTER  0  COORDINATES:    0.000000    0.000000    0.000000


 **********************************************************************************************************************************
 DATASETS  * FILE   NREC   LENGTH (MB)   RECORD NAMES
              1      19       63.47       500      610      700      900      950      970     1000      129      960     1100   
                                          VAR    BASINP    GEOM    SYMINP    ZMAT    AOBASIS   BASIS     P2S    ABASIS      S 
                                         1400     1410     1200     1210     1080     1600     1650     1300     1700   
                                           T        V       H0       H01     AOSYM     SMH    MOLCAS    ERIS     OPER   

 PROGRAMS   *        TOTAL       INT
 CPU TIMES  *         1.15      1.05
 REAL TIME  *         1.71 SEC
 DISK USED  *       163.98 MB      
 **********************************************************************************************************************************


 PROGRAM * RHF-SCF (CLOSED SHELL)       Authors: W. Meyer, H.-J. Werner


 NUMBER OF ELECTRONS:       7+    7-
 CONVERGENCE THRESHOLDS:    1.00E-10 (Density)    1.00E-13 (Energy)
 MAX. NUMBER OF ITERATIONS:      500
 INTERPOLATION TYPE:            DIIS
 INTERPOLATION STEPS:              2 (START)      1 (STEP)
 LEVEL SHIFTS:                  0.00 (CLOSED)  0.00 (OPEN) 



 Orbital guess generated from atomic densities. Full valence occupancy:    7   2   2   0

 Molecular orbital dump at record        2100.2

 Initial occupancy:   5   1   1   0

 ITERATION    DDIFF          GRAD             ENERGY        2-EL.EN.            DIPOLE MOMENTS         DIIS   ORB.
    1      0.000D+00      0.000D+00       -92.88535494    111.995347    0.00000    0.00000   -1.76650    0    start
    2      0.000D+00      0.908D-02       -92.89431561    111.158344    0.00000    0.00000   -0.90083    1    diag
    3      0.135D-01      0.813D-02       -92.90893838    111.681685    0.00000    0.00000   -1.30039    2    diag
    4      0.604D-02      0.672D-03       -92.90916572    111.642855    0.00000    0.00000   -1.29154    3    diag
    5      0.112D-02      0.147D-03       -92.90917869    111.653398    0.00000    0.00000   -1.29018    4    diag
    6      0.261D-03      0.400D-04       -92.90917950    111.648196    0.00000    0.00000   -1.29021    5    diag
    7      0.578D-04      0.143D-04       -92.90917957    111.649301    0.00000    0.00000   -1.29028    6    diag
    8      0.201D-04      0.276D-05       -92.90917958    111.649261    0.00000    0.00000   -1.29024    7    diag
    9      0.392D-05      0.316D-06       -92.90917958    111.649271    0.00000    0.00000   -1.29023    8    diag
   10      0.525D-06      0.367D-07       -92.90917958    111.649271    0.00000    0.00000   -1.29023    9    orth
   11      0.564D-07      0.449D-08       -92.90917958    111.649271    0.00000    0.00000   -1.29023    9    diag
   12      0.104D-07      0.398D-09       -92.90917958    111.649271    0.00000    0.00000   -1.29023    9    diag
   13      0.101D-08      0.468D-10       -92.90917958    111.649271    0.00000    0.00000   -1.29023    9    diag
   14      0.156D-09      0.490D-11       -92.90917958    111.649271    0.00000    0.00000   -1.29023    9    diag
   15      0.247D-10      0.113D-11       -92.90917958    111.649271    0.00000    0.00000   -1.29023    9    diag
   16      0.396D-11      0.344D-12       -92.90917958    111.649271    0.00000    0.00000   -1.29023    9    diag
   17      0.425D-11      0.126D-12       -92.90917958    111.649271    0.00000    0.00000   -1.29023    9    diag
   18      0.179D-11      0.672D-13       -92.90917958    111.649271    0.00000    0.00000   -1.29023    9    diag
   19      0.975D-12      0.647D-13       -92.90917958    111.649271    0.00000    0.00000   -1.29023    9    fixocc
   20      0.110D-11      0.628D-13       -92.90917958    111.649271    0.00000    0.00000   -1.29023    9    orth
   21      0.535D-12      0.769D-13       -92.90917958    111.649271    0.00000    0.00000   -1.29023    9    diag
   22      0.572D-12      0.585D-13       -92.90917958    111.649271    0.00000    0.00000   -1.29023    9    diag
   23      0.327D-12      0.428D-13       -92.90917958    111.649271    0.00000    0.00000   -1.29023    9    diag
   24      0.378D-12      0.493D-13       -92.90917958    111.649271    0.00000    0.00000   -1.29023    0    orth

 Final occupancy:   5   1   1   0

 !RHF STATE 1.1 Energy                -92.909179576909
 Nuclear energy                        23.96166097
 One-electron energy                 -172.69547615
 Two-electron energy                   55.82463560
 Virial quotient                       -1.00218193
 !RHF STATE 1.1 Dipole moment           0.00000000     0.00000000    -1.29023369
 Dipole moment /Debye                   0.00000000     0.00000000    -3.27923215

 Orbital energies:

         1.1          2.1          3.1          4.1          5.1          6.1          7.1
    -15.600233   -11.291565    -1.237374    -0.817166    -0.582561     0.023129     0.071704

         1.2          2.2          3.2
     -0.497102     0.072917     0.136201

         1.3          2.3          3.3
     -0.497102     0.072917     0.136201

         1.4          2.4
      0.293754     0.549960

 HOMO      1.2    -0.497102 =     -13.5268eV
 LUMO      6.1     0.023129 =       0.6294eV
 LUMO-HOMO         0.520231 =      14.1562eV


 **********************************************************************************************************************************
 DATASETS  * FILE   NREC   LENGTH (MB)   RECORD NAMES
              1      19       63.47       500      610      700      900      950      970     1000      129      960     1100   
                                          VAR    BASINP    GEOM    SYMINP    ZMAT    AOBASIS   BASIS     P2S    ABASIS      S 
                                         1400     1410     1200     1210     1080     1600     1650     1300     1700   
                                           T        V       H0       H01     AOSYM     SMH    MOLCAS    ERIS     OPER   

              2       4        2.88       700     1000      520     2100   
                                         GEOM     BASIS   MCVARS     RHF  

 PROGRAMS   *        TOTAL        HF       INT
 CPU TIMES  *         1.64      0.49      1.05
 REAL TIME  *         2.32 SEC
 DISK USED  *       163.98 MB      
 **********************************************************************************************************************************


 PROGRAM * CCSD (Closed-shell coupled cluster)     Authors: C. Hampel, H.-J. Werner, 1991, M. Deegan, P.J. Knowles, 1992


 Convergence thresholds:  THRVAR = 1.00D-08  THRDEN = 1.00D-12

 CCSD(T)     terms to be evaluated (factor= 1.000)


 Number of core orbitals:           2 (   2   0   0   0 )
 Number of closed-shell orbitals:   5 (   3   1   1   0 )
 Number of external orbitals:     108 (  44  26  26  12 )

 Molecular orbitals read from record     2100.2  Type=RHF/CANONICAL (state 1.1)

 Number of N-1 electron functions:               5
 Number of N-2 electron functions:              15
 Number of singly external CSFs:               184
 Number of doubly external CSFs:             39026
 Total number of CSFs:                       39211

 Length of J-op  integral file:               0.00 MB
 Length of K-op  integral file:               0.31 MB
 Length of 3-ext integral record:             0.00 MB

 Memory could be reduced to 2.91 Mwords without degradation in triples

 Integral transformation finished. Total CPU:   0.05 sec, npass=  1  Memory used:   0.44 MW

 Reference energy:                    -92.90917958

 MP2 singlet pair energy:              -0.22181466
 MP2 triplet pair energy:              -0.12830921
 MP2 correlation energy:               -0.35012388
 MP2 total energy:                    -93.25930345

 SCS-MP2 correlation energy:           -0.34601444   (PS=  1.200000  PT=  0.333333)
 SCS-MP2 total energy:                -93.25519402

 ITER.      SQ.NORM     CORR.ENERGY   TOTAL ENERGY   ENERGY CHANGE        DEN1      VAR(S)    VAR(P)  DIIS     TIME  TIME/IT
   1      1.11559401    -0.35266727   -93.26184685    -0.00254339     0.01011445  0.24D-02  0.30D-02  1  1     0.10     0.06
   2      1.12507452    -0.35305361   -93.26223319    -0.00038634    -0.00995443  0.52D-04  0.41D-03  2  2     0.16     0.06
   3      1.13008594    -0.35328547   -93.26246505    -0.00023186    -0.00249482  0.15D-04  0.41D-04  3  3     0.21     0.06
   4      1.13219596    -0.35337566   -93.26255524    -0.00009019    -0.00075406  0.48D-06  0.44D-05  4  4     0.27     0.06
   5      1.13267549    -0.35337274   -93.26255231     0.00000293    -0.00013195  0.88D-07  0.40D-06  5  5     0.32     0.06
   6      1.13277678    -0.35337061   -93.26255018     0.00000213    -0.00002677  0.86D-08  0.30D-07  6  6     0.38     0.06
   7      1.13278428    -0.35337260   -93.26255218    -0.00000199    -0.00000222  0.93D-09  0.27D-08  6  1     0.43     0.06
   8      1.13278446    -0.35337313   -93.26255271    -0.00000054     0.00000054  0.73D-10  0.21D-09  6  2     0.49     0.06
   9      1.13278489    -0.35337320   -93.26255277    -0.00000006    -0.00000028  0.11D-10  0.13D-10  6  3     0.55     0.06
  10      1.13278479    -0.35337323   -93.26255281    -0.00000003     0.00000008  0.11D-11  0.13D-11  6  4     0.62     0.06
  11      1.13278471    -0.35337324   -93.26255282    -0.00000001     0.00000003  0.19D-12  0.13D-12  6  5     0.68     0.06
  12      1.13278462    -0.35337325   -93.26255282    -0.00000000     0.00000003  0.19D-13  0.14D-13  6  1     0.72     0.06
  13      1.13278459    -0.35337325   -93.26255282    -0.00000000     0.00000001  0.15D-14  0.11D-14  6  6     0.77     0.06
  14      1.13278458    -0.35337325   -93.26255282    -0.00000000     0.00000000  0.46D-15  0.17D-15  6  2     0.82     0.06
  15      1.13278458    -0.35337325   -93.26255282    -0.00000000     0.00000000  0.36D-16  0.33D-16  6  3     0.88     0.06
  16      1.13278458    -0.35337325   -93.26255282     0.00000000    -0.00000000  0.49D-17  0.34D-17  6  4     0.94     0.06
  17      1.13278458    -0.35337325   -93.26255282     0.00000000    -0.00000000  0.27D-18  0.31D-18  6  5     0.99     0.06
  18      1.13278458    -0.35337325   -93.26255282     0.00000000    -0.00000000  0.31D-19  0.37D-19  6  6     1.04     0.06
  19      1.13278458    -0.35337325   -93.26255282    -0.00000000     0.00000000  0.55D-20  0.37D-20  6  1     1.10     0.06
  20      1.13278458    -0.35337325   -93.26255282    -0.00000000     0.00000000  0.89D-21  0.63D-21  6  2     1.15     0.06
  21      1.13278458    -0.35337325   -93.26255282    -0.00000000     0.00000000  0.12D-21  0.67D-22  6  3     1.20     0.06

 Norm of t1 vector:      0.06351582      S-energy:    -0.00000000      T1 diagnostic:  0.01420257
                                                                       D1 diagnostic:  0.02820284


 Total CPU time for triples:      0.26 sec


 RESULTS
 =======

  Reference energy                    -92.909179576909
  CCSD singlet pair energy             -0.245976423070
  CCSD triplet pair energy             -0.107396824685
  CCSD correlation energy              -0.353373247755

  Triples (T) contribution             -0.018412657504
  Total correlation energy             -0.371785905259

  CCSD total energy                   -93.262552824664
  CCSD[T] energy                      -93.281761864443
  CCSD-T energy                       -93.280571374977
 !CCSD(T) total energy                -93.280965482168

 Timing summary (sec):

 STEP                 CPU(USER)    SYS     CPU(TOT)    WALL
 Transformation          0.05      0.02      0.07      0.06
 CCSD iterations         1.15      0.21      1.36      1.38
 Triples                 0.26      0.02      0.28      0.28

 Program statistics:

 Available memory in ccsd:               994999800
 Min. memory needed in ccsd:                166428
 Max. memory used in ccsd:                  196881
 Max. memory used in cckext:                233267 (21 integral passes)



 **********************************************************************************************************************************
 DATASETS  * FILE   NREC   LENGTH (MB)   RECORD NAMES
              1      20       70.98       500      610      700      900      950      970     1000      129      960     1100   
                                          VAR    BASINP    GEOM    SYMINP    ZMAT    AOBASIS   BASIS     P2S    ABASIS      S 
                                         1400     1410     1200     1210     1080     1600     1650     1300     1700     1380   
                                           T        V       H0       H01     AOSYM     SMH    MOLCAS    ERIS     OPER     JKOP   

              2       4        2.88       700     1000      520     2100   
                                         GEOM     BASIS   MCVARS     RHF  

 PROGRAMS   *        TOTAL   CCSD(T)        HF       INT
 CPU TIMES  *         3.13      1.49      0.49      1.05
 REAL TIME  *         4.65 SEC
 DISK USED  *       163.98 MB      
 **********************************************************************************************************************************

 CCSD(T)/aug-cc-pVTZ energy=    -93.280965482168

        CCSD(T)         HF-SCF  
    -93.28096548    -92.90917958
 **********************************************************************************************************************************
 Molpro calculation terminated
 Variable memory released
