
 Primary working directories    : /tmp/r2666/232539.maple
 Secondary working directories  : /tmp/r2666/232539.maple
 Wavefunction directory         : /ddn/home4/r2666/wfu/
 Main file repository           : /tmp/r2666/232539.maple/

 SHA1      : d5ffa45e93fdbca01ffc919aa182cfdae0147319
 NAME      : 2015.1.35
 ARCHNAME  : linux/x86_64
 FC        : /opt/intel/composer_xe_2015.1.133/bin/intel64/ifort
 BLASLIB   : -Wl,-_start-group /opt/intel/mkl/lib/intel64/libmkl_intel_ilp64.a /opt/intel/mkl/lib/intel64/libmkl_intel_thread.a /opt/intel/mkl/lib/intel64/libmkl_core.a -Wl,-_end-group
 id        : olemiss

 Nodes     nprocs
 cn080        1

 Using customized tuning parameters: mindgm=1; mindgv=20; mindgc=4; mindgr=1; noblas=0; minvec=7
 default implementation of scratch files=df  

 ***,hcn CCSD(T)/TZ-F12 QFF
 memory, 995, m;
 gthresh,energy=1.d-12,zero=1.d-22,oneint=1.d-22,twoint=1.d-22;
 gthresh,optgrad=1.d-8,optstep=1.d-8;
 nocompress;
 geomtyp=xyz
 bohr
 geometry={
 3
         38        38
 N        0.0000000000        0.0000000000        1.1278509343
 C        0.0000000000        0.0000000000       -1.0604473626
 H        0.0000000000        0.0000000000       -3.0644735537
 }
 
 basis=avtz
   {hf,maxit=500;accu,20;}
 {ccsd(t),nocheck,maxit=250;orbital,IGNORE_ERROR;}

 Variables initialized (889), CPU time= 0.01 sec
 Commands  initialized (702), CPU time= 0.02 sec, 572 directives.
 Default parameters read. Elapsed time= 0.05 sec

 Checking input...
 Passed
1


                                         ***  PROGRAM SYSTEM MOLPRO  ***
                                       Copyright, TTI GmbH Stuttgart, 2015
                                    Version 2015.1 linked Jul  9 2018 13:16:40


 **********************************************************************************************************************************
 LABEL *   hcn CCSD(T)/TZ-F12 QFF                                                        
  64 bit serial version                                                                  DATE: 06-Feb-20          TIME: 09:54:23  
 **********************************************************************************************************************************

 SHA1:             d5ffa45e93fdbca01ffc919aa182cfdae0147319
 **********************************************************************************************************************************

 THRESHOLDS:

 ZERO    =  1.00D-22  ONEINT  =  1.00D-22  TWOINT  =  1.00D-22  PREFAC  =  1.00D-14  LOCALI  =  1.00D-09  EORDER  =  1.00D-04
 ENERGY  =  1.00D-12  ETEST   =  0.00D+00  EDENS   =  0.00D+00  THRDEDEF=  1.00D-06  GRADIENT=  1.00D-02  STEP    =  1.00D-03
 ORBITAL =  1.00D-05  CIVEC   =  1.00D-05  COEFF   =  1.00D-04  PRINTCI =  5.00D-02  PUNCHCI =  9.90D+01  OPTGRAD =  3.00D-04
 OPTENERG=  1.00D-06  OPTSTEP =  3.00D-04  THRGRAD =  1.00D-10  COMPRESS=  1.00D-11  VARMIN  =  1.00D-07  VARMAX  =  1.00D-03
 THRDOUB =  0.00D+00  THRDIV  =  1.00D-05  THRRED  =  1.00D-07  THRPSP  =  1.00D+00  THRDC   =  1.00D-10  THRCS   =  1.00D-10
 THRNRM  =  1.00D-08  THREQ   =  0.00D+00  THRDE   =  1.00D+00  THRREF  =  1.00D-05  SPARFAC =  1.00D+00  THRDLP  =  1.00D-07
 THRDIA  =  1.00D-10  THRDLS  =  1.00D-07  THRGPS  =  0.00D+00  THRKEX  =  0.00D+00  THRDIS  =  2.00D-01  THRVAR  =  1.00D-10
 THRLOC  =  1.00D-06  THRGAP  =  1.00D-06  THRLOCT = -1.00D+00  THRGAPT = -1.00D+00  THRORB  =  1.00D-06  THRMLTP =  0.00D+00
 THRCPQCI=  1.00D-10  KEXTA   =  0.00D+00  THRCOARS=  0.00D+00  SYMTOL  =  1.00D-06  GRADTOL =  1.00D-06  THROVL  =  1.00D-08
 THRORTH =  1.00D-08  GRID    =  1.00D-06  GRIDMAX =  1.00D-03  DTMAX   =  0.00D+00  THROCCDE=  1.00D-01  THROCCDE=  1.00D-01



 THRESHOLDS:

 ZERO    =  1.00D-22  ONEINT  =  1.00D-22  TWOINT  =  1.00D-22  PREFAC  =  1.00D-14  LOCALI  =  1.00D-09  EORDER  =  1.00D-04
 ENERGY  =  1.00D-12  ETEST   =  0.00D+00  EDENS   =  0.00D+00  THRDEDEF=  1.00D-06  GRADIENT=  1.00D-02  STEP    =  1.00D-03
 ORBITAL =  1.00D-05  CIVEC   =  1.00D-05  COEFF   =  1.00D-04  PRINTCI =  5.00D-02  PUNCHCI =  9.90D+01  OPTGRAD =  1.00D-08
 OPTENERG=  1.00D-06  OPTSTEP =  1.00D-08  THRGRAD =  1.00D-10  COMPRESS=  1.00D-11  VARMIN  =  1.00D-07  VARMAX  =  1.00D-03
 THRDOUB =  0.00D+00  THRDIV  =  1.00D-05  THRRED  =  1.00D-07  THRPSP  =  1.00D+00  THRDC   =  1.00D-10  THRCS   =  1.00D-10
 THRNRM  =  1.00D-08  THREQ   =  0.00D+00  THRDE   =  1.00D+00  THRREF  =  1.00D-05  SPARFAC =  1.00D+00  THRDLP  =  1.00D-07
 THRDIA  =  1.00D-10  THRDLS  =  1.00D-07  THRGPS  =  0.00D+00  THRKEX  =  0.00D+00  THRDIS  =  2.00D-01  THRVAR  =  1.00D-10
 THRLOC  =  1.00D-06  THRGAP  =  1.00D-06  THRLOCT = -1.00D+00  THRGAPT = -1.00D+00  THRORB  =  1.00D-06  THRMLTP =  0.00D+00
 THRCPQCI=  1.00D-10  KEXTA   =  0.00D+00  THRCOARS=  0.00D+00  SYMTOL  =  1.00D-06  GRADTOL =  1.00D-06  THROVL  =  1.00D-08
 THRORTH =  1.00D-08  GRID    =  1.00D-06  GRIDMAX =  1.00D-03  DTMAX   =  0.00D+00  THROCCDE=  1.00D-01  THROCCDE=  1.00D-01



 Input parameters for SORTINT:

 COMPRESS =    0.000000
 C_FINAL  =    1.000000
 DEBUG    =   -1.000000
 C_SORT1  =    0.000000
 C_SEWARD =    0.000000
 THRESH   =    0.000000
 IO       =  molpro                                                          
 SPRI     =    0.000000
 SETTING GEOMTYP        =    XYZ
 ZUNIT=BOHR
 

 Variable memory set to  995000000 words,  buffer space   230000 words

 SETTING BASIS          =    AVTZ


 Recomputing integrals since basis changed


 Using spherical harmonics

 Library entry N      S aug-cc-pVTZ          selected for orbital group  1
 Library entry N      P aug-cc-pVTZ          selected for orbital group  1
 Library entry N      D aug-cc-pVTZ          selected for orbital group  1
 Library entry N      F aug-cc-pVTZ          selected for orbital group  1
 Library entry C      S aug-cc-pVTZ          selected for orbital group  2
 Library entry C      P aug-cc-pVTZ          selected for orbital group  2
 Library entry C      D aug-cc-pVTZ          selected for orbital group  2
 Library entry C      F aug-cc-pVTZ          selected for orbital group  2
 Library entry H      S aug-cc-pVTZ          selected for orbital group  3
 Library entry H      P aug-cc-pVTZ          selected for orbital group  3
 Library entry H      D aug-cc-pVTZ          selected for orbital group  3


 PROGRAM * SEWARD (Integral evaluation for generally contracted gaussian basis sets)     Author: Roland Lindh, 1990

 Geometry written to block  1 of record 700


 Point group  C2v 



 ATOMIC COORDINATES

 NR  ATOM    CHARGE       X              Y              Z

   1  N       7.00    0.000000000    0.000000000    1.127850934
   2  C       6.00    0.000000000    0.000000000   -1.060447363
   3  H       1.00    0.000000000    0.000000000   -3.064473554

 Bond lengths in Bohr (Angstrom)

 1-2  2.188298297  2-3  2.004026191
     ( 1.157997589)     ( 1.060484990)

 Bond angles

  1-2-3  179.99999879

 NUCLEAR CHARGE:                   14
 NUMBER OF PRIMITIVE AOS:         161
 NUMBER OF SYMMETRY AOS:          141
 NUMBER OF CONTRACTIONS:          115   (  49A1  +  27B1  +  27B2  +  12A2  )
 NUMBER OF CORE ORBITALS:           2   (   2A1  +   0B1  +   0B2  +   0A2  )
 NUMBER OF VALENCE ORBITALS:        9   (   5A1  +   2B1  +   2B2  +   0A2  )


 NUCLEAR REPULSION ENERGY   23.85668672

 EXTRA SYMMETRY OF AOS IN SYMMETRY 1:   1 1 1 1 1 1 1 1 1 1   2 1 2 1 2 1 2 1 2 1   1 1 1 1 1 1 1 1 1 2   1 2 1 2 1 2 1 2 1 1
                                        1 1 1 1 1 1 2 1 2
 EXTRA SYMMETRY OF AOS IN SYMMETRY 2:   1 1 1 1 1 1 1 1 2 1   2 1 1 1 1 1 1 1 1 2   1 2 1 1 1 1 1
 EXTRA SYMMETRY OF AOS IN SYMMETRY 3:   1 1 1 1 1 1 1 1 2 1   2 1 1 1 1 1 1 1 1 2   1 2 1 1 1 1 1

 Eigenvalues of metric

         1 0.862E-04 0.198E-03 0.613E-03 0.123E-02 0.140E-02 0.179E-02 0.514E-02 0.686E-02
         2 0.229E-02 0.517E-02 0.128E-01 0.160E-01 0.310E-01 0.449E-01 0.814E-01 0.103E+00
         3 0.229E-02 0.517E-02 0.128E-01 0.160E-01 0.310E-01 0.449E-01 0.814E-01 0.103E+00
         4 0.386E-01 0.112E+00 0.148E+00 0.333E+00 0.487E+00 0.510E+00 0.742E+00 0.895E+00


 Contracted 2-electron integrals neglected if value below      1.0D-22

        5028049. INTEGRALS WRITTEN OUT IN    1228 BLOCKS ON RECORD 1290 OF FILE 1


 NUMBER OF SORTED TWO-ELECTRON INTEGRALS:    5853730.     BUFFER LENGTH:  32768
 NUMBER OF SEGMENTS:   1  SEGMENT LENGTH:    5853730      RECORD LENGTH: 524288

 Memory used in sort:       6.41 MW

 SORT1 READ     5028049. AND WROTE     5163147. INTEGRALS IN     15 RECORDS. CPU TIME:     0.11 SEC, REAL TIME:     0.14 SEC
 SORT2 READ     5163147. AND WROTE     5853730. INTEGRALS IN      1 RECORDS. CPU TIME:     0.11 SEC, REAL TIME:     0.14 SEC

 FILE SIZES:   FILE 1:   100.7 MBYTE,  FILE 4:    62.9 MBYTE,   TOTAL:    163.7 MBYTE

 OPERATOR DM      FOR CENTER  0  COORDINATES:    0.000000    0.000000    0.000000


 **********************************************************************************************************************************
 DATASETS  * FILE   NREC   LENGTH (MB)   RECORD NAMES
              1      19       63.47       500      610      700      900      950      970     1000      129      960     1100   
                                          VAR    BASINP    GEOM    SYMINP    ZMAT    AOBASIS   BASIS     P2S    ABASIS      S 
                                         1400     1410     1200     1210     1080     1600     1650     1300     1700   
                                           T        V       H0       H01     AOSYM     SMH    MOLCAS    ERIS     OPER   

 PROGRAMS   *        TOTAL       INT
 CPU TIMES  *         1.15      1.04
 REAL TIME  *         1.70 SEC
 DISK USED  *       163.98 MB      
 **********************************************************************************************************************************


 PROGRAM * RHF-SCF (CLOSED SHELL)       Authors: W. Meyer, H.-J. Werner


 NUMBER OF ELECTRONS:       7+    7-
 CONVERGENCE THRESHOLDS:    1.00E-10 (Density)    1.00E-13 (Energy)
 MAX. NUMBER OF ITERATIONS:      500
 INTERPOLATION TYPE:            DIIS
 INTERPOLATION STEPS:              2 (START)      1 (STEP)
 LEVEL SHIFTS:                  0.00 (CLOSED)  0.00 (OPEN) 



 Orbital guess generated from atomic densities. Full valence occupancy:    7   2   2   0

 Molecular orbital dump at record        2100.2

 Initial occupancy:   5   1   1   0

 ITERATION    DDIFF          GRAD             ENERGY        2-EL.EN.            DIPOLE MOMENTS         DIIS   ORB.
    1      0.000D+00      0.000D+00       -92.88436112    111.773026    0.00000    0.00000   -1.77688    0    start
    2      0.000D+00      0.911D-02       -92.89312542    110.960521    0.00000    0.00000   -0.89686    1    diag
    3      0.135D-01      0.822D-02       -92.90815221    111.483036    0.00000    0.00000   -1.30444    2    diag
    4      0.610D-02      0.675D-03       -92.90838188    111.441164    0.00000    0.00000   -1.29554    3    diag
    5      0.112D-02      0.151D-03       -92.90839527    111.453273    0.00000    0.00000   -1.29423    4    diag
    6      0.263D-03      0.415D-04       -92.90839617    111.447721    0.00000    0.00000   -1.29418    5    diag
    7      0.614D-04      0.149D-04       -92.90839625    111.448806    0.00000    0.00000   -1.29426    6    diag
    8      0.209D-04      0.287D-05       -92.90839625    111.448770    0.00000    0.00000   -1.29423    7    diag
    9      0.409D-05      0.327D-06       -92.90839625    111.448779    0.00000    0.00000   -1.29422    8    diag
   10      0.543D-06      0.372D-07       -92.90839625    111.448780    0.00000    0.00000   -1.29422    9    orth
   11      0.578D-07      0.441D-08       -92.90839625    111.448780    0.00000    0.00000   -1.29422    9    diag
   12      0.104D-07      0.390D-09       -92.90839625    111.448780    0.00000    0.00000   -1.29422    9    diag
   13      0.962D-09      0.381D-10       -92.90839625    111.448780    0.00000    0.00000   -1.29422    9    diag
   14      0.155D-09      0.444D-11       -92.90839625    111.448780    0.00000    0.00000   -1.29422    9    diag
   15      0.236D-10      0.729D-12       -92.90839625    111.448780    0.00000    0.00000   -1.29422    0    orth

 Final occupancy:   5   1   1   0

 !RHF STATE 1.1 Energy                -92.908396254238
 Nuclear energy                        23.85668672
 One-electron energy                 -172.48947296
 Two-electron energy                   55.72438999
 Virial quotient                       -1.00255965
 !RHF STATE 1.1 Dipole moment           0.00000000     0.00000000    -1.29422159
 Dipole moment /Debye                   0.00000000     0.00000000    -3.28936772

 Orbital energies:

         1.1          2.1          3.1          4.1          5.1          6.1          7.1
    -15.601942   -11.293769    -1.234968    -0.815950    -0.582657     0.023082     0.071627

         1.2          2.2          3.2
     -0.495530     0.072868     0.135760

         1.3          2.3          3.3
     -0.495530     0.072868     0.135760

         1.4          2.4
      0.293853     0.550012

 HOMO      1.2    -0.495530 =     -13.4841eV
 LUMO      6.1     0.023082 =       0.6281eV
 LUMO-HOMO         0.518612 =      14.1122eV


 **********************************************************************************************************************************
 DATASETS  * FILE   NREC   LENGTH (MB)   RECORD NAMES
              1      19       63.47       500      610      700      900      950      970     1000      129      960     1100   
                                          VAR    BASINP    GEOM    SYMINP    ZMAT    AOBASIS   BASIS     P2S    ABASIS      S 
                                         1400     1410     1200     1210     1080     1600     1650     1300     1700   
                                           T        V       H0       H01     AOSYM     SMH    MOLCAS    ERIS     OPER   

              2       4        2.88       700     1000      520     2100   
                                         GEOM     BASIS   MCVARS     RHF  

 PROGRAMS   *        TOTAL        HF       INT
 CPU TIMES  *         1.48      0.34      1.04
 REAL TIME  *         2.14 SEC
 DISK USED  *       163.98 MB      
 **********************************************************************************************************************************


 PROGRAM * CCSD (Closed-shell coupled cluster)     Authors: C. Hampel, H.-J. Werner, 1991, M. Deegan, P.J. Knowles, 1992


 Convergence thresholds:  THRVAR = 1.00D-08  THRDEN = 1.00D-12

 CCSD(T)     terms to be evaluated (factor= 1.000)


 Number of core orbitals:           2 (   2   0   0   0 )
 Number of closed-shell orbitals:   5 (   3   1   1   0 )
 Number of external orbitals:     108 (  44  26  26  12 )

 Molecular orbitals read from record     2100.2  Type=RHF/CANONICAL (state 1.1)

 Number of N-1 electron functions:               5
 Number of N-2 electron functions:              15
 Number of singly external CSFs:               184
 Number of doubly external CSFs:             39026
 Total number of CSFs:                       39211

 Length of J-op  integral file:               0.00 MB
 Length of K-op  integral file:               0.31 MB
 Length of 3-ext integral record:             0.00 MB

 Memory could be reduced to 2.91 Mwords without degradation in triples

 Integral transformation finished. Total CPU:   0.04 sec, npass=  1  Memory used:   0.44 MW

 Reference energy:                    -92.90839625

 MP2 singlet pair energy:              -0.22241696
 MP2 triplet pair energy:              -0.12876588
 MP2 correlation energy:               -0.35118284
 MP2 total energy:                    -93.25957909

 SCS-MP2 correlation energy:           -0.34702134   (PS=  1.200000  PT=  0.333333)
 SCS-MP2 total energy:                -93.25541760

 ITER.      SQ.NORM     CORR.ENERGY   TOTAL ENERGY   ENERGY CHANGE        DEN1      VAR(S)    VAR(P)  DIIS     TIME  TIME/IT
   1      1.11631265    -0.35346278   -93.26185904    -0.00227995     0.01059121  0.25D-02  0.31D-02  1  1     0.10     0.06
   2      1.12593274    -0.35381434   -93.26221059    -0.00035155    -0.01007879  0.53D-04  0.42D-03  2  2     0.16     0.07
   3      1.13105768    -0.35405330   -93.26244955    -0.00023896    -0.00253657  0.15D-04  0.42D-04  3  3     0.22     0.07
   4      1.13322905    -0.35414686   -93.26254311    -0.00009356    -0.00077152  0.49D-06  0.47D-05  4  4     0.28     0.07
   5      1.13372628    -0.35414417   -93.26254043     0.00000268    -0.00013595  0.91D-07  0.42D-06  5  5     0.34     0.07
   6      1.13383368    -0.35414185   -93.26253810     0.00000233    -0.00002827  0.92D-08  0.32D-07  6  6     0.39     0.07
   7      1.13384164    -0.35414395   -93.26254021    -0.00000210    -0.00000233  0.98D-09  0.29D-08  6  1     0.44     0.07
   8      1.13384184    -0.35414451   -93.26254076    -0.00000056     0.00000055  0.75D-10  0.22D-09  6  2     0.51     0.07
   9      1.13384229    -0.35414457   -93.26254083    -0.00000006    -0.00000029  0.12D-10  0.14D-10  6  3     0.56     0.07
  10      1.13384218    -0.35414461   -93.26254087    -0.00000004     0.00000009  0.11D-11  0.14D-11  6  4     0.62     0.07
  11      1.13384210    -0.35414462   -93.26254088    -0.00000001     0.00000003  0.21D-12  0.14D-12  6  5     0.66     0.07
  12      1.13384200    -0.35414463   -93.26254088    -0.00000001     0.00000003  0.22D-13  0.15D-13  6  1     0.71     0.07
  13      1.13384197    -0.35414463   -93.26254088    -0.00000000     0.00000001  0.17D-14  0.12D-14  6  6     0.77     0.07
  14      1.13384196    -0.35414463   -93.26254088    -0.00000000     0.00000000  0.54D-15  0.20D-15  6  2     0.80     0.07
  15      1.13384196    -0.35414463   -93.26254088    -0.00000000     0.00000000  0.39D-16  0.38D-16  6  3     0.86     0.07
  16      1.13384196    -0.35414463   -93.26254088     0.00000000    -0.00000000  0.56D-17  0.39D-17  6  4     0.91     0.07
  17      1.13384196    -0.35414463   -93.26254088     0.00000000    -0.00000000  0.30D-18  0.37D-18  6  5     0.97     0.07
  18      1.13384196    -0.35414463   -93.26254088     0.00000000    -0.00000000  0.32D-19  0.44D-19  6  6     1.03     0.07
  19      1.13384196    -0.35414463   -93.26254088    -0.00000000     0.00000000  0.53D-20  0.46D-20  6  1     1.08     0.07
  20      1.13384196    -0.35414463   -93.26254088    -0.00000000     0.00000000  0.86D-21  0.74D-21  6  2     1.13     0.07
  21      1.13384196    -0.35414463   -93.26254088    -0.00000000     0.00000000  0.12D-21  0.82D-22  6  3     1.18     0.07

 Norm of t1 vector:      0.06423608      S-energy:    -0.00000000      T1 diagnostic:  0.01436362
                                                                       D1 diagnostic:  0.02854057


 Total CPU time for triples:      0.26 sec


 RESULTS
 =======

  Reference energy                    -92.908396254238
  CCSD singlet pair energy             -0.246631668938
  CCSD triplet pair energy             -0.107512960069
  CCSD correlation energy              -0.354144629007

  Triples (T) contribution             -0.018586332447
  Total correlation energy             -0.372730961455

  CCSD total energy                   -93.262540883245
  CCSD[T] energy                      -93.281943585501
  CCSD-T energy                       -93.280724874384
 !CCSD(T) total energy                -93.281127215693

 Timing summary (sec):

 STEP                 CPU(USER)    SYS     CPU(TOT)    WALL
 Transformation          0.04      0.04      0.08      0.08
 CCSD iterations         1.14      0.27      1.41      1.45
 Triples                 0.26      0.02      0.28      0.27

 Program statistics:

 Available memory in ccsd:               994999800
 Min. memory needed in ccsd:                166428
 Max. memory used in ccsd:                  196881
 Max. memory used in cckext:                233267 (21 integral passes)



 **********************************************************************************************************************************
 DATASETS  * FILE   NREC   LENGTH (MB)   RECORD NAMES
              1      20       70.98       500      610      700      900      950      970     1000      129      960     1100   
                                          VAR    BASINP    GEOM    SYMINP    ZMAT    AOBASIS   BASIS     P2S    ABASIS      S 
                                         1400     1410     1200     1210     1080     1600     1650     1300     1700     1380   
                                           T        V       H0       H01     AOSYM     SMH    MOLCAS    ERIS     OPER     JKOP   

              2       4        2.88       700     1000      520     2100   
                                         GEOM     BASIS   MCVARS     RHF  

 PROGRAMS   *        TOTAL   CCSD(T)        HF       INT
 CPU TIMES  *         2.96      1.47      0.34      1.04
 REAL TIME  *         4.04 SEC
 DISK USED  *       163.98 MB      
 **********************************************************************************************************************************

 CCSD(T)/aug-cc-pVTZ energy=    -93.281127215693

        CCSD(T)         HF-SCF  
    -93.28112722    -92.90839625
 **********************************************************************************************************************************
 Molpro calculation terminated
 Variable memory released
