
 Primary working directories    : /tmp/r2666/232550.maple
 Secondary working directories  : /tmp/r2666/232550.maple
 Wavefunction directory         : /ddn/home4/r2666/wfu/
 Main file repository           : /tmp/r2666/232550.maple/

 SHA1      : d5ffa45e93fdbca01ffc919aa182cfdae0147319
 NAME      : 2015.1.35
 ARCHNAME  : linux/x86_64
 FC        : /opt/intel/composer_xe_2015.1.133/bin/intel64/ifort
 BLASLIB   : -Wl,-_start-group /opt/intel/mkl/lib/intel64/libmkl_intel_ilp64.a /opt/intel/mkl/lib/intel64/libmkl_intel_thread.a /opt/intel/mkl/lib/intel64/libmkl_core.a -Wl,-_end-group
 id        : olemiss

 Nodes     nprocs
 cn080        1

 Using customized tuning parameters: mindgm=1; mindgv=20; mindgc=4; mindgr=1; noblas=0; minvec=7
 default implementation of scratch files=df  

 ***,hcn CCSD(T)/TZ-F12 QFF
 memory, 995, m;
 gthresh,energy=1.d-12,zero=1.d-22,oneint=1.d-22,twoint=1.d-22;
 gthresh,optgrad=1.d-8,optstep=1.d-8;
 nocompress;
 geomtyp=xyz
 bohr
 geometry={
 3
         49        49
 N       -0.0046350011        0.0000001318        1.1372508040
 C        0.0096508443       -0.0000000034       -1.0604496918
 H       -0.0050158432       -0.0000001284       -3.0738710941
 }
 
 basis=avtz
   {hf,maxit=500;accu,20;}
 {ccsd(t),nocheck,maxit=250;orbital,IGNORE_ERROR;}

 Variables initialized (889), CPU time= 0.01 sec
 Commands  initialized (702), CPU time= 0.01 sec, 572 directives.
 Default parameters read. Elapsed time= 0.04 sec

 Checking input...
 Passed
1


                                         ***  PROGRAM SYSTEM MOLPRO  ***
                                       Copyright, TTI GmbH Stuttgart, 2015
                                    Version 2015.1 linked Jul  9 2018 13:16:40


 **********************************************************************************************************************************
 LABEL *   hcn CCSD(T)/TZ-F12 QFF                                                        
  64 bit serial version                                                                  DATE: 06-Feb-20          TIME: 09:54:27  
 **********************************************************************************************************************************

 SHA1:             d5ffa45e93fdbca01ffc919aa182cfdae0147319
 **********************************************************************************************************************************

 THRESHOLDS:

 ZERO    =  1.00D-22  ONEINT  =  1.00D-22  TWOINT  =  1.00D-22  PREFAC  =  1.00D-14  LOCALI  =  1.00D-09  EORDER  =  1.00D-04
 ENERGY  =  1.00D-12  ETEST   =  0.00D+00  EDENS   =  0.00D+00  THRDEDEF=  1.00D-06  GRADIENT=  1.00D-02  STEP    =  1.00D-03
 ORBITAL =  1.00D-05  CIVEC   =  1.00D-05  COEFF   =  1.00D-04  PRINTCI =  5.00D-02  PUNCHCI =  9.90D+01  OPTGRAD =  3.00D-04
 OPTENERG=  1.00D-06  OPTSTEP =  3.00D-04  THRGRAD =  1.00D-10  COMPRESS=  1.00D-11  VARMIN  =  1.00D-07  VARMAX  =  1.00D-03
 THRDOUB =  0.00D+00  THRDIV  =  1.00D-05  THRRED  =  1.00D-07  THRPSP  =  1.00D+00  THRDC   =  1.00D-10  THRCS   =  1.00D-10
 THRNRM  =  1.00D-08  THREQ   =  0.00D+00  THRDE   =  1.00D+00  THRREF  =  1.00D-05  SPARFAC =  1.00D+00  THRDLP  =  1.00D-07
 THRDIA  =  1.00D-10  THRDLS  =  1.00D-07  THRGPS  =  0.00D+00  THRKEX  =  0.00D+00  THRDIS  =  2.00D-01  THRVAR  =  1.00D-10
 THRLOC  =  1.00D-06  THRGAP  =  1.00D-06  THRLOCT = -1.00D+00  THRGAPT = -1.00D+00  THRORB  =  1.00D-06  THRMLTP =  0.00D+00
 THRCPQCI=  1.00D-10  KEXTA   =  0.00D+00  THRCOARS=  0.00D+00  SYMTOL  =  1.00D-06  GRADTOL =  1.00D-06  THROVL  =  1.00D-08
 THRORTH =  1.00D-08  GRID    =  1.00D-06  GRIDMAX =  1.00D-03  DTMAX   =  0.00D+00  THROCCDE=  1.00D-01  THROCCDE=  1.00D-01



 THRESHOLDS:

 ZERO    =  1.00D-22  ONEINT  =  1.00D-22  TWOINT  =  1.00D-22  PREFAC  =  1.00D-14  LOCALI  =  1.00D-09  EORDER  =  1.00D-04
 ENERGY  =  1.00D-12  ETEST   =  0.00D+00  EDENS   =  0.00D+00  THRDEDEF=  1.00D-06  GRADIENT=  1.00D-02  STEP    =  1.00D-03
 ORBITAL =  1.00D-05  CIVEC   =  1.00D-05  COEFF   =  1.00D-04  PRINTCI =  5.00D-02  PUNCHCI =  9.90D+01  OPTGRAD =  1.00D-08
 OPTENERG=  1.00D-06  OPTSTEP =  1.00D-08  THRGRAD =  1.00D-10  COMPRESS=  1.00D-11  VARMIN  =  1.00D-07  VARMAX  =  1.00D-03
 THRDOUB =  0.00D+00  THRDIV  =  1.00D-05  THRRED  =  1.00D-07  THRPSP  =  1.00D+00  THRDC   =  1.00D-10  THRCS   =  1.00D-10
 THRNRM  =  1.00D-08  THREQ   =  0.00D+00  THRDE   =  1.00D+00  THRREF  =  1.00D-05  SPARFAC =  1.00D+00  THRDLP  =  1.00D-07
 THRDIA  =  1.00D-10  THRDLS  =  1.00D-07  THRGPS  =  0.00D+00  THRKEX  =  0.00D+00  THRDIS  =  2.00D-01  THRVAR  =  1.00D-10
 THRLOC  =  1.00D-06  THRGAP  =  1.00D-06  THRLOCT = -1.00D+00  THRGAPT = -1.00D+00  THRORB  =  1.00D-06  THRMLTP =  0.00D+00
 THRCPQCI=  1.00D-10  KEXTA   =  0.00D+00  THRCOARS=  0.00D+00  SYMTOL  =  1.00D-06  GRADTOL =  1.00D-06  THROVL  =  1.00D-08
 THRORTH =  1.00D-08  GRID    =  1.00D-06  GRIDMAX =  1.00D-03  DTMAX   =  0.00D+00  THROCCDE=  1.00D-01  THROCCDE=  1.00D-01



 Input parameters for SORTINT:

 COMPRESS =    0.000000
 C_FINAL  =    1.000000
 DEBUG    =   -1.000000
 C_SORT1  =    0.000000
 C_SEWARD =    0.000000
 THRESH   =    0.000000
 IO       =  molpro                                                          
 SPRI     =    0.000000
 SETTING GEOMTYP        =    XYZ
 ZUNIT=BOHR
 

 Variable memory set to  995000000 words,  buffer space   230000 words

 SETTING BASIS          =    AVTZ


 Recomputing integrals since basis changed


 Using spherical harmonics

 Library entry N      S aug-cc-pVTZ          selected for orbital group  1
 Library entry N      P aug-cc-pVTZ          selected for orbital group  1
 Library entry N      D aug-cc-pVTZ          selected for orbital group  1
 Library entry N      F aug-cc-pVTZ          selected for orbital group  1
 Library entry C      S aug-cc-pVTZ          selected for orbital group  2
 Library entry C      P aug-cc-pVTZ          selected for orbital group  2
 Library entry C      D aug-cc-pVTZ          selected for orbital group  2
 Library entry C      F aug-cc-pVTZ          selected for orbital group  2
 Library entry H      S aug-cc-pVTZ          selected for orbital group  3
 Library entry H      P aug-cc-pVTZ          selected for orbital group  3
 Library entry H      D aug-cc-pVTZ          selected for orbital group  3


 PROGRAM * SEWARD (Integral evaluation for generally contracted gaussian basis sets)     Author: Roland Lindh, 1990

 Geometry written to block  1 of record 700


 Point group  Cs  



 ATOMIC COORDINATES

 NR  ATOM    CHARGE       X              Y              Z

   1  N       7.00   -0.004635001    0.000000000    1.137250804
   2  C       6.00    0.009650844    0.000000000   -1.060449692
   3  H       1.00   -0.005015843    0.000000000   -3.073871094

 Bond lengths in Bohr (Angstrom)

 1-2  2.197746927  2-3  2.013474821
     ( 1.162997589)     ( 1.065484990)

 Bond angles

  1-2-3  179.21020060

 NUCLEAR CHARGE:                   14
 NUMBER OF PRIMITIVE AOS:         161
 NUMBER OF SYMMETRY AOS:          141
 NUMBER OF CONTRACTIONS:          115   (  76A'  +  39A"  )
 NUMBER OF CORE ORBITALS:           2   (   2A'  +   0A"  )
 NUMBER OF VALENCE ORBITALS:        9   (   7A'  +   2A"  )


 NUCLEAR REPULSION ENERGY   23.75266850

 Eigenvalues of metric

         1 0.879E-04 0.200E-03 0.622E-03 0.125E-02 0.142E-02 0.181E-02 0.232E-02 0.514E-02
         2 0.232E-02 0.525E-02 0.130E-01 0.162E-01 0.312E-01 0.392E-01 0.450E-01 0.827E-01


 Contracted 2-electron integrals neglected if value below      1.0D-22

       10788957. INTEGRALS WRITTEN OUT IN    2635 BLOCKS ON RECORD 1290 OF FILE 1


 NUMBER OF SORTED TWO-ELECTRON INTEGRALS:   11433631.     BUFFER LENGTH:  32768
 NUMBER OF SEGMENTS:   1  SEGMENT LENGTH:   11433631      RECORD LENGTH: 524288

 Memory used in sort:      11.99 MW

 SORT1 READ    10788957. AND WROTE    10942525. INTEGRALS IN     32 RECORDS. CPU TIME:     0.15 SEC, REAL TIME:     0.22 SEC
 SORT2 READ    10942525. AND WROTE    11433631. INTEGRALS IN      1 RECORDS. CPU TIME:     0.14 SEC, REAL TIME:     0.23 SEC

 FILE SIZES:   FILE 1:   193.0 MBYTE,  FILE 4:   134.3 MBYTE,   TOTAL:    327.2 MBYTE

 OPERATOR DM      FOR CENTER  0  COORDINATES:    0.000000    0.000000    0.000000


 **********************************************************************************************************************************
 DATASETS  * FILE   NREC   LENGTH (MB)   RECORD NAMES
              1      19      111.05       500      610      700      900      950      970     1000      129      960     1100   
                                          VAR    BASINP    GEOM    SYMINP    ZMAT    AOBASIS   BASIS     P2S    ABASIS      S 
                                         1400     1410     1200     1210     1080     1600     1650     1300     1700   
                                           T        V       H0       H01     AOSYM     SMH    MOLCAS    ERIS     OPER   

 PROGRAMS   *        TOTAL       INT
 CPU TIMES  *         1.27      1.19
 REAL TIME  *         1.98 SEC
 DISK USED  *       327.55 MB      
 **********************************************************************************************************************************


 PROGRAM * RHF-SCF (CLOSED SHELL)       Authors: W. Meyer, H.-J. Werner


 NUMBER OF ELECTRONS:       7+    7-
 CONVERGENCE THRESHOLDS:    1.00E-10 (Density)    1.00E-13 (Energy)
 MAX. NUMBER OF ITERATIONS:      500
 INTERPOLATION TYPE:            DIIS
 INTERPOLATION STEPS:              2 (START)      1 (STEP)
 LEVEL SHIFTS:                  0.00 (CLOSED)  0.00 (OPEN) 



 Orbital guess generated from atomic densities. Full valence occupancy:    9   2

 Molecular orbital dump at record        2100.2

 Initial occupancy:   6   1

 ITERATION    DDIFF          GRAD             ENERGY        2-EL.EN.            DIPOLE MOMENTS         DIIS   ORB.
    1      0.000D+00      0.000D+00       -92.88320241    111.552745    0.00690    0.00000   -1.78725    0    start
    2      0.000D+00      0.704D-02       -92.89176470    110.764073   -0.00258    0.00000   -0.89267    1    diag
    3      0.101D-01      0.642D-02       -92.90721033    111.286012    0.00138    0.00000   -1.30847    2    diag
    4      0.459D-02      0.522D-03       -92.90744239    111.241052    0.00106    0.00000   -1.29950    3    diag
    5      0.832D-03      0.119D-03       -92.90745623    111.254666    0.00096    0.00000   -1.29823    4    diag
    6      0.197D-03      0.331D-04       -92.90745723    111.248822    0.00094    0.00000   -1.29811    5    diag
    7      0.485D-04      0.119D-04       -92.90745732    111.249889    0.00094    0.00000   -1.29821    6    diag
    8      0.162D-04      0.230D-05       -92.90745732    111.249856    0.00094    0.00000   -1.29817    7    diag
    9      0.318D-05      0.261D-06       -92.90745732    111.249866    0.00094    0.00000   -1.29817    8    diag
   10      0.419D-06      0.304D-07       -92.90745732    111.249866    0.00094    0.00000   -1.29817    9    orth
   11      0.467D-07      0.554D-08       -92.90745732    111.249866    0.00094    0.00000   -1.29817    9    diag
   12      0.112D-07      0.241D-08       -92.90745732    111.249866    0.00094    0.00000   -1.29817    9    diag
   13      0.629D-08      0.923D-09       -92.90745732    111.249866    0.00094    0.00000   -1.29817    9    diag
   14      0.315D-08      0.279D-09       -92.90745732    111.249866    0.00094    0.00000   -1.29817    9    diag
   15      0.796D-09      0.120D-09       -92.90745732    111.249866    0.00094    0.00000   -1.29817    9    diag
   16      0.334D-09      0.229D-10       -92.90745732    111.249866    0.00094    0.00000   -1.29817    9    diag
   17      0.549D-10      0.523D-11       -92.90745732    111.249866    0.00094    0.00000   -1.29817    9    diag
   18      0.913D-11      0.106D-11       -92.90745732    111.249866    0.00094    0.00000   -1.29817    0    orth

 Final occupancy:   6   1

 !RHF STATE 1.1 Energy                -92.907457320682
 Nuclear energy                        23.75266850
 One-electron energy                 -172.28505883
 Two-electron energy                   55.62493301
 Virial quotient                       -1.00292940
 !RHF STATE 1.1 Dipole moment           0.00093629     0.00000000    -1.29816826
 Dipole moment /Debye                   0.00237967     0.00000000    -3.29939849

 Orbital energies:

         1.1          2.1          3.1          4.1          5.1          6.1          7.1          8.1
    -15.603643   -11.295963    -1.232565    -0.814741    -0.582738    -0.493971     0.023035     0.071543

         1.2          2.2          3.2
     -0.493974     0.072815     0.135312

 HOMO      6.1    -0.493971 =     -13.4416eV
 LUMO      7.1     0.023035 =       0.6268eV
 LUMO-HOMO         0.517006 =      14.0685eV


 **********************************************************************************************************************************
 DATASETS  * FILE   NREC   LENGTH (MB)   RECORD NAMES
              1      19      111.05       500      610      700      900      950      970     1000      129      960     1100   
                                          VAR    BASINP    GEOM    SYMINP    ZMAT    AOBASIS   BASIS     P2S    ABASIS      S 
                                         1400     1410     1200     1210     1080     1600     1650     1300     1700   
                                           T        V       H0       H01     AOSYM     SMH    MOLCAS    ERIS     OPER   

              2       4        2.94       700     1000      520     2100   
                                         GEOM     BASIS   MCVARS     RHF  

 PROGRAMS   *        TOTAL        HF       INT
 CPU TIMES  *         2.20      0.92      1.19
 REAL TIME  *         3.19 SEC
 DISK USED  *       327.55 MB      
 **********************************************************************************************************************************


 PROGRAM * CCSD (Closed-shell coupled cluster)     Authors: C. Hampel, H.-J. Werner, 1991, M. Deegan, P.J. Knowles, 1992


 Convergence thresholds:  THRVAR = 1.00D-08  THRDEN = 1.00D-12

 CCSD(T)     terms to be evaluated (factor= 1.000)


 Number of core orbitals:           2 (   2   0 )
 Number of closed-shell orbitals:   5 (   4   1 )
 Number of external orbitals:     108 (  70  38 )

 Molecular orbitals read from record     2100.2  Type=RHF/CANONICAL (state 1.1)

 Number of N-1 electron functions:               5
 Number of N-2 electron functions:              15
 Number of singly external CSFs:               318
 Number of doubly external CSFs:             75474
 Total number of CSFs:                       75793

 Length of J-op  integral file:               0.00 MB
 Length of K-op  integral file:               0.54 MB
 Length of 3-ext integral record:             0.00 MB

 Memory could be reduced to 5.36 Mwords without degradation in triples

 Integral transformation finished. Total CPU:   0.13 sec, npass=  1  Memory used:   1.45 MW

 Reference energy:                    -92.90745732

 MP2 singlet pair energy:              -0.22302572
 MP2 triplet pair energy:              -0.12922882
 MP2 correlation energy:               -0.35225454
 MP2 total energy:                    -93.25971186

 SCS-MP2 correlation energy:           -0.34803991   (PS=  1.200000  PT=  0.333333)
 SCS-MP2 total energy:                -93.25549723

 ITER.      SQ.NORM     CORR.ENERGY   TOTAL ENERGY   ENERGY CHANGE        DEN1      VAR(S)    VAR(P)  DIIS     TIME  TIME/IT
   1      1.11703642    -0.35426655   -93.26172387    -0.00201201     0.01107775  0.25D-02  0.32D-02  1  1     0.27     0.14
   2      1.12679901    -0.35458168   -93.26203900    -0.00031513    -0.01020589  0.55D-04  0.43D-03  2  2     0.40     0.14
   3      1.13203994    -0.35482788   -93.26228520    -0.00024620    -0.00257892  0.16D-04  0.44D-04  3  3     0.52     0.14
   4      1.13427448    -0.35492494   -93.26238226    -0.00009706    -0.00078938  0.50D-06  0.49D-05  4  4     0.63     0.14
   5      1.13479012    -0.35492253   -93.26237985     0.00000241    -0.00014008  0.94D-07  0.45D-06  5  5     0.76     0.14
   6      1.13490401    -0.35492000   -93.26237732     0.00000253    -0.00002984  0.99D-08  0.34D-07  6  6     0.89     0.14
   7      1.13491244    -0.35492222   -93.26237954    -0.00000222    -0.00000245  0.10D-08  0.31D-08  6  1     1.02     0.14
   8      1.13491268    -0.35492280   -93.26238012    -0.00000058     0.00000056  0.78D-10  0.24D-09  6  2     1.16     0.14
   9      1.13491315    -0.35492286   -93.26238018    -0.00000007    -0.00000031  0.13D-10  0.16D-10  6  3     1.29     0.15
  10      1.13491304    -0.35492290   -93.26238022    -0.00000004     0.00000009  0.12D-11  0.16D-11  6  4     1.44     0.15
  11      1.13491294    -0.35492291   -93.26238023    -0.00000001     0.00000004  0.25D-12  0.15D-12  6  5     1.56     0.15
  12      1.13491287    -0.35492292   -93.26238024    -0.00000001     0.00000003  0.35D-13  0.29D-13  6  6     1.68     0.14
  13      1.13491283    -0.35492292   -93.26238024    -0.00000000     0.00000001  0.41D-14  0.80D-14  6  1     1.81     0.14
  14      1.13491281    -0.35492292   -93.26238024    -0.00000000     0.00000001  0.43D-15  0.10D-14  6  2     1.93     0.14
  15      1.13491280    -0.35492292   -93.26238024     0.00000000     0.00000000  0.46D-16  0.12D-15  6  3     2.06     0.14
  16      1.13491280    -0.35492292   -93.26238024     0.00000000     0.00000000  0.73D-17  0.94D-17  6  5     2.18     0.14
  17      1.13491280    -0.35492292   -93.26238024    -0.00000000     0.00000000  0.97D-18  0.47D-18  6  4     2.31     0.14
  18      1.13491280    -0.35492292   -93.26238024     0.00000000     0.00000000  0.32D-18  0.10D-18  6  6     2.44     0.14
  19      1.13491280    -0.35492292   -93.26238024     0.00000000    -0.00000000  0.45D-19  0.18D-19  6  2     2.56     0.14
  20      1.13491280    -0.35492292   -93.26238024     0.00000000     0.00000000  0.47D-20  0.32D-20  6  1     2.68     0.14

 Norm of t1 vector:      0.06496336      S-energy:     0.00000000      T1 diagnostic:  0.01452625
                                                                       D1 diagnostic:  0.02888189


 Total CPU time for triples:      0.72 sec


 RESULTS
 =======

  Reference energy                    -92.907457320682
  CCSD singlet pair energy             -0.247293658317
  CCSD triplet pair energy             -0.107629263640
  CCSD correlation energy              -0.354922921956

  Triples (T) contribution             -0.018762074107
  Total correlation energy             -0.373684996064

  CCSD total energy                   -93.262380242638
  CCSD[T] energy                      -93.281979139728
  CCSD-T energy                       -93.280731615731
 !CCSD(T) total energy                -93.281142316746

 Timing summary (sec):

 STEP                 CPU(USER)    SYS     CPU(TOT)    WALL
 Transformation          0.14      0.04      0.18      0.20
 CCSD iterations         2.54      0.33      2.87      2.89
 Triples                 0.72      0.03      0.75      0.75

 Program statistics:

 Available memory in ccsd:               994999800
 Min. memory needed in ccsd:                311547
 Max. memory used in ccsd:                  369090
 Max. memory used in cckext:                513448 (20 integral passes)



 **********************************************************************************************************************************
 DATASETS  * FILE   NREC   LENGTH (MB)   RECORD NAMES
              1      20      125.49       500      610      700      900      950      970     1000      129      960     1100   
                                          VAR    BASINP    GEOM    SYMINP    ZMAT    AOBASIS   BASIS     P2S    ABASIS      S 
                                         1400     1410     1200     1210     1080     1600     1650     1300     1700     1380   
                                           T        V       H0       H01     AOSYM     SMH    MOLCAS    ERIS     OPER     JKOP   

              2       4        2.94       700     1000      520     2100   
                                         GEOM     BASIS   MCVARS     RHF  

 PROGRAMS   *        TOTAL   CCSD(T)        HF       INT
 CPU TIMES  *         5.65      3.45      0.92      1.19
 REAL TIME  *         7.18 SEC
 DISK USED  *       327.55 MB      
 **********************************************************************************************************************************

 CCSD(T)/aug-cc-pVTZ energy=    -93.281142316746

        CCSD(T)         HF-SCF  
    -93.28114232    -92.90745732
 **********************************************************************************************************************************
 Molpro calculation terminated
 Variable memory released
