
 Primary working directories    : /tmp/r2666/232537.maple
 Secondary working directories  : /tmp/r2666/232537.maple
 Wavefunction directory         : /ddn/home4/r2666/wfu/
 Main file repository           : /tmp/r2666/232537.maple/

 SHA1      : d5ffa45e93fdbca01ffc919aa182cfdae0147319
 NAME      : 2015.1.35
 ARCHNAME  : linux/x86_64
 FC        : /opt/intel/composer_xe_2015.1.133/bin/intel64/ifort
 BLASLIB   : -Wl,-_start-group /opt/intel/mkl/lib/intel64/libmkl_intel_ilp64.a /opt/intel/mkl/lib/intel64/libmkl_intel_thread.a /opt/intel/mkl/lib/intel64/libmkl_core.a -Wl,-_end-group
 id        : olemiss

 Nodes     nprocs
 cn075        1

 Using customized tuning parameters: mindgm=1; mindgv=20; mindgc=4; mindgr=1; noblas=0; minvec=7
 default implementation of scratch files=df  

 ***,hcn CCSD(T)/TZ-F12 QFF
 memory, 995, m;
 gthresh,energy=1.d-12,zero=1.d-22,oneint=1.d-22,twoint=1.d-22;
 gthresh,optgrad=1.d-8,optstep=1.d-8;
 nocompress;
 geomtyp=xyz
 bohr
 geometry={
 3
         36        36
 N        0.0000000000        0.0000000000        1.1215518477
 C        0.0000000000        0.0000000000       -1.0667464493
 H        0.0000000000        0.0000000000       -3.0518753804
 }
 
 basis=avtz
   {hf,maxit=500;accu,20;}
 {ccsd(t),nocheck,maxit=250;orbital,IGNORE_ERROR;}

 Variables initialized (889), CPU time= 0.01 sec
 Commands  initialized (702), CPU time= 0.01 sec, 572 directives.
 Default parameters read. Elapsed time= 0.06 sec

 Checking input...
 Passed
1


                                         ***  PROGRAM SYSTEM MOLPRO  ***
                                       Copyright, TTI GmbH Stuttgart, 2015
                                    Version 2015.1 linked Jul  9 2018 13:16:40


 **********************************************************************************************************************************
 LABEL *   hcn CCSD(T)/TZ-F12 QFF                                                        
  64 bit serial version                                                                  DATE: 06-Feb-20          TIME: 09:54:22  
 **********************************************************************************************************************************

 SHA1:             d5ffa45e93fdbca01ffc919aa182cfdae0147319
 **********************************************************************************************************************************

 THRESHOLDS:

 ZERO    =  1.00D-22  ONEINT  =  1.00D-22  TWOINT  =  1.00D-22  PREFAC  =  1.00D-14  LOCALI  =  1.00D-09  EORDER  =  1.00D-04
 ENERGY  =  1.00D-12  ETEST   =  0.00D+00  EDENS   =  0.00D+00  THRDEDEF=  1.00D-06  GRADIENT=  1.00D-02  STEP    =  1.00D-03
 ORBITAL =  1.00D-05  CIVEC   =  1.00D-05  COEFF   =  1.00D-04  PRINTCI =  5.00D-02  PUNCHCI =  9.90D+01  OPTGRAD =  3.00D-04
 OPTENERG=  1.00D-06  OPTSTEP =  3.00D-04  THRGRAD =  1.00D-10  COMPRESS=  1.00D-11  VARMIN  =  1.00D-07  VARMAX  =  1.00D-03
 THRDOUB =  0.00D+00  THRDIV  =  1.00D-05  THRRED  =  1.00D-07  THRPSP  =  1.00D+00  THRDC   =  1.00D-10  THRCS   =  1.00D-10
 THRNRM  =  1.00D-08  THREQ   =  0.00D+00  THRDE   =  1.00D+00  THRREF  =  1.00D-05  SPARFAC =  1.00D+00  THRDLP  =  1.00D-07
 THRDIA  =  1.00D-10  THRDLS  =  1.00D-07  THRGPS  =  0.00D+00  THRKEX  =  0.00D+00  THRDIS  =  2.00D-01  THRVAR  =  1.00D-10
 THRLOC  =  1.00D-06  THRGAP  =  1.00D-06  THRLOCT = -1.00D+00  THRGAPT = -1.00D+00  THRORB  =  1.00D-06  THRMLTP =  0.00D+00
 THRCPQCI=  1.00D-10  KEXTA   =  0.00D+00  THRCOARS=  0.00D+00  SYMTOL  =  1.00D-06  GRADTOL =  1.00D-06  THROVL  =  1.00D-08
 THRORTH =  1.00D-08  GRID    =  1.00D-06  GRIDMAX =  1.00D-03  DTMAX   =  0.00D+00  THROCCDE=  1.00D-01  THROCCDE=  1.00D-01



 THRESHOLDS:

 ZERO    =  1.00D-22  ONEINT  =  1.00D-22  TWOINT  =  1.00D-22  PREFAC  =  1.00D-14  LOCALI  =  1.00D-09  EORDER  =  1.00D-04
 ENERGY  =  1.00D-12  ETEST   =  0.00D+00  EDENS   =  0.00D+00  THRDEDEF=  1.00D-06  GRADIENT=  1.00D-02  STEP    =  1.00D-03
 ORBITAL =  1.00D-05  CIVEC   =  1.00D-05  COEFF   =  1.00D-04  PRINTCI =  5.00D-02  PUNCHCI =  9.90D+01  OPTGRAD =  1.00D-08
 OPTENERG=  1.00D-06  OPTSTEP =  1.00D-08  THRGRAD =  1.00D-10  COMPRESS=  1.00D-11  VARMIN  =  1.00D-07  VARMAX  =  1.00D-03
 THRDOUB =  0.00D+00  THRDIV  =  1.00D-05  THRRED  =  1.00D-07  THRPSP  =  1.00D+00  THRDC   =  1.00D-10  THRCS   =  1.00D-10
 THRNRM  =  1.00D-08  THREQ   =  0.00D+00  THRDE   =  1.00D+00  THRREF  =  1.00D-05  SPARFAC =  1.00D+00  THRDLP  =  1.00D-07
 THRDIA  =  1.00D-10  THRDLS  =  1.00D-07  THRGPS  =  0.00D+00  THRKEX  =  0.00D+00  THRDIS  =  2.00D-01  THRVAR  =  1.00D-10
 THRLOC  =  1.00D-06  THRGAP  =  1.00D-06  THRLOCT = -1.00D+00  THRGAPT = -1.00D+00  THRORB  =  1.00D-06  THRMLTP =  0.00D+00
 THRCPQCI=  1.00D-10  KEXTA   =  0.00D+00  THRCOARS=  0.00D+00  SYMTOL  =  1.00D-06  GRADTOL =  1.00D-06  THROVL  =  1.00D-08
 THRORTH =  1.00D-08  GRID    =  1.00D-06  GRIDMAX =  1.00D-03  DTMAX   =  0.00D+00  THROCCDE=  1.00D-01  THROCCDE=  1.00D-01



 Input parameters for SORTINT:

 COMPRESS =    0.000000
 C_FINAL  =    1.000000
 DEBUG    =   -1.000000
 C_SORT1  =    0.000000
 C_SEWARD =    0.000000
 THRESH   =    0.000000
 IO       =  molpro                                                          
 SPRI     =    0.000000
 SETTING GEOMTYP        =    XYZ
 ZUNIT=BOHR
 

 Variable memory set to  995000000 words,  buffer space   230000 words

 SETTING BASIS          =    AVTZ


 Recomputing integrals since basis changed


 Using spherical harmonics

 Library entry N      S aug-cc-pVTZ          selected for orbital group  1
 Library entry N      P aug-cc-pVTZ          selected for orbital group  1
 Library entry N      D aug-cc-pVTZ          selected for orbital group  1
 Library entry N      F aug-cc-pVTZ          selected for orbital group  1
 Library entry C      S aug-cc-pVTZ          selected for orbital group  2
 Library entry C      P aug-cc-pVTZ          selected for orbital group  2
 Library entry C      D aug-cc-pVTZ          selected for orbital group  2
 Library entry C      F aug-cc-pVTZ          selected for orbital group  2
 Library entry H      S aug-cc-pVTZ          selected for orbital group  3
 Library entry H      P aug-cc-pVTZ          selected for orbital group  3
 Library entry H      D aug-cc-pVTZ          selected for orbital group  3


 PROGRAM * SEWARD (Integral evaluation for generally contracted gaussian basis sets)     Author: Roland Lindh, 1990

 Geometry written to block  1 of record 700


 Point group  C2v 



 ATOMIC COORDINATES

 NR  ATOM    CHARGE       X              Y              Z

   1  N       7.00    0.000000000    0.000000000    1.121551848
   2  C       6.00    0.000000000    0.000000000   -1.066746449
   3  H       1.00    0.000000000    0.000000000   -3.051875380

 Bond lengths in Bohr (Angstrom)

 1-2  2.188298297  2-3  1.985128931
     ( 1.157997589)     ( 1.050484991)

 Bond angles

  1-2-3  179.99999829

 NUCLEAR CHARGE:                   14
 NUMBER OF PRIMITIVE AOS:         161
 NUMBER OF SYMMETRY AOS:          141
 NUMBER OF CONTRACTIONS:          115   (  49A1  +  27B1  +  27B2  +  12A2  )
 NUMBER OF CORE ORBITALS:           2   (   2A1  +   0B1  +   0B2  +   0A2  )
 NUMBER OF VALENCE ORBITALS:        9   (   5A1  +   2B1  +   2B2  +   0A2  )


 NUCLEAR REPULSION ENERGY   23.89274805

 EXTRA SYMMETRY OF AOS IN SYMMETRY 1:   1 1 1 1 1 1 1 1 1 1   2 1 2 1 2 1 2 1 2 1   1 1 1 1 1 1 1 1 1 2   1 2 1 2 1 2 1 2 1 1
                                        1 1 1 1 1 1 2 1 2
 EXTRA SYMMETRY OF AOS IN SYMMETRY 2:   1 1 1 1 1 1 1 1 2 1   2 1 1 1 1 1 1 1 1 2   1 2 1 1 1 1 1
 EXTRA SYMMETRY OF AOS IN SYMMETRY 3:   1 1 1 1 1 1 1 1 2 1   2 1 1 1 1 1 1 1 1 2   1 2 1 1 1 1 1

 Eigenvalues of metric

         1 0.840E-04 0.197E-03 0.599E-03 0.121E-02 0.139E-02 0.178E-02 0.511E-02 0.677E-02
         2 0.229E-02 0.504E-02 0.127E-01 0.156E-01 0.308E-01 0.448E-01 0.803E-01 0.103E+00
         3 0.229E-02 0.504E-02 0.127E-01 0.156E-01 0.308E-01 0.448E-01 0.803E-01 0.103E+00
         4 0.383E-01 0.111E+00 0.147E+00 0.332E+00 0.484E+00 0.509E+00 0.741E+00 0.892E+00


 Contracted 2-electron integrals neglected if value below      1.0D-22

        5027457. INTEGRALS WRITTEN OUT IN    1228 BLOCKS ON RECORD 1290 OF FILE 1


 NUMBER OF SORTED TWO-ELECTRON INTEGRALS:    5853730.     BUFFER LENGTH:  32768
 NUMBER OF SEGMENTS:   1  SEGMENT LENGTH:    5853730      RECORD LENGTH: 524288

 Memory used in sort:       6.41 MW

 SORT1 READ     5027457. AND WROTE     5162564. INTEGRALS IN     15 RECORDS. CPU TIME:     0.10 SEC, REAL TIME:     0.15 SEC
 SORT2 READ     5162564. AND WROTE     5853730. INTEGRALS IN      1 RECORDS. CPU TIME:     0.12 SEC, REAL TIME:     0.14 SEC

 FILE SIZES:   FILE 1:   100.7 MBYTE,  FILE 4:    62.9 MBYTE,   TOTAL:    163.7 MBYTE

 OPERATOR DM      FOR CENTER  0  COORDINATES:    0.000000    0.000000    0.000000


 **********************************************************************************************************************************
 DATASETS  * FILE   NREC   LENGTH (MB)   RECORD NAMES
              1      19       63.47       500      610      700      900      950      970     1000      129      960     1100   
                                          VAR    BASINP    GEOM    SYMINP    ZMAT    AOBASIS   BASIS     P2S    ABASIS      S 
                                         1400     1410     1200     1210     1080     1600     1650     1300     1700   
                                           T        V       H0       H01     AOSYM     SMH    MOLCAS    ERIS     OPER   

 PROGRAMS   *        TOTAL       INT
 CPU TIMES  *         1.30      1.18
 REAL TIME  *         1.98 SEC
 DISK USED  *       163.98 MB      
 **********************************************************************************************************************************


 PROGRAM * RHF-SCF (CLOSED SHELL)       Authors: W. Meyer, H.-J. Werner


 NUMBER OF ELECTRONS:       7+    7-
 CONVERGENCE THRESHOLDS:    1.00E-10 (Density)    1.00E-13 (Energy)
 MAX. NUMBER OF ITERATIONS:      500
 INTERPOLATION TYPE:            DIIS
 INTERPOLATION STEPS:              2 (START)      1 (STEP)
 LEVEL SHIFTS:                  0.00 (CLOSED)  0.00 (OPEN) 



 Orbital guess generated from atomic densities. Full valence occupancy:    7   2   2   0

 Molecular orbital dump at record        2100.2

 Initial occupancy:   5   1   1   0

 ITERATION    DDIFF          GRAD             ENERGY        2-EL.EN.            DIPOLE MOMENTS         DIIS   ORB.
    1      0.000D+00      0.000D+00       -92.88471237    111.822161    0.00000    0.00000   -1.76358    0    start
    2      0.000D+00      0.902D-02       -92.89345941    111.022209    0.00000    0.00000   -0.89547    1    diag
    3      0.135D-01      0.812D-02       -92.90811518    111.539328    0.00000    0.00000   -1.29904    2    diag
    4      0.604D-02      0.680D-03       -92.90834660    111.496674    0.00000    0.00000   -1.29004    3    diag
    5      0.113D-02      0.151D-03       -92.90835983    111.508663    0.00000    0.00000   -1.28873    4    diag
    6      0.262D-03      0.410D-04       -92.90836070    111.503143    0.00000    0.00000   -1.28869    5    diag
    7      0.604D-04      0.147D-04       -92.90836078    111.504208    0.00000    0.00000   -1.28877    6    diag
    8      0.206D-04      0.285D-05       -92.90836078    111.504173    0.00000    0.00000   -1.28873    7    diag
    9      0.409D-05      0.325D-06       -92.90836078    111.504183    0.00000    0.00000   -1.28872    8    diag
   10      0.543D-06      0.375D-07       -92.90836078    111.504183    0.00000    0.00000   -1.28872    9    orth
   11      0.579D-07      0.452D-08       -92.90836078    111.504183    0.00000    0.00000   -1.28872    9    diag
   12      0.106D-07      0.402D-09       -92.90836078    111.504183    0.00000    0.00000   -1.28872    9    diag
   13      0.102D-08      0.456D-10       -92.90836078    111.504183    0.00000    0.00000   -1.28872    9    diag
   14      0.157D-09      0.466D-11       -92.90836078    111.504183    0.00000    0.00000   -1.28872    9    diag
   15      0.275D-10      0.953D-12       -92.90836078    111.504183    0.00000    0.00000   -1.28872    9    diag
   16      0.618D-11      0.286D-12       -92.90836078    111.504183    0.00000    0.00000   -1.28872    0    orth

 Final occupancy:   5   1   1   0

 !RHF STATE 1.1 Energy                -92.908360783600
 Nuclear energy                        23.89274805
 One-electron energy                 -172.55320045
 Two-electron energy                   55.75209162
 Virial quotient                       -1.00238584
 !RHF STATE 1.1 Dipole moment           0.00000000     0.00000000    -1.28872351
 Dipole moment /Debye                   0.00000000     0.00000000    -3.27539389

 Orbital energies:

         1.1          2.1          3.1          4.1          5.1          6.1          7.1
    -15.602136   -11.293016    -1.235103    -0.819899    -0.582996     0.023124     0.071688

         1.2          2.2          3.2
     -0.495680     0.072876     0.135608

         1.3          2.3          3.3
     -0.495680     0.072876     0.135608

         1.4          2.4
      0.293717     0.549839

 HOMO      1.2    -0.495680 =     -13.4881eV
 LUMO      6.1     0.023124 =       0.6292eV
 LUMO-HOMO         0.518803 =      14.1174eV


 **********************************************************************************************************************************
 DATASETS  * FILE   NREC   LENGTH (MB)   RECORD NAMES
              1      19       63.47       500      610      700      900      950      970     1000      129      960     1100   
                                          VAR    BASINP    GEOM    SYMINP    ZMAT    AOBASIS   BASIS     P2S    ABASIS      S 
                                         1400     1410     1200     1210     1080     1600     1650     1300     1700   
                                           T        V       H0       H01     AOSYM     SMH    MOLCAS    ERIS     OPER   

              2       4        2.88       700     1000      520     2100   
                                         GEOM     BASIS   MCVARS     RHF  

 PROGRAMS   *        TOTAL        HF       INT
 CPU TIMES  *         1.66      0.36      1.18
 REAL TIME  *         2.44 SEC
 DISK USED  *       163.98 MB      
 **********************************************************************************************************************************


 PROGRAM * CCSD (Closed-shell coupled cluster)     Authors: C. Hampel, H.-J. Werner, 1991, M. Deegan, P.J. Knowles, 1992


 Convergence thresholds:  THRVAR = 1.00D-08  THRDEN = 1.00D-12

 CCSD(T)     terms to be evaluated (factor= 1.000)


 Number of core orbitals:           2 (   2   0   0   0 )
 Number of closed-shell orbitals:   5 (   3   1   1   0 )
 Number of external orbitals:     108 (  44  26  26  12 )

 Molecular orbitals read from record     2100.2  Type=RHF/CANONICAL (state 1.1)

 Number of N-1 electron functions:               5
 Number of N-2 electron functions:              15
 Number of singly external CSFs:               184
 Number of doubly external CSFs:             39026
 Total number of CSFs:                       39211

 Length of J-op  integral file:               0.00 MB
 Length of K-op  integral file:               0.31 MB
 Length of 3-ext integral record:             0.00 MB

 Memory could be reduced to 2.91 Mwords without degradation in triples

 Integral transformation finished. Total CPU:   0.06 sec, npass=  1  Memory used:   0.44 MW

 Reference energy:                    -92.90836078

 MP2 singlet pair energy:              -0.22234596
 MP2 triplet pair energy:              -0.12874093
 MP2 correlation energy:               -0.35108689
 MP2 total energy:                    -93.25944768

 SCS-MP2 correlation energy:           -0.34692062   (PS=  1.200000  PT=  0.333333)
 SCS-MP2 total energy:                -93.25528141

 ITER.      SQ.NORM     CORR.ENERGY   TOTAL ENERGY   ENERGY CHANGE        DEN1      VAR(S)    VAR(P)  DIIS     TIME  TIME/IT
   1      1.11613257    -0.35336428   -93.26172506    -0.00227739     0.01056875  0.25D-02  0.31D-02  1  1     0.11     0.07
   2      1.12571896    -0.35370857   -93.26206935    -0.00034429    -0.01006003  0.53D-04  0.42D-03  2  2     0.17     0.07
   3      1.13081133    -0.35394436   -93.26230514    -0.00023580    -0.00252258  0.15D-04  0.42D-04  3  3     0.23     0.07
   4      1.13297567    -0.35403744   -93.26239822    -0.00009307    -0.00076930  0.48D-06  0.46D-05  4  4     0.28     0.07
   5      1.13347061    -0.35403435   -93.26239513     0.00000309    -0.00013550  0.86D-07  0.42D-06  5  5     0.35     0.07
   6      1.13357550    -0.35403218   -93.26239297     0.00000217    -0.00002761  0.91D-08  0.31D-07  6  6     0.41     0.07
   7      1.13358322    -0.35403429   -93.26239508    -0.00000211    -0.00000226  0.97D-09  0.28D-08  6  1     0.48     0.07
   8      1.13358337    -0.35403486   -93.26239564    -0.00000056     0.00000057  0.71D-10  0.22D-09  6  2     0.55     0.07
   9      1.13358381    -0.35403492   -93.26239570    -0.00000006    -0.00000030  0.12D-10  0.14D-10  6  3     0.60     0.07
  10      1.13358370    -0.35403496   -93.26239574    -0.00000004     0.00000009  0.12D-11  0.14D-11  6  4     0.67     0.07
  11      1.13358362    -0.35403497   -93.26239575    -0.00000001     0.00000003  0.24D-12  0.13D-12  6  5     0.74     0.07
  12      1.13358355    -0.35403497   -93.26239576    -0.00000001     0.00000002  0.33D-13  0.27D-13  6  6     0.80     0.07
  13      1.13358351    -0.35403497   -93.26239576    -0.00000000     0.00000001  0.37D-14  0.73D-14  6  1     0.85     0.07
  14      1.13358349    -0.35403497   -93.26239576    -0.00000000     0.00000001  0.33D-15  0.93D-15  6  2     0.92     0.07
  15      1.13358349    -0.35403497   -93.26239576     0.00000000     0.00000000  0.30D-16  0.11D-15  6  3     0.99     0.07
  16      1.13358349    -0.35403497   -93.26239576     0.00000000     0.00000000  0.42D-17  0.81D-17  6  5     1.06     0.07
  17      1.13358349    -0.35403497   -93.26239576    -0.00000000     0.00000000  0.26D-18  0.34D-18  6  4     1.12     0.07
  18      1.13358349    -0.35403497   -93.26239576     0.00000000     0.00000000  0.63D-19  0.51D-19  6  6     1.19     0.07
  19      1.13358349    -0.35403497   -93.26239576    -0.00000000     0.00000000  0.10D-19  0.71D-20  6  1     1.26     0.07

 Norm of t1 vector:      0.06416215      S-energy:     0.00000000      T1 diagnostic:  0.01434709
                                                                       D1 diagnostic:  0.02855424


 Total CPU time for triples:      0.31 sec


 RESULTS
 =======

  Reference energy                    -92.908360783600
  CCSD singlet pair energy             -0.246513799658
  CCSD triplet pair energy             -0.107521174724
  CCSD correlation energy              -0.354034974381

  Triples (T) contribution             -0.018560642328
  Total correlation energy             -0.372595616709

  CCSD total energy                   -93.262395757981
  CCSD[T] energy                      -93.281771122364
  CCSD-T energy                       -93.280554638483
 !CCSD(T) total energy                -93.280956400309

 Timing summary (sec):

 STEP                 CPU(USER)    SYS     CPU(TOT)    WALL
 Transformation          0.06      0.02      0.08      0.08
 CCSD iterations         1.20      0.18      1.38      1.41
 Triples                 0.31      0.01      0.32      0.31

 Program statistics:

 Available memory in ccsd:               994999800
 Min. memory needed in ccsd:                166428
 Max. memory used in ccsd:                  196881
 Max. memory used in cckext:                233267 (19 integral passes)



 **********************************************************************************************************************************
 DATASETS  * FILE   NREC   LENGTH (MB)   RECORD NAMES
              1      20       70.97       500      610      700      900      950      970     1000      129      960     1100   
                                          VAR    BASINP    GEOM    SYMINP    ZMAT    AOBASIS   BASIS     P2S    ABASIS      S 
                                         1400     1410     1200     1210     1080     1600     1650     1300     1700     1380   
                                           T        V       H0       H01     AOSYM     SMH    MOLCAS    ERIS     OPER     JKOP   

              2       4        2.88       700     1000      520     2100   
                                         GEOM     BASIS   MCVARS     RHF  

 PROGRAMS   *        TOTAL   CCSD(T)        HF       INT
 CPU TIMES  *         3.28      1.62      0.36      1.18
 REAL TIME  *         4.34 SEC
 DISK USED  *       163.98 MB      
 **********************************************************************************************************************************

 CCSD(T)/aug-cc-pVTZ energy=    -93.280956400309

        CCSD(T)         HF-SCF  
    -93.28095640    -92.90836078
 **********************************************************************************************************************************
 Molpro calculation terminated
 Variable memory released
