
 Primary working directories    : /tmp/r2666/232551.maple
 Secondary working directories  : /tmp/r2666/232551.maple
 Wavefunction directory         : /ddn/home4/r2666/wfu/
 Main file repository           : /tmp/r2666/232551.maple/

 SHA1      : d5ffa45e93fdbca01ffc919aa182cfdae0147319
 NAME      : 2015.1.35
 ARCHNAME  : linux/x86_64
 FC        : /opt/intel/composer_xe_2015.1.133/bin/intel64/ifort
 BLASLIB   : -Wl,-_start-group /opt/intel/mkl/lib/intel64/libmkl_intel_ilp64.a /opt/intel/mkl/lib/intel64/libmkl_intel_thread.a /opt/intel/mkl/lib/intel64/libmkl_core.a -Wl,-_end-group
 id        : olemiss

 Nodes     nprocs
 cn079        1

 Using customized tuning parameters: mindgm=1; mindgv=20; mindgc=4; mindgr=1; noblas=0; minvec=7
 default implementation of scratch files=df  

 ***,hcn CCSD(T)/TZ-F12 QFF
 memory, 995, m;
 gthresh,energy=1.d-12,zero=1.d-22,oneint=1.d-22,twoint=1.d-22;
 gthresh,optgrad=1.d-8,optstep=1.d-8;
 nocompress;
 geomtyp=xyz
 bohr
 geometry={
 3
         50        50
 N        0.0000000000        0.0000000000        1.1404491076
 C        0.0000000000        0.0000000000       -1.0572978193
 H        0.0000000000        0.0000000000       -3.0802212703
 }
 
 basis=avtz
   {hf,maxit=500;accu,20;}
 {ccsd(t),nocheck,maxit=250;orbital,IGNORE_ERROR;}

 Variables initialized (889), CPU time= 0.01 sec
 Commands  initialized (702), CPU time= 0.01 sec, 572 directives.
 Default parameters read. Elapsed time= 0.05 sec

 Checking input...
 Passed
1


                                         ***  PROGRAM SYSTEM MOLPRO  ***
                                       Copyright, TTI GmbH Stuttgart, 2015
                                    Version 2015.1 linked Jul  9 2018 13:16:40


 **********************************************************************************************************************************
 LABEL *   hcn CCSD(T)/TZ-F12 QFF                                                        
  64 bit serial version                                                                  DATE: 06-Feb-20          TIME: 09:54:27  
 **********************************************************************************************************************************

 SHA1:             d5ffa45e93fdbca01ffc919aa182cfdae0147319
 **********************************************************************************************************************************

 THRESHOLDS:

 ZERO    =  1.00D-22  ONEINT  =  1.00D-22  TWOINT  =  1.00D-22  PREFAC  =  1.00D-14  LOCALI  =  1.00D-09  EORDER  =  1.00D-04
 ENERGY  =  1.00D-12  ETEST   =  0.00D+00  EDENS   =  0.00D+00  THRDEDEF=  1.00D-06  GRADIENT=  1.00D-02  STEP    =  1.00D-03
 ORBITAL =  1.00D-05  CIVEC   =  1.00D-05  COEFF   =  1.00D-04  PRINTCI =  5.00D-02  PUNCHCI =  9.90D+01  OPTGRAD =  3.00D-04
 OPTENERG=  1.00D-06  OPTSTEP =  3.00D-04  THRGRAD =  1.00D-10  COMPRESS=  1.00D-11  VARMIN  =  1.00D-07  VARMAX  =  1.00D-03
 THRDOUB =  0.00D+00  THRDIV  =  1.00D-05  THRRED  =  1.00D-07  THRPSP  =  1.00D+00  THRDC   =  1.00D-10  THRCS   =  1.00D-10
 THRNRM  =  1.00D-08  THREQ   =  0.00D+00  THRDE   =  1.00D+00  THRREF  =  1.00D-05  SPARFAC =  1.00D+00  THRDLP  =  1.00D-07
 THRDIA  =  1.00D-10  THRDLS  =  1.00D-07  THRGPS  =  0.00D+00  THRKEX  =  0.00D+00  THRDIS  =  2.00D-01  THRVAR  =  1.00D-10
 THRLOC  =  1.00D-06  THRGAP  =  1.00D-06  THRLOCT = -1.00D+00  THRGAPT = -1.00D+00  THRORB  =  1.00D-06  THRMLTP =  0.00D+00
 THRCPQCI=  1.00D-10  KEXTA   =  0.00D+00  THRCOARS=  0.00D+00  SYMTOL  =  1.00D-06  GRADTOL =  1.00D-06  THROVL  =  1.00D-08
 THRORTH =  1.00D-08  GRID    =  1.00D-06  GRIDMAX =  1.00D-03  DTMAX   =  0.00D+00  THROCCDE=  1.00D-01  THROCCDE=  1.00D-01



 THRESHOLDS:

 ZERO    =  1.00D-22  ONEINT  =  1.00D-22  TWOINT  =  1.00D-22  PREFAC  =  1.00D-14  LOCALI  =  1.00D-09  EORDER  =  1.00D-04
 ENERGY  =  1.00D-12  ETEST   =  0.00D+00  EDENS   =  0.00D+00  THRDEDEF=  1.00D-06  GRADIENT=  1.00D-02  STEP    =  1.00D-03
 ORBITAL =  1.00D-05  CIVEC   =  1.00D-05  COEFF   =  1.00D-04  PRINTCI =  5.00D-02  PUNCHCI =  9.90D+01  OPTGRAD =  1.00D-08
 OPTENERG=  1.00D-06  OPTSTEP =  1.00D-08  THRGRAD =  1.00D-10  COMPRESS=  1.00D-11  VARMIN  =  1.00D-07  VARMAX  =  1.00D-03
 THRDOUB =  0.00D+00  THRDIV  =  1.00D-05  THRRED  =  1.00D-07  THRPSP  =  1.00D+00  THRDC   =  1.00D-10  THRCS   =  1.00D-10
 THRNRM  =  1.00D-08  THREQ   =  0.00D+00  THRDE   =  1.00D+00  THRREF  =  1.00D-05  SPARFAC =  1.00D+00  THRDLP  =  1.00D-07
 THRDIA  =  1.00D-10  THRDLS  =  1.00D-07  THRGPS  =  0.00D+00  THRKEX  =  0.00D+00  THRDIS  =  2.00D-01  THRVAR  =  1.00D-10
 THRLOC  =  1.00D-06  THRGAP  =  1.00D-06  THRLOCT = -1.00D+00  THRGAPT = -1.00D+00  THRORB  =  1.00D-06  THRMLTP =  0.00D+00
 THRCPQCI=  1.00D-10  KEXTA   =  0.00D+00  THRCOARS=  0.00D+00  SYMTOL  =  1.00D-06  GRADTOL =  1.00D-06  THROVL  =  1.00D-08
 THRORTH =  1.00D-08  GRID    =  1.00D-06  GRIDMAX =  1.00D-03  DTMAX   =  0.00D+00  THROCCDE=  1.00D-01  THROCCDE=  1.00D-01



 Input parameters for SORTINT:

 COMPRESS =    0.000000
 C_FINAL  =    1.000000
 DEBUG    =   -1.000000
 C_SORT1  =    0.000000
 C_SEWARD =    0.000000
 THRESH   =    0.000000
 IO       =  molpro                                                          
 SPRI     =    0.000000
 SETTING GEOMTYP        =    XYZ
 ZUNIT=BOHR
 

 Variable memory set to  995000000 words,  buffer space   230000 words

 SETTING BASIS          =    AVTZ


 Recomputing integrals since basis changed


 Using spherical harmonics

 Library entry N      S aug-cc-pVTZ          selected for orbital group  1
 Library entry N      P aug-cc-pVTZ          selected for orbital group  1
 Library entry N      D aug-cc-pVTZ          selected for orbital group  1
 Library entry N      F aug-cc-pVTZ          selected for orbital group  1
 Library entry C      S aug-cc-pVTZ          selected for orbital group  2
 Library entry C      P aug-cc-pVTZ          selected for orbital group  2
 Library entry C      D aug-cc-pVTZ          selected for orbital group  2
 Library entry C      F aug-cc-pVTZ          selected for orbital group  2
 Library entry H      S aug-cc-pVTZ          selected for orbital group  3
 Library entry H      P aug-cc-pVTZ          selected for orbital group  3
 Library entry H      D aug-cc-pVTZ          selected for orbital group  3


 PROGRAM * SEWARD (Integral evaluation for generally contracted gaussian basis sets)     Author: Roland Lindh, 1990

 Geometry written to block  1 of record 700


 Point group  C2v 



 ATOMIC COORDINATES

 NR  ATOM    CHARGE       X              Y              Z

   1  N       7.00    0.000000000    0.000000000    1.140449108
   2  C       6.00    0.000000000    0.000000000   -1.057297819
   3  H       1.00    0.000000000    0.000000000   -3.080221270

 Bond lengths in Bohr (Angstrom)

 1-2  2.197746927  2-3  2.022923451
     ( 1.162997589)     ( 1.070484990)

 Bond angles

  1-2-3  180.00000000

 NUCLEAR CHARGE:                   14
 NUMBER OF PRIMITIVE AOS:         161
 NUMBER OF SYMMETRY AOS:          141
 NUMBER OF CONTRACTIONS:          115   (  49A1  +  27B1  +  27B2  +  12A2  )
 NUMBER OF CORE ORBITALS:           2   (   2A1  +   0B1  +   0B2  +   0A2  )
 NUMBER OF VALENCE ORBITALS:        9   (   5A1  +   2B1  +   2B2  +   0A2  )


 NUCLEAR REPULSION ENERGY   23.73498937

 EXTRA SYMMETRY OF AOS IN SYMMETRY 1:   1 1 1 1 1 1 1 1 1 1   2 1 2 1 2 1 2 1 2 1   1 1 1 1 1 1 1 1 1 2   1 2 1 2 1 2 1 2 1 1
                                        1 1 1 1 1 1 2 1 2
 EXTRA SYMMETRY OF AOS IN SYMMETRY 2:   1 1 1 1 1 1 1 1 2 1   2 1 1 1 1 1 1 1 1 2   1 2 1 1 1 1 1
 EXTRA SYMMETRY OF AOS IN SYMMETRY 3:   1 1 1 1 1 1 1 1 2 1   2 1 1 1 1 1 1 1 1 2   1 2 1 1 1 1 1

 Eigenvalues of metric

         1 0.890E-04 0.200E-03 0.629E-03 0.126E-02 0.143E-02 0.181E-02 0.516E-02 0.696E-02
         2 0.232E-02 0.532E-02 0.131E-01 0.164E-01 0.313E-01 0.451E-01 0.832E-01 0.104E+00
         3 0.232E-02 0.532E-02 0.131E-01 0.164E-01 0.313E-01 0.451E-01 0.832E-01 0.104E+00
         4 0.394E-01 0.114E+00 0.149E+00 0.334E+00 0.492E+00 0.510E+00 0.743E+00 0.900E+00


 Contracted 2-electron integrals neglected if value below      1.0D-22

        5027967. INTEGRALS WRITTEN OUT IN    1228 BLOCKS ON RECORD 1290 OF FILE 1


 NUMBER OF SORTED TWO-ELECTRON INTEGRALS:    5853730.     BUFFER LENGTH:  32768
 NUMBER OF SEGMENTS:   1  SEGMENT LENGTH:    5853730      RECORD LENGTH: 524288

 Memory used in sort:       6.41 MW

 SORT1 READ     5027967. AND WROTE     5163057. INTEGRALS IN     15 RECORDS. CPU TIME:     0.11 SEC, REAL TIME:     0.14 SEC
 SORT2 READ     5163057. AND WROTE     5853730. INTEGRALS IN      1 RECORDS. CPU TIME:     0.10 SEC, REAL TIME:     0.14 SEC

 FILE SIZES:   FILE 1:   100.7 MBYTE,  FILE 4:    62.9 MBYTE,   TOTAL:    163.7 MBYTE

 OPERATOR DM      FOR CENTER  0  COORDINATES:    0.000000    0.000000    0.000000


 **********************************************************************************************************************************
 DATASETS  * FILE   NREC   LENGTH (MB)   RECORD NAMES
              1      19       63.46       500      610      700      900      950      970     1000      129      960     1100   
                                          VAR    BASINP    GEOM    SYMINP    ZMAT    AOBASIS   BASIS     P2S    ABASIS      S 
                                         1400     1410     1200     1210     1080     1600     1650     1300     1700   
                                           T        V       H0       H01     AOSYM     SMH    MOLCAS    ERIS     OPER   

 PROGRAMS   *        TOTAL       INT
 CPU TIMES  *         1.17      1.08
 REAL TIME  *         1.75 SEC
 DISK USED  *       163.98 MB      
 **********************************************************************************************************************************


 PROGRAM * RHF-SCF (CLOSED SHELL)       Authors: W. Meyer, H.-J. Werner


 NUMBER OF ELECTRONS:       7+    7-
 CONVERGENCE THRESHOLDS:    1.00E-10 (Density)    1.00E-13 (Energy)
 MAX. NUMBER OF ITERATIONS:      500
 INTERPOLATION TYPE:            DIIS
 INTERPOLATION STEPS:              2 (START)      1 (STEP)
 LEVEL SHIFTS:                  0.00 (CLOSED)  0.00 (OPEN) 



 Orbital guess generated from atomic densities. Full valence occupancy:    7   2   2   0

 Molecular orbital dump at record        2100.2

 Initial occupancy:   5   1   1   0

 ITERATION    DDIFF          GRAD             ENERGY        2-EL.EN.            DIPOLE MOMENTS         DIIS   ORB.
    1      0.000D+00      0.000D+00       -92.88294310    111.528634    0.00000    0.00000   -1.79391    0    start
    2      0.000D+00      0.918D-02       -92.89151049    110.733796    0.00000    0.00000   -0.89349    1    diag
    3      0.135D-01      0.837D-02       -92.90714185    111.258338    0.00000    0.00000   -1.31127    2    diag
    4      0.619D-02      0.675D-03       -92.90737306    111.213766    0.00000    0.00000   -1.30234    3    diag
    5      0.111D-02      0.155D-03       -92.90738698    111.227432    0.00000    0.00000   -1.30107    4    diag
    6      0.264D-03      0.432D-04       -92.90738798    111.221572    0.00000    0.00000   -1.30095    5    diag
    7      0.656D-04      0.155D-04       -92.90738807    111.222650    0.00000    0.00000   -1.30105    6    diag
    8      0.218D-04      0.299D-05       -92.90738808    111.222616    0.00000    0.00000   -1.30101    7    diag
    9      0.427D-05      0.339D-06       -92.90738808    111.222626    0.00000    0.00000   -1.30101    8    diag
   10      0.561D-06      0.377D-07       -92.90738808    111.222626    0.00000    0.00000   -1.30101    9    orth
   11      0.592D-07      0.430D-08       -92.90738808    111.222626    0.00000    0.00000   -1.30101    9    diag
   12      0.103D-07      0.371D-09       -92.90738808    111.222626    0.00000    0.00000   -1.30101    9    diag
   13      0.892D-09      0.304D-10       -92.90738808    111.222626    0.00000    0.00000   -1.30101    9    diag
   14      0.158D-09      0.440D-11       -92.90738808    111.222626    0.00000    0.00000   -1.30101    9    diag
   15      0.189D-10      0.115D-11       -92.90738808    111.222626    0.00000    0.00000   -1.30101    9    diag
   16      0.358D-11      0.337D-12       -92.90738808    111.222626    0.00000    0.00000   -1.30101    9    diag
   17      0.400D-11      0.142D-12       -92.90738808    111.222626    0.00000    0.00000   -1.30101    0    orth

 Final occupancy:   5   1   1   0

 !RHF STATE 1.1 Energy                -92.907388077304
 Nuclear energy                        23.73498937
 One-electron energy                 -172.25369051
 Two-electron energy                   55.61131306
 Virial quotient                       -1.00301271
 !RHF STATE 1.1 Dipole moment           0.00000000     0.00000000    -1.30100708
 Dipole moment /Debye                   0.00000000     0.00000000    -3.30661358

 Orbital energies:

         1.1          2.1          3.1          4.1          5.1          6.1          7.1
    -15.603543   -11.296337    -1.232494    -0.812803    -0.582562     0.023011     0.071515

         1.2          2.2          3.2
     -0.493897     0.072810     0.135387

         1.3          2.3          3.3
     -0.493897     0.072810     0.135387

         1.4          2.4
      0.294019     0.550146

 HOMO      1.2    -0.493897 =     -13.4396eV
 LUMO      6.1     0.023011 =       0.6262eV
 LUMO-HOMO         0.516908 =      14.0658eV


 **********************************************************************************************************************************
 DATASETS  * FILE   NREC   LENGTH (MB)   RECORD NAMES
              1      19       63.46       500      610      700      900      950      970     1000      129      960     1100   
                                          VAR    BASINP    GEOM    SYMINP    ZMAT    AOBASIS   BASIS     P2S    ABASIS      S 
                                         1400     1410     1200     1210     1080     1600     1650     1300     1700   
                                           T        V       H0       H01     AOSYM     SMH    MOLCAS    ERIS     OPER   

              2       4        2.88       700     1000      520     2100   
                                         GEOM     BASIS   MCVARS     RHF  

 PROGRAMS   *        TOTAL        HF       INT
 CPU TIMES  *         1.52      0.35      1.08
 REAL TIME  *         2.20 SEC
 DISK USED  *       163.98 MB      
 **********************************************************************************************************************************


 PROGRAM * CCSD (Closed-shell coupled cluster)     Authors: C. Hampel, H.-J. Werner, 1991, M. Deegan, P.J. Knowles, 1992


 Convergence thresholds:  THRVAR = 1.00D-08  THRDEN = 1.00D-12

 CCSD(T)     terms to be evaluated (factor= 1.000)


 Number of core orbitals:           2 (   2   0   0   0 )
 Number of closed-shell orbitals:   5 (   3   1   1   0 )
 Number of external orbitals:     108 (  44  26  26  12 )

 Molecular orbitals read from record     2100.2  Type=RHF/CANONICAL (state 1.1)

 Number of N-1 electron functions:               5
 Number of N-2 electron functions:              15
 Number of singly external CSFs:               184
 Number of doubly external CSFs:             39026
 Total number of CSFs:                       39211

 Length of J-op  integral file:               0.00 MB
 Length of K-op  integral file:               0.31 MB
 Length of 3-ext integral record:             0.00 MB

 Memory could be reduced to 2.91 Mwords without degradation in triples

 Integral transformation finished. Total CPU:   0.04 sec, npass=  1  Memory used:   0.44 MW

 Reference energy:                    -92.90738808

 MP2 singlet pair energy:              -0.22306176
 MP2 triplet pair energy:              -0.12924177
 MP2 correlation energy:               -0.35230353
 MP2 total energy:                    -93.25969161

 SCS-MP2 correlation energy:           -0.34809121   (PS=  1.200000  PT=  0.333333)
 SCS-MP2 total energy:                -93.25547929

 ITER.      SQ.NORM     CORR.ENERGY   TOTAL ENERGY   ENERGY CHANGE        DEN1      VAR(S)    VAR(P)  DIIS     TIME  TIME/IT
   1      1.11712722    -0.35431713   -93.26170520    -0.00201359     0.01108902  0.25D-02  0.32D-02  1  1     0.09     0.06
   2      1.12690703    -0.35463596   -93.26202403    -0.00031883    -0.01021547  0.55D-04  0.43D-03  2  2     0.14     0.06
   3      1.13216488    -0.35488383   -93.26227191    -0.00024788    -0.00258612  0.16D-04  0.44D-04  3  3     0.22     0.07
   4      1.13440309    -0.35498112   -93.26236920    -0.00009729    -0.00079056  0.51D-06  0.49D-05  4  4     0.27     0.07
   5      1.13491993    -0.35497894   -93.26236701     0.00000219    -0.00014032  0.97D-07  0.46D-06  5  5     0.32     0.07
   6      1.13503517    -0.35497632   -93.26236440     0.00000261    -0.00003019  0.10D-07  0.34D-07  6  6     0.37     0.07
   7      1.13504373    -0.35497854   -93.26236661    -0.00000222    -0.00000249  0.10D-08  0.31D-08  6  1     0.43     0.07
   8      1.13504400    -0.35497911   -93.26236719    -0.00000058     0.00000054  0.80D-10  0.24D-09  6  2     0.49     0.07
   9      1.13504447    -0.35497918   -93.26236726    -0.00000007    -0.00000031  0.12D-10  0.16D-10  6  3     0.55     0.07
  10      1.13504436    -0.35497922   -93.26236730    -0.00000004     0.00000009  0.12D-11  0.16D-11  6  4     0.60     0.07
  11      1.13504427    -0.35497923   -93.26236731    -0.00000001     0.00000004  0.22D-12  0.15D-12  6  5     0.66     0.07
  12      1.13504417    -0.35497924   -93.26236731    -0.00000001     0.00000003  0.22D-13  0.16D-13  6  1     0.72     0.07
  13      1.13504413    -0.35497924   -93.26236732    -0.00000000     0.00000001  0.18D-14  0.12D-14  6  6     0.78     0.07
  14      1.13504413    -0.35497924   -93.26236732    -0.00000000     0.00000000  0.57D-15  0.20D-15  6  2     0.84     0.07
  15      1.13504413    -0.35497924   -93.26236732    -0.00000000     0.00000000  0.41D-16  0.41D-16  6  3     0.90     0.07
  16      1.13504413    -0.35497924   -93.26236732     0.00000000    -0.00000000  0.62D-17  0.41D-17  6  4     0.95     0.07
  17      1.13504413    -0.35497924   -93.26236732     0.00000000    -0.00000000  0.33D-18  0.40D-18  6  5     1.00     0.07
  18      1.13504413    -0.35497924   -93.26236732     0.00000000    -0.00000000  0.35D-19  0.49D-19  6  6     1.07     0.07
  19      1.13504413    -0.35497924   -93.26236732    -0.00000000     0.00000000  0.55D-20  0.51D-20  6  1     1.13     0.07
  20      1.13504413    -0.35497924   -93.26236732    -0.00000000     0.00000000  0.86D-21  0.78D-21  6  2     1.19     0.07
  21      1.13504413    -0.35497924   -93.26236732    -0.00000000     0.00000000  0.11D-21  0.83D-22  6  3     1.24     0.07

 Norm of t1 vector:      0.06500303      S-energy:    -0.00000000      T1 diagnostic:  0.01453512
                                                                       D1 diagnostic:  0.02887439


 Total CPU time for triples:      0.25 sec


 RESULTS
 =======

  Reference energy                    -92.907388077304
  CCSD singlet pair energy             -0.247353698041
  CCSD triplet pair energy             -0.107625540792
  CCSD correlation energy              -0.354979238834

  Triples (T) contribution             -0.018775062970
  Total correlation energy             -0.373754301803

  CCSD total energy                   -93.262367316138
  CCSD[T] energy                      -93.281980063913
  CCSD-T energy                       -93.280731376656
 !CCSD(T) total energy                -93.281142379108

 Timing summary (sec):

 STEP                 CPU(USER)    SYS     CPU(TOT)    WALL
 Transformation          0.04      0.03      0.07      0.06
 CCSD iterations         1.20      0.20      1.40      1.43
 Triples                 0.25      0.02      0.27      0.27

 Program statistics:

 Available memory in ccsd:               994999800
 Min. memory needed in ccsd:                166428
 Max. memory used in ccsd:                  196881
 Max. memory used in cckext:                233267 (21 integral passes)



 **********************************************************************************************************************************
 DATASETS  * FILE   NREC   LENGTH (MB)   RECORD NAMES
              1      20       70.97       500      610      700      900      950      970     1000      129      960     1100   
                                          VAR    BASINP    GEOM    SYMINP    ZMAT    AOBASIS   BASIS     P2S    ABASIS      S 
                                         1400     1410     1200     1210     1080     1600     1650     1300     1700     1380   
                                           T        V       H0       H01     AOSYM     SMH    MOLCAS    ERIS     OPER     JKOP   

              2       4        2.88       700     1000      520     2100   
                                         GEOM     BASIS   MCVARS     RHF  

 PROGRAMS   *        TOTAL   CCSD(T)        HF       INT
 CPU TIMES  *         3.05      1.52      0.35      1.08
 REAL TIME  *         4.05 SEC
 DISK USED  *       163.98 MB      
 **********************************************************************************************************************************

 CCSD(T)/aug-cc-pVTZ energy=    -93.281142379108

        CCSD(T)         HF-SCF  
    -93.28114238    -92.90738808
 **********************************************************************************************************************************
 Molpro calculation terminated
 Variable memory released
