
 Primary working directories    : /tmp/r2666/232515.maple
 Secondary working directories  : /tmp/r2666/232515.maple
 Wavefunction directory         : /ddn/home4/r2666/wfu/
 Main file repository           : /tmp/r2666/232515.maple/

 SHA1      : d5ffa45e93fdbca01ffc919aa182cfdae0147319
 NAME      : 2015.1.35
 ARCHNAME  : linux/x86_64
 FC        : /opt/intel/composer_xe_2015.1.133/bin/intel64/ifort
 BLASLIB   : -Wl,-_start-group /opt/intel/mkl/lib/intel64/libmkl_intel_ilp64.a /opt/intel/mkl/lib/intel64/libmkl_intel_thread.a /opt/intel/mkl/lib/intel64/libmkl_core.a -Wl,-_end-group
 id        : olemiss

 Nodes     nprocs
 cn079        1

 Using customized tuning parameters: mindgm=1; mindgv=20; mindgc=4; mindgr=1; noblas=0; minvec=7
 default implementation of scratch files=df  

 ***,hcn CCSD(T)/TZ-F12 QFF
 memory, 995, m;
 gthresh,energy=1.d-12,zero=1.d-22,oneint=1.d-22,twoint=1.d-22;
 gthresh,optgrad=1.d-8,optstep=1.d-8;
 nocompress;
 geomtyp=xyz
 bohr
 geometry={
 3
         14        14
 N       -0.0045953277       -0.0000001419        1.1152043535
 C        0.0095680553        0.0000000037       -1.0541504488
 H       -0.0049727276        0.0000001382       -3.0581238867
 }
 
 basis=avtz
   {hf,maxit=500;accu,20;}
 {ccsd(t),nocheck,maxit=250;orbital,IGNORE_ERROR;}

 Variables initialized (889), CPU time= 0.01 sec
 Commands  initialized (702), CPU time= 0.01 sec, 572 directives.
 Default parameters read. Elapsed time= 0.04 sec

 Checking input...
 Passed
1


                                         ***  PROGRAM SYSTEM MOLPRO  ***
                                       Copyright, TTI GmbH Stuttgart, 2015
                                    Version 2015.1 linked Jul  9 2018 13:16:40


 **********************************************************************************************************************************
 LABEL *   hcn CCSD(T)/TZ-F12 QFF                                                        
  64 bit serial version                                                                  DATE: 06-Feb-20          TIME: 09:54:15  
 **********************************************************************************************************************************

 SHA1:             d5ffa45e93fdbca01ffc919aa182cfdae0147319
 **********************************************************************************************************************************

 THRESHOLDS:

 ZERO    =  1.00D-22  ONEINT  =  1.00D-22  TWOINT  =  1.00D-22  PREFAC  =  1.00D-14  LOCALI  =  1.00D-09  EORDER  =  1.00D-04
 ENERGY  =  1.00D-12  ETEST   =  0.00D+00  EDENS   =  0.00D+00  THRDEDEF=  1.00D-06  GRADIENT=  1.00D-02  STEP    =  1.00D-03
 ORBITAL =  1.00D-05  CIVEC   =  1.00D-05  COEFF   =  1.00D-04  PRINTCI =  5.00D-02  PUNCHCI =  9.90D+01  OPTGRAD =  3.00D-04
 OPTENERG=  1.00D-06  OPTSTEP =  3.00D-04  THRGRAD =  1.00D-10  COMPRESS=  1.00D-11  VARMIN  =  1.00D-07  VARMAX  =  1.00D-03
 THRDOUB =  0.00D+00  THRDIV  =  1.00D-05  THRRED  =  1.00D-07  THRPSP  =  1.00D+00  THRDC   =  1.00D-10  THRCS   =  1.00D-10
 THRNRM  =  1.00D-08  THREQ   =  0.00D+00  THRDE   =  1.00D+00  THRREF  =  1.00D-05  SPARFAC =  1.00D+00  THRDLP  =  1.00D-07
 THRDIA  =  1.00D-10  THRDLS  =  1.00D-07  THRGPS  =  0.00D+00  THRKEX  =  0.00D+00  THRDIS  =  2.00D-01  THRVAR  =  1.00D-10
 THRLOC  =  1.00D-06  THRGAP  =  1.00D-06  THRLOCT = -1.00D+00  THRGAPT = -1.00D+00  THRORB  =  1.00D-06  THRMLTP =  0.00D+00
 THRCPQCI=  1.00D-10  KEXTA   =  0.00D+00  THRCOARS=  0.00D+00  SYMTOL  =  1.00D-06  GRADTOL =  1.00D-06  THROVL  =  1.00D-08
 THRORTH =  1.00D-08  GRID    =  1.00D-06  GRIDMAX =  1.00D-03  DTMAX   =  0.00D+00  THROCCDE=  1.00D-01  THROCCDE=  1.00D-01



 THRESHOLDS:

 ZERO    =  1.00D-22  ONEINT  =  1.00D-22  TWOINT  =  1.00D-22  PREFAC  =  1.00D-14  LOCALI  =  1.00D-09  EORDER  =  1.00D-04
 ENERGY  =  1.00D-12  ETEST   =  0.00D+00  EDENS   =  0.00D+00  THRDEDEF=  1.00D-06  GRADIENT=  1.00D-02  STEP    =  1.00D-03
 ORBITAL =  1.00D-05  CIVEC   =  1.00D-05  COEFF   =  1.00D-04  PRINTCI =  5.00D-02  PUNCHCI =  9.90D+01  OPTGRAD =  1.00D-08
 OPTENERG=  1.00D-06  OPTSTEP =  1.00D-08  THRGRAD =  1.00D-10  COMPRESS=  1.00D-11  VARMIN  =  1.00D-07  VARMAX  =  1.00D-03
 THRDOUB =  0.00D+00  THRDIV  =  1.00D-05  THRRED  =  1.00D-07  THRPSP  =  1.00D+00  THRDC   =  1.00D-10  THRCS   =  1.00D-10
 THRNRM  =  1.00D-08  THREQ   =  0.00D+00  THRDE   =  1.00D+00  THRREF  =  1.00D-05  SPARFAC =  1.00D+00  THRDLP  =  1.00D-07
 THRDIA  =  1.00D-10  THRDLS  =  1.00D-07  THRGPS  =  0.00D+00  THRKEX  =  0.00D+00  THRDIS  =  2.00D-01  THRVAR  =  1.00D-10
 THRLOC  =  1.00D-06  THRGAP  =  1.00D-06  THRLOCT = -1.00D+00  THRGAPT = -1.00D+00  THRORB  =  1.00D-06  THRMLTP =  0.00D+00
 THRCPQCI=  1.00D-10  KEXTA   =  0.00D+00  THRCOARS=  0.00D+00  SYMTOL  =  1.00D-06  GRADTOL =  1.00D-06  THROVL  =  1.00D-08
 THRORTH =  1.00D-08  GRID    =  1.00D-06  GRIDMAX =  1.00D-03  DTMAX   =  0.00D+00  THROCCDE=  1.00D-01  THROCCDE=  1.00D-01



 Input parameters for SORTINT:

 COMPRESS =    0.000000
 C_FINAL  =    1.000000
 DEBUG    =   -1.000000
 C_SORT1  =    0.000000
 C_SEWARD =    0.000000
 THRESH   =    0.000000
 IO       =  molpro                                                          
 SPRI     =    0.000000
 SETTING GEOMTYP        =    XYZ
 ZUNIT=BOHR
 

 Variable memory set to  995000000 words,  buffer space   230000 words

 SETTING BASIS          =    AVTZ


 Recomputing integrals since basis changed


 Using spherical harmonics

 Library entry N      S aug-cc-pVTZ          selected for orbital group  1
 Library entry N      P aug-cc-pVTZ          selected for orbital group  1
 Library entry N      D aug-cc-pVTZ          selected for orbital group  1
 Library entry N      F aug-cc-pVTZ          selected for orbital group  1
 Library entry C      S aug-cc-pVTZ          selected for orbital group  2
 Library entry C      P aug-cc-pVTZ          selected for orbital group  2
 Library entry C      D aug-cc-pVTZ          selected for orbital group  2
 Library entry C      F aug-cc-pVTZ          selected for orbital group  2
 Library entry H      S aug-cc-pVTZ          selected for orbital group  3
 Library entry H      P aug-cc-pVTZ          selected for orbital group  3
 Library entry H      D aug-cc-pVTZ          selected for orbital group  3


 PROGRAM * SEWARD (Integral evaluation for generally contracted gaussian basis sets)     Author: Roland Lindh, 1990

 Geometry written to block  1 of record 700


 Point group  Cs  



 ATOMIC COORDINATES

 NR  ATOM    CHARGE       X              Y              Z

   1  N       7.00   -0.004595328    0.000000000    1.115204354
   2  C       6.00    0.009568055    0.000000000   -1.054150449
   3  H       1.00   -0.004972728    0.000000000   -3.058123887

 Bond lengths in Bohr (Angstrom)

 1-2  2.169401037  2-3  2.004026191
     ( 1.147997590)     ( 1.060484990)

 Bond angles

  1-2-3  179.21020051

 NUCLEAR CHARGE:                   14
 NUMBER OF PRIMITIVE AOS:         161
 NUMBER OF SYMMETRY AOS:          141
 NUMBER OF CONTRACTIONS:          115   (  76A'  +  39A"  )
 NUMBER OF CORE ORBITALS:           2   (   2A'  +   0A"  )
 NUMBER OF VALENCE ORBITALS:        9   (   7A'  +   2A"  )


 NUCLEAR REPULSION ENERGY   24.03147368

 Eigenvalues of metric

         1 0.852E-04 0.196E-03 0.608E-03 0.121E-02 0.136E-02 0.177E-02 0.223E-02 0.515E-02
         2 0.223E-02 0.517E-02 0.125E-01 0.159E-01 0.307E-01 0.378E-01 0.445E-01 0.798E-01


 Contracted 2-electron integrals neglected if value below      1.0D-22

       10788994. INTEGRALS WRITTEN OUT IN    2635 BLOCKS ON RECORD 1290 OF FILE 1


 NUMBER OF SORTED TWO-ELECTRON INTEGRALS:   11433631.     BUFFER LENGTH:  32768
 NUMBER OF SEGMENTS:   1  SEGMENT LENGTH:   11433631      RECORD LENGTH: 524288

 Memory used in sort:      11.99 MW

 SORT1 READ    10788994. AND WROTE    10942562. INTEGRALS IN     32 RECORDS. CPU TIME:     0.16 SEC, REAL TIME:     0.22 SEC
 SORT2 READ    10942562. AND WROTE    11433631. INTEGRALS IN      1 RECORDS. CPU TIME:     0.15 SEC, REAL TIME:     0.22 SEC

 FILE SIZES:   FILE 1:   193.0 MBYTE,  FILE 4:   134.3 MBYTE,   TOTAL:    327.2 MBYTE

 OPERATOR DM      FOR CENTER  0  COORDINATES:    0.000000    0.000000    0.000000


 **********************************************************************************************************************************
 DATASETS  * FILE   NREC   LENGTH (MB)   RECORD NAMES
              1      19      111.05       500      610      700      900      950      970     1000      129      960     1100   
                                          VAR    BASINP    GEOM    SYMINP    ZMAT    AOBASIS   BASIS     P2S    ABASIS      S 
                                         1400     1410     1200     1210     1080     1600     1650     1300     1700   
                                           T        V       H0       H01     AOSYM     SMH    MOLCAS    ERIS     OPER   

 PROGRAMS   *        TOTAL       INT
 CPU TIMES  *         1.28      1.19
 REAL TIME  *         1.98 SEC
 DISK USED  *       327.55 MB      
 **********************************************************************************************************************************


 PROGRAM * RHF-SCF (CLOSED SHELL)       Authors: W. Meyer, H.-J. Werner


 NUMBER OF ELECTRONS:       7+    7-
 CONVERGENCE THRESHOLDS:    1.00E-10 (Density)    1.00E-13 (Energy)
 MAX. NUMBER OF ITERATIONS:      500
 INTERPOLATION TYPE:            DIIS
 INTERPOLATION STEPS:              2 (START)      1 (STEP)
 LEVEL SHIFTS:                  0.00 (CLOSED)  0.00 (OPEN) 



 Orbital guess generated from atomic densities. Full valence occupancy:    9   2

 Molecular orbital dump at record        2100.2

 Initial occupancy:   6   1

 ITERATION    DDIFF          GRAD             ENERGY        2-EL.EN.            DIPOLE MOMENTS         DIIS   ORB.
    1      0.000D+00      0.000D+00       -92.88582911    112.170418    0.00688    0.00000   -1.76925    0    start
    2      0.000D+00      0.704D-02       -92.89501113    111.295764   -0.00231    0.00000   -0.90619    1    diag
    3      0.101D-01      0.626D-02       -92.90959624    111.825495    0.00149    0.00000   -1.30173    2    diag
    4      0.450D-02      0.512D-03       -92.90981974    111.790437    0.00117    0.00000   -1.29295    3    diag
    5      0.823D-03      0.111D-03       -92.90983248    111.799457    0.00107    0.00000   -1.29156    4    diag
    6      0.193D-03      0.300D-04       -92.90983322    111.794640    0.00106    0.00000   -1.29165    5    diag
    7      0.412D-04      0.106D-04       -92.90983329    111.795786    0.00106    0.00000   -1.29171    6    diag
    8      0.144D-04      0.207D-05       -92.90983329    111.795741    0.00106    0.00000   -1.29167    7    diag
    9      0.280D-05      0.237D-06       -92.90983329    111.795750    0.00106    0.00000   -1.29167    8    diag
   10      0.380D-06      0.285D-07       -92.90983329    111.795750    0.00106    0.00000   -1.29167    9    orth
   11      0.427D-07      0.501D-08       -92.90983329    111.795750    0.00106    0.00000   -1.29167    9    diag
   12      0.101D-07      0.202D-08       -92.90983329    111.795750    0.00106    0.00000   -1.29167    9    diag
   13      0.487D-08      0.838D-09       -92.90983329    111.795750    0.00106    0.00000   -1.29167    9    diag
   14      0.298D-08      0.205D-09       -92.90983329    111.795750    0.00106    0.00000   -1.29167    9    diag
   15      0.562D-09      0.798D-10       -92.90983329    111.795750    0.00106    0.00000   -1.29167    9    diag
   16      0.209D-09      0.116D-10       -92.90983329    111.795750    0.00106    0.00000   -1.29167    9    diag
   17      0.345D-10      0.202D-11       -92.90983329    111.795750    0.00106    0.00000   -1.29167    9    diag
   18      0.508D-11      0.811D-12       -92.90983329    111.795750    0.00106    0.00000   -1.29167    9    diag
   19      0.422D-11      0.209D-12       -92.90983329    111.795750    0.00106    0.00000   -1.29167    9    fixocc
   20      0.232D-11      0.715D-13       -92.90983329    111.795750    0.00106    0.00000   -1.29167    9    orth
   21      0.891D-12      0.761D-13       -92.90983329    111.795750    0.00106    0.00000   -1.29167    9    diag
   22      0.463D-12      0.728D-13       -92.90983329    111.795750    0.00106    0.00000   -1.29167    0    orth

 Final occupancy:   6   1

 !RHF STATE 1.1 Energy                -92.909833290673
 Nuclear energy                        24.03147368
 One-electron energy                 -172.83918215
 Two-electron energy                   55.89787518
 Virial quotient                       -1.00196971
 !RHF STATE 1.1 Dipole moment           0.00105758     0.00000000    -1.29166645
 Dipole moment /Debye                   0.00268792     0.00000000    -3.28287361

 Orbital energies:

         1.1          2.1          3.1          4.1          5.1          6.1          7.1          8.1
    -15.598324   -11.290105    -1.239653    -0.814432    -0.582121    -0.498539     0.023135     0.071714

         1.2          2.2          3.2
     -0.498542     0.072953     0.136781

 HOMO      6.1    -0.498539 =     -13.5659eV
 LUMO      7.1     0.023135 =       0.6295eV
 LUMO-HOMO         0.521675 =      14.1955eV


 **********************************************************************************************************************************
 DATASETS  * FILE   NREC   LENGTH (MB)   RECORD NAMES
              1      19      111.05       500      610      700      900      950      970     1000      129      960     1100   
                                          VAR    BASINP    GEOM    SYMINP    ZMAT    AOBASIS   BASIS     P2S    ABASIS      S 
                                         1400     1410     1200     1210     1080     1600     1650     1300     1700   
                                           T        V       H0       H01     AOSYM     SMH    MOLCAS    ERIS     OPER   

              2       4        2.94       700     1000      520     2100   
                                         GEOM     BASIS   MCVARS     RHF  

 PROGRAMS   *        TOTAL        HF       INT
 CPU TIMES  *         2.43      1.15      1.19
 REAL TIME  *         3.41 SEC
 DISK USED  *       327.55 MB      
 **********************************************************************************************************************************


 PROGRAM * CCSD (Closed-shell coupled cluster)     Authors: C. Hampel, H.-J. Werner, 1991, M. Deegan, P.J. Knowles, 1992


 Convergence thresholds:  THRVAR = 1.00D-08  THRDEN = 1.00D-12

 CCSD(T)     terms to be evaluated (factor= 1.000)


 Number of core orbitals:           2 (   2   0 )
 Number of closed-shell orbitals:   5 (   4   1 )
 Number of external orbitals:     108 (  70  38 )

 Molecular orbitals read from record     2100.2  Type=RHF/CANONICAL (state 1.1)

 Number of N-1 electron functions:               5
 Number of N-2 electron functions:              15
 Number of singly external CSFs:               318
 Number of doubly external CSFs:             75474
 Total number of CSFs:                       75793

 Length of J-op  integral file:               0.00 MB
 Length of K-op  integral file:               0.54 MB
 Length of 3-ext integral record:             0.00 MB

 Memory could be reduced to 5.36 Mwords without degradation in triples

 Integral transformation finished. Total CPU:   0.13 sec, npass=  1  Memory used:   1.45 MW

 Reference energy:                    -92.90983329

 MP2 singlet pair energy:              -0.22128980
 MP2 triplet pair energy:              -0.12788279
 MP2 correlation energy:               -0.34917259
 MP2 total energy:                    -93.25900588

 SCS-MP2 correlation energy:           -0.34511927   (PS=  1.200000  PT=  0.333333)
 SCS-MP2 total energy:                -93.25495257

 ITER.      SQ.NORM     CORR.ENERGY   TOTAL ENERGY   ENERGY CHANGE        DEN1      VAR(S)    VAR(P)  DIIS     TIME  TIME/IT
   1      1.11506049    -0.35197806   -93.26181135    -0.00280547     0.00966887  0.24D-02  0.30D-02  1  1     0.25     0.13
   2      1.12443805    -0.35240512   -93.26223842    -0.00042706    -0.00985148  0.50D-04  0.40D-03  2  2     0.37     0.14
   3      1.12937050    -0.35263313   -93.26246643    -0.00022801    -0.00246752  0.15D-04  0.40D-04  3  3     0.49     0.14
   4      1.13142799    -0.35272058   -93.26255387    -0.00008744    -0.00073922  0.47D-06  0.43D-05  4  4     0.62     0.14
   5      1.13189273    -0.35271781   -93.26255110     0.00000277    -0.00012851  0.89D-07  0.38D-06  5  5     0.74     0.14
   6      1.13199061    -0.35271572   -93.26254901     0.00000209    -0.00002597  0.81D-08  0.28D-07  6  6     0.84     0.14
   7      1.13199792    -0.35271759   -93.26255089    -0.00000188    -0.00000218  0.90D-09  0.25D-08  6  1     0.95     0.14
   8      1.13199813    -0.35271810   -93.26255139    -0.00000051     0.00000051  0.76D-10  0.20D-09  6  2     1.07     0.14
   9      1.13199854    -0.35271816   -93.26255145    -0.00000006    -0.00000026  0.98D-11  0.13D-10  6  3     1.19     0.14
  10      1.13199845    -0.35271820   -93.26255149    -0.00000003     0.00000008  0.10D-11  0.13D-11  6  4     1.31     0.14
  11      1.13199838    -0.35271821   -93.26255150    -0.00000001     0.00000003  0.16D-12  0.13D-12  6  5     1.43     0.14
  12      1.13199830    -0.35271821   -93.26255150    -0.00000000     0.00000003  0.17D-13  0.14D-13  6  1     1.56     0.14
  13      1.13199827    -0.35271821   -93.26255150    -0.00000000     0.00000001  0.17D-14  0.98D-15  6  6     1.68     0.14
  14      1.13199826    -0.35271821   -93.26255150    -0.00000000     0.00000000  0.49D-15  0.19D-15  6  2     1.79     0.14
  15      1.13199826    -0.35271821   -93.26255150     0.00000000     0.00000000  0.62D-16  0.29D-16  6  4     1.91     0.14
  16      1.13199826    -0.35271821   -93.26255150     0.00000000    -0.00000000  0.82D-17  0.44D-17  6  3     2.02     0.14
  17      1.13199826    -0.35271821   -93.26255150     0.00000000    -0.00000000  0.14D-17  0.68D-18  6  5     2.14     0.14
  18      1.13199826    -0.35271821   -93.26255150     0.00000000    -0.00000000  0.28D-18  0.12D-18  6  1     2.27     0.14
  19      1.13199826    -0.35271821   -93.26255150    -0.00000000     0.00000000  0.48D-19  0.22D-19  6  6     2.40     0.14
  20      1.13199826    -0.35271821   -93.26255150    -0.00000000     0.00000000  0.81D-20  0.39D-20  6  2     2.51     0.14
  21      1.13199826    -0.35271821   -93.26255150     0.00000000    -0.00000000  0.81D-21  0.53D-21  6  4     2.62     0.14

 Norm of t1 vector:      0.06287642      S-energy:    -0.00000000      T1 diagnostic:  0.01405959
                                                                       D1 diagnostic:  0.02785468


 Total CPU time for triples:      0.74 sec


 RESULTS
 =======

  Reference energy                    -92.909833290673
  CCSD singlet pair energy             -0.245445990649
  CCSD triplet pair energy             -0.107272222397
  CCSD correlation energy              -0.352718213046

  Triples (T) contribution             -0.018266352040
  Total correlation energy             -0.370984565086

  CCSD total energy                   -93.262551503720
  CCSD[T] energy                      -93.281596303813
  CCSD-T energy                       -93.280431288911
 !CCSD(T) total energy                -93.280817855759

 Timing summary (sec):

 STEP                 CPU(USER)    SYS     CPU(TOT)    WALL
 Transformation          0.13      0.03      0.16      0.16
 CCSD iterations         2.50      0.38      2.88      2.88
 Triples                 0.74      0.05      0.79      0.80

 Program statistics:

 Available memory in ccsd:               994999800
 Min. memory needed in ccsd:                311547
 Max. memory used in ccsd:                  369090
 Max. memory used in cckext:                513448 (21 integral passes)



 **********************************************************************************************************************************
 DATASETS  * FILE   NREC   LENGTH (MB)   RECORD NAMES
              1      20      125.49       500      610      700      900      950      970     1000      129      960     1100   
                                          VAR    BASINP    GEOM    SYMINP    ZMAT    AOBASIS   BASIS     P2S    ABASIS      S 
                                         1400     1410     1200     1210     1080     1600     1650     1300     1700     1380   
                                           T        V       H0       H01     AOSYM     SMH    MOLCAS    ERIS     OPER     JKOP   

              2       4        2.94       700     1000      520     2100   
                                         GEOM     BASIS   MCVARS     RHF  

 PROGRAMS   *        TOTAL   CCSD(T)        HF       INT
 CPU TIMES  *         5.83      3.39      1.15      1.19
 REAL TIME  *         7.29 SEC
 DISK USED  *       327.55 MB      
 **********************************************************************************************************************************

 CCSD(T)/aug-cc-pVTZ energy=    -93.280817855759

        CCSD(T)         HF-SCF  
    -93.28081786    -92.90983329
 **********************************************************************************************************************************
 Molpro calculation terminated
 Variable memory released
