
 Primary working directories    : /tmp/r2666/232523.maple
 Secondary working directories  : /tmp/r2666/232523.maple
 Wavefunction directory         : /ddn/home4/r2666/wfu/
 Main file repository           : /tmp/r2666/232523.maple/

 SHA1      : d5ffa45e93fdbca01ffc919aa182cfdae0147319
 NAME      : 2015.1.35
 ARCHNAME  : linux/x86_64
 FC        : /opt/intel/composer_xe_2015.1.133/bin/intel64/ifort
 BLASLIB   : -Wl,-_start-group /opt/intel/mkl/lib/intel64/libmkl_intel_ilp64.a /opt/intel/mkl/lib/intel64/libmkl_intel_thread.a /opt/intel/mkl/lib/intel64/libmkl_core.a -Wl,-_end-group
 id        : olemiss

 Nodes     nprocs
 cn090        1

 Using customized tuning parameters: mindgm=1; mindgv=20; mindgc=4; mindgr=1; noblas=0; minvec=7
 default implementation of scratch files=df  

 ***,hcn CCSD(T)/TZ-F12 QFF
 memory, 995, m;
 gthresh,energy=1.d-12,zero=1.d-22,oneint=1.d-22,twoint=1.d-22;
 gthresh,optgrad=1.d-8,optstep=1.d-8;
 nocompress;
 geomtyp=xyz
 bohr
 geometry={
 3
         22        22
 N        0.0000000000        0.0000000000        1.1152527611
 C        0.0000000000        0.0000000000       -1.0635969059
 H        0.0000000000        0.0000000000       -3.0487258371
 }
 
 basis=avtz
   {hf,maxit=500;accu,20;}
 {ccsd(t),nocheck,maxit=250;orbital,IGNORE_ERROR;}

 Variables initialized (889), CPU time= 0.01 sec
 Commands  initialized (702), CPU time= 0.01 sec, 572 directives.
 Default parameters read. Elapsed time= 0.05 sec

 Checking input...
 Passed
1


                                         ***  PROGRAM SYSTEM MOLPRO  ***
                                       Copyright, TTI GmbH Stuttgart, 2015
                                    Version 2015.1 linked Jul  9 2018 13:16:40


 **********************************************************************************************************************************
 LABEL *   hcn CCSD(T)/TZ-F12 QFF                                                        
  64 bit serial version                                                                  DATE: 06-Feb-20          TIME: 09:54:17  
 **********************************************************************************************************************************

 SHA1:             d5ffa45e93fdbca01ffc919aa182cfdae0147319
 **********************************************************************************************************************************

 THRESHOLDS:

 ZERO    =  1.00D-22  ONEINT  =  1.00D-22  TWOINT  =  1.00D-22  PREFAC  =  1.00D-14  LOCALI  =  1.00D-09  EORDER  =  1.00D-04
 ENERGY  =  1.00D-12  ETEST   =  0.00D+00  EDENS   =  0.00D+00  THRDEDEF=  1.00D-06  GRADIENT=  1.00D-02  STEP    =  1.00D-03
 ORBITAL =  1.00D-05  CIVEC   =  1.00D-05  COEFF   =  1.00D-04  PRINTCI =  5.00D-02  PUNCHCI =  9.90D+01  OPTGRAD =  3.00D-04
 OPTENERG=  1.00D-06  OPTSTEP =  3.00D-04  THRGRAD =  1.00D-10  COMPRESS=  1.00D-11  VARMIN  =  1.00D-07  VARMAX  =  1.00D-03
 THRDOUB =  0.00D+00  THRDIV  =  1.00D-05  THRRED  =  1.00D-07  THRPSP  =  1.00D+00  THRDC   =  1.00D-10  THRCS   =  1.00D-10
 THRNRM  =  1.00D-08  THREQ   =  0.00D+00  THRDE   =  1.00D+00  THRREF  =  1.00D-05  SPARFAC =  1.00D+00  THRDLP  =  1.00D-07
 THRDIA  =  1.00D-10  THRDLS  =  1.00D-07  THRGPS  =  0.00D+00  THRKEX  =  0.00D+00  THRDIS  =  2.00D-01  THRVAR  =  1.00D-10
 THRLOC  =  1.00D-06  THRGAP  =  1.00D-06  THRLOCT = -1.00D+00  THRGAPT = -1.00D+00  THRORB  =  1.00D-06  THRMLTP =  0.00D+00
 THRCPQCI=  1.00D-10  KEXTA   =  0.00D+00  THRCOARS=  0.00D+00  SYMTOL  =  1.00D-06  GRADTOL =  1.00D-06  THROVL  =  1.00D-08
 THRORTH =  1.00D-08  GRID    =  1.00D-06  GRIDMAX =  1.00D-03  DTMAX   =  0.00D+00  THROCCDE=  1.00D-01  THROCCDE=  1.00D-01



 THRESHOLDS:

 ZERO    =  1.00D-22  ONEINT  =  1.00D-22  TWOINT  =  1.00D-22  PREFAC  =  1.00D-14  LOCALI  =  1.00D-09  EORDER  =  1.00D-04
 ENERGY  =  1.00D-12  ETEST   =  0.00D+00  EDENS   =  0.00D+00  THRDEDEF=  1.00D-06  GRADIENT=  1.00D-02  STEP    =  1.00D-03
 ORBITAL =  1.00D-05  CIVEC   =  1.00D-05  COEFF   =  1.00D-04  PRINTCI =  5.00D-02  PUNCHCI =  9.90D+01  OPTGRAD =  1.00D-08
 OPTENERG=  1.00D-06  OPTSTEP =  1.00D-08  THRGRAD =  1.00D-10  COMPRESS=  1.00D-11  VARMIN  =  1.00D-07  VARMAX  =  1.00D-03
 THRDOUB =  0.00D+00  THRDIV  =  1.00D-05  THRRED  =  1.00D-07  THRPSP  =  1.00D+00  THRDC   =  1.00D-10  THRCS   =  1.00D-10
 THRNRM  =  1.00D-08  THREQ   =  0.00D+00  THRDE   =  1.00D+00  THRREF  =  1.00D-05  SPARFAC =  1.00D+00  THRDLP  =  1.00D-07
 THRDIA  =  1.00D-10  THRDLS  =  1.00D-07  THRGPS  =  0.00D+00  THRKEX  =  0.00D+00  THRDIS  =  2.00D-01  THRVAR  =  1.00D-10
 THRLOC  =  1.00D-06  THRGAP  =  1.00D-06  THRLOCT = -1.00D+00  THRGAPT = -1.00D+00  THRORB  =  1.00D-06  THRMLTP =  0.00D+00
 THRCPQCI=  1.00D-10  KEXTA   =  0.00D+00  THRCOARS=  0.00D+00  SYMTOL  =  1.00D-06  GRADTOL =  1.00D-06  THROVL  =  1.00D-08
 THRORTH =  1.00D-08  GRID    =  1.00D-06  GRIDMAX =  1.00D-03  DTMAX   =  0.00D+00  THROCCDE=  1.00D-01  THROCCDE=  1.00D-01



 Input parameters for SORTINT:

 COMPRESS =    0.000000
 C_FINAL  =    1.000000
 DEBUG    =   -1.000000
 C_SORT1  =    0.000000
 C_SEWARD =    0.000000
 THRESH   =    0.000000
 IO       =  molpro                                                          
 SPRI     =    0.000000
 SETTING GEOMTYP        =    XYZ
 ZUNIT=BOHR
 

 Variable memory set to  995000000 words,  buffer space   230000 words

 SETTING BASIS          =    AVTZ


 Recomputing integrals since basis changed


 Using spherical harmonics

 Library entry N      S aug-cc-pVTZ          selected for orbital group  1
 Library entry N      P aug-cc-pVTZ          selected for orbital group  1
 Library entry N      D aug-cc-pVTZ          selected for orbital group  1
 Library entry N      F aug-cc-pVTZ          selected for orbital group  1
 Library entry C      S aug-cc-pVTZ          selected for orbital group  2
 Library entry C      P aug-cc-pVTZ          selected for orbital group  2
 Library entry C      D aug-cc-pVTZ          selected for orbital group  2
 Library entry C      F aug-cc-pVTZ          selected for orbital group  2
 Library entry H      S aug-cc-pVTZ          selected for orbital group  3
 Library entry H      P aug-cc-pVTZ          selected for orbital group  3
 Library entry H      D aug-cc-pVTZ          selected for orbital group  3


 PROGRAM * SEWARD (Integral evaluation for generally contracted gaussian basis sets)     Author: Roland Lindh, 1990

 Geometry written to block  1 of record 700


 Point group  C2v 



 ATOMIC COORDINATES

 NR  ATOM    CHARGE       X              Y              Z

   1  N       7.00    0.000000000    0.000000000    1.115252761
   2  C       6.00    0.000000000    0.000000000   -1.063596906
   3  H       1.00    0.000000000    0.000000000   -3.048725837

 Bond lengths in Bohr (Angstrom)

 1-2  2.178849667  2-3  1.985128931
     ( 1.152997590)     ( 1.050484991)

 Bond angles

  1-2-3  179.99999879

 NUCLEAR CHARGE:                   14
 NUMBER OF PRIMITIVE AOS:         161
 NUMBER OF SYMMETRY AOS:          141
 NUMBER OF CONTRACTIONS:          115   (  49A1  +  27B1  +  27B2  +  12A2  )
 NUMBER OF CORE ORBITALS:           2   (   2A1  +   0B1  +   0B2  +   0A2  )
 NUMBER OF VALENCE ORBITALS:        9   (   5A1  +   2B1  +   2B2  +   0A2  )


 NUCLEAR REPULSION ENERGY   23.97978488

 EXTRA SYMMETRY OF AOS IN SYMMETRY 1:   1 1 1 1 1 1 1 1 1 1   2 1 2 1 2 1 2 1 2 1   1 1 1 1 1 1 1 1 1 2   1 2 1 2 1 2 1 2 1 1
                                        1 1 1 1 1 1 2 1 2
 EXTRA SYMMETRY OF AOS IN SYMMETRY 2:   1 1 1 1 1 1 1 1 2 1   2 1 1 1 1 1 1 1 1 2   1 2 1 1 1 1 1
 EXTRA SYMMETRY OF AOS IN SYMMETRY 3:   1 1 1 1 1 1 1 1 2 1   2 1 1 1 1 1 1 1 1 2   1 2 1 1 1 1 1

 Eigenvalues of metric

         1 0.835E-04 0.196E-03 0.598E-03 0.120E-02 0.137E-02 0.177E-02 0.512E-02 0.676E-02
         2 0.226E-02 0.504E-02 0.125E-01 0.156E-01 0.307E-01 0.446E-01 0.795E-01 0.102E+00
         3 0.226E-02 0.504E-02 0.125E-01 0.156E-01 0.307E-01 0.446E-01 0.795E-01 0.102E+00
         4 0.379E-01 0.110E+00 0.146E+00 0.331E+00 0.481E+00 0.510E+00 0.741E+00 0.891E+00


 Contracted 2-electron integrals neglected if value below      1.0D-22

        5028934. INTEGRALS WRITTEN OUT IN    1229 BLOCKS ON RECORD 1290 OF FILE 1


 NUMBER OF SORTED TWO-ELECTRON INTEGRALS:    5853730.     BUFFER LENGTH:  32768
 NUMBER OF SEGMENTS:   1  SEGMENT LENGTH:    5853730      RECORD LENGTH: 524288

 Memory used in sort:       6.41 MW

 SORT1 READ     5028934. AND WROTE     5164142. INTEGRALS IN     15 RECORDS. CPU TIME:     0.11 SEC, REAL TIME:     0.13 SEC
 SORT2 READ     5164142. AND WROTE     5853730. INTEGRALS IN      1 RECORDS. CPU TIME:     0.12 SEC, REAL TIME:     0.14 SEC

 FILE SIZES:   FILE 1:   100.8 MBYTE,  FILE 4:    62.9 MBYTE,   TOTAL:    163.7 MBYTE

 OPERATOR DM      FOR CENTER  0  COORDINATES:    0.000000    0.000000    0.000000


 **********************************************************************************************************************************
 DATASETS  * FILE   NREC   LENGTH (MB)   RECORD NAMES
              1      19       63.47       500      610      700      900      950      970     1000      129      960     1100   
                                          VAR    BASINP    GEOM    SYMINP    ZMAT    AOBASIS   BASIS     P2S    ABASIS      S 
                                         1400     1410     1200     1210     1080     1600     1650     1300     1700   
                                           T        V       H0       H01     AOSYM     SMH    MOLCAS    ERIS     OPER   

 PROGRAMS   *        TOTAL       INT
 CPU TIMES  *         1.15      1.04
 REAL TIME  *         1.80 SEC
 DISK USED  *       164.05 MB      
 **********************************************************************************************************************************


 PROGRAM * RHF-SCF (CLOSED SHELL)       Authors: W. Meyer, H.-J. Werner


 NUMBER OF ELECTRONS:       7+    7-
 CONVERGENCE THRESHOLDS:    1.00E-10 (Density)    1.00E-13 (Energy)
 MAX. NUMBER OF ITERATIONS:      500
 INTERPOLATION TYPE:            DIIS
 INTERPOLATION STEPS:              2 (START)      1 (STEP)
 LEVEL SHIFTS:                  0.00 (CLOSED)  0.00 (OPEN) 



 Orbital guess generated from atomic densities. Full valence occupancy:    7   2   2   0

 Molecular orbital dump at record        2100.2

 Initial occupancy:   5   1   1   0

 ITERATION    DDIFF          GRAD             ENERGY        2-EL.EN.            DIPOLE MOMENTS         DIIS   ORB.
    1      0.000D+00      0.000D+00       -92.88551126    112.020058    0.00000    0.00000   -1.75987    0    start
    2      0.000D+00      0.904D-02       -92.89446002    111.189333    0.00000    0.00000   -0.90010    1    diag
    3      0.135D-01      0.807D-02       -92.90890127    111.709977    0.00000    0.00000   -1.29770    2    diag
    4      0.601D-02      0.675D-03       -92.90912947    111.670755    0.00000    0.00000   -1.28879    3    diag
    5      0.112D-02      0.147D-03       -92.90914236    111.681239    0.00000    0.00000   -1.28745    4    diag
    6      0.261D-03      0.397D-04       -92.90914315    111.676053    0.00000    0.00000   -1.28747    5    diag
    7      0.573D-04      0.142D-04       -92.90914323    111.677147    0.00000    0.00000   -1.28754    6    diag
    8      0.200D-04      0.275D-05       -92.90914323    111.677108    0.00000    0.00000   -1.28750    7    diag
    9      0.392D-05      0.315D-06       -92.90914323    111.677118    0.00000    0.00000   -1.28750    8    diag
   10      0.526D-06      0.368D-07       -92.90914323    111.677118    0.00000    0.00000   -1.28750    9    orth
   11      0.565D-07      0.454D-08       -92.90914323    111.677118    0.00000    0.00000   -1.28750    9    diag
   12      0.105D-07      0.403D-09       -92.90914323    111.677118    0.00000    0.00000   -1.28750    9    diag
   13      0.104D-08      0.504D-10       -92.90914323    111.677118    0.00000    0.00000   -1.28750    9    diag
   14      0.157D-09      0.505D-11       -92.90914323    111.677118    0.00000    0.00000   -1.28750    9    diag
   15      0.281D-10      0.133D-11       -92.90914323    111.677118    0.00000    0.00000   -1.28750    0    orth

 Final occupancy:   5   1   1   0

 !RHF STATE 1.1 Energy                -92.909143229505
 Nuclear energy                        23.97978488
 One-electron energy                 -172.72748721
 Two-electron energy                   55.83855911
 Virial quotient                       -1.00209429
 !RHF STATE 1.1 Dipole moment           0.00000000     0.00000000    -1.28749731
 Dipole moment /Debye                   0.00000000     0.00000000    -3.27227743

 Orbital energies:

         1.1          2.1          3.1          4.1          5.1          6.1          7.1
    -15.600330   -11.291186    -1.237440    -0.819148    -0.582727     0.023149     0.071733

         1.2          2.2          3.2
     -0.497177     0.072921     0.136126

         1.3          2.3          3.3
     -0.497177     0.072921     0.136126

         1.4          2.4
      0.293686     0.549873

 HOMO      1.2    -0.497177 =     -13.5289eV
 LUMO      6.1     0.023149 =       0.6299eV
 LUMO-HOMO         0.520326 =      14.1588eV


 **********************************************************************************************************************************
 DATASETS  * FILE   NREC   LENGTH (MB)   RECORD NAMES
              1      19       63.47       500      610      700      900      950      970     1000      129      960     1100   
                                          VAR    BASINP    GEOM    SYMINP    ZMAT    AOBASIS   BASIS     P2S    ABASIS      S 
                                         1400     1410     1200     1210     1080     1600     1650     1300     1700   
                                           T        V       H0       H01     AOSYM     SMH    MOLCAS    ERIS     OPER   

              2       4        2.88       700     1000      520     2100   
                                         GEOM     BASIS   MCVARS     RHF  

 PROGRAMS   *        TOTAL        HF       INT
 CPU TIMES  *         1.45      0.31      1.04
 REAL TIME  *         2.19 SEC
 DISK USED  *       164.05 MB      
 **********************************************************************************************************************************


 PROGRAM * CCSD (Closed-shell coupled cluster)     Authors: C. Hampel, H.-J. Werner, 1991, M. Deegan, P.J. Knowles, 1992


 Convergence thresholds:  THRVAR = 1.00D-08  THRDEN = 1.00D-12

 CCSD(T)     terms to be evaluated (factor= 1.000)


 Number of core orbitals:           2 (   2   0   0   0 )
 Number of closed-shell orbitals:   5 (   3   1   1   0 )
 Number of external orbitals:     108 (  44  26  26  12 )

 Molecular orbitals read from record     2100.2  Type=RHF/CANONICAL (state 1.1)

 Number of N-1 electron functions:               5
 Number of N-2 electron functions:              15
 Number of singly external CSFs:               184
 Number of doubly external CSFs:             39026
 Total number of CSFs:                       39211

 Length of J-op  integral file:               0.00 MB
 Length of K-op  integral file:               0.31 MB
 Length of 3-ext integral record:             0.00 MB

 Memory could be reduced to 2.91 Mwords without degradation in triples

 Integral transformation finished. Total CPU:   0.04 sec, npass=  1  Memory used:   0.44 MW

 Reference energy:                    -92.90914323

 MP2 singlet pair energy:              -0.22177952
 MP2 triplet pair energy:              -0.12829715
 MP2 correlation energy:               -0.35007667
 MP2 total energy:                    -93.25921990

 SCS-MP2 correlation energy:           -0.34596476   (PS=  1.200000  PT=  0.333333)
 SCS-MP2 total energy:                -93.25510799

 ITER.      SQ.NORM     CORR.ENERGY   TOTAL ENERGY   ENERGY CHANGE        DEN1      VAR(S)    VAR(P)  DIIS     TIME  TIME/IT
   1      1.11550446    -0.35261869   -93.26176192    -0.00254202     0.01010353  0.24D-02  0.30D-02  1  1     0.10     0.06
   2      1.12496823    -0.35300136   -93.26214459    -0.00038267    -0.00994513  0.52D-04  0.41D-03  2  2     0.15     0.06
   3      1.12996365    -0.35323167   -93.26237490    -0.00023032    -0.00248791  0.15D-04  0.41D-04  3  3     0.21     0.06
   4      1.13207022    -0.35332163   -93.26246486    -0.00008995    -0.00075297  0.47D-06  0.44D-05  4  4     0.27     0.06
   5      1.13254865    -0.35331850   -93.26246173     0.00000312    -0.00013173  0.85D-07  0.39D-06  5  5     0.32     0.06
   6      1.13264873    -0.35331645   -93.26245968     0.00000206    -0.00002645  0.85D-08  0.30D-07  6  6     0.38     0.06
   7      1.13265613    -0.35331844   -93.26246167    -0.00000200    -0.00000218  0.93D-09  0.27D-08  6  1     0.44     0.06
   8      1.13265628    -0.35331898   -93.26246221    -0.00000054     0.00000055  0.71D-10  0.21D-09  6  2     0.50     0.06
   9      1.13265670    -0.35331905   -93.26246227    -0.00000006    -0.00000028  0.11D-10  0.13D-10  6  3     0.55     0.06
  10      1.13265660    -0.35331908   -93.26246231    -0.00000003     0.00000008  0.11D-11  0.13D-11  6  4     0.61     0.06
  11      1.13265652    -0.35331909   -93.26246232    -0.00000001     0.00000003  0.20D-12  0.13D-12  6  5     0.66     0.07
  12      1.13265643    -0.35331909   -93.26246232    -0.00000000     0.00000003  0.21D-13  0.14D-13  6  1     0.71     0.07
  13      1.13265640    -0.35331910   -93.26246233    -0.00000000     0.00000001  0.17D-14  0.11D-14  6  6     0.77     0.07
  14      1.13265640    -0.35331910   -93.26246233    -0.00000000     0.00000000  0.52D-15  0.20D-15  6  2     0.81     0.07
  15      1.13265639    -0.35331910   -93.26246233    -0.00000000     0.00000000  0.37D-16  0.36D-16  6  3     0.87     0.07
  16      1.13265640    -0.35331910   -93.26246233     0.00000000    -0.00000000  0.50D-17  0.38D-17  6  4     0.93     0.07
  17      1.13265640    -0.35331910   -93.26246233     0.00000000    -0.00000000  0.27D-18  0.35D-18  6  5     0.99     0.07
  18      1.13265640    -0.35331910   -93.26246233     0.00000000    -0.00000000  0.29D-19  0.40D-19  6  6     1.04     0.07
  19      1.13265640    -0.35331910   -93.26246233    -0.00000000     0.00000000  0.51D-20  0.43D-20  6  1     1.10     0.07
  20      1.13265640    -0.35331910   -93.26246233    -0.00000000     0.00000000  0.84D-21  0.72D-21  6  2     1.16     0.07
  21      1.13265640    -0.35331910   -93.26246233    -0.00000000     0.00000000  0.11D-21  0.70D-22  6  3     1.21     0.07

 Norm of t1 vector:      0.06347951      S-energy:     0.00000000      T1 diagnostic:  0.01419445
                                                                       D1 diagnostic:  0.02820977


 Total CPU time for triples:      0.27 sec


 RESULTS
 =======

  Reference energy                    -92.909143229505
  CCSD singlet pair energy             -0.245917986830
  CCSD triplet pair energy             -0.107401109878
  CCSD correlation energy              -0.353319096708

  Triples (T) contribution             -0.018399971460
  Total correlation energy             -0.371719068168

  CCSD total energy                   -93.262462326213
  CCSD[T] energy                      -93.281657875796
  CCSD-T energy                       -93.280468475390
 !CCSD(T) total energy                -93.280862297673

 Timing summary (sec):

 STEP                 CPU(USER)    SYS     CPU(TOT)    WALL
 Transformation          0.04      0.03      0.07      0.06
 CCSD iterations         1.17      0.23      1.40      1.42
 Triples                 0.27      0.00      0.27      0.27

 Program statistics:

 Available memory in ccsd:               994999800
 Min. memory needed in ccsd:                166428
 Max. memory used in ccsd:                  196881
 Max. memory used in cckext:                233267 (21 integral passes)



 **********************************************************************************************************************************
 DATASETS  * FILE   NREC   LENGTH (MB)   RECORD NAMES
              1      20       70.98       500      610      700      900      950      970     1000      129      960     1100   
                                          VAR    BASINP    GEOM    SYMINP    ZMAT    AOBASIS   BASIS     P2S    ABASIS      S 
                                         1400     1410     1200     1210     1080     1600     1650     1300     1700     1380   
                                           T        V       H0       H01     AOSYM     SMH    MOLCAS    ERIS     OPER     JKOP   

              2       4        2.88       700     1000      520     2100   
                                         GEOM     BASIS   MCVARS     RHF  

 PROGRAMS   *        TOTAL   CCSD(T)        HF       INT
 CPU TIMES  *         2.95      1.50      0.31      1.04
 REAL TIME  *         3.97 SEC
 DISK USED  *       164.05 MB      
 **********************************************************************************************************************************

 CCSD(T)/aug-cc-pVTZ energy=    -93.280862297673

        CCSD(T)         HF-SCF  
    -93.28086230    -92.90914323
 **********************************************************************************************************************************
 Molpro calculation terminated
 Variable memory released
