
 Primary working directories    : /tmp/r2666/232534.maple
 Secondary working directories  : /tmp/r2666/232534.maple
 Wavefunction directory         : /ddn/home4/r2666/wfu/
 Main file repository           : /tmp/r2666/232534.maple/

 SHA1      : d5ffa45e93fdbca01ffc919aa182cfdae0147319
 NAME      : 2015.1.35
 ARCHNAME  : linux/x86_64
 FC        : /opt/intel/composer_xe_2015.1.133/bin/intel64/ifort
 BLASLIB   : -Wl,-_start-group /opt/intel/mkl/lib/intel64/libmkl_intel_ilp64.a /opt/intel/mkl/lib/intel64/libmkl_intel_thread.a /opt/intel/mkl/lib/intel64/libmkl_core.a -Wl,-_end-group
 id        : olemiss

 Nodes     nprocs
 cn078        1

 Using customized tuning parameters: mindgm=1; mindgv=20; mindgc=4; mindgr=1; noblas=0; minvec=7
 default implementation of scratch files=df  

 ***,hcn CCSD(T)/TZ-F12 QFF
 memory, 995, m;
 gthresh,energy=1.d-12,zero=1.d-22,oneint=1.d-22,twoint=1.d-22;
 gthresh,optgrad=1.d-8,optstep=1.d-8;
 nocompress;
 geomtyp=xyz
 bohr
 geometry={
 3
         33        33
 N       -0.0046390182        0.0000001580        1.1309515334
 C        0.0096588041       -0.0000000041       -1.0478512212
 H       -0.0050197859       -0.0000001539       -3.0801702942
 }
 
 basis=avtz
   {hf,maxit=500;accu,20;}
 {ccsd(t),nocheck,maxit=250;orbital,IGNORE_ERROR;}

 Variables initialized (889), CPU time= 0.01 sec
 Commands  initialized (702), CPU time= 0.01 sec, 572 directives.
 Default parameters read. Elapsed time= 0.05 sec

 Checking input...
 Passed
1


                                         ***  PROGRAM SYSTEM MOLPRO  ***
                                       Copyright, TTI GmbH Stuttgart, 2015
                                    Version 2015.1 linked Jul  9 2018 13:16:40


 **********************************************************************************************************************************
 LABEL *   hcn CCSD(T)/TZ-F12 QFF                                                        
  64 bit serial version                                                                  DATE: 06-Feb-20          TIME: 09:54:22  
 **********************************************************************************************************************************

 SHA1:             d5ffa45e93fdbca01ffc919aa182cfdae0147319
 **********************************************************************************************************************************

 THRESHOLDS:

 ZERO    =  1.00D-22  ONEINT  =  1.00D-22  TWOINT  =  1.00D-22  PREFAC  =  1.00D-14  LOCALI  =  1.00D-09  EORDER  =  1.00D-04
 ENERGY  =  1.00D-12  ETEST   =  0.00D+00  EDENS   =  0.00D+00  THRDEDEF=  1.00D-06  GRADIENT=  1.00D-02  STEP    =  1.00D-03
 ORBITAL =  1.00D-05  CIVEC   =  1.00D-05  COEFF   =  1.00D-04  PRINTCI =  5.00D-02  PUNCHCI =  9.90D+01  OPTGRAD =  3.00D-04
 OPTENERG=  1.00D-06  OPTSTEP =  3.00D-04  THRGRAD =  1.00D-10  COMPRESS=  1.00D-11  VARMIN  =  1.00D-07  VARMAX  =  1.00D-03
 THRDOUB =  0.00D+00  THRDIV  =  1.00D-05  THRRED  =  1.00D-07  THRPSP  =  1.00D+00  THRDC   =  1.00D-10  THRCS   =  1.00D-10
 THRNRM  =  1.00D-08  THREQ   =  0.00D+00  THRDE   =  1.00D+00  THRREF  =  1.00D-05  SPARFAC =  1.00D+00  THRDLP  =  1.00D-07
 THRDIA  =  1.00D-10  THRDLS  =  1.00D-07  THRGPS  =  0.00D+00  THRKEX  =  0.00D+00  THRDIS  =  2.00D-01  THRVAR  =  1.00D-10
 THRLOC  =  1.00D-06  THRGAP  =  1.00D-06  THRLOCT = -1.00D+00  THRGAPT = -1.00D+00  THRORB  =  1.00D-06  THRMLTP =  0.00D+00
 THRCPQCI=  1.00D-10  KEXTA   =  0.00D+00  THRCOARS=  0.00D+00  SYMTOL  =  1.00D-06  GRADTOL =  1.00D-06  THROVL  =  1.00D-08
 THRORTH =  1.00D-08  GRID    =  1.00D-06  GRIDMAX =  1.00D-03  DTMAX   =  0.00D+00  THROCCDE=  1.00D-01  THROCCDE=  1.00D-01



 THRESHOLDS:

 ZERO    =  1.00D-22  ONEINT  =  1.00D-22  TWOINT  =  1.00D-22  PREFAC  =  1.00D-14  LOCALI  =  1.00D-09  EORDER  =  1.00D-04
 ENERGY  =  1.00D-12  ETEST   =  0.00D+00  EDENS   =  0.00D+00  THRDEDEF=  1.00D-06  GRADIENT=  1.00D-02  STEP    =  1.00D-03
 ORBITAL =  1.00D-05  CIVEC   =  1.00D-05  COEFF   =  1.00D-04  PRINTCI =  5.00D-02  PUNCHCI =  9.90D+01  OPTGRAD =  1.00D-08
 OPTENERG=  1.00D-06  OPTSTEP =  1.00D-08  THRGRAD =  1.00D-10  COMPRESS=  1.00D-11  VARMIN  =  1.00D-07  VARMAX  =  1.00D-03
 THRDOUB =  0.00D+00  THRDIV  =  1.00D-05  THRRED  =  1.00D-07  THRPSP  =  1.00D+00  THRDC   =  1.00D-10  THRCS   =  1.00D-10
 THRNRM  =  1.00D-08  THREQ   =  0.00D+00  THRDE   =  1.00D+00  THRREF  =  1.00D-05  SPARFAC =  1.00D+00  THRDLP  =  1.00D-07
 THRDIA  =  1.00D-10  THRDLS  =  1.00D-07  THRGPS  =  0.00D+00  THRKEX  =  0.00D+00  THRDIS  =  2.00D-01  THRVAR  =  1.00D-10
 THRLOC  =  1.00D-06  THRGAP  =  1.00D-06  THRLOCT = -1.00D+00  THRGAPT = -1.00D+00  THRORB  =  1.00D-06  THRMLTP =  0.00D+00
 THRCPQCI=  1.00D-10  KEXTA   =  0.00D+00  THRCOARS=  0.00D+00  SYMTOL  =  1.00D-06  GRADTOL =  1.00D-06  THROVL  =  1.00D-08
 THRORTH =  1.00D-08  GRID    =  1.00D-06  GRIDMAX =  1.00D-03  DTMAX   =  0.00D+00  THROCCDE=  1.00D-01  THROCCDE=  1.00D-01



 Input parameters for SORTINT:

 COMPRESS =    0.000000
 C_FINAL  =    1.000000
 DEBUG    =   -1.000000
 C_SORT1  =    0.000000
 C_SEWARD =    0.000000
 THRESH   =    0.000000
 IO       =  molpro                                                          
 SPRI     =    0.000000
 SETTING GEOMTYP        =    XYZ
 ZUNIT=BOHR
 

 Variable memory set to  995000000 words,  buffer space   230000 words

 SETTING BASIS          =    AVTZ


 Recomputing integrals since basis changed


 Using spherical harmonics

 Library entry N      S aug-cc-pVTZ          selected for orbital group  1
 Library entry N      P aug-cc-pVTZ          selected for orbital group  1
 Library entry N      D aug-cc-pVTZ          selected for orbital group  1
 Library entry N      F aug-cc-pVTZ          selected for orbital group  1
 Library entry C      S aug-cc-pVTZ          selected for orbital group  2
 Library entry C      P aug-cc-pVTZ          selected for orbital group  2
 Library entry C      D aug-cc-pVTZ          selected for orbital group  2
 Library entry C      F aug-cc-pVTZ          selected for orbital group  2
 Library entry H      S aug-cc-pVTZ          selected for orbital group  3
 Library entry H      P aug-cc-pVTZ          selected for orbital group  3
 Library entry H      D aug-cc-pVTZ          selected for orbital group  3


 PROGRAM * SEWARD (Integral evaluation for generally contracted gaussian basis sets)     Author: Roland Lindh, 1990

 Geometry written to block  1 of record 700


 Point group  Cs  



 ATOMIC COORDINATES

 NR  ATOM    CHARGE       X              Y              Z

   1  N       7.00   -0.004639018    0.000000000    1.130951533
   2  C       6.00    0.009658804    0.000000000   -1.047851221
   3  H       1.00   -0.005019786    0.000000000   -3.080170294

 Bond lengths in Bohr (Angstrom)

 1-2  2.178849667  2-3  2.032372081
     ( 1.152997590)     ( 1.075484989)

 Bond angles

  1-2-3  179.21020062

 NUCLEAR CHARGE:                   14
 NUMBER OF PRIMITIVE AOS:         161
 NUMBER OF SYMMETRY AOS:          141
 NUMBER OF CONTRACTIONS:          115   (  76A'  +  39A"  )
 NUMBER OF CORE ORBITALS:           2   (   2A'  +   0A"  )
 NUMBER OF VALENCE ORBITALS:        9   (   7A'  +   2A"  )


 NUCLEAR REPULSION ENERGY   23.89070686

 Eigenvalues of metric

         1 0.892E-04 0.199E-03 0.632E-03 0.124E-02 0.139E-02 0.179E-02 0.226E-02 0.520E-02
         2 0.226E-02 0.539E-02 0.129E-01 0.166E-01 0.311E-01 0.387E-01 0.448E-01 0.820E-01


 Contracted 2-electron integrals neglected if value below      1.0D-22

       10788925. INTEGRALS WRITTEN OUT IN    2635 BLOCKS ON RECORD 1290 OF FILE 1


 NUMBER OF SORTED TWO-ELECTRON INTEGRALS:   11433631.     BUFFER LENGTH:  32768
 NUMBER OF SEGMENTS:   1  SEGMENT LENGTH:   11433631      RECORD LENGTH: 524288

 Memory used in sort:      11.99 MW

 SORT1 READ    10788925. AND WROTE    10942493. INTEGRALS IN     32 RECORDS. CPU TIME:     0.18 SEC, REAL TIME:     0.24 SEC
 SORT2 READ    10942493. AND WROTE    11433631. INTEGRALS IN      1 RECORDS. CPU TIME:     0.17 SEC, REAL TIME:     0.24 SEC

 FILE SIZES:   FILE 1:   193.0 MBYTE,  FILE 4:   134.3 MBYTE,   TOTAL:    327.2 MBYTE

 OPERATOR DM      FOR CENTER  0  COORDINATES:    0.000000    0.000000    0.000000


 **********************************************************************************************************************************
 DATASETS  * FILE   NREC   LENGTH (MB)   RECORD NAMES
              1      19      111.05       500      610      700      900      950      970     1000      129      960     1100   
                                          VAR    BASINP    GEOM    SYMINP    ZMAT    AOBASIS   BASIS     P2S    ABASIS      S 
                                         1400     1410     1200     1210     1080     1600     1650     1300     1700   
                                           T        V       H0       H01     AOSYM     SMH    MOLCAS    ERIS     OPER   

 PROGRAMS   *        TOTAL       INT
 CPU TIMES  *         1.35      1.25
 REAL TIME  *         4.23 SEC
 DISK USED  *       327.55 MB      
 **********************************************************************************************************************************


 PROGRAM * RHF-SCF (CLOSED SHELL)       Authors: W. Meyer, H.-J. Werner


 NUMBER OF ELECTRONS:       7+    7-
 CONVERGENCE THRESHOLDS:    1.00E-10 (Density)    1.00E-13 (Energy)
 MAX. NUMBER OF ITERATIONS:      500
 INTERPOLATION TYPE:            DIIS
 INTERPOLATION STEPS:              2 (START)      1 (STEP)
 LEVEL SHIFTS:                  0.00 (CLOSED)  0.00 (OPEN) 



 Orbital guess generated from atomic densities. Full valence occupancy:    9   2

 Molecular orbital dump at record        2100.2

 Initial occupancy:   6   1

 ITERATION    DDIFF          GRAD             ENERGY        2-EL.EN.            DIPOLE MOMENTS         DIIS   ORB.
    1      0.000D+00      0.000D+00       -92.88435501    111.898554    0.00694    0.00000   -1.79254    0    start
    2      0.000D+00      0.712D-02       -92.89336228    111.036831   -0.00249    0.00000   -0.90417    1    diag
    3      0.101D-01      0.641D-02       -92.90869453    111.570523    0.00144    0.00000   -1.31126    2    diag
    4      0.459D-02      0.510D-03       -92.90891885    111.533247    0.00112    0.00000   -1.30252    3    diag
    5      0.813D-03      0.114D-03       -92.90893213    111.543981    0.00102    0.00000   -1.30113    4    diag
    6      0.195D-03      0.316D-04       -92.90893298    111.538722    0.00101    0.00000   -1.30115    5    diag
    7      0.444D-04      0.113D-04       -92.90893306    111.539871    0.00101    0.00000   -1.30123    6    diag
    8      0.154D-04      0.217D-05       -92.90893306    111.539829    0.00101    0.00000   -1.30119    7    diag
    9      0.293D-05      0.246D-06       -92.90893306    111.539838    0.00101    0.00000   -1.30119    8    diag
   10      0.392D-06      0.288D-07       -92.90893306    111.539838    0.00101    0.00000   -1.30119    9    orth
   11      0.439D-07      0.505D-08       -92.90893306    111.539839    0.00101    0.00000   -1.30119    9    diag
   12      0.103D-07      0.211D-08       -92.90893306    111.539838    0.00101    0.00000   -1.30119    9    diag
   13      0.528D-08      0.841D-09       -92.90893306    111.539838    0.00101    0.00000   -1.30119    9    diag
   14      0.293D-08      0.221D-09       -92.90893306    111.539838    0.00101    0.00000   -1.30119    9    diag
   15      0.617D-09      0.949D-10       -92.90893306    111.539838    0.00101    0.00000   -1.30119    9    diag
   16      0.250D-09      0.192D-10       -92.90893306    111.539838    0.00101    0.00000   -1.30119    9    diag
   17      0.468D-10      0.457D-11       -92.90893306    111.539838    0.00101    0.00000   -1.30119    0    orth

 Final occupancy:   6   1

 !RHF STATE 1.1 Energy                -92.908933060228
 Nuclear energy                        23.89070686
 One-electron energy                 -172.56955916
 Two-electron energy                   55.76991925
 Virial quotient                       -1.00251667
 !RHF STATE 1.1 Dipole moment           0.00100517     0.00000000    -1.30118731
 Dipole moment /Debye                   0.00255471     0.00000000    -3.30707164

 Orbital energies:

         1.1          2.1          3.1          4.1          5.1          6.1          7.1          8.1
    -15.599853   -11.293056    -1.237112    -0.809340    -0.581886    -0.496806     0.023042     0.071569

         1.2          2.2          3.2
     -0.496808     0.072902     0.136501

 HOMO      6.1    -0.496806 =     -13.5188eV
 LUMO      7.1     0.023042 =       0.6270eV
 LUMO-HOMO         0.519848 =      14.1458eV


 **********************************************************************************************************************************
 DATASETS  * FILE   NREC   LENGTH (MB)   RECORD NAMES
              1      19      111.05       500      610      700      900      950      970     1000      129      960     1100   
                                          VAR    BASINP    GEOM    SYMINP    ZMAT    AOBASIS   BASIS     P2S    ABASIS      S 
                                         1400     1410     1200     1210     1080     1600     1650     1300     1700   
                                           T        V       H0       H01     AOSYM     SMH    MOLCAS    ERIS     OPER   

              2       4        2.94       700     1000      520     2100   
                                         GEOM     BASIS   MCVARS     RHF  

 PROGRAMS   *        TOTAL        HF       INT
 CPU TIMES  *         2.25      0.90      1.25
 REAL TIME  *         5.39 SEC
 DISK USED  *       327.55 MB      
 **********************************************************************************************************************************


 PROGRAM * CCSD (Closed-shell coupled cluster)     Authors: C. Hampel, H.-J. Werner, 1991, M. Deegan, P.J. Knowles, 1992


 Convergence thresholds:  THRVAR = 1.00D-08  THRDEN = 1.00D-12

 CCSD(T)     terms to be evaluated (factor= 1.000)


 Number of core orbitals:           2 (   2   0 )
 Number of closed-shell orbitals:   5 (   4   1 )
 Number of external orbitals:     108 (  70  38 )

 Molecular orbitals read from record     2100.2  Type=RHF/CANONICAL (state 1.1)

 Number of N-1 electron functions:               5
 Number of N-2 electron functions:              15
 Number of singly external CSFs:               318
 Number of doubly external CSFs:             75474
 Total number of CSFs:                       75793

 Length of J-op  integral file:               0.00 MB
 Length of K-op  integral file:               0.54 MB
 Length of 3-ext integral record:             0.00 MB

 Memory could be reduced to 5.36 Mwords without degradation in triples

 Integral transformation finished. Total CPU:   0.13 sec, npass=  1  Memory used:   1.45 MW

 Reference energy:                    -92.90893306

 MP2 singlet pair energy:              -0.22196373
 MP2 triplet pair energy:              -0.12836134
 MP2 correlation energy:               -0.35032507
 MP2 total energy:                    -93.25925813

 SCS-MP2 correlation energy:           -0.34622575   (PS=  1.200000  PT=  0.333333)
 SCS-MP2 total energy:                -93.25515881

 ITER.      SQ.NORM     CORR.ENERGY   TOTAL ENERGY   ENERGY CHANGE        DEN1      VAR(S)    VAR(P)  DIIS     TIME  TIME/IT
   1      1.11596286    -0.35287451   -93.26180757    -0.00254945     0.01016004  0.24D-02  0.31D-02  1  1     0.27     0.15
   2      1.12551359    -0.35327612   -93.26220918    -0.00040161    -0.00999332  0.52D-04  0.41D-03  2  2     0.40     0.15
   3      1.13059268    -0.35351462   -93.26244768    -0.00023849    -0.00252366  0.15D-04  0.41D-04  3  3     0.52     0.15
   4      1.13271820    -0.35360584   -93.26253890    -0.00009122    -0.00075893  0.49D-06  0.45D-05  4  4     0.65     0.15
   5      1.13320259    -0.35360372   -93.26253678     0.00000212    -0.00013290  0.99D-07  0.41D-06  5  5     0.77     0.15
   6      1.13330892    -0.35360130   -93.26253436     0.00000243    -0.00002808  0.88D-08  0.31D-07  6  6     0.89     0.15
   7      1.13331692    -0.35360327   -93.26253633    -0.00000197    -0.00000237  0.96D-09  0.27D-08  6  1     1.00     0.15
   8      1.13331722    -0.35360379   -93.26253686    -0.00000052     0.00000049  0.84D-10  0.21D-09  6  2     1.13     0.15
   9      1.13331766    -0.35360386   -93.26253692    -0.00000006    -0.00000027  0.10D-10  0.15D-10  6  3     1.26     0.15
  10      1.13331757    -0.35360389   -93.26253695    -0.00000004     0.00000008  0.10D-11  0.14D-11  6  4     1.38     0.15
  11      1.13331749    -0.35360390   -93.26253696    -0.00000001     0.00000003  0.15D-12  0.14D-12  6  5     1.51     0.15
  12      1.13331740    -0.35360391   -93.26253697    -0.00000001     0.00000003  0.16D-13  0.15D-13  6  1     1.61     0.15
  13      1.13331737    -0.35360391   -93.26253697    -0.00000000     0.00000001  0.15D-14  0.97D-15  6  6     1.73     0.15
  14      1.13331736    -0.35360391   -93.26253697    -0.00000000     0.00000000  0.46D-15  0.18D-15  6  2     1.85     0.15
  15      1.13331736    -0.35360391   -93.26253697     0.00000000     0.00000000  0.77D-16  0.29D-16  6  4     1.95     0.15
  16      1.13331736    -0.35360391   -93.26253697     0.00000000    -0.00000000  0.98D-17  0.50D-17  6  3     2.09     0.15
  17      1.13331736    -0.35360391   -93.26253697     0.00000000    -0.00000000  0.14D-17  0.77D-18  6  5     2.19     0.15
  18      1.13331736    -0.35360391   -93.26253697    -0.00000000    -0.00000000  0.25D-18  0.13D-18  6  1     2.31     0.15
  19      1.13331736    -0.35360391   -93.26253697    -0.00000000     0.00000000  0.42D-19  0.21D-19  6  6     2.43     0.15
  20      1.13331736    -0.35360391   -93.26253697    -0.00000000     0.00000000  0.70D-20  0.36D-20  6  2     2.56     0.15
  21      1.13331736    -0.35360391   -93.26253697     0.00000000    -0.00000000  0.74D-21  0.45D-21  6  4     2.69     0.15

 Norm of t1 vector:      0.06367385      S-energy:    -0.00000000      T1 diagnostic:  0.01423790
                                                                       D1 diagnostic:  0.02817670


 Total CPU time for triples:      0.75 sec


 RESULTS
 =======

  Reference energy                    -92.908933060227
  CCSD singlet pair energy             -0.246223064031
  CCSD triplet pair energy             -0.107380845199
  CCSD correlation energy              -0.353603909231

  Triples (T) contribution             -0.018465004654
  Total correlation energy             -0.372068913885

  CCSD total energy                   -93.262536969458
  CCSD[T] energy                      -93.281801710987
  CCSD-T energy                       -93.280606690902
 !CCSD(T) total energy                -93.281001974112

 Timing summary (sec):

 STEP                 CPU(USER)    SYS     CPU(TOT)    WALL
 Transformation          0.14      0.03      0.17      0.39
 CCSD iterations         2.55      0.52      3.07      3.06
 Triples                 0.75      0.06      0.81      0.81

 Program statistics:

 Available memory in ccsd:               994999800
 Min. memory needed in ccsd:                311547
 Max. memory used in ccsd:                  369090
 Max. memory used in cckext:                513448 (21 integral passes)



 **********************************************************************************************************************************
 DATASETS  * FILE   NREC   LENGTH (MB)   RECORD NAMES
              1      20      125.49       500      610      700      900      950      970     1000      129      960     1100   
                                          VAR    BASINP    GEOM    SYMINP    ZMAT    AOBASIS   BASIS     P2S    ABASIS      S 
                                         1400     1410     1200     1210     1080     1600     1650     1300     1700     1380   
                                           T        V       H0       H01     AOSYM     SMH    MOLCAS    ERIS     OPER     JKOP   

              2       4        2.94       700     1000      520     2100   
                                         GEOM     BASIS   MCVARS     RHF  

 PROGRAMS   *        TOTAL   CCSD(T)        HF       INT
 CPU TIMES  *         5.72      3.47      0.90      1.25
 REAL TIME  *         9.84 SEC
 DISK USED  *       327.55 MB      
 **********************************************************************************************************************************

 CCSD(T)/aug-cc-pVTZ energy=    -93.281001974112

        CCSD(T)         HF-SCF  
    -93.28100197    -92.90893306
 **********************************************************************************************************************************
 Molpro calculation terminated
 Variable memory released
