
 Primary working directories    : /tmp/r2666/232525.maple
 Secondary working directories  : /tmp/r2666/232525.maple
 Wavefunction directory         : /ddn/home4/r2666/wfu/
 Main file repository           : /tmp/r2666/232525.maple/

 SHA1      : d5ffa45e93fdbca01ffc919aa182cfdae0147319
 NAME      : 2015.1.35
 ARCHNAME  : linux/x86_64
 FC        : /opt/intel/composer_xe_2015.1.133/bin/intel64/ifort
 BLASLIB   : -Wl,-_start-group /opt/intel/mkl/lib/intel64/libmkl_intel_ilp64.a /opt/intel/mkl/lib/intel64/libmkl_intel_thread.a /opt/intel/mkl/lib/intel64/libmkl_core.a -Wl,-_end-group
 id        : olemiss

 Nodes     nprocs
 cn088        1

 Using customized tuning parameters: mindgm=1; mindgv=20; mindgc=4; mindgr=1; noblas=0; minvec=7
 default implementation of scratch files=df  

 ***,hcn CCSD(T)/TZ-F12 QFF
 memory, 995, m;
 gthresh,energy=1.d-12,zero=1.d-22,oneint=1.d-22,twoint=1.d-22;
 gthresh,optgrad=1.d-8,optstep=1.d-8;
 nocompress;
 geomtyp=xyz
 bohr
 geometry={
 3
         24        24
 N       -0.0045934186       -0.0000001558        1.1183539894
 C        0.0095638540        0.0000000040       -1.0604496830
 H       -0.0049704354        0.0000001518       -3.0549742884
 }
 
 basis=avtz
   {hf,maxit=500;accu,20;}
 {ccsd(t),nocheck,maxit=250;orbital,IGNORE_ERROR;}

 Variables initialized (889), CPU time= 0.01 sec
 Commands  initialized (702), CPU time= 0.00 sec, 572 directives.
 Default parameters read. Elapsed time= 0.04 sec

 Checking input...
 Passed
1


                                         ***  PROGRAM SYSTEM MOLPRO  ***
                                       Copyright, TTI GmbH Stuttgart, 2015
                                    Version 2015.1 linked Jul  9 2018 13:16:40


 **********************************************************************************************************************************
 LABEL *   hcn CCSD(T)/TZ-F12 QFF                                                        
  64 bit serial version                                                                  DATE: 06-Feb-20          TIME: 09:54:18  
 **********************************************************************************************************************************

 SHA1:             d5ffa45e93fdbca01ffc919aa182cfdae0147319
 **********************************************************************************************************************************

 THRESHOLDS:

 ZERO    =  1.00D-22  ONEINT  =  1.00D-22  TWOINT  =  1.00D-22  PREFAC  =  1.00D-14  LOCALI  =  1.00D-09  EORDER  =  1.00D-04
 ENERGY  =  1.00D-12  ETEST   =  0.00D+00  EDENS   =  0.00D+00  THRDEDEF=  1.00D-06  GRADIENT=  1.00D-02  STEP    =  1.00D-03
 ORBITAL =  1.00D-05  CIVEC   =  1.00D-05  COEFF   =  1.00D-04  PRINTCI =  5.00D-02  PUNCHCI =  9.90D+01  OPTGRAD =  3.00D-04
 OPTENERG=  1.00D-06  OPTSTEP =  3.00D-04  THRGRAD =  1.00D-10  COMPRESS=  1.00D-11  VARMIN  =  1.00D-07  VARMAX  =  1.00D-03
 THRDOUB =  0.00D+00  THRDIV  =  1.00D-05  THRRED  =  1.00D-07  THRPSP  =  1.00D+00  THRDC   =  1.00D-10  THRCS   =  1.00D-10
 THRNRM  =  1.00D-08  THREQ   =  0.00D+00  THRDE   =  1.00D+00  THRREF  =  1.00D-05  SPARFAC =  1.00D+00  THRDLP  =  1.00D-07
 THRDIA  =  1.00D-10  THRDLS  =  1.00D-07  THRGPS  =  0.00D+00  THRKEX  =  0.00D+00  THRDIS  =  2.00D-01  THRVAR  =  1.00D-10
 THRLOC  =  1.00D-06  THRGAP  =  1.00D-06  THRLOCT = -1.00D+00  THRGAPT = -1.00D+00  THRORB  =  1.00D-06  THRMLTP =  0.00D+00
 THRCPQCI=  1.00D-10  KEXTA   =  0.00D+00  THRCOARS=  0.00D+00  SYMTOL  =  1.00D-06  GRADTOL =  1.00D-06  THROVL  =  1.00D-08
 THRORTH =  1.00D-08  GRID    =  1.00D-06  GRIDMAX =  1.00D-03  DTMAX   =  0.00D+00  THROCCDE=  1.00D-01  THROCCDE=  1.00D-01



 THRESHOLDS:

 ZERO    =  1.00D-22  ONEINT  =  1.00D-22  TWOINT  =  1.00D-22  PREFAC  =  1.00D-14  LOCALI  =  1.00D-09  EORDER  =  1.00D-04
 ENERGY  =  1.00D-12  ETEST   =  0.00D+00  EDENS   =  0.00D+00  THRDEDEF=  1.00D-06  GRADIENT=  1.00D-02  STEP    =  1.00D-03
 ORBITAL =  1.00D-05  CIVEC   =  1.00D-05  COEFF   =  1.00D-04  PRINTCI =  5.00D-02  PUNCHCI =  9.90D+01  OPTGRAD =  1.00D-08
 OPTENERG=  1.00D-06  OPTSTEP =  1.00D-08  THRGRAD =  1.00D-10  COMPRESS=  1.00D-11  VARMIN  =  1.00D-07  VARMAX  =  1.00D-03
 THRDOUB =  0.00D+00  THRDIV  =  1.00D-05  THRRED  =  1.00D-07  THRPSP  =  1.00D+00  THRDC   =  1.00D-10  THRCS   =  1.00D-10
 THRNRM  =  1.00D-08  THREQ   =  0.00D+00  THRDE   =  1.00D+00  THRREF  =  1.00D-05  SPARFAC =  1.00D+00  THRDLP  =  1.00D-07
 THRDIA  =  1.00D-10  THRDLS  =  1.00D-07  THRGPS  =  0.00D+00  THRKEX  =  0.00D+00  THRDIS  =  2.00D-01  THRVAR  =  1.00D-10
 THRLOC  =  1.00D-06  THRGAP  =  1.00D-06  THRLOCT = -1.00D+00  THRGAPT = -1.00D+00  THRORB  =  1.00D-06  THRMLTP =  0.00D+00
 THRCPQCI=  1.00D-10  KEXTA   =  0.00D+00  THRCOARS=  0.00D+00  SYMTOL  =  1.00D-06  GRADTOL =  1.00D-06  THROVL  =  1.00D-08
 THRORTH =  1.00D-08  GRID    =  1.00D-06  GRIDMAX =  1.00D-03  DTMAX   =  0.00D+00  THROCCDE=  1.00D-01  THROCCDE=  1.00D-01



 Input parameters for SORTINT:

 COMPRESS =    0.000000
 C_FINAL  =    1.000000
 DEBUG    =   -1.000000
 C_SORT1  =    0.000000
 C_SEWARD =    0.000000
 THRESH   =    0.000000
 IO       =  molpro                                                          
 SPRI     =    0.000000
 SETTING GEOMTYP        =    XYZ
 ZUNIT=BOHR
 

 Variable memory set to  995000000 words,  buffer space   230000 words

 SETTING BASIS          =    AVTZ


 Recomputing integrals since basis changed


 Using spherical harmonics

 Library entry N      S aug-cc-pVTZ          selected for orbital group  1
 Library entry N      P aug-cc-pVTZ          selected for orbital group  1
 Library entry N      D aug-cc-pVTZ          selected for orbital group  1
 Library entry N      F aug-cc-pVTZ          selected for orbital group  1
 Library entry C      S aug-cc-pVTZ          selected for orbital group  2
 Library entry C      P aug-cc-pVTZ          selected for orbital group  2
 Library entry C      D aug-cc-pVTZ          selected for orbital group  2
 Library entry C      F aug-cc-pVTZ          selected for orbital group  2
 Library entry H      S aug-cc-pVTZ          selected for orbital group  3
 Library entry H      P aug-cc-pVTZ          selected for orbital group  3
 Library entry H      D aug-cc-pVTZ          selected for orbital group  3


 PROGRAM * SEWARD (Integral evaluation for generally contracted gaussian basis sets)     Author: Roland Lindh, 1990

 Geometry written to block  1 of record 700


 Point group  Cs  



 ATOMIC COORDINATES

 NR  ATOM    CHARGE       X              Y              Z

   1  N       7.00   -0.004593419    0.000000000    1.118353989
   2  C       6.00    0.009563854    0.000000000   -1.060449683
   3  H       1.00   -0.004970435    0.000000000   -3.054974288

 Bond lengths in Bohr (Angstrom)

 1-2  2.178849667  2-3  1.994577561
     ( 1.152997590)     ( 1.055484991)

 Bond angles

  1-2-3  179.21020050

 NUCLEAR CHARGE:                   14
 NUMBER OF PRIMITIVE AOS:         161
 NUMBER OF SYMMETRY AOS:          141
 NUMBER OF CONTRACTIONS:          115   (  76A'  +  39A"  )
 NUMBER OF CORE ORBITALS:           2   (   2A'  +   0A"  )
 NUMBER OF VALENCE ORBITALS:        9   (   7A'  +   2A"  )


 NUCLEAR REPULSION ENERGY   23.96170073

 Eigenvalues of metric

         1 0.846E-04 0.196E-03 0.604E-03 0.121E-02 0.138E-02 0.178E-02 0.226E-02 0.509E-02
         2 0.226E-02 0.510E-02 0.126E-01 0.158E-01 0.307E-01 0.381E-01 0.447E-01 0.800E-01


 Contracted 2-electron integrals neglected if value below      1.0D-22

       10788929. INTEGRALS WRITTEN OUT IN    2635 BLOCKS ON RECORD 1290 OF FILE 1


 NUMBER OF SORTED TWO-ELECTRON INTEGRALS:   11433631.     BUFFER LENGTH:  32768
 NUMBER OF SEGMENTS:   1  SEGMENT LENGTH:   11433631      RECORD LENGTH: 524288

 Memory used in sort:      11.99 MW

 SORT1 READ    10788929. AND WROTE    10942497. INTEGRALS IN     32 RECORDS. CPU TIME:     0.14 SEC, REAL TIME:     0.22 SEC
 SORT2 READ    10942497. AND WROTE    11433631. INTEGRALS IN      1 RECORDS. CPU TIME:     0.17 SEC, REAL TIME:     0.21 SEC

 FILE SIZES:   FILE 1:   193.0 MBYTE,  FILE 4:   134.3 MBYTE,   TOTAL:    327.2 MBYTE

 OPERATOR DM      FOR CENTER  0  COORDINATES:    0.000000    0.000000    0.000000


 **********************************************************************************************************************************
 DATASETS  * FILE   NREC   LENGTH (MB)   RECORD NAMES
              1      19      111.05       500      610      700      900      950      970     1000      129      960     1100   
                                          VAR    BASINP    GEOM    SYMINP    ZMAT    AOBASIS   BASIS     P2S    ABASIS      S 
                                         1400     1410     1200     1210     1080     1600     1650     1300     1700   
                                           T        V       H0       H01     AOSYM     SMH    MOLCAS    ERIS     OPER   

 PROGRAMS   *        TOTAL       INT
 CPU TIMES  *         1.30      1.21
 REAL TIME  *         2.00 SEC
 DISK USED  *       327.55 MB      
 **********************************************************************************************************************************


 PROGRAM * RHF-SCF (CLOSED SHELL)       Authors: W. Meyer, H.-J. Werner


 NUMBER OF ELECTRONS:       7+    7-
 CONVERGENCE THRESHOLDS:    1.00E-10 (Density)    1.00E-13 (Energy)
 MAX. NUMBER OF ITERATIONS:      500
 INTERPOLATION TYPE:            DIIS
 INTERPOLATION STEPS:              2 (START)      1 (STEP)
 LEVEL SHIFTS:                  0.00 (CLOSED)  0.00 (OPEN) 



 Orbital guess generated from atomic densities. Full valence occupancy:    9   2

 Molecular orbital dump at record        2100.2

 Initial occupancy:   6   1

 ITERATION    DDIFF          GRAD             ENERGY        2-EL.EN.            DIPOLE MOMENTS         DIIS   ORB.
    1      0.000D+00      0.000D+00       -92.88534688    111.995425    0.00686    0.00000   -1.76643    0    start
    2      0.000D+00      0.700D-02       -92.89430757    111.158399   -0.00235    0.00000   -0.90078    1    diag
    3      0.101D-01      0.626D-02       -92.90893069    111.681745    0.00146    0.00000   -1.30033    2    diag
    4      0.450D-02      0.518D-03       -92.90915807    111.642916    0.00114    0.00000   -1.29148    3    diag
    5      0.833D-03      0.113D-03       -92.90917105    111.653459    0.00104    0.00000   -1.29012    4    diag
    6      0.194D-03      0.308D-04       -92.90917185    111.648256    0.00103    0.00000   -1.29014    5    diag
    7      0.431D-04      0.110D-04       -92.90917193    111.649361    0.00102    0.00000   -1.29021    6    diag
    8      0.150D-04      0.213D-05       -92.90917193    111.649322    0.00102    0.00000   -1.29018    7    diag
    9      0.293D-05      0.244D-06       -92.90917193    111.649331    0.00102    0.00000   -1.29017    8    diag
   10      0.393D-06      0.293D-07       -92.90917193    111.649332    0.00102    0.00000   -1.29017    9    orth
   11      0.441D-07      0.522D-08       -92.90917193    111.649332    0.00102    0.00000   -1.29017    9    diag
   12      0.105D-07      0.217D-08       -92.90917193    111.649332    0.00102    0.00000   -1.29017    9    diag
   13      0.533D-08      0.874D-09       -92.90917193    111.649332    0.00102    0.00000   -1.29017    9    diag
   14      0.309D-08      0.229D-09       -92.90917193    111.649332    0.00102    0.00000   -1.29017    9    diag
   15      0.638D-09      0.892D-10       -92.90917193    111.649332    0.00102    0.00000   -1.29017    9    diag
   16      0.243D-09      0.131D-10       -92.90917193    111.649332    0.00102    0.00000   -1.29017    9    diag
   17      0.379D-10      0.257D-11       -92.90917193    111.649332    0.00102    0.00000   -1.29017    9    diag
   18      0.592D-11      0.989D-12       -92.90917193    111.649332    0.00102    0.00000   -1.29017    9    diag
   19      0.363D-11      0.219D-12       -92.90917193    111.649332    0.00102    0.00000   -1.29017    9    fixocc
   20      0.166D-11      0.729D-13       -92.90917193    111.649332    0.00102    0.00000   -1.29017    0    orth

 Final occupancy:   6   1

 !RHF STATE 1.1 Energy                -92.909171929515
 Nuclear energy                        23.96170073
 One-electron energy                 -172.69553861
 Two-electron energy                   55.82466595
 Virial quotient                       -1.00218169
 !RHF STATE 1.1 Dipole moment           0.00102288     0.00000000    -1.29017142
 Dipole moment /Debye                   0.00259974     0.00000000    -3.27907388

 Orbital energies:

         1.1          2.1          3.1          4.1          5.1          6.1          7.1          8.1
    -15.600236   -11.291563    -1.237377    -0.817159    -0.582563    -0.497102     0.023130     0.071699

         1.2          2.2          3.2
     -0.497104     0.072917     0.136203

 HOMO      6.1    -0.497102 =     -13.5268eV
 LUMO      7.1     0.023130 =       0.6294eV
 LUMO-HOMO         0.520232 =      14.1562eV


 **********************************************************************************************************************************
 DATASETS  * FILE   NREC   LENGTH (MB)   RECORD NAMES
              1      19      111.05       500      610      700      900      950      970     1000      129      960     1100   
                                          VAR    BASINP    GEOM    SYMINP    ZMAT    AOBASIS   BASIS     P2S    ABASIS      S 
                                         1400     1410     1200     1210     1080     1600     1650     1300     1700   
                                           T        V       H0       H01     AOSYM     SMH    MOLCAS    ERIS     OPER   

              2       4        2.94       700     1000      520     2100   
                                         GEOM     BASIS   MCVARS     RHF  

 PROGRAMS   *        TOTAL        HF       INT
 CPU TIMES  *         2.32      1.02      1.21
 REAL TIME  *         3.28 SEC
 DISK USED  *       327.55 MB      
 **********************************************************************************************************************************


 PROGRAM * CCSD (Closed-shell coupled cluster)     Authors: C. Hampel, H.-J. Werner, 1991, M. Deegan, P.J. Knowles, 1992


 Convergence thresholds:  THRVAR = 1.00D-08  THRDEN = 1.00D-12

 CCSD(T)     terms to be evaluated (factor= 1.000)


 Number of core orbitals:           2 (   2   0 )
 Number of closed-shell orbitals:   5 (   4   1 )
 Number of external orbitals:     108 (  70  38 )

 Molecular orbitals read from record     2100.2  Type=RHF/CANONICAL (state 1.1)

 Number of N-1 electron functions:               5
 Number of N-2 electron functions:              15
 Number of singly external CSFs:               318
 Number of doubly external CSFs:             75474
 Total number of CSFs:                       75793

 Length of J-op  integral file:               0.00 MB
 Length of K-op  integral file:               0.54 MB
 Length of 3-ext integral record:             0.00 MB

 Memory could be reduced to 5.36 Mwords without degradation in triples

 Integral transformation finished. Total CPU:   0.12 sec, npass=  1  Memory used:   1.45 MW

 Reference energy:                    -92.90917193

 MP2 singlet pair energy:              -0.22181595
 MP2 triplet pair energy:              -0.12830982
 MP2 correlation energy:               -0.35012577
 MP2 total energy:                    -93.25929770

 SCS-MP2 correlation energy:           -0.34601636   (PS=  1.200000  PT=  0.333333)
 SCS-MP2 total energy:                -93.25518829

 ITER.      SQ.NORM     CORR.ENERGY   TOTAL ENERGY   ENERGY CHANGE        DEN1      VAR(S)    VAR(P)  DIIS     TIME  TIME/IT
   1      1.11559555    -0.35266891   -93.26184084    -0.00254314     0.01011500  0.24D-02  0.30D-02  1  1     0.25     0.13
   2      1.12507640    -0.35305526   -93.26222719    -0.00038635    -0.00995462  0.52D-04  0.41D-03  2  2     0.35     0.13
   3      1.13008815    -0.35328715   -93.26245908    -0.00023189    -0.00249492  0.15D-04  0.41D-04  3  3     0.48     0.13
   4      1.13219837    -0.35337736   -93.26254929    -0.00009021    -0.00075410  0.48D-06  0.44D-05  4  4     0.60     0.13
   5      1.13267796    -0.35337443   -93.26254636     0.00000293    -0.00013196  0.88D-07  0.40D-06  5  5     0.72     0.13
   6      1.13277925    -0.35337230   -93.26254423     0.00000213    -0.00002677  0.86D-08  0.30D-07  6  6     0.85     0.13
   7      1.13278676    -0.35337429   -93.26254622    -0.00000199    -0.00000222  0.94D-09  0.27D-08  6  1     0.98     0.13
   8      1.13278694    -0.35337483   -93.26254676    -0.00000054     0.00000054  0.73D-10  0.21D-09  6  2     1.10     0.13
   9      1.13278736    -0.35337489   -93.26254682    -0.00000006    -0.00000028  0.11D-10  0.14D-10  6  3     1.23     0.13
  10      1.13278727    -0.35337492   -93.26254685    -0.00000003     0.00000008  0.11D-11  0.13D-11  6  4     1.35     0.13
  11      1.13278719    -0.35337493   -93.26254686    -0.00000001     0.00000003  0.20D-12  0.13D-12  6  5     1.46     0.13
  12      1.13278710    -0.35337494   -93.26254687    -0.00000000     0.00000003  0.21D-13  0.14D-13  6  1     1.58     0.13
  13      1.13278707    -0.35337494   -93.26254687    -0.00000000     0.00000001  0.20D-14  0.12D-14  6  6     1.69     0.14
  14      1.13278706    -0.35337494   -93.26254687    -0.00000000     0.00000000  0.62D-15  0.22D-15  6  2     1.82     0.14
  15      1.13278706    -0.35337494   -93.26254687     0.00000000     0.00000000  0.62D-16  0.41D-16  6  3     1.94     0.14
  16      1.13278706    -0.35337494   -93.26254687     0.00000000    -0.00000000  0.86D-17  0.54D-17  6  4     2.05     0.14
  17      1.13278706    -0.35337494   -93.26254687     0.00000000    -0.00000000  0.12D-17  0.63D-18  6  5     2.16     0.14
  18      1.13278706    -0.35337494   -93.26254687     0.00000000    -0.00000000  0.22D-18  0.10D-18  6  6     2.29     0.14
  19      1.13278706    -0.35337494   -93.26254687    -0.00000000     0.00000000  0.37D-19  0.16D-19  6  1     2.40     0.14
  20      1.13278706    -0.35337494   -93.26254687    -0.00000000     0.00000000  0.66D-20  0.31D-20  6  2     2.53     0.14
  21      1.13278706    -0.35337494   -93.26254687    -0.00000000     0.00000000  0.30D-21  0.40D-21  6  4     2.65     0.14

 Norm of t1 vector:      0.06351630      S-energy:    -0.00000000      T1 diagnostic:  0.01420268
                                                                       D1 diagnostic:  0.02820367


 Total CPU time for triples:      0.70 sec


 RESULTS
 =======

  Reference energy                    -92.909171929515
  CCSD singlet pair energy             -0.245978075045
  CCSD triplet pair energy             -0.107396866070
  CCSD correlation energy              -0.353374941115

  Triples (T) contribution             -0.018412943145
  Total correlation energy             -0.371787884260

  CCSD total energy                   -93.262546870630
  CCSD[T] energy                      -93.281756205911
  CCSD-T energy                       -93.280565705690
 !CCSD(T) total energy                -93.280959813775

 Timing summary (sec):

 STEP                 CPU(USER)    SYS     CPU(TOT)    WALL
 Transformation          0.12      0.03      0.15      0.15
 CCSD iterations         2.53      0.34      2.87      2.86
 Triples                 0.70      0.02      0.72      0.73

 Program statistics:

 Available memory in ccsd:               994999800
 Min. memory needed in ccsd:                311547
 Max. memory used in ccsd:                  369090
 Max. memory used in cckext:                513448 (21 integral passes)



 **********************************************************************************************************************************
 DATASETS  * FILE   NREC   LENGTH (MB)   RECORD NAMES
              1      20      125.49       500      610      700      900      950      970     1000      129      960     1100   
                                          VAR    BASINP    GEOM    SYMINP    ZMAT    AOBASIS   BASIS     P2S    ABASIS      S 
                                         1400     1410     1200     1210     1080     1600     1650     1300     1700     1380   
                                           T        V       H0       H01     AOSYM     SMH    MOLCAS    ERIS     OPER     JKOP   

              2       4        2.94       700     1000      520     2100   
                                         GEOM     BASIS   MCVARS     RHF  

 PROGRAMS   *        TOTAL   CCSD(T)        HF       INT
 CPU TIMES  *         5.69      3.37      1.02      1.21
 REAL TIME  *         7.06 SEC
 DISK USED  *       327.55 MB      
 **********************************************************************************************************************************

 CCSD(T)/aug-cc-pVTZ energy=    -93.280959813775

        CCSD(T)         HF-SCF  
    -93.28095981    -92.90917193
 **********************************************************************************************************************************
 Molpro calculation terminated
 Variable memory released
