
 Primary working directories    : /tmp/r2666/282550.maple
 Secondary working directories  : /tmp/r2666/282550.maple
 Wavefunction directory         : /ddn/home4/r2666/wfu/
 Main file repository           : /tmp/r2666/282550.maple/

 SHA1      : d5ffa45e93fdbca01ffc919aa182cfdae0147319
 NAME      : 2015.1.35
 ARCHNAME  : linux/x86_64
 FC        : /opt/intel/composer_xe_2015.1.133/bin/intel64/ifort
 BLASLIB   : -Wl,-_start-group /opt/intel/mkl/lib/intel64/libmkl_intel_ilp64.a /opt/intel/mkl/lib/intel64/libmkl_intel_thread.a /opt/intel/mkl/lib/intel64/libmkl_core.a -Wl,-_end-group
 id        : olemiss

 Nodes     nprocs
 cn075        1

 Using customized tuning parameters: mindgm=1; mindgv=20; mindgc=4; mindgr=1; noblas=0; minvec=7
 default implementation of scratch files=df  

 ***,hno CCSD(T)/TZ-F12 QFF
 memory, 995, m;
 gthresh,energy=1.d-12,zero=1.d-22,oneint=1.d-22,twoint=1.d-22;
 gthresh,optgrad=1.d-8,optstep=1.d-8;
 nocompress;
 geomtyp=xyz
 bohr
 geometry={
 3
         60        60
 H        0.0000000000        1.6664471488       -1.9340934463
 N        0.0000000000       -0.1565134683       -1.1408831287
 O        0.0000000000        0.0318341095        1.1243869840
 }
 
 basis=vtz-dk
 dkroll=0
   {hf,maxit=500;accu,20;}
 {ccsd(t),nocheck,maxit=250;orbital,IGNORE_ERROR;}

 Variables initialized (889), CPU time= 0.01 sec
 Commands  initialized (702), CPU time= 0.01 sec, 572 directives.
 Default parameters read. Elapsed time= 0.06 sec

 Checking input...
 Passed
1


                                         ***  PROGRAM SYSTEM MOLPRO  ***
                                       Copyright, TTI GmbH Stuttgart, 2015
                                    Version 2015.1 linked Jul  9 2018 13:16:40


 **********************************************************************************************************************************
 LABEL *   hno CCSD(T)/TZ-F12 QFF                                                        
  64 bit serial version                                                                  DATE: 04-Mar-20          TIME: 13:50:55  
 **********************************************************************************************************************************

 SHA1:             d5ffa45e93fdbca01ffc919aa182cfdae0147319
 **********************************************************************************************************************************

 THRESHOLDS:

 ZERO    =  1.00D-22  ONEINT  =  1.00D-22  TWOINT  =  1.00D-22  PREFAC  =  1.00D-14  LOCALI  =  1.00D-09  EORDER  =  1.00D-04
 ENERGY  =  1.00D-12  ETEST   =  0.00D+00  EDENS   =  0.00D+00  THRDEDEF=  1.00D-06  GRADIENT=  1.00D-02  STEP    =  1.00D-03
 ORBITAL =  1.00D-05  CIVEC   =  1.00D-05  COEFF   =  1.00D-04  PRINTCI =  5.00D-02  PUNCHCI =  9.90D+01  OPTGRAD =  3.00D-04
 OPTENERG=  1.00D-06  OPTSTEP =  3.00D-04  THRGRAD =  1.00D-10  COMPRESS=  1.00D-11  VARMIN  =  1.00D-07  VARMAX  =  1.00D-03
 THRDOUB =  0.00D+00  THRDIV  =  1.00D-05  THRRED  =  1.00D-07  THRPSP  =  1.00D+00  THRDC   =  1.00D-10  THRCS   =  1.00D-10
 THRNRM  =  1.00D-08  THREQ   =  0.00D+00  THRDE   =  1.00D+00  THRREF  =  1.00D-05  SPARFAC =  1.00D+00  THRDLP  =  1.00D-07
 THRDIA  =  1.00D-10  THRDLS  =  1.00D-07  THRGPS  =  0.00D+00  THRKEX  =  0.00D+00  THRDIS  =  2.00D-01  THRVAR  =  1.00D-10
 THRLOC  =  1.00D-06  THRGAP  =  1.00D-06  THRLOCT = -1.00D+00  THRGAPT = -1.00D+00  THRORB  =  1.00D-06  THRMLTP =  0.00D+00
 THRCPQCI=  1.00D-10  KEXTA   =  0.00D+00  THRCOARS=  0.00D+00  SYMTOL  =  1.00D-06  GRADTOL =  1.00D-06  THROVL  =  1.00D-08
 THRORTH =  1.00D-08  GRID    =  1.00D-06  GRIDMAX =  1.00D-03  DTMAX   =  0.00D+00  THROCCDE=  1.00D-01  THROCCDE=  1.00D-01



 THRESHOLDS:

 ZERO    =  1.00D-22  ONEINT  =  1.00D-22  TWOINT  =  1.00D-22  PREFAC  =  1.00D-14  LOCALI  =  1.00D-09  EORDER  =  1.00D-04
 ENERGY  =  1.00D-12  ETEST   =  0.00D+00  EDENS   =  0.00D+00  THRDEDEF=  1.00D-06  GRADIENT=  1.00D-02  STEP    =  1.00D-03
 ORBITAL =  1.00D-05  CIVEC   =  1.00D-05  COEFF   =  1.00D-04  PRINTCI =  5.00D-02  PUNCHCI =  9.90D+01  OPTGRAD =  1.00D-08
 OPTENERG=  1.00D-06  OPTSTEP =  1.00D-08  THRGRAD =  1.00D-10  COMPRESS=  1.00D-11  VARMIN  =  1.00D-07  VARMAX  =  1.00D-03
 THRDOUB =  0.00D+00  THRDIV  =  1.00D-05  THRRED  =  1.00D-07  THRPSP  =  1.00D+00  THRDC   =  1.00D-10  THRCS   =  1.00D-10
 THRNRM  =  1.00D-08  THREQ   =  0.00D+00  THRDE   =  1.00D+00  THRREF  =  1.00D-05  SPARFAC =  1.00D+00  THRDLP  =  1.00D-07
 THRDIA  =  1.00D-10  THRDLS  =  1.00D-07  THRGPS  =  0.00D+00  THRKEX  =  0.00D+00  THRDIS  =  2.00D-01  THRVAR  =  1.00D-10
 THRLOC  =  1.00D-06  THRGAP  =  1.00D-06  THRLOCT = -1.00D+00  THRGAPT = -1.00D+00  THRORB  =  1.00D-06  THRMLTP =  0.00D+00
 THRCPQCI=  1.00D-10  KEXTA   =  0.00D+00  THRCOARS=  0.00D+00  SYMTOL  =  1.00D-06  GRADTOL =  1.00D-06  THROVL  =  1.00D-08
 THRORTH =  1.00D-08  GRID    =  1.00D-06  GRIDMAX =  1.00D-03  DTMAX   =  0.00D+00  THROCCDE=  1.00D-01  THROCCDE=  1.00D-01



 Input parameters for SORTINT:

 COMPRESS =    0.000000
 C_FINAL  =    1.000000
 DEBUG    =   -1.000000
 C_SORT1  =    0.000000
 C_SEWARD =    0.000000
 THRESH   =    0.000000
 IO       =  molpro                                                          
 SPRI     =    0.000000
 SETTING GEOMTYP        =    XYZ
 ZUNIT=BOHR
 

 Variable memory set to  995000000 words,  buffer space   230000 words

 SETTING BASIS          =    VTZ-DK
 SETTING DKROLL         =     0.00000000D+00                                  


 Recomputing integrals since basis changed


 Using spherical harmonics

 Library entry H      S cc-pVTZ-DK           selected for orbital group  1
 Library entry H      P cc-pVTZ-DK           selected for orbital group  1
 Library entry H      D cc-pVTZ-DK           selected for orbital group  1
 Library entry N      S cc-pVTZ-DK           selected for orbital group  2
 Library entry N      P cc-pVTZ-DK           selected for orbital group  2
 Library entry N      D cc-pVTZ-DK           selected for orbital group  2
 Library entry N      F cc-pVTZ-DK           selected for orbital group  2
 Library entry O      S cc-pVTZ-DK           selected for orbital group  3
 Library entry O      P cc-pVTZ-DK           selected for orbital group  3
 Library entry O      D cc-pVTZ-DK           selected for orbital group  3
 Library entry O      F cc-pVTZ-DK           selected for orbital group  3


 PROGRAM * SEWARD (Integral evaluation for generally contracted gaussian basis sets)     Author: Roland Lindh, 1990

 Geometry written to block  1 of record 700


 Point group  Cs  



 ATOMIC COORDINATES

 NR  ATOM    CHARGE       X              Y              Z

   1  H       1.00    0.000000000    1.666447149   -1.934093446
   2  N       7.00    0.000000000   -0.156513468   -1.140883129
   3  O       8.00    0.000000000    0.031834109    1.124386984

 Bond lengths in Bohr (Angstrom)

 1-2  1.988056342  2-3  2.273086777
     ( 1.052034110)     ( 1.202865721)

 Bond angles

  1-2-3  108.76195128

 NUCLEAR CHARGE:                   16
 NUMBER OF PRIMITIVE AOS:         111
 NUMBER OF SYMMETRY AOS:          100
 NUMBER OF CONTRACTIONS:           74   (  50A'  +  24A"  )
 NUMBER OF CORE ORBITALS:           2   (   2A'  +   0A"  )
 NUMBER OF VALENCE ORBITALS:        9   (   7A'  +   2A"  )


 NUCLEAR REPULSION ENERGY   30.46400811

 Eigenvalues of metric

         1 0.243E-02 0.395E-02 0.408E-02 0.834E-02 0.130E-01 0.324E-01 0.423E-01 0.463E-01
         2 0.341E-01 0.464E-01 0.101E+00 0.111E+00 0.233E+00 0.342E+00 0.393E+00 0.448E+00


 Contracted 2-electron integrals neglected if value below      1.0D-22

        1874283. INTEGRALS WRITTEN OUT IN     458 BLOCKS ON RECORD 1290 OF FILE 1


 NUMBER OF SORTED TWO-ELECTRON INTEGRALS:    2006100.     BUFFER LENGTH:  32768
 NUMBER OF SEGMENTS:   1  SEGMENT LENGTH:    2006100      RECORD LENGTH: 524288

 Memory used in sort:       2.56 MW

 SORT1 READ     1874283. AND WROTE     1914195. INTEGRALS IN      6 RECORDS. CPU TIME:     0.03 SEC, REAL TIME:     0.04 SEC
 SORT2 READ     1914195. AND WROTE     2006100. INTEGRALS IN      1 RECORDS. CPU TIME:     0.05 SEC, REAL TIME:     0.05 SEC

 FILE SIZES:   FILE 1:    50.1 MBYTE,  FILE 4:    25.2 MBYTE,   TOTAL:     75.3 MBYTE

 OPERATOR DM      FOR CENTER  0  COORDINATES:    0.000000    0.000000    0.000000


 **********************************************************************************************************************************
 DATASETS  * FILE   NREC   LENGTH (MB)   RECORD NAMES
              1      19       35.89       500      610      700      900      950      970     1000      129      960     1100   
                                          VAR    BASINP    GEOM    SYMINP    ZMAT    AOBASIS   BASIS     P2S    ABASIS      S 
                                         1400     1410     1200     1210     1080     1600     1650     1300     1700   
                                           T        V       H0       H01     AOSYM     SMH    MOLCAS    ERIS     OPER   

 PROGRAMS   *        TOTAL       INT
 CPU TIMES  *         0.64      0.51
 REAL TIME  *         1.22 SEC
 DISK USED  *        75.59 MB      
 **********************************************************************************************************************************


 PROGRAM * RHF-SCF (CLOSED SHELL)       Authors: W. Meyer, H.-J. Werner


 NUMBER OF ELECTRONS:       8+    8-
 CONVERGENCE THRESHOLDS:    1.00E-10 (Density)    1.00E-13 (Energy)
 MAX. NUMBER OF ITERATIONS:      500
 INTERPOLATION TYPE:            DIIS
 INTERPOLATION STEPS:              2 (START)      1 (STEP)
 LEVEL SHIFTS:                  0.00 (CLOSED)  0.00 (OPEN) 



 Orbital guess generated from atomic densities. Full valence occupancy:    9   2

 Molecular orbital dump at record        2100.2

 Initial occupancy:   7   1

 ITERATION    DDIFF          GRAD             ENERGY        2-EL.EN.            DIPOLE MOMENTS         DIIS   ORB.
    1      0.000D+00      0.000D+00      -129.78170948    154.302062    0.00000    0.59317   -1.02344    0    start
    2      0.000D+00      0.135D-01      -129.80874625    155.465483    0.00000    0.61189   -0.22950    1    diag
    3      0.184D-01      0.101D-01      -129.82999473    155.573589    0.00000    0.56345   -0.59701    2    diag
    4      0.886D-02      0.156D-02      -129.83072690    155.309706    0.00000    0.57174   -0.53797    3    diag
    5      0.166D-02      0.512D-03      -129.83083994    155.395208    0.00000    0.57717   -0.53929    4    diag
    6      0.714D-03      0.152D-03      -129.83085847    155.380551    0.00000    0.57775   -0.53520    5    diag
    7      0.276D-03      0.756D-04      -129.83086382    155.382876    0.00000    0.57900   -0.53278    6    diag
    8      0.190D-03      0.239D-04      -129.83086431    155.382213    0.00000    0.57902   -0.53200    7    diag
    9      0.625D-04      0.435D-05      -129.83086433    155.382100    0.00000    0.57897   -0.53185    8    diag
   10      0.121D-04      0.974D-06      -129.83086433    155.382082    0.00000    0.57893   -0.53182    9    orth
   11      0.278D-05      0.191D-06      -129.83086433    155.382078    0.00000    0.57893   -0.53182    9    diag
   12      0.508D-06      0.392D-07      -129.83086433    155.382077    0.00000    0.57892   -0.53182    9    diag
   13      0.109D-06      0.964D-08      -129.83086433    155.382076    0.00000    0.57892   -0.53182    9    diag
   14      0.271D-07      0.176D-08      -129.83086433    155.382076    0.00000    0.57892   -0.53182    9    diag
   15      0.442D-08      0.458D-09      -129.83086433    155.382076    0.00000    0.57892   -0.53182    9    diag
   16      0.106D-08      0.115D-09      -129.83086433    155.382076    0.00000    0.57892   -0.53182    9    diag
   17      0.195D-09      0.327D-10      -129.83086433    155.382076    0.00000    0.57892   -0.53182    9    diag
   18      0.611D-10      0.110D-10      -129.83086433    155.382076    0.00000    0.57892   -0.53182    0    orth

 Final occupancy:   7   1

 !RHF STATE 1.1 Energy               -129.830864329089
 Nuclear energy                        30.46400811
 One-electron energy                 -237.98591059
 Two-electron energy                   77.69103815
 Virial quotient                       -0.99954005
 !RHF STATE 1.1 Dipole moment           0.00000000     0.57892456    -0.53181874
 Dipole moment /Debye                   0.00000000     1.47138307    -1.35165988

 Orbital energies:

         1.1          2.1          3.1          4.1          5.1          6.1          7.1          8.1          9.1
    -20.647555   -15.706801    -1.529794    -0.990133    -0.744706    -0.663535    -0.424920     0.144249     0.370730

         1.2          2.2          3.2
     -0.594473     0.088145     0.612465

 HOMO      7.1    -0.424920 =     -11.5627eV
 LUMO      2.2     0.088145 =       2.3986eV
 LUMO-HOMO         0.513065 =      13.9612eV


 **********************************************************************************************************************************
 DATASETS  * FILE   NREC   LENGTH (MB)   RECORD NAMES
              1      19       35.89       500      610      700      900      950      970     1000      129      960     1100   
                                          VAR    BASINP    GEOM    SYMINP    ZMAT    AOBASIS   BASIS     P2S    ABASIS      S 
                                         1400     1410     1200     1210     1080     1600     1650     1300     1700   
                                           T        V       H0       H01     AOSYM     SMH    MOLCAS    ERIS     OPER   

              2       4        2.85       700     1000      520     2100   
                                         GEOM     BASIS   MCVARS     RHF  

 PROGRAMS   *        TOTAL        HF       INT
 CPU TIMES  *         0.83      0.19      0.51
 REAL TIME  *         1.49 SEC
 DISK USED  *        75.59 MB      
 **********************************************************************************************************************************


 PROGRAM * CCSD (Closed-shell coupled cluster)     Authors: C. Hampel, H.-J. Werner, 1991, M. Deegan, P.J. Knowles, 1992


 Convergence thresholds:  THRVAR = 1.00D-08  THRDEN = 1.00D-12

 CCSD(T)     terms to be evaluated (factor= 1.000)


 Number of core orbitals:           2 (   2   0 )
 Number of closed-shell orbitals:   6 (   5   1 )
 Number of external orbitals:      66 (  43  23 )

 Molecular orbitals read from record     2100.2  Type=RHF/CANONICAL (state 1.1)

 Number of N-1 electron functions:               6
 Number of N-2 electron functions:              21
 Number of singly external CSFs:               238
 Number of doubly external CSFs:             41002
 Total number of CSFs:                       41241

 Length of J-op  integral file:               0.00 MB
 Length of K-op  integral file:               0.25 MB
 Length of 3-ext integral record:             0.00 MB

 Memory could be reduced to 1.65 Mwords without degradation in triples

 Integral transformation finished. Total CPU:   0.03 sec, npass=  1  Memory used:   0.55 MW

 Reference energy:                   -129.83086433

 MP2 singlet pair energy:              -0.27302686
 MP2 triplet pair energy:              -0.16206976
 MP2 correlation energy:               -0.43509662
 MP2 total energy:                   -130.26596095

 SCS-MP2 correlation energy:           -0.42847564   (PS=  1.200000  PT=  0.333333)
 SCS-MP2 total energy:               -130.25933997

 ITER.      SQ.NORM     CORR.ENERGY   TOTAL ENERGY   ENERGY CHANGE        DEN1      VAR(S)    VAR(P)  DIIS     TIME  TIME/IT
   1      1.11787519    -0.44043013  -130.27129446    -0.00533351     0.01022770  0.29D-02  0.29D-02  1  1     0.06     0.04
   2      1.12859568    -0.44072699  -130.27159132    -0.00029686    -0.01214980  0.85D-04  0.50D-03  2  2     0.09     0.04
   3      1.13477560    -0.44110607  -130.27197040    -0.00037908    -0.00294262  0.46D-04  0.50D-04  3  3     0.13     0.04
   4      1.13752512    -0.44113153  -130.27199586    -0.00002546    -0.00094278  0.39D-05  0.88D-05  4  4     0.17     0.04
   5      1.13849823    -0.44116014  -130.27202447    -0.00002861    -0.00020136  0.13D-05  0.17D-05  5  5     0.20     0.04
   6      1.13885301    -0.44114419  -130.27200852     0.00001595    -0.00004001  0.96D-07  0.41D-06  6  6     0.24     0.04
   7      1.13893980    -0.44114612  -130.27201045    -0.00000193    -0.00000235  0.12D-07  0.87D-07  6  1     0.26     0.04
   8      1.13897038    -0.44114620  -130.27201053    -0.00000008     0.00000191  0.45D-08  0.10D-07  6  2     0.30     0.04
   9      1.13897809    -0.44114599  -130.27201032     0.00000021    -0.00000226  0.25D-08  0.11D-08  6  3     0.34     0.04
  10      1.13897684    -0.44114650  -130.27201082    -0.00000050     0.00000060  0.49D-09  0.20D-09  6  4     0.38     0.04
  11      1.13897510    -0.44114655  -130.27201088    -0.00000006     0.00000020  0.15D-09  0.23D-10  6  5     0.41     0.04
  12      1.13897371    -0.44114673  -130.27201106    -0.00000017     0.00000043  0.16D-10  0.75D-11  6  6     0.44     0.04
  13      1.13897310    -0.44114674  -130.27201107    -0.00000001     0.00000012  0.67D-11  0.12D-11  6  1     0.48     0.04
  14      1.13897272    -0.44114676  -130.27201108    -0.00000002     0.00000008  0.93D-12  0.43D-12  6  2     0.52     0.04
  15      1.13897258    -0.44114676  -130.27201109    -0.00000000     0.00000001  0.23D-12  0.14D-12  6  3     0.55     0.04
  16      1.13897248    -0.44114676  -130.27201109    -0.00000000     0.00000001  0.26D-13  0.16D-13  6  5     0.59     0.04
  17      1.13897245    -0.44114676  -130.27201109    -0.00000000     0.00000000  0.79D-15  0.22D-14  6  4     0.63     0.04
  18      1.13897245    -0.44114676  -130.27201109     0.00000000    -0.00000000  0.51D-15  0.32D-15  6  1     0.67     0.04
  19      1.13897245    -0.44114676  -130.27201109    -0.00000000     0.00000000  0.47D-16  0.57D-16  6  6     0.71     0.04
  20      1.13897245    -0.44114676  -130.27201109    -0.00000000     0.00000000  0.10D-16  0.14D-16  6  2     0.75     0.04
  21      1.13897245    -0.44114676  -130.27201109    -0.00000000     0.00000000  0.19D-17  0.11D-17  6  5     0.79     0.04
  22      1.13897245    -0.44114676  -130.27201109     0.00000000     0.00000000  0.11D-18  0.79D-19  6  3     0.83     0.04
  23      1.13897245    -0.44114676  -130.27201109     0.00000000    -0.00000000  0.30D-19  0.17D-19  6  4     0.86     0.04
  24      1.13897245    -0.44114676  -130.27201109     0.00000000    -0.00000000  0.45D-20  0.47D-20  6  1     0.90     0.04
  25      1.13897245    -0.44114676  -130.27201109     0.00000000    -0.00000000  0.53D-21  0.82D-21  6  6     0.96     0.04

 Norm of t1 vector:      0.07438151      S-energy:     0.00000000      T1 diagnostic:  0.01518306
                                                                       D1 diagnostic:  0.04183602

 Doubles amplitudes (print threshold =  0.500E-01):

         I         J         SYM. A    SYM. B    A         B      T(IJ, AB)

         6         6         2         2         1         1     -0.14236320


 Total CPU time for triples:      0.25 sec


 RESULTS
 =======

  Reference energy                   -129.830864329089
  CCSD singlet pair energy             -0.302360671573
  CCSD triplet pair energy             -0.138786088441
  CCSD correlation energy              -0.441146760013

  Triples (T) contribution             -0.019618058226
  Total correlation energy             -0.460764818238

  CCSD total energy                  -130.272011089101
  CCSD[T] energy                     -130.292627893110
  CCSD-T energy                      -130.291236299969
 !CCSD(T) total energy               -130.291629147327

 Timing summary (sec):

 STEP                 CPU(USER)    SYS     CPU(TOT)    WALL
 Transformation          0.03      0.01      0.04      0.03
 CCSD iterations         0.93      0.11      1.04      1.07
 Triples                 0.25      0.01      0.26      0.25

 Program statistics:

 Available memory in ccsd:               994999756
 Min. memory needed in ccsd:                154850
 Max. memory used in ccsd:                  184802
 Max. memory used in cckext:                238416 (25 integral passes)



 **********************************************************************************************************************************
 DATASETS  * FILE   NREC   LENGTH (MB)   RECORD NAMES
              1      20       40.28       500      610      700      900      950      970     1000      129      960     1100   
                                          VAR    BASINP    GEOM    SYMINP    ZMAT    AOBASIS   BASIS     P2S    ABASIS      S 
                                         1400     1410     1200     1210     1080     1600     1650     1300     1700     1380   
                                           T        V       H0       H01     AOSYM     SMH    MOLCAS    ERIS     OPER     JKOP   

              2       4        2.85       700     1000      520     2100   
                                         GEOM     BASIS   MCVARS     RHF  

 PROGRAMS   *        TOTAL   CCSD(T)        HF       INT
 CPU TIMES  *         2.08      1.25      0.19      0.51
 REAL TIME  *         2.87 SEC
 DISK USED  *        75.59 MB      
 **********************************************************************************************************************************

 CCSD(T)/cc-pVTZ-DK energy=   -130.291629147327

        CCSD(T)         HF-SCF  
   -130.29162915   -129.83086433
 **********************************************************************************************************************************
 Molpro calculation terminated
 Variable memory released
