
 Primary working directories    : /tmp/r2666/282533.maple
 Secondary working directories  : /tmp/r2666/282533.maple
 Wavefunction directory         : /ddn/home4/r2666/wfu/
 Main file repository           : /tmp/r2666/282533.maple/

 SHA1      : d5ffa45e93fdbca01ffc919aa182cfdae0147319
 NAME      : 2015.1.35
 ARCHNAME  : linux/x86_64
 FC        : /opt/intel/composer_xe_2015.1.133/bin/intel64/ifort
 BLASLIB   : -Wl,-_start-group /opt/intel/mkl/lib/intel64/libmkl_intel_ilp64.a /opt/intel/mkl/lib/intel64/libmkl_intel_thread.a /opt/intel/mkl/lib/intel64/libmkl_core.a -Wl,-_end-group
 id        : olemiss

 Nodes     nprocs
 cn093        1

 Using customized tuning parameters: mindgm=1; mindgv=20; mindgc=4; mindgr=1; noblas=0; minvec=7
 default implementation of scratch files=df  

 ***,hno CCSD(T)/TZ-F12 QFF
 memory, 995, m;
 gthresh,energy=1.d-12,zero=1.d-22,oneint=1.d-22,twoint=1.d-22;
 gthresh,optgrad=1.d-8,optstep=1.d-8;
 nocompress;
 geomtyp=xyz
 bohr
 geometry={
 3
         43        43
 H        0.0000000000        1.6639076473       -1.9299389204
 N        0.0000000000       -0.1574785329       -1.1569959334
 O        0.0000000000        0.0353386756        1.1363452627
 }
 
 basis=vtz-dk
 dkroll=0
   {hf,maxit=500;accu,20;}
 {ccsd(t),nocheck,maxit=250;orbital,IGNORE_ERROR;}

 Variables initialized (889), CPU time= 0.00 sec
 Commands  initialized (702), CPU time= 0.01 sec, 572 directives.
 Default parameters read. Elapsed time= 0.04 sec

 Checking input...
 Passed
1


                                         ***  PROGRAM SYSTEM MOLPRO  ***
                                       Copyright, TTI GmbH Stuttgart, 2015
                                    Version 2015.1 linked Jul  9 2018 13:16:40


 **********************************************************************************************************************************
 LABEL *   hno CCSD(T)/TZ-F12 QFF                                                        
  64 bit serial version                                                                  DATE: 04-Mar-20          TIME: 13:50:52  
 **********************************************************************************************************************************

 SHA1:             d5ffa45e93fdbca01ffc919aa182cfdae0147319
 **********************************************************************************************************************************

 THRESHOLDS:

 ZERO    =  1.00D-22  ONEINT  =  1.00D-22  TWOINT  =  1.00D-22  PREFAC  =  1.00D-14  LOCALI  =  1.00D-09  EORDER  =  1.00D-04
 ENERGY  =  1.00D-12  ETEST   =  0.00D+00  EDENS   =  0.00D+00  THRDEDEF=  1.00D-06  GRADIENT=  1.00D-02  STEP    =  1.00D-03
 ORBITAL =  1.00D-05  CIVEC   =  1.00D-05  COEFF   =  1.00D-04  PRINTCI =  5.00D-02  PUNCHCI =  9.90D+01  OPTGRAD =  3.00D-04
 OPTENERG=  1.00D-06  OPTSTEP =  3.00D-04  THRGRAD =  1.00D-10  COMPRESS=  1.00D-11  VARMIN  =  1.00D-07  VARMAX  =  1.00D-03
 THRDOUB =  0.00D+00  THRDIV  =  1.00D-05  THRRED  =  1.00D-07  THRPSP  =  1.00D+00  THRDC   =  1.00D-10  THRCS   =  1.00D-10
 THRNRM  =  1.00D-08  THREQ   =  0.00D+00  THRDE   =  1.00D+00  THRREF  =  1.00D-05  SPARFAC =  1.00D+00  THRDLP  =  1.00D-07
 THRDIA  =  1.00D-10  THRDLS  =  1.00D-07  THRGPS  =  0.00D+00  THRKEX  =  0.00D+00  THRDIS  =  2.00D-01  THRVAR  =  1.00D-10
 THRLOC  =  1.00D-06  THRGAP  =  1.00D-06  THRLOCT = -1.00D+00  THRGAPT = -1.00D+00  THRORB  =  1.00D-06  THRMLTP =  0.00D+00
 THRCPQCI=  1.00D-10  KEXTA   =  0.00D+00  THRCOARS=  0.00D+00  SYMTOL  =  1.00D-06  GRADTOL =  1.00D-06  THROVL  =  1.00D-08
 THRORTH =  1.00D-08  GRID    =  1.00D-06  GRIDMAX =  1.00D-03  DTMAX   =  0.00D+00  THROCCDE=  1.00D-01  THROCCDE=  1.00D-01



 THRESHOLDS:

 ZERO    =  1.00D-22  ONEINT  =  1.00D-22  TWOINT  =  1.00D-22  PREFAC  =  1.00D-14  LOCALI  =  1.00D-09  EORDER  =  1.00D-04
 ENERGY  =  1.00D-12  ETEST   =  0.00D+00  EDENS   =  0.00D+00  THRDEDEF=  1.00D-06  GRADIENT=  1.00D-02  STEP    =  1.00D-03
 ORBITAL =  1.00D-05  CIVEC   =  1.00D-05  COEFF   =  1.00D-04  PRINTCI =  5.00D-02  PUNCHCI =  9.90D+01  OPTGRAD =  1.00D-08
 OPTENERG=  1.00D-06  OPTSTEP =  1.00D-08  THRGRAD =  1.00D-10  COMPRESS=  1.00D-11  VARMIN  =  1.00D-07  VARMAX  =  1.00D-03
 THRDOUB =  0.00D+00  THRDIV  =  1.00D-05  THRRED  =  1.00D-07  THRPSP  =  1.00D+00  THRDC   =  1.00D-10  THRCS   =  1.00D-10
 THRNRM  =  1.00D-08  THREQ   =  0.00D+00  THRDE   =  1.00D+00  THRREF  =  1.00D-05  SPARFAC =  1.00D+00  THRDLP  =  1.00D-07
 THRDIA  =  1.00D-10  THRDLS  =  1.00D-07  THRGPS  =  0.00D+00  THRKEX  =  0.00D+00  THRDIS  =  2.00D-01  THRVAR  =  1.00D-10
 THRLOC  =  1.00D-06  THRGAP  =  1.00D-06  THRLOCT = -1.00D+00  THRGAPT = -1.00D+00  THRORB  =  1.00D-06  THRMLTP =  0.00D+00
 THRCPQCI=  1.00D-10  KEXTA   =  0.00D+00  THRCOARS=  0.00D+00  SYMTOL  =  1.00D-06  GRADTOL =  1.00D-06  THROVL  =  1.00D-08
 THRORTH =  1.00D-08  GRID    =  1.00D-06  GRIDMAX =  1.00D-03  DTMAX   =  0.00D+00  THROCCDE=  1.00D-01  THROCCDE=  1.00D-01



 Input parameters for SORTINT:

 COMPRESS =    0.000000
 C_FINAL  =    1.000000
 DEBUG    =   -1.000000
 C_SORT1  =    0.000000
 C_SEWARD =    0.000000
 THRESH   =    0.000000
 IO       =  molpro                                                          
 SPRI     =    0.000000
 SETTING GEOMTYP        =    XYZ
 ZUNIT=BOHR
 

 Variable memory set to  995000000 words,  buffer space   230000 words

 SETTING BASIS          =    VTZ-DK
 SETTING DKROLL         =     0.00000000D+00                                  


 Recomputing integrals since basis changed


 Using spherical harmonics

 Library entry H      S cc-pVTZ-DK           selected for orbital group  1
 Library entry H      P cc-pVTZ-DK           selected for orbital group  1
 Library entry H      D cc-pVTZ-DK           selected for orbital group  1
 Library entry N      S cc-pVTZ-DK           selected for orbital group  2
 Library entry N      P cc-pVTZ-DK           selected for orbital group  2
 Library entry N      D cc-pVTZ-DK           selected for orbital group  2
 Library entry N      F cc-pVTZ-DK           selected for orbital group  2
 Library entry O      S cc-pVTZ-DK           selected for orbital group  3
 Library entry O      P cc-pVTZ-DK           selected for orbital group  3
 Library entry O      D cc-pVTZ-DK           selected for orbital group  3
 Library entry O      F cc-pVTZ-DK           selected for orbital group  3


 PROGRAM * SEWARD (Integral evaluation for generally contracted gaussian basis sets)     Author: Roland Lindh, 1990

 Geometry written to block  1 of record 700


 Point group  Cs  



 ATOMIC COORDINATES

 NR  ATOM    CHARGE       X              Y              Z

   1  H       1.00    0.000000000    1.663907647   -1.929938920
   2  N       7.00    0.000000000   -0.157478533   -1.156995933
   3  O       8.00    0.000000000    0.035338676    1.136345263

 Bond lengths in Bohr (Angstrom)

 1-2  1.978607712  2-3  2.301432666
     ( 1.047034111)     ( 1.217865719)

 Bond angles

  1-2-3  108.18899349

 NUCLEAR CHARGE:                   16
 NUMBER OF PRIMITIVE AOS:         111
 NUMBER OF SYMMETRY AOS:          100
 NUMBER OF CONTRACTIONS:           74   (  50A'  +  24A"  )
 NUMBER OF CORE ORBITALS:           2   (   2A'  +   0A"  )
 NUMBER OF VALENCE ORBITALS:        9   (   7A'  +   2A"  )


 NUCLEAR REPULSION ENERGY   30.17470089

 Eigenvalues of metric

         1 0.246E-02 0.398E-02 0.431E-02 0.832E-02 0.129E-01 0.332E-01 0.431E-01 0.464E-01
         2 0.347E-01 0.466E-01 0.103E+00 0.111E+00 0.237E+00 0.341E+00 0.397E+00 0.452E+00


 Contracted 2-electron integrals neglected if value below      1.0D-22

        1874283. INTEGRALS WRITTEN OUT IN     458 BLOCKS ON RECORD 1290 OF FILE 1


 NUMBER OF SORTED TWO-ELECTRON INTEGRALS:    2006100.     BUFFER LENGTH:  32768
 NUMBER OF SEGMENTS:   1  SEGMENT LENGTH:    2006100      RECORD LENGTH: 524288

 Memory used in sort:       2.56 MW

 SORT1 READ     1874283. AND WROTE     1914195. INTEGRALS IN      6 RECORDS. CPU TIME:     0.03 SEC, REAL TIME:     0.04 SEC
 SORT2 READ     1914195. AND WROTE     2006100. INTEGRALS IN      1 RECORDS. CPU TIME:     0.05 SEC, REAL TIME:     0.06 SEC

 FILE SIZES:   FILE 1:    50.1 MBYTE,  FILE 4:    25.2 MBYTE,   TOTAL:     75.3 MBYTE

 OPERATOR DM      FOR CENTER  0  COORDINATES:    0.000000    0.000000    0.000000


 **********************************************************************************************************************************
 DATASETS  * FILE   NREC   LENGTH (MB)   RECORD NAMES
              1      19       35.89       500      610      700      900      950      970     1000      129      960     1100   
                                          VAR    BASINP    GEOM    SYMINP    ZMAT    AOBASIS   BASIS     P2S    ABASIS      S 
                                         1400     1410     1200     1210     1080     1600     1650     1300     1700   
                                           T        V       H0       H01     AOSYM     SMH    MOLCAS    ERIS     OPER   

 PROGRAMS   *        TOTAL       INT
 CPU TIMES  *         0.60      0.52
 REAL TIME  *         1.20 SEC
 DISK USED  *        75.59 MB      
 **********************************************************************************************************************************


 PROGRAM * RHF-SCF (CLOSED SHELL)       Authors: W. Meyer, H.-J. Werner


 NUMBER OF ELECTRONS:       8+    8-
 CONVERGENCE THRESHOLDS:    1.00E-10 (Density)    1.00E-13 (Energy)
 MAX. NUMBER OF ITERATIONS:      500
 INTERPOLATION TYPE:            DIIS
 INTERPOLATION STEPS:              2 (START)      1 (STEP)
 LEVEL SHIFTS:                  0.00 (CLOSED)  0.00 (OPEN) 



 Orbital guess generated from atomic densities. Full valence occupancy:    9   2

 Molecular orbital dump at record        2100.2

 Initial occupancy:   7   1

 ITERATION    DDIFF          GRAD             ENERGY        2-EL.EN.            DIPOLE MOMENTS         DIIS   ORB.
    1      0.000D+00      0.000D+00      -129.77773384    153.788529    0.00000    0.59801   -1.06880    0    start
    2      0.000D+00      0.137D-01      -129.80432495    154.916341    0.00000    0.62253   -0.22064    1    diag
    3      0.189D-01      0.106D-01      -129.82788458    155.057454    0.00000    0.57038   -0.61627    2    diag
    4      0.922D-02      0.158D-02      -129.82864228    154.784168    0.00000    0.57870   -0.55496    3    diag
    5      0.168D-02      0.523D-03      -129.82875986    154.870385    0.00000    0.58405   -0.55593    4    diag
    6      0.729D-03      0.155D-03      -129.82877923    154.855560    0.00000    0.58455   -0.55159    5    diag
    7      0.281D-03      0.784D-04      -129.82878509    154.857703    0.00000    0.58574   -0.54895    6    diag
    8      0.196D-03      0.259D-04      -129.82878570    154.856973    0.00000    0.58574   -0.54806    7    diag
    9      0.702D-04      0.475D-05      -129.82878572    154.856847    0.00000    0.58569   -0.54789    8    diag
   10      0.138D-04      0.102D-05      -129.82878572    154.856830    0.00000    0.58566   -0.54787    9    orth
   11      0.290D-05      0.200D-06      -129.82878572    154.856826    0.00000    0.58565   -0.54787    9    diag
   12      0.520D-06      0.428D-07      -129.82878572    154.856825    0.00000    0.58565   -0.54787    9    diag
   13      0.114D-06      0.110D-07      -129.82878572    154.856824    0.00000    0.58565   -0.54786    9    diag
   14      0.290D-07      0.198D-08      -129.82878572    154.856824    0.00000    0.58565   -0.54786    9    diag
   15      0.433D-08      0.505D-09      -129.82878572    154.856824    0.00000    0.58565   -0.54786    9    diag
   16      0.109D-08      0.125D-09      -129.82878572    154.856824    0.00000    0.58565   -0.54786    9    diag
   17      0.178D-09      0.356D-10      -129.82878572    154.856824    0.00000    0.58565   -0.54786    9    diag
   18      0.556D-10      0.123D-10      -129.82878572    154.856824    0.00000    0.58565   -0.54786    9    diag
   19      0.247D-10      0.267D-11      -129.82878572    154.856824    0.00000    0.58565   -0.54786    0    orth

 Final occupancy:   7   1

 !RHF STATE 1.1 Energy               -129.828785722892
 Nuclear energy                        30.17470089
 One-electron energy                 -237.43189883
 Two-electron energy                   77.42841222
 Virial quotient                       -0.99989299
 !RHF STATE 1.1 Dipole moment           0.00000000     0.58564874    -0.54786462
 Dipole moment /Debye                   0.00000000     1.48847312    -1.39244176

 Orbital energies:

         1.1          2.1          3.1          4.1          5.1          6.1          7.1          8.1          9.1
    -20.648743   -15.708827    -1.517954    -0.994570    -0.740729    -0.659129    -0.430159     0.143824     0.368553

         1.2          2.2          3.2
     -0.587427     0.082645     0.614074

 HOMO      7.1    -0.430159 =     -11.7052eV
 LUMO      2.2     0.082645 =       2.2489eV
 LUMO-HOMO         0.512804 =      13.9541eV


 **********************************************************************************************************************************
 DATASETS  * FILE   NREC   LENGTH (MB)   RECORD NAMES
              1      19       35.89       500      610      700      900      950      970     1000      129      960     1100   
                                          VAR    BASINP    GEOM    SYMINP    ZMAT    AOBASIS   BASIS     P2S    ABASIS      S 
                                         1400     1410     1200     1210     1080     1600     1650     1300     1700   
                                           T        V       H0       H01     AOSYM     SMH    MOLCAS    ERIS     OPER   

              2       4        2.85       700     1000      520     2100   
                                         GEOM     BASIS   MCVARS     RHF  

 PROGRAMS   *        TOTAL        HF       INT
 CPU TIMES  *         0.80      0.20      0.52
 REAL TIME  *         1.49 SEC
 DISK USED  *        75.59 MB      
 **********************************************************************************************************************************


 PROGRAM * CCSD (Closed-shell coupled cluster)     Authors: C. Hampel, H.-J. Werner, 1991, M. Deegan, P.J. Knowles, 1992


 Convergence thresholds:  THRVAR = 1.00D-08  THRDEN = 1.00D-12

 CCSD(T)     terms to be evaluated (factor= 1.000)


 Number of core orbitals:           2 (   2   0 )
 Number of closed-shell orbitals:   6 (   5   1 )
 Number of external orbitals:      66 (  43  23 )

 Molecular orbitals read from record     2100.2  Type=RHF/CANONICAL (state 1.1)

 Number of N-1 electron functions:               6
 Number of N-2 electron functions:              21
 Number of singly external CSFs:               238
 Number of doubly external CSFs:             41002
 Total number of CSFs:                       41241

 Length of J-op  integral file:               0.00 MB
 Length of K-op  integral file:               0.25 MB
 Length of 3-ext integral record:             0.00 MB

 Memory could be reduced to 1.65 Mwords without degradation in triples

 Integral transformation finished. Total CPU:   0.02 sec, npass=  1  Memory used:   0.55 MW

 Reference energy:                   -129.82878572

 MP2 singlet pair energy:              -0.27450145
 MP2 triplet pair energy:              -0.16304288
 MP2 correlation energy:               -0.43754433
 MP2 total energy:                   -130.26633005

 SCS-MP2 correlation energy:           -0.43085064   (PS=  1.200000  PT=  0.333333)
 SCS-MP2 total energy:               -130.25963636

 ITER.      SQ.NORM     CORR.ENERGY   TOTAL ENERGY   ENERGY CHANGE        DEN1      VAR(S)    VAR(P)  DIIS     TIME  TIME/IT
   1      1.11932670    -0.44231691  -130.27110263    -0.00477258     0.01135968  0.30D-02  0.31D-02  1  1     0.07     0.05
   2      1.13037827    -0.44250327  -130.27128899    -0.00018636    -0.01248033  0.93D-04  0.52D-03  2  2     0.11     0.04
   3      1.13683421    -0.44290072  -130.27168645    -0.00039745    -0.00303365  0.49D-04  0.53D-04  3  3     0.14     0.04
   4      1.13974713    -0.44292859  -130.27171431    -0.00002786    -0.00098676  0.41D-05  0.92D-05  4  4     0.17     0.04
   5      1.14079227    -0.44295945  -130.27174517    -0.00003086    -0.00021637  0.14D-05  0.17D-05  5  5     0.21     0.04
   6      1.14116186    -0.44294180  -130.27172752     0.00001765    -0.00004243  0.92D-07  0.42D-06  6  6     0.24     0.04
   7      1.14124601    -0.44294412  -130.27172984    -0.00000232    -0.00000162  0.10D-07  0.92D-07  6  1     0.28     0.04
   8      1.14127643    -0.44294402  -130.27172974     0.00000010     0.00000205  0.47D-08  0.11D-07  6  2     0.32     0.04
   9      1.14128442    -0.44294382  -130.27172955     0.00000019    -0.00000236  0.26D-08  0.13D-08  6  3     0.35     0.04
  10      1.14128310    -0.44294435  -130.27173007    -0.00000052     0.00000067  0.50D-09  0.22D-09  6  4     0.39     0.04
  11      1.14128139    -0.44294440  -130.27173013    -0.00000006     0.00000015  0.15D-09  0.24D-10  6  5     0.43     0.04
  12      1.14127999    -0.44294459  -130.27173031    -0.00000019     0.00000044  0.15D-10  0.75D-11  6  6     0.47     0.04
  13      1.14127938    -0.44294460  -130.27173032    -0.00000001     0.00000012  0.64D-11  0.12D-11  6  1     0.50     0.04
  14      1.14127898    -0.44294462  -130.27173034    -0.00000002     0.00000008  0.91D-12  0.44D-12  6  2     0.54     0.04
  15      1.14127883    -0.44294462  -130.27173034    -0.00000000     0.00000002  0.24D-12  0.14D-12  6  3     0.57     0.04
  16      1.14127872    -0.44294462  -130.27173035    -0.00000000     0.00000002  0.77D-14  0.36D-13  6  1     0.61     0.04
  17      1.14127870    -0.44294462  -130.27173035     0.00000000    -0.00000000  0.27D-14  0.24D-14  6  4     0.64     0.04
  18      1.14127869    -0.44294462  -130.27173035    -0.00000000     0.00000000  0.72D-15  0.40D-15  6  5     0.68     0.04
  19      1.14127870    -0.44294462  -130.27173035     0.00000000    -0.00000000  0.14D-15  0.77D-16  6  6     0.71     0.04
  20      1.14127869    -0.44294462  -130.27173035    -0.00000000     0.00000000  0.21D-16  0.19D-16  6  2     0.75     0.04
  21      1.14127869    -0.44294462  -130.27173035    -0.00000000     0.00000000  0.61D-18  0.14D-17  6  4     0.79     0.04
  22      1.14127869    -0.44294462  -130.27173035    -0.00000000     0.00000000  0.83D-19  0.14D-18  6  3     0.81     0.04
  23      1.14127869    -0.44294462  -130.27173035    -0.00000000     0.00000000  0.78D-20  0.15D-19  6  1     0.85     0.04
  24      1.14127869    -0.44294462  -130.27173035     0.00000000     0.00000000  0.39D-20  0.21D-20  6  6     0.89     0.04
  25      1.14127869    -0.44294462  -130.27173035     0.00000000     0.00000000  0.43D-21  0.42D-21  6  5     0.92     0.04

 Norm of t1 vector:      0.07631178      S-energy:     0.00000000      T1 diagnostic:  0.01557708
                                                                       D1 diagnostic:  0.04372828

 Doubles amplitudes (print threshold =  0.500E-01):

         I         J         SYM. A    SYM. B    A         B      T(IJ, AB)

         6         6         2         2         1         1     -0.14661261


 Total CPU time for triples:      0.24 sec


 RESULTS
 =======

  Reference energy                   -129.828785722892
  CCSD singlet pair energy             -0.303930461446
  CCSD triplet pair energy             -0.139014161421
  CCSD correlation energy              -0.442944622866

  Triples (T) contribution             -0.020034992309
  Total correlation energy             -0.462979615176

  CCSD total energy                  -130.271730345759
  CCSD[T] energy                     -130.292819480333
  CCSD-T energy                      -130.291359601732
 !CCSD(T) total energy               -130.291765338068

 Timing summary (sec):

 STEP                 CPU(USER)    SYS     CPU(TOT)    WALL
 Transformation          0.03      0.01      0.04      0.10
 CCSD iterations         0.90      0.11      1.01      1.02
 Triples                 0.24      0.01      0.25      0.25

 Program statistics:

 Available memory in ccsd:               994999756
 Min. memory needed in ccsd:                154850
 Max. memory used in ccsd:                  184802
 Max. memory used in cckext:                238416 (25 integral passes)



 **********************************************************************************************************************************
 DATASETS  * FILE   NREC   LENGTH (MB)   RECORD NAMES
              1      20       40.28       500      610      700      900      950      970     1000      129      960     1100   
                                          VAR    BASINP    GEOM    SYMINP    ZMAT    AOBASIS   BASIS     P2S    ABASIS      S 
                                         1400     1410     1200     1210     1080     1600     1650     1300     1700     1380   
                                           T        V       H0       H01     AOSYM     SMH    MOLCAS    ERIS     OPER     JKOP   

              2       4        2.85       700     1000      520     2100   
                                         GEOM     BASIS   MCVARS     RHF  

 PROGRAMS   *        TOTAL   CCSD(T)        HF       INT
 CPU TIMES  *         2.01      1.19      0.20      0.52
 REAL TIME  *         2.93 SEC
 DISK USED  *        75.59 MB      
 **********************************************************************************************************************************

 CCSD(T)/cc-pVTZ-DK energy=   -130.291765338068

        CCSD(T)         HF-SCF  
   -130.29176534   -129.82878572
 **********************************************************************************************************************************
 Molpro calculation terminated
 Variable memory released
