
 Primary working directories    : /tmp/r2666/282520.maple
 Secondary working directories  : /tmp/r2666/282520.maple
 Wavefunction directory         : /ddn/home4/r2666/wfu/
 Main file repository           : /tmp/r2666/282520.maple/

 SHA1      : d5ffa45e93fdbca01ffc919aa182cfdae0147319
 NAME      : 2015.1.35
 ARCHNAME  : linux/x86_64
 FC        : /opt/intel/composer_xe_2015.1.133/bin/intel64/ifort
 BLASLIB   : -Wl,-_start-group /opt/intel/mkl/lib/intel64/libmkl_intel_ilp64.a /opt/intel/mkl/lib/intel64/libmkl_intel_thread.a /opt/intel/mkl/lib/intel64/libmkl_core.a -Wl,-_end-group
 id        : olemiss

 Nodes     nprocs
 cn078        1

 Using customized tuning parameters: mindgm=1; mindgv=20; mindgc=4; mindgr=1; noblas=0; minvec=7
 default implementation of scratch files=df  

 ***,hno CCSD(T)/TZ-F12 QFF
 memory, 995, m;
 gthresh,energy=1.d-12,zero=1.d-22,oneint=1.d-22,twoint=1.d-22;
 gthresh,optgrad=1.d-8,optstep=1.d-8;
 nocompress;
 geomtyp=xyz
 bohr
 geometry={
 3
         30        30
 H        0.0000000000        1.6616165577       -1.9149175566
 N        0.0000000000       -0.1649353943       -1.1542622832
 O        0.0000000000        0.0450866266        1.1185902488
 }
 
 basis=vtz-dk
 dkroll=0
   {hf,maxit=500;accu,20;}
 {ccsd(t),nocheck,maxit=250;orbital,IGNORE_ERROR;}

 Variables initialized (889), CPU time= 0.01 sec
 Commands  initialized (702), CPU time= 0.01 sec, 572 directives.
 Default parameters read. Elapsed time= 0.05 sec

 Checking input...
 Passed
1


                                         ***  PROGRAM SYSTEM MOLPRO  ***
                                       Copyright, TTI GmbH Stuttgart, 2015
                                    Version 2015.1 linked Jul  9 2018 13:16:40


 **********************************************************************************************************************************
 LABEL *   hno CCSD(T)/TZ-F12 QFF                                                        
  64 bit serial version                                                                  DATE: 04-Mar-20          TIME: 13:50:50  
 **********************************************************************************************************************************

 SHA1:             d5ffa45e93fdbca01ffc919aa182cfdae0147319
 **********************************************************************************************************************************

 THRESHOLDS:

 ZERO    =  1.00D-22  ONEINT  =  1.00D-22  TWOINT  =  1.00D-22  PREFAC  =  1.00D-14  LOCALI  =  1.00D-09  EORDER  =  1.00D-04
 ENERGY  =  1.00D-12  ETEST   =  0.00D+00  EDENS   =  0.00D+00  THRDEDEF=  1.00D-06  GRADIENT=  1.00D-02  STEP    =  1.00D-03
 ORBITAL =  1.00D-05  CIVEC   =  1.00D-05  COEFF   =  1.00D-04  PRINTCI =  5.00D-02  PUNCHCI =  9.90D+01  OPTGRAD =  3.00D-04
 OPTENERG=  1.00D-06  OPTSTEP =  3.00D-04  THRGRAD =  1.00D-10  COMPRESS=  1.00D-11  VARMIN  =  1.00D-07  VARMAX  =  1.00D-03
 THRDOUB =  0.00D+00  THRDIV  =  1.00D-05  THRRED  =  1.00D-07  THRPSP  =  1.00D+00  THRDC   =  1.00D-10  THRCS   =  1.00D-10
 THRNRM  =  1.00D-08  THREQ   =  0.00D+00  THRDE   =  1.00D+00  THRREF  =  1.00D-05  SPARFAC =  1.00D+00  THRDLP  =  1.00D-07
 THRDIA  =  1.00D-10  THRDLS  =  1.00D-07  THRGPS  =  0.00D+00  THRKEX  =  0.00D+00  THRDIS  =  2.00D-01  THRVAR  =  1.00D-10
 THRLOC  =  1.00D-06  THRGAP  =  1.00D-06  THRLOCT = -1.00D+00  THRGAPT = -1.00D+00  THRORB  =  1.00D-06  THRMLTP =  0.00D+00
 THRCPQCI=  1.00D-10  KEXTA   =  0.00D+00  THRCOARS=  0.00D+00  SYMTOL  =  1.00D-06  GRADTOL =  1.00D-06  THROVL  =  1.00D-08
 THRORTH =  1.00D-08  GRID    =  1.00D-06  GRIDMAX =  1.00D-03  DTMAX   =  0.00D+00  THROCCDE=  1.00D-01  THROCCDE=  1.00D-01



 THRESHOLDS:

 ZERO    =  1.00D-22  ONEINT  =  1.00D-22  TWOINT  =  1.00D-22  PREFAC  =  1.00D-14  LOCALI  =  1.00D-09  EORDER  =  1.00D-04
 ENERGY  =  1.00D-12  ETEST   =  0.00D+00  EDENS   =  0.00D+00  THRDEDEF=  1.00D-06  GRADIENT=  1.00D-02  STEP    =  1.00D-03
 ORBITAL =  1.00D-05  CIVEC   =  1.00D-05  COEFF   =  1.00D-04  PRINTCI =  5.00D-02  PUNCHCI =  9.90D+01  OPTGRAD =  1.00D-08
 OPTENERG=  1.00D-06  OPTSTEP =  1.00D-08  THRGRAD =  1.00D-10  COMPRESS=  1.00D-11  VARMIN  =  1.00D-07  VARMAX  =  1.00D-03
 THRDOUB =  0.00D+00  THRDIV  =  1.00D-05  THRRED  =  1.00D-07  THRPSP  =  1.00D+00  THRDC   =  1.00D-10  THRCS   =  1.00D-10
 THRNRM  =  1.00D-08  THREQ   =  0.00D+00  THRDE   =  1.00D+00  THRREF  =  1.00D-05  SPARFAC =  1.00D+00  THRDLP  =  1.00D-07
 THRDIA  =  1.00D-10  THRDLS  =  1.00D-07  THRGPS  =  0.00D+00  THRKEX  =  0.00D+00  THRDIS  =  2.00D-01  THRVAR  =  1.00D-10
 THRLOC  =  1.00D-06  THRGAP  =  1.00D-06  THRLOCT = -1.00D+00  THRGAPT = -1.00D+00  THRORB  =  1.00D-06  THRMLTP =  0.00D+00
 THRCPQCI=  1.00D-10  KEXTA   =  0.00D+00  THRCOARS=  0.00D+00  SYMTOL  =  1.00D-06  GRADTOL =  1.00D-06  THROVL  =  1.00D-08
 THRORTH =  1.00D-08  GRID    =  1.00D-06  GRIDMAX =  1.00D-03  DTMAX   =  0.00D+00  THROCCDE=  1.00D-01  THROCCDE=  1.00D-01



 Input parameters for SORTINT:

 COMPRESS =    0.000000
 C_FINAL  =    1.000000
 DEBUG    =   -1.000000
 C_SORT1  =    0.000000
 C_SEWARD =    0.000000
 THRESH   =    0.000000
 IO       =  molpro                                                          
 SPRI     =    0.000000
 SETTING GEOMTYP        =    XYZ
 ZUNIT=BOHR
 

 Variable memory set to  995000000 words,  buffer space   230000 words

 SETTING BASIS          =    VTZ-DK
 SETTING DKROLL         =     0.00000000D+00                                  


 Recomputing integrals since basis changed


 Using spherical harmonics

 Library entry H      S cc-pVTZ-DK           selected for orbital group  1
 Library entry H      P cc-pVTZ-DK           selected for orbital group  1
 Library entry H      D cc-pVTZ-DK           selected for orbital group  1
 Library entry N      S cc-pVTZ-DK           selected for orbital group  2
 Library entry N      P cc-pVTZ-DK           selected for orbital group  2
 Library entry N      D cc-pVTZ-DK           selected for orbital group  2
 Library entry N      F cc-pVTZ-DK           selected for orbital group  2
 Library entry O      S cc-pVTZ-DK           selected for orbital group  3
 Library entry O      P cc-pVTZ-DK           selected for orbital group  3
 Library entry O      D cc-pVTZ-DK           selected for orbital group  3
 Library entry O      F cc-pVTZ-DK           selected for orbital group  3


 PROGRAM * SEWARD (Integral evaluation for generally contracted gaussian basis sets)     Author: Roland Lindh, 1990

 Geometry written to block  1 of record 700


 Point group  Cs  



 ATOMIC COORDINATES

 NR  ATOM    CHARGE       X              Y              Z

   1  H       1.00    0.000000000    1.661616558   -1.914917557
   2  N       7.00    0.000000000   -0.164935394   -1.154262283
   3  O       8.00    0.000000000    0.045086627    1.118590249

 Bond lengths in Bohr (Angstrom)

 1-2  1.978607712  2-3  2.282535406
     ( 1.047034111)     ( 1.207865720)

 Bond angles

  1-2-3  107.32955680

 NUCLEAR CHARGE:                   16
 NUMBER OF PRIMITIVE AOS:         111
 NUMBER OF SYMMETRY AOS:          100
 NUMBER OF CONTRACTIONS:           74   (  50A'  +  24A"  )
 NUMBER OF CORE ORBITALS:           2   (   2A'  +   0A"  )
 NUMBER OF VALENCE ORBITALS:        9   (   7A'  +   2A"  )


 NUCLEAR REPULSION ENERGY   30.39934020

 Eigenvalues of metric

         1 0.243E-02 0.394E-02 0.416E-02 0.824E-02 0.129E-01 0.326E-01 0.425E-01 0.464E-01
         2 0.342E-01 0.465E-01 0.101E+00 0.111E+00 0.233E+00 0.339E+00 0.395E+00 0.449E+00


 Contracted 2-electron integrals neglected if value below      1.0D-22

        1874283. INTEGRALS WRITTEN OUT IN     458 BLOCKS ON RECORD 1290 OF FILE 1


 NUMBER OF SORTED TWO-ELECTRON INTEGRALS:    2006100.     BUFFER LENGTH:  32768
 NUMBER OF SEGMENTS:   1  SEGMENT LENGTH:    2006100      RECORD LENGTH: 524288

 Memory used in sort:       2.56 MW

 SORT1 READ     1874283. AND WROTE     1914195. INTEGRALS IN      6 RECORDS. CPU TIME:     0.02 SEC, REAL TIME:     0.03 SEC
 SORT2 READ     1914195. AND WROTE     2006100. INTEGRALS IN      1 RECORDS. CPU TIME:     0.05 SEC, REAL TIME:     0.07 SEC

 FILE SIZES:   FILE 1:    50.1 MBYTE,  FILE 4:    25.2 MBYTE,   TOTAL:     75.3 MBYTE

 OPERATOR DM      FOR CENTER  0  COORDINATES:    0.000000    0.000000    0.000000


 **********************************************************************************************************************************
 DATASETS  * FILE   NREC   LENGTH (MB)   RECORD NAMES
              1      19       35.89       500      610      700      900      950      970     1000      129      960     1100   
                                          VAR    BASINP    GEOM    SYMINP    ZMAT    AOBASIS   BASIS     P2S    ABASIS      S 
                                         1400     1410     1200     1210     1080     1600     1650     1300     1700   
                                           T        V       H0       H01     AOSYM     SMH    MOLCAS    ERIS     OPER   

 PROGRAMS   *        TOTAL       INT
 CPU TIMES  *         0.63      0.55
 REAL TIME  *         1.13 SEC
 DISK USED  *        75.59 MB      
 **********************************************************************************************************************************


 PROGRAM * RHF-SCF (CLOSED SHELL)       Authors: W. Meyer, H.-J. Werner


 NUMBER OF ELECTRONS:       8+    8-
 CONVERGENCE THRESHOLDS:    1.00E-10 (Density)    1.00E-13 (Energy)
 MAX. NUMBER OF ITERATIONS:      500
 INTERPOLATION TYPE:            DIIS
 INTERPOLATION STEPS:              2 (START)      1 (STEP)
 LEVEL SHIFTS:                  0.00 (CLOSED)  0.00 (OPEN) 



 Orbital guess generated from atomic densities. Full valence occupancy:    9   2

 Molecular orbital dump at record        2100.2

 Initial occupancy:   7   1

 ITERATION    DDIFF          GRAD             ENERGY        2-EL.EN.            DIPOLE MOMENTS         DIIS   ORB.
    1      0.000D+00      0.000D+00      -129.78057160    154.194812    0.00000    0.58604   -1.03522    0    start
    2      0.000D+00      0.135D-01      -129.80750872    155.338441    0.00000    0.61649   -0.22298    1    diag
    3      0.185D-01      0.103D-01      -129.82946982    155.458968    0.00000    0.56223   -0.59896    2    diag
    4      0.897D-02      0.156D-02      -129.83020714    155.192901    0.00000    0.57116   -0.53947    3    diag
    5      0.166D-02      0.516D-03      -129.83032150    155.278037    0.00000    0.57643   -0.54055    4    diag
    6      0.719D-03      0.153D-03      -129.83034031    155.263317    0.00000    0.57696   -0.53637    5    diag
    7      0.278D-03      0.766D-04      -129.83034584    155.265560    0.00000    0.57816   -0.53385    6    diag
    8      0.192D-03      0.245D-04      -129.83034637    155.264867    0.00000    0.57817   -0.53304    7    diag
    9      0.649D-04      0.444D-05      -129.83034639    155.264753    0.00000    0.57812   -0.53289    8    diag
   10      0.125D-04      0.973D-06      -129.83034639    155.264736    0.00000    0.57809   -0.53286    9    orth
   11      0.277D-05      0.191D-06      -129.83034639    155.264732    0.00000    0.57808   -0.53286    9    diag
   12      0.503D-06      0.399D-07      -129.83034639    155.264731    0.00000    0.57808   -0.53286    9    diag
   13      0.110D-06      0.989D-08      -129.83034639    155.264731    0.00000    0.57808   -0.53286    9    diag
   14      0.272D-07      0.177D-08      -129.83034639    155.264731    0.00000    0.57808   -0.53286    9    diag
   15      0.428D-08      0.453D-09      -129.83034639    155.264731    0.00000    0.57808   -0.53286    9    diag
   16      0.102D-08      0.108D-09      -129.83034639    155.264731    0.00000    0.57808   -0.53286    9    diag
   17      0.174D-09      0.297D-10      -129.83034639    155.264731    0.00000    0.57808   -0.53286    9    diag
   18      0.503D-10      0.969D-11      -129.83034639    155.264731    0.00000    0.57808   -0.53286    9    diag
   19      0.214D-10      0.198D-11      -129.83034639    155.264731    0.00000    0.57808   -0.53286    9    fixocc
   20      0.505D-11      0.381D-12      -129.83034639    155.264731    0.00000    0.57808   -0.53286    9    orth
   21      0.814D-12      0.129D-12      -129.83034639    155.264731    0.00000    0.57808   -0.53286    9    diag
   22      0.291D-12      0.424D-13      -129.83034639    155.264731    0.00000    0.57808   -0.53286    9    diag
   23      0.137D-12      0.200D-13      -129.83034639    155.264731    0.00000    0.57808   -0.53286    9    diag
   24      0.531D-13      0.188D-13      -129.83034639    155.264731    0.00000    0.57808   -0.53286    9    diag
   25      0.240D-13      0.157D-13      -129.83034639    155.264731    0.00000    0.57808   -0.53286    0    orth

 Final occupancy:   7   1

 !RHF STATE 1.1 Energy               -129.830346388674
 Nuclear energy                        30.39934020
 One-electron energy                 -237.86205188
 Two-electron energy                   77.63236529
 Virial quotient                       -0.99958683
 !RHF STATE 1.1 Dipole moment           0.00000000     0.57808121    -0.53285872
 Dipole moment /Debye                   0.00000000     1.46923963    -1.35430308

 Orbital energies:

         1.1          2.1          3.1          4.1          5.1          6.1          7.1          8.1          9.1
    -20.647589   -15.707285    -1.526506    -0.991698    -0.743816    -0.661824    -0.427718     0.144583     0.369949

         1.2          2.2          3.2
     -0.592226     0.086423     0.612923

 HOMO      7.1    -0.427718 =     -11.6388eV
 LUMO      2.2     0.086423 =       2.3517eV
 LUMO-HOMO         0.514141 =      13.9905eV


 **********************************************************************************************************************************
 DATASETS  * FILE   NREC   LENGTH (MB)   RECORD NAMES
              1      19       35.89       500      610      700      900      950      970     1000      129      960     1100   
                                          VAR    BASINP    GEOM    SYMINP    ZMAT    AOBASIS   BASIS     P2S    ABASIS      S 
                                         1400     1410     1200     1210     1080     1600     1650     1300     1700   
                                           T        V       H0       H01     AOSYM     SMH    MOLCAS    ERIS     OPER   

              2       4        2.85       700     1000      520     2100   
                                         GEOM     BASIS   MCVARS     RHF  

 PROGRAMS   *        TOTAL        HF       INT
 CPU TIMES  *         0.87      0.24      0.55
 REAL TIME  *         1.43 SEC
 DISK USED  *        75.59 MB      
 **********************************************************************************************************************************


 PROGRAM * CCSD (Closed-shell coupled cluster)     Authors: C. Hampel, H.-J. Werner, 1991, M. Deegan, P.J. Knowles, 1992


 Convergence thresholds:  THRVAR = 1.00D-08  THRDEN = 1.00D-12

 CCSD(T)     terms to be evaluated (factor= 1.000)


 Number of core orbitals:           2 (   2   0 )
 Number of closed-shell orbitals:   6 (   5   1 )
 Number of external orbitals:      66 (  43  23 )

 Molecular orbitals read from record     2100.2  Type=RHF/CANONICAL (state 1.1)

 Number of N-1 electron functions:               6
 Number of N-2 electron functions:              21
 Number of singly external CSFs:               238
 Number of doubly external CSFs:             41002
 Total number of CSFs:                       41241

 Length of J-op  integral file:               0.00 MB
 Length of K-op  integral file:               0.25 MB
 Length of 3-ext integral record:             0.00 MB

 Memory could be reduced to 1.65 Mwords without degradation in triples

 Integral transformation finished. Total CPU:   0.03 sec, npass=  1  Memory used:   0.55 MW

 Reference energy:                   -129.83034639

 MP2 singlet pair energy:              -0.27344000
 MP2 triplet pair energy:              -0.16234716
 MP2 correlation energy:               -0.43578716
 MP2 total energy:                   -130.26613355

 SCS-MP2 correlation energy:           -0.42914402   (PS=  1.200000  PT=  0.333333)
 SCS-MP2 total energy:               -130.25949040

 ITER.      SQ.NORM     CORR.ENERGY   TOTAL ENERGY   ENERGY CHANGE        DEN1      VAR(S)    VAR(P)  DIIS     TIME  TIME/IT
   1      1.11821204    -0.44093931  -130.27128570    -0.00515215     0.01054046  0.29D-02  0.30D-02  1  1     0.08     0.05
   2      1.12899818    -0.44120647  -130.27155286    -0.00026716    -0.01222719  0.87D-04  0.50D-03  2  2     0.12     0.04
   3      1.13522079    -0.44158567  -130.27193206    -0.00037920    -0.00296142  0.45D-04  0.50D-04  3  3     0.15     0.04
   4      1.13799866    -0.44161320  -130.27195959    -0.00002753    -0.00095093  0.38D-05  0.87D-05  4  4     0.18     0.04
   5      1.13897083    -0.44164192  -130.27198830    -0.00002871    -0.00020149  0.13D-05  0.16D-05  5  5     0.21     0.04
   6      1.13932011    -0.44162562  -130.27197201     0.00001630    -0.00003989  0.90D-07  0.40D-06  6  6     0.25     0.04
   7      1.13940242    -0.44162776  -130.27197415    -0.00000214    -0.00000186  0.11D-07  0.86D-07  6  1     0.29     0.04
   8      1.13943205    -0.44162772  -130.27197411     0.00000004     0.00000203  0.45D-08  0.99D-08  6  2     0.32     0.04
   9      1.13943939    -0.44162757  -130.27197396     0.00000015    -0.00000229  0.24D-08  0.11D-08  6  3     0.35     0.04
  10      1.13943813    -0.44162806  -130.27197445    -0.00000048     0.00000066  0.46D-09  0.19D-09  6  4     0.38     0.04
  11      1.13943649    -0.44162811  -130.27197450    -0.00000006     0.00000014  0.14D-09  0.21D-10  6  5     0.41     0.04
  12      1.13943517    -0.44162828  -130.27197467    -0.00000017     0.00000041  0.14D-10  0.68D-11  6  6     0.45     0.04
  13      1.13943461    -0.44162829  -130.27197468    -0.00000001     0.00000011  0.60D-11  0.11D-11  6  1     0.49     0.04
  14      1.13943425    -0.44162831  -130.27197470    -0.00000002     0.00000007  0.85D-12  0.39D-12  6  2     0.53     0.04
  15      1.13943412    -0.44162831  -130.27197470    -0.00000000     0.00000001  0.22D-12  0.13D-12  6  3     0.56     0.04
  16      1.13943403    -0.44162831  -130.27197470    -0.00000000     0.00000001  0.22D-13  0.15D-13  6  5     0.60     0.04
  17      1.13943400    -0.44162831  -130.27197470    -0.00000000     0.00000000  0.62D-15  0.19D-14  6  4     0.63     0.04
  18      1.13943400    -0.44162831  -130.27197470     0.00000000    -0.00000000  0.43D-15  0.27D-15  6  1     0.67     0.04
  19      1.13943400    -0.44162831  -130.27197470    -0.00000000     0.00000000  0.42D-16  0.48D-16  6  6     0.71     0.04
  20      1.13943400    -0.44162831  -130.27197470    -0.00000000     0.00000000  0.95D-17  0.12D-16  6  2     0.74     0.04
  21      1.13943400    -0.44162831  -130.27197470    -0.00000000     0.00000000  0.15D-17  0.93D-18  6  5     0.78     0.04
  22      1.13943400    -0.44162831  -130.27197470    -0.00000000     0.00000000  0.91D-19  0.73D-19  6  3     0.82     0.04
  23      1.13943400    -0.44162831  -130.27197470     0.00000000    -0.00000000  0.26D-19  0.16D-19  6  4     0.85     0.04
  24      1.13943400    -0.44162831  -130.27197470     0.00000000    -0.00000000  0.39D-20  0.43D-20  6  1     0.89     0.04
  25      1.13943400    -0.44162831  -130.27197470     0.00000000    -0.00000000  0.51D-21  0.71D-21  6  6     0.92     0.04

 Norm of t1 vector:      0.07443733      S-energy:     0.00000000      T1 diagnostic:  0.01519446
                                                                       D1 diagnostic:  0.04233287

 Doubles amplitudes (print threshold =  0.500E-01):

         I         J         SYM. A    SYM. B    A         B      T(IJ, AB)

         6         6         2         2         1         1     -0.14377253


 Total CPU time for triples:      0.22 sec


 RESULTS
 =======

  Reference energy                   -129.830346388674
  CCSD singlet pair energy             -0.302779918277
  CCSD triplet pair energy             -0.138848392564
  CCSD correlation energy              -0.441628310840

  Triples (T) contribution             -0.019722275141
  Total correlation energy             -0.461350585981

  CCSD total energy                  -130.271974699514
  CCSD[T] energy                     -130.292702745065
  CCSD-T energy                      -130.291303094148
 !CCSD(T) total energy               -130.291696974655

 Timing summary (sec):

 STEP                 CPU(USER)    SYS     CPU(TOT)    WALL
 Transformation          0.03      0.01      0.04      0.06
 CCSD iterations         0.89      0.09      0.98      0.99
 Triples                 0.22      0.02      0.24      0.23

 Program statistics:

 Available memory in ccsd:               994999756
 Min. memory needed in ccsd:                154850
 Max. memory used in ccsd:                  184802
 Max. memory used in cckext:                238416 (25 integral passes)



 **********************************************************************************************************************************
 DATASETS  * FILE   NREC   LENGTH (MB)   RECORD NAMES
              1      20       40.28       500      610      700      900      950      970     1000      129      960     1100   
                                          VAR    BASINP    GEOM    SYMINP    ZMAT    AOBASIS   BASIS     P2S    ABASIS      S 
                                         1400     1410     1200     1210     1080     1600     1650     1300     1700     1380   
                                           T        V       H0       H01     AOSYM     SMH    MOLCAS    ERIS     OPER     JKOP   

              2       4        2.85       700     1000      520     2100   
                                         GEOM     BASIS   MCVARS     RHF  

 PROGRAMS   *        TOTAL   CCSD(T)        HF       INT
 CPU TIMES  *         2.05      1.18      0.24      0.55
 REAL TIME  *         2.79 SEC
 DISK USED  *        75.59 MB      
 **********************************************************************************************************************************

 CCSD(T)/cc-pVTZ-DK energy=   -130.291696974655

        CCSD(T)         HF-SCF  
   -130.29169697   -129.83034639
 **********************************************************************************************************************************
 Molpro calculation terminated
 Variable memory released
