
 Primary working directories    : /tmp/r2666/282518.maple
 Secondary working directories  : /tmp/r2666/282518.maple
 Wavefunction directory         : /ddn/home4/r2666/wfu/
 Main file repository           : /tmp/r2666/282518.maple/

 SHA1      : d5ffa45e93fdbca01ffc919aa182cfdae0147319
 NAME      : 2015.1.35
 ARCHNAME  : linux/x86_64
 FC        : /opt/intel/composer_xe_2015.1.133/bin/intel64/ifort
 BLASLIB   : -Wl,-_start-group /opt/intel/mkl/lib/intel64/libmkl_intel_ilp64.a /opt/intel/mkl/lib/intel64/libmkl_intel_thread.a /opt/intel/mkl/lib/intel64/libmkl_core.a -Wl,-_end-group
 id        : olemiss

 Nodes     nprocs
 cn084        1

 Using customized tuning parameters: mindgm=1; mindgv=20; mindgc=4; mindgr=1; noblas=0; minvec=7
 default implementation of scratch files=df  

 ***,hno CCSD(T)/TZ-F12 QFF
 memory, 995, m;
 gthresh,energy=1.d-12,zero=1.d-22,oneint=1.d-22,twoint=1.d-22;
 gthresh,optgrad=1.d-8,optstep=1.d-8;
 nocompress;
 geomtyp=xyz
 bohr
 geometry={
 3
         28        28
 H        0.0000000000        1.6616980474       -1.9269566477
 N        0.0000000000       -0.1555496643       -1.1443333457
 O        0.0000000000        0.0356194070        1.1207004024
 }
 
 basis=vtz-dk
 dkroll=0
   {hf,maxit=500;accu,20;}
 {ccsd(t),nocheck,maxit=250;orbital,IGNORE_ERROR;}

 Variables initialized (889), CPU time= 0.01 sec
 Commands  initialized (702), CPU time= 0.01 sec, 572 directives.
 Default parameters read. Elapsed time= 0.04 sec

 Checking input...
 Passed
1


                                         ***  PROGRAM SYSTEM MOLPRO  ***
                                       Copyright, TTI GmbH Stuttgart, 2015
                                    Version 2015.1 linked Jul  9 2018 13:16:40


 **********************************************************************************************************************************
 LABEL *   hno CCSD(T)/TZ-F12 QFF                                                        
  64 bit serial version                                                                  DATE: 04-Mar-20          TIME: 13:50:49  
 **********************************************************************************************************************************

 SHA1:             d5ffa45e93fdbca01ffc919aa182cfdae0147319
 **********************************************************************************************************************************

 THRESHOLDS:

 ZERO    =  1.00D-22  ONEINT  =  1.00D-22  TWOINT  =  1.00D-22  PREFAC  =  1.00D-14  LOCALI  =  1.00D-09  EORDER  =  1.00D-04
 ENERGY  =  1.00D-12  ETEST   =  0.00D+00  EDENS   =  0.00D+00  THRDEDEF=  1.00D-06  GRADIENT=  1.00D-02  STEP    =  1.00D-03
 ORBITAL =  1.00D-05  CIVEC   =  1.00D-05  COEFF   =  1.00D-04  PRINTCI =  5.00D-02  PUNCHCI =  9.90D+01  OPTGRAD =  3.00D-04
 OPTENERG=  1.00D-06  OPTSTEP =  3.00D-04  THRGRAD =  1.00D-10  COMPRESS=  1.00D-11  VARMIN  =  1.00D-07  VARMAX  =  1.00D-03
 THRDOUB =  0.00D+00  THRDIV  =  1.00D-05  THRRED  =  1.00D-07  THRPSP  =  1.00D+00  THRDC   =  1.00D-10  THRCS   =  1.00D-10
 THRNRM  =  1.00D-08  THREQ   =  0.00D+00  THRDE   =  1.00D+00  THRREF  =  1.00D-05  SPARFAC =  1.00D+00  THRDLP  =  1.00D-07
 THRDIA  =  1.00D-10  THRDLS  =  1.00D-07  THRGPS  =  0.00D+00  THRKEX  =  0.00D+00  THRDIS  =  2.00D-01  THRVAR  =  1.00D-10
 THRLOC  =  1.00D-06  THRGAP  =  1.00D-06  THRLOCT = -1.00D+00  THRGAPT = -1.00D+00  THRORB  =  1.00D-06  THRMLTP =  0.00D+00
 THRCPQCI=  1.00D-10  KEXTA   =  0.00D+00  THRCOARS=  0.00D+00  SYMTOL  =  1.00D-06  GRADTOL =  1.00D-06  THROVL  =  1.00D-08
 THRORTH =  1.00D-08  GRID    =  1.00D-06  GRIDMAX =  1.00D-03  DTMAX   =  0.00D+00  THROCCDE=  1.00D-01  THROCCDE=  1.00D-01



 THRESHOLDS:

 ZERO    =  1.00D-22  ONEINT  =  1.00D-22  TWOINT  =  1.00D-22  PREFAC  =  1.00D-14  LOCALI  =  1.00D-09  EORDER  =  1.00D-04
 ENERGY  =  1.00D-12  ETEST   =  0.00D+00  EDENS   =  0.00D+00  THRDEDEF=  1.00D-06  GRADIENT=  1.00D-02  STEP    =  1.00D-03
 ORBITAL =  1.00D-05  CIVEC   =  1.00D-05  COEFF   =  1.00D-04  PRINTCI =  5.00D-02  PUNCHCI =  9.90D+01  OPTGRAD =  1.00D-08
 OPTENERG=  1.00D-06  OPTSTEP =  1.00D-08  THRGRAD =  1.00D-10  COMPRESS=  1.00D-11  VARMIN  =  1.00D-07  VARMAX  =  1.00D-03
 THRDOUB =  0.00D+00  THRDIV  =  1.00D-05  THRRED  =  1.00D-07  THRPSP  =  1.00D+00  THRDC   =  1.00D-10  THRCS   =  1.00D-10
 THRNRM  =  1.00D-08  THREQ   =  0.00D+00  THRDE   =  1.00D+00  THRREF  =  1.00D-05  SPARFAC =  1.00D+00  THRDLP  =  1.00D-07
 THRDIA  =  1.00D-10  THRDLS  =  1.00D-07  THRGPS  =  0.00D+00  THRKEX  =  0.00D+00  THRDIS  =  2.00D-01  THRVAR  =  1.00D-10
 THRLOC  =  1.00D-06  THRGAP  =  1.00D-06  THRLOCT = -1.00D+00  THRGAPT = -1.00D+00  THRORB  =  1.00D-06  THRMLTP =  0.00D+00
 THRCPQCI=  1.00D-10  KEXTA   =  0.00D+00  THRCOARS=  0.00D+00  SYMTOL  =  1.00D-06  GRADTOL =  1.00D-06  THROVL  =  1.00D-08
 THRORTH =  1.00D-08  GRID    =  1.00D-06  GRIDMAX =  1.00D-03  DTMAX   =  0.00D+00  THROCCDE=  1.00D-01  THROCCDE=  1.00D-01



 Input parameters for SORTINT:

 COMPRESS =    0.000000
 C_FINAL  =    1.000000
 DEBUG    =   -1.000000
 C_SORT1  =    0.000000
 C_SEWARD =    0.000000
 THRESH   =    0.000000
 IO       =  molpro                                                          
 SPRI     =    0.000000
 SETTING GEOMTYP        =    XYZ
 ZUNIT=BOHR
 

 Variable memory set to  995000000 words,  buffer space   230000 words

 SETTING BASIS          =    VTZ-DK
 SETTING DKROLL         =     0.00000000D+00                                  


 Recomputing integrals since basis changed


 Using spherical harmonics

 Library entry H      S cc-pVTZ-DK           selected for orbital group  1
 Library entry H      P cc-pVTZ-DK           selected for orbital group  1
 Library entry H      D cc-pVTZ-DK           selected for orbital group  1
 Library entry N      S cc-pVTZ-DK           selected for orbital group  2
 Library entry N      P cc-pVTZ-DK           selected for orbital group  2
 Library entry N      D cc-pVTZ-DK           selected for orbital group  2
 Library entry N      F cc-pVTZ-DK           selected for orbital group  2
 Library entry O      S cc-pVTZ-DK           selected for orbital group  3
 Library entry O      P cc-pVTZ-DK           selected for orbital group  3
 Library entry O      D cc-pVTZ-DK           selected for orbital group  3
 Library entry O      F cc-pVTZ-DK           selected for orbital group  3


 PROGRAM * SEWARD (Integral evaluation for generally contracted gaussian basis sets)     Author: Roland Lindh, 1990

 Geometry written to block  1 of record 700


 Point group  Cs  



 ATOMIC COORDINATES

 NR  ATOM    CHARGE       X              Y              Z

   1  H       1.00    0.000000000    1.661698047   -1.926956648
   2  N       7.00    0.000000000   -0.155549664   -1.144333346
   3  O       8.00    0.000000000    0.035619407    1.120700402

 Bond lengths in Bohr (Angstrom)

 1-2  1.978607712  2-3  2.273086777
     ( 1.047034111)     ( 1.202865721)

 Bond angles

  1-2-3  108.47547239

 NUCLEAR CHARGE:                   16
 NUMBER OF PRIMITIVE AOS:         111
 NUMBER OF SYMMETRY AOS:          100
 NUMBER OF CONTRACTIONS:           74   (  50A'  +  24A"  )
 NUMBER OF CORE ORBITALS:           2   (   2A'  +   0A"  )
 NUMBER OF VALENCE ORBITALS:        9   (   7A'  +   2A"  )


 NUCLEAR REPULSION ENERGY   30.48988310

 Eigenvalues of metric

         1 0.241E-02 0.393E-02 0.408E-02 0.824E-02 0.129E-01 0.323E-01 0.422E-01 0.463E-01
         2 0.340E-01 0.464E-01 0.101E+00 0.110E+00 0.232E+00 0.340E+00 0.393E+00 0.448E+00


 Contracted 2-electron integrals neglected if value below      1.0D-22

        1874283. INTEGRALS WRITTEN OUT IN     458 BLOCKS ON RECORD 1290 OF FILE 1


 NUMBER OF SORTED TWO-ELECTRON INTEGRALS:    2006100.     BUFFER LENGTH:  32768
 NUMBER OF SEGMENTS:   1  SEGMENT LENGTH:    2006100      RECORD LENGTH: 524288

 Memory used in sort:       2.56 MW

 SORT1 READ     1874283. AND WROTE     1914195. INTEGRALS IN      6 RECORDS. CPU TIME:     0.02 SEC, REAL TIME:     0.04 SEC
 SORT2 READ     1914195. AND WROTE     2006100. INTEGRALS IN      1 RECORDS. CPU TIME:     0.04 SEC, REAL TIME:     0.06 SEC

 FILE SIZES:   FILE 1:    50.1 MBYTE,  FILE 4:    25.2 MBYTE,   TOTAL:     75.3 MBYTE

 OPERATOR DM      FOR CENTER  0  COORDINATES:    0.000000    0.000000    0.000000


 **********************************************************************************************************************************
 DATASETS  * FILE   NREC   LENGTH (MB)   RECORD NAMES
              1      19       35.89       500      610      700      900      950      970     1000      129      960     1100   
                                          VAR    BASINP    GEOM    SYMINP    ZMAT    AOBASIS   BASIS     P2S    ABASIS      S 
                                         1400     1410     1200     1210     1080     1600     1650     1300     1700   
                                           T        V       H0       H01     AOSYM     SMH    MOLCAS    ERIS     OPER   

 PROGRAMS   *        TOTAL       INT
 CPU TIMES  *         0.61      0.52
 REAL TIME  *         1.16 SEC
 DISK USED  *        75.59 MB      
 **********************************************************************************************************************************


 PROGRAM * RHF-SCF (CLOSED SHELL)       Authors: W. Meyer, H.-J. Werner


 NUMBER OF ELECTRONS:       8+    8-
 CONVERGENCE THRESHOLDS:    1.00E-10 (Density)    1.00E-13 (Energy)
 MAX. NUMBER OF ITERATIONS:      500
 INTERPOLATION TYPE:            DIIS
 INTERPOLATION STEPS:              2 (START)      1 (STEP)
 LEVEL SHIFTS:                  0.00 (CLOSED)  0.00 (OPEN) 



 Orbital guess generated from atomic densities. Full valence occupancy:    9   2

 Molecular orbital dump at record        2100.2

 Initial occupancy:   7   1

 ITERATION    DDIFF          GRAD             ENERGY        2-EL.EN.            DIPOLE MOMENTS         DIIS   ORB.
    1      0.000D+00      0.000D+00      -129.78206821    154.353255    0.00000    0.59386   -1.02214    0    start
    2      0.000D+00      0.134D-01      -129.80911163    155.509996    0.00000    0.61267   -0.23030    1    diag
    3      0.183D-01      0.101D-01      -129.83017397    155.619608    0.00000    0.56422   -0.59643    2    diag
    4      0.883D-02      0.156D-02      -129.83090445    155.356533    0.00000    0.57269   -0.53746    3    diag
    5      0.166D-02      0.511D-03      -129.83101666    155.441583    0.00000    0.57805   -0.53874    4    diag
    6      0.712D-03      0.151D-03      -129.83103501    155.426986    0.00000    0.57862   -0.53467    5    diag
    7      0.275D-03      0.753D-04      -129.83104031    155.429289    0.00000    0.57985   -0.53224    6    diag
    8      0.189D-03      0.238D-04      -129.83104080    155.428626    0.00000    0.57987   -0.53146    7    diag
    9      0.622D-04      0.431D-05      -129.83104082    155.428516    0.00000    0.57982   -0.53131    8    diag
   10      0.120D-04      0.964D-06      -129.83104082    155.428499    0.00000    0.57978   -0.53129    9    orth
   11      0.276D-05      0.189D-06      -129.83104082    155.428494    0.00000    0.57978   -0.53129    9    diag
   12      0.503D-06      0.387D-07      -129.83104082    155.428493    0.00000    0.57978   -0.53128    9    diag
   13      0.108D-06      0.950D-08      -129.83104082    155.428493    0.00000    0.57978   -0.53128    9    diag
   14      0.266D-07      0.173D-08      -129.83104082    155.428493    0.00000    0.57978   -0.53128    9    diag
   15      0.432D-08      0.449D-09      -129.83104082    155.428493    0.00000    0.57978   -0.53128    9    diag
   16      0.103D-08      0.112D-09      -129.83104082    155.428493    0.00000    0.57978   -0.53128    9    diag
   17      0.189D-09      0.315D-10      -129.83104082    155.428493    0.00000    0.57978   -0.53128    9    diag
   18      0.580D-10      0.105D-10      -129.83104082    155.428493    0.00000    0.57978   -0.53128    9    diag
   19      0.248D-10      0.232D-11      -129.83104082    155.428493    0.00000    0.57978   -0.53128    0    orth

 Final occupancy:   7   1

 !RHF STATE 1.1 Energy               -129.831040819191
 Nuclear energy                        30.48988310
 One-electron energy                 -238.03517029
 Two-electron energy                   77.71424638
 Virial quotient                       -0.99947430
 !RHF STATE 1.1 Dipole moment           0.00000000     0.57977507    -0.53128352
 Dipole moment /Debye                   0.00000000     1.47354472    -1.35029957

 Orbital energies:

         1.1          2.1          3.1          4.1          5.1          6.1          7.1          8.1          9.1
    -20.647376   -15.706175    -1.529990    -0.991230    -0.745259    -0.663471    -0.425407     0.144625     0.370701

         1.2          2.2          3.2
     -0.594430     0.088179     0.612460

 HOMO      7.1    -0.425407 =     -11.5759eV
 LUMO      2.2     0.088179 =       2.3995eV
 LUMO-HOMO         0.513587 =      13.9754eV


 **********************************************************************************************************************************
 DATASETS  * FILE   NREC   LENGTH (MB)   RECORD NAMES
              1      19       35.89       500      610      700      900      950      970     1000      129      960     1100   
                                          VAR    BASINP    GEOM    SYMINP    ZMAT    AOBASIS   BASIS     P2S    ABASIS      S 
                                         1400     1410     1200     1210     1080     1600     1650     1300     1700   
                                           T        V       H0       H01     AOSYM     SMH    MOLCAS    ERIS     OPER   

              2       4        2.85       700     1000      520     2100   
                                         GEOM     BASIS   MCVARS     RHF  

 PROGRAMS   *        TOTAL        HF       INT
 CPU TIMES  *         0.80      0.18      0.52
 REAL TIME  *         1.40 SEC
 DISK USED  *        75.59 MB      
 **********************************************************************************************************************************


 PROGRAM * CCSD (Closed-shell coupled cluster)     Authors: C. Hampel, H.-J. Werner, 1991, M. Deegan, P.J. Knowles, 1992


 Convergence thresholds:  THRVAR = 1.00D-08  THRDEN = 1.00D-12

 CCSD(T)     terms to be evaluated (factor= 1.000)


 Number of core orbitals:           2 (   2   0 )
 Number of closed-shell orbitals:   6 (   5   1 )
 Number of external orbitals:      66 (  43  23 )

 Molecular orbitals read from record     2100.2  Type=RHF/CANONICAL (state 1.1)

 Number of N-1 electron functions:               6
 Number of N-2 electron functions:              21
 Number of singly external CSFs:               238
 Number of doubly external CSFs:             41002
 Total number of CSFs:                       41241

 Length of J-op  integral file:               0.00 MB
 Length of K-op  integral file:               0.25 MB
 Length of 3-ext integral record:             0.00 MB

 Memory could be reduced to 1.65 Mwords without degradation in triples

 Integral transformation finished. Total CPU:   0.02 sec, npass=  1  Memory used:   0.55 MW

 Reference energy:                   -129.83104082

 MP2 singlet pair energy:              -0.27290978
 MP2 triplet pair energy:              -0.16200174
 MP2 correlation energy:               -0.43491152
 MP2 total energy:                   -130.26595234

 SCS-MP2 correlation energy:           -0.42829282   (PS=  1.200000  PT=  0.333333)
 SCS-MP2 total energy:               -130.25933363

 ITER.      SQ.NORM     CORR.ENERGY   TOTAL ENERGY   ENERGY CHANGE        DEN1      VAR(S)    VAR(P)  DIIS     TIME  TIME/IT
   1      1.11769846    -0.44025556  -130.27129638    -0.00534404     0.01016744  0.29D-02  0.29D-02  1  1     0.06     0.04
   2      1.12838070    -0.44055565  -130.27159647    -0.00030009    -0.01211982  0.85D-04  0.49D-03  2  2     0.09     0.04
   3      1.13452210    -0.44093029  -130.27197110    -0.00037464    -0.00293009  0.45D-04  0.49D-04  3  3     0.13     0.04
   4      1.13725667    -0.44095656  -130.27199738    -0.00002628    -0.00093832  0.38D-05  0.87D-05  4  4     0.16     0.04
   5      1.13821679    -0.44098473  -130.27202555    -0.00002817    -0.00019868  0.13D-05  0.17D-05  5  5     0.19     0.04
   6      1.13856664    -0.44096892  -130.27200974     0.00001581    -0.00003954  0.91D-07  0.41D-06  6  6     0.22     0.04
   7      1.13865177    -0.44097095  -130.27201177    -0.00000203    -0.00000223  0.11D-07  0.86D-07  6  1     0.26     0.04
   8      1.13868183    -0.44097102  -130.27201184    -0.00000007     0.00000199  0.46D-08  0.99D-08  6  2     0.30     0.04
   9      1.13868930    -0.44097085  -130.27201167     0.00000017    -0.00000228  0.25D-08  0.11D-08  6  3     0.34     0.04
  10      1.13868803    -0.44097134  -130.27201216    -0.00000049     0.00000063  0.48D-09  0.19D-09  6  4     0.37     0.04
  11      1.13868634    -0.44097140  -130.27201222    -0.00000006     0.00000018  0.14D-09  0.22D-10  6  5     0.41     0.04
  12      1.13868498    -0.44097157  -130.27201239    -0.00000017     0.00000042  0.15D-10  0.72D-11  6  6     0.45     0.04
  13      1.13868440    -0.44097158  -130.27201240    -0.00000001     0.00000012  0.64D-11  0.12D-11  6  1     0.48     0.04
  14      1.13868403    -0.44097160  -130.27201242    -0.00000002     0.00000007  0.88D-12  0.41D-12  6  2     0.52     0.04
  15      1.13868390    -0.44097160  -130.27201242    -0.00000000     0.00000001  0.22D-12  0.14D-12  6  3     0.56     0.04
  16      1.13868380    -0.44097160  -130.27201242    -0.00000000     0.00000001  0.24D-13  0.16D-13  6  5     0.59     0.04
  17      1.13868378    -0.44097160  -130.27201242    -0.00000000     0.00000000  0.78D-15  0.22D-14  6  4     0.62     0.04
  18      1.13868377    -0.44097160  -130.27201242     0.00000000    -0.00000000  0.50D-15  0.31D-15  6  1     0.66     0.04
  19      1.13868377    -0.44097160  -130.27201242    -0.00000000     0.00000000  0.46D-16  0.56D-16  6  6     0.69     0.04
  20      1.13868377    -0.44097160  -130.27201242    -0.00000000     0.00000000  0.99D-17  0.14D-16  6  2     0.72     0.04
  21      1.13868377    -0.44097160  -130.27201242    -0.00000000     0.00000000  0.18D-17  0.10D-17  6  5     0.76     0.04
  22      1.13868377    -0.44097160  -130.27201242     0.00000000     0.00000000  0.11D-18  0.77D-19  6  3     0.79     0.04
  23      1.13868377    -0.44097160  -130.27201242     0.00000000    -0.00000000  0.30D-19  0.17D-19  6  4     0.82     0.04
  24      1.13868377    -0.44097160  -130.27201242     0.00000000    -0.00000000  0.44D-20  0.47D-20  6  1     0.85     0.04
  25      1.13868377    -0.44097160  -130.27201242     0.00000000    -0.00000000  0.51D-21  0.81D-21  6  6     0.89     0.04

 Norm of t1 vector:      0.07401452      S-energy:     0.00000000      T1 diagnostic:  0.01510815
                                                                       D1 diagnostic:  0.04179520

 Doubles amplitudes (print threshold =  0.500E-01):

         I         J         SYM. A    SYM. B    A         B      T(IJ, AB)

         6         6         2         2         1         1     -0.14241305


 Total CPU time for triples:      0.23 sec


 RESULTS
 =======

  Reference energy                   -129.831040819191
  CCSD singlet pair energy             -0.302210225777
  CCSD triplet pair energy             -0.138761374458
  CCSD correlation energy              -0.440971600234

  Triples (T) contribution             -0.019583101544
  Total correlation energy             -0.460554701778

  CCSD total energy                  -130.272012419426
  CCSD[T] energy                     -130.292587083816
  CCSD-T energy                      -130.291205194781
 !CCSD(T) total energy               -130.291595520970

 Timing summary (sec):

 STEP                 CPU(USER)    SYS     CPU(TOT)    WALL
 Transformation          0.02      0.02      0.04      0.03
 CCSD iterations         0.88      0.10      0.98      0.99
 Triples                 0.23      0.01      0.24      0.23

 Program statistics:

 Available memory in ccsd:               994999756
 Min. memory needed in ccsd:                154850
 Max. memory used in ccsd:                  184802
 Max. memory used in cckext:                238416 (25 integral passes)



 **********************************************************************************************************************************
 DATASETS  * FILE   NREC   LENGTH (MB)   RECORD NAMES
              1      20       40.28       500      610      700      900      950      970     1000      129      960     1100   
                                          VAR    BASINP    GEOM    SYMINP    ZMAT    AOBASIS   BASIS     P2S    ABASIS      S 
                                         1400     1410     1200     1210     1080     1600     1650     1300     1700     1380   
                                           T        V       H0       H01     AOSYM     SMH    MOLCAS    ERIS     OPER     JKOP   

              2       4        2.85       700     1000      520     2100   
                                         GEOM     BASIS   MCVARS     RHF  

 PROGRAMS   *        TOTAL   CCSD(T)        HF       INT
 CPU TIMES  *         1.96      1.15      0.18      0.52
 REAL TIME  *         2.69 SEC
 DISK USED  *        75.59 MB      
 **********************************************************************************************************************************

 CCSD(T)/cc-pVTZ-DK energy=   -130.291595520970

        CCSD(T)         HF-SCF  
   -130.29159552   -129.83104082
 **********************************************************************************************************************************
 Molpro calculation terminated
 Variable memory released
