
 Primary working directories    : /tmp/r2666/282576.maple
 Secondary working directories  : /tmp/r2666/282576.maple
 Wavefunction directory         : /ddn/home4/r2666/wfu/
 Main file repository           : /tmp/r2666/282576.maple/

 SHA1      : d5ffa45e93fdbca01ffc919aa182cfdae0147319
 NAME      : 2015.1.35
 ARCHNAME  : linux/x86_64
 FC        : /opt/intel/composer_xe_2015.1.133/bin/intel64/ifort
 BLASLIB   : -Wl,-_start-group /opt/intel/mkl/lib/intel64/libmkl_intel_ilp64.a /opt/intel/mkl/lib/intel64/libmkl_intel_thread.a /opt/intel/mkl/lib/intel64/libmkl_core.a -Wl,-_end-group
 id        : olemiss

 Nodes     nprocs
 cn075        1

 Using customized tuning parameters: mindgm=1; mindgv=20; mindgc=4; mindgr=1; noblas=0; minvec=7
 default implementation of scratch files=df  

 ***,hno CCSD(T)/TZ-F12 QFF
 memory, 995, m;
 gthresh,energy=1.d-12,zero=1.d-22,oneint=1.d-22,twoint=1.d-22;
 gthresh,optgrad=1.d-8,optstep=1.d-8;
 nocompress;
 geomtyp=xyz
 bohr
 geometry={
 3
         86        86
 H        0.0000000000        1.6689798054       -1.9263123244
 N        0.0000000000       -0.1649570095       -1.1346672827
 O        0.0000000000        0.0377449941        1.1103900161
 }
 
 basis=vtz-dk
 dkroll=0
   {hf,maxit=500;accu,20;}
 {ccsd(t),nocheck,maxit=250;orbital,IGNORE_ERROR;}

 Variables initialized (889), CPU time= 0.01 sec
 Commands  initialized (702), CPU time= 0.00 sec, 572 directives.
 Default parameters read. Elapsed time= 0.11 sec

 Checking input...
 Passed
1


                                         ***  PROGRAM SYSTEM MOLPRO  ***
                                       Copyright, TTI GmbH Stuttgart, 2015
                                    Version 2015.1 linked Jul  9 2018 13:16:40


 **********************************************************************************************************************************
 LABEL *   hno CCSD(T)/TZ-F12 QFF                                                        
  64 bit serial version                                                                  DATE: 04-Mar-20          TIME: 13:50:59  
 **********************************************************************************************************************************

 SHA1:             d5ffa45e93fdbca01ffc919aa182cfdae0147319
 **********************************************************************************************************************************

 THRESHOLDS:

 ZERO    =  1.00D-22  ONEINT  =  1.00D-22  TWOINT  =  1.00D-22  PREFAC  =  1.00D-14  LOCALI  =  1.00D-09  EORDER  =  1.00D-04
 ENERGY  =  1.00D-12  ETEST   =  0.00D+00  EDENS   =  0.00D+00  THRDEDEF=  1.00D-06  GRADIENT=  1.00D-02  STEP    =  1.00D-03
 ORBITAL =  1.00D-05  CIVEC   =  1.00D-05  COEFF   =  1.00D-04  PRINTCI =  5.00D-02  PUNCHCI =  9.90D+01  OPTGRAD =  3.00D-04
 OPTENERG=  1.00D-06  OPTSTEP =  3.00D-04  THRGRAD =  1.00D-10  COMPRESS=  1.00D-11  VARMIN  =  1.00D-07  VARMAX  =  1.00D-03
 THRDOUB =  0.00D+00  THRDIV  =  1.00D-05  THRRED  =  1.00D-07  THRPSP  =  1.00D+00  THRDC   =  1.00D-10  THRCS   =  1.00D-10
 THRNRM  =  1.00D-08  THREQ   =  0.00D+00  THRDE   =  1.00D+00  THRREF  =  1.00D-05  SPARFAC =  1.00D+00  THRDLP  =  1.00D-07
 THRDIA  =  1.00D-10  THRDLS  =  1.00D-07  THRGPS  =  0.00D+00  THRKEX  =  0.00D+00  THRDIS  =  2.00D-01  THRVAR  =  1.00D-10
 THRLOC  =  1.00D-06  THRGAP  =  1.00D-06  THRLOCT = -1.00D+00  THRGAPT = -1.00D+00  THRORB  =  1.00D-06  THRMLTP =  0.00D+00
 THRCPQCI=  1.00D-10  KEXTA   =  0.00D+00  THRCOARS=  0.00D+00  SYMTOL  =  1.00D-06  GRADTOL =  1.00D-06  THROVL  =  1.00D-08
 THRORTH =  1.00D-08  GRID    =  1.00D-06  GRIDMAX =  1.00D-03  DTMAX   =  0.00D+00  THROCCDE=  1.00D-01  THROCCDE=  1.00D-01



 THRESHOLDS:

 ZERO    =  1.00D-22  ONEINT  =  1.00D-22  TWOINT  =  1.00D-22  PREFAC  =  1.00D-14  LOCALI  =  1.00D-09  EORDER  =  1.00D-04
 ENERGY  =  1.00D-12  ETEST   =  0.00D+00  EDENS   =  0.00D+00  THRDEDEF=  1.00D-06  GRADIENT=  1.00D-02  STEP    =  1.00D-03
 ORBITAL =  1.00D-05  CIVEC   =  1.00D-05  COEFF   =  1.00D-04  PRINTCI =  5.00D-02  PUNCHCI =  9.90D+01  OPTGRAD =  1.00D-08
 OPTENERG=  1.00D-06  OPTSTEP =  1.00D-08  THRGRAD =  1.00D-10  COMPRESS=  1.00D-11  VARMIN  =  1.00D-07  VARMAX  =  1.00D-03
 THRDOUB =  0.00D+00  THRDIV  =  1.00D-05  THRRED  =  1.00D-07  THRPSP  =  1.00D+00  THRDC   =  1.00D-10  THRCS   =  1.00D-10
 THRNRM  =  1.00D-08  THREQ   =  0.00D+00  THRDE   =  1.00D+00  THRREF  =  1.00D-05  SPARFAC =  1.00D+00  THRDLP  =  1.00D-07
 THRDIA  =  1.00D-10  THRDLS  =  1.00D-07  THRGPS  =  0.00D+00  THRKEX  =  0.00D+00  THRDIS  =  2.00D-01  THRVAR  =  1.00D-10
 THRLOC  =  1.00D-06  THRGAP  =  1.00D-06  THRLOCT = -1.00D+00  THRGAPT = -1.00D+00  THRORB  =  1.00D-06  THRMLTP =  0.00D+00
 THRCPQCI=  1.00D-10  KEXTA   =  0.00D+00  THRCOARS=  0.00D+00  SYMTOL  =  1.00D-06  GRADTOL =  1.00D-06  THROVL  =  1.00D-08
 THRORTH =  1.00D-08  GRID    =  1.00D-06  GRIDMAX =  1.00D-03  DTMAX   =  0.00D+00  THROCCDE=  1.00D-01  THROCCDE=  1.00D-01



 Input parameters for SORTINT:

 COMPRESS =    0.000000
 C_FINAL  =    1.000000
 DEBUG    =   -1.000000
 C_SORT1  =    0.000000
 C_SEWARD =    0.000000
 THRESH   =    0.000000
 IO       =  molpro                                                          
 SPRI     =    0.000000
 SETTING GEOMTYP        =    XYZ
 ZUNIT=BOHR
 

 Variable memory set to  995000000 words,  buffer space   230000 words

 SETTING BASIS          =    VTZ-DK
 SETTING DKROLL         =     0.00000000D+00                                  


 Recomputing integrals since basis changed


 Using spherical harmonics

 Library entry H      S cc-pVTZ-DK           selected for orbital group  1
 Library entry H      P cc-pVTZ-DK           selected for orbital group  1
 Library entry H      D cc-pVTZ-DK           selected for orbital group  1
 Library entry N      S cc-pVTZ-DK           selected for orbital group  2
 Library entry N      P cc-pVTZ-DK           selected for orbital group  2
 Library entry N      D cc-pVTZ-DK           selected for orbital group  2
 Library entry N      F cc-pVTZ-DK           selected for orbital group  2
 Library entry O      S cc-pVTZ-DK           selected for orbital group  3
 Library entry O      P cc-pVTZ-DK           selected for orbital group  3
 Library entry O      D cc-pVTZ-DK           selected for orbital group  3
 Library entry O      F cc-pVTZ-DK           selected for orbital group  3


 PROGRAM * SEWARD (Integral evaluation for generally contracted gaussian basis sets)     Author: Roland Lindh, 1990

 Geometry written to block  1 of record 700


 Point group  Cs  



 ATOMIC COORDINATES

 NR  ATOM    CHARGE       X              Y              Z

   1  H       1.00    0.000000000    1.668979805   -1.926312324
   2  N       7.00    0.000000000   -0.164957010   -1.134667283
   3  O       8.00    0.000000000    0.037744994    1.110390016

 Bond lengths in Bohr (Angstrom)

 1-2  1.997504972  2-3  2.254189517
     ( 1.057034110)     ( 1.192865721)

 Bond angles

  1-2-3  108.18899349

 NUCLEAR CHARGE:                   16
 NUMBER OF PRIMITIVE AOS:         111
 NUMBER OF SYMMETRY AOS:          100
 NUMBER OF CONTRACTIONS:           74   (  50A'  +  24A"  )
 NUMBER OF CORE ORBITALS:           2   (   2A'  +   0A"  )
 NUMBER OF VALENCE ORBITALS:        9   (   7A'  +   2A"  )


 NUCLEAR REPULSION ENERGY   30.66779587

 Eigenvalues of metric

         1 0.241E-02 0.387E-02 0.402E-02 0.836E-02 0.131E-01 0.318E-01 0.417E-01 0.463E-01
         2 0.336E-01 0.464E-01 0.998E-01 0.112E+00 0.230E+00 0.343E+00 0.391E+00 0.446E+00


 Contracted 2-electron integrals neglected if value below      1.0D-22

        1874283. INTEGRALS WRITTEN OUT IN     458 BLOCKS ON RECORD 1290 OF FILE 1


 NUMBER OF SORTED TWO-ELECTRON INTEGRALS:    2006100.     BUFFER LENGTH:  32768
 NUMBER OF SEGMENTS:   1  SEGMENT LENGTH:    2006100      RECORD LENGTH: 524288

 Memory used in sort:       2.56 MW

 SORT1 READ     1874283. AND WROTE     1914195. INTEGRALS IN      6 RECORDS. CPU TIME:     0.03 SEC, REAL TIME:     0.04 SEC
 SORT2 READ     1914195. AND WROTE     2006100. INTEGRALS IN      1 RECORDS. CPU TIME:     0.05 SEC, REAL TIME:     0.06 SEC

 FILE SIZES:   FILE 1:    50.1 MBYTE,  FILE 4:    25.2 MBYTE,   TOTAL:     75.3 MBYTE

 OPERATOR DM      FOR CENTER  0  COORDINATES:    0.000000    0.000000    0.000000


 **********************************************************************************************************************************
 DATASETS  * FILE   NREC   LENGTH (MB)   RECORD NAMES
              1      19       35.89       500      610      700      900      950      970     1000      129      960     1100   
                                          VAR    BASINP    GEOM    SYMINP    ZMAT    AOBASIS   BASIS     P2S    ABASIS      S 
                                         1400     1410     1200     1210     1080     1600     1650     1300     1700   
                                           T        V       H0       H01     AOSYM     SMH    MOLCAS    ERIS     OPER   

 PROGRAMS   *        TOTAL       INT
 CPU TIMES  *         0.65      0.53
 REAL TIME  *         1.18 SEC
 DISK USED  *        75.59 MB      
 **********************************************************************************************************************************


 PROGRAM * RHF-SCF (CLOSED SHELL)       Authors: W. Meyer, H.-J. Werner


 NUMBER OF ELECTRONS:       8+    8-
 CONVERGENCE THRESHOLDS:    1.00E-10 (Density)    1.00E-13 (Energy)
 MAX. NUMBER OF ITERATIONS:      500
 INTERPOLATION TYPE:            DIIS
 INTERPOLATION STEPS:              2 (START)      1 (STEP)
 LEVEL SHIFTS:                  0.00 (CLOSED)  0.00 (OPEN) 



 Orbital guess generated from atomic densities. Full valence occupancy:    9   2

 Molecular orbital dump at record        2100.2

 Initial occupancy:   7   1

 ITERATION    DDIFF          GRAD             ENERGY        2-EL.EN.            DIPOLE MOMENTS         DIIS   ORB.
    1      0.000D+00      0.000D+00      -129.78373957    154.664939    0.00000    0.57997   -0.99102    0    start
    2      0.000D+00      0.133D-01      -129.81100095    155.848442    0.00000    0.60444   -0.22890    1    diag
    3      0.181D-01      0.986D-02      -129.83099049    155.935273    0.00000    0.55401   -0.57948    2    diag
    4      0.865D-02      0.154D-02      -129.83170307    155.678067    0.00000    0.56270   -0.52224    3    diag
    5      0.164D-02      0.506D-03      -129.83181358    155.762957    0.00000    0.56815   -0.52374    4    diag
    6      0.706D-03      0.150D-03      -129.83183170    155.748358    0.00000    0.56877   -0.51981    5    diag
    7      0.274D-03      0.740D-04      -129.83183677    155.750809    0.00000    0.57005   -0.51752    6    diag
    8      0.186D-03      0.227D-04      -129.83183719    155.750177    0.00000    0.57007   -0.51680    7    diag
    9      0.581D-04      0.410D-05      -129.83183721    155.750073    0.00000    0.57003   -0.51667    8    diag
   10      0.111D-04      0.934D-06      -129.83183721    155.750056    0.00000    0.56999   -0.51664    9    orth
   11      0.267D-05      0.185D-06      -129.83183721    155.750051    0.00000    0.56999   -0.51664    9    diag
   12      0.500D-06      0.377D-07      -129.83183721    155.750050    0.00000    0.56998   -0.51664    9    diag
   13      0.109D-06      0.917D-08      -129.83183721    155.750049    0.00000    0.56998   -0.51664    9    diag
   14      0.267D-07      0.174D-08      -129.83183721    155.750049    0.00000    0.56998   -0.51664    9    diag
   15      0.465D-08      0.479D-09      -129.83183721    155.750049    0.00000    0.56998   -0.51664    9    diag
   16      0.113D-08      0.134D-09      -129.83183721    155.750049    0.00000    0.56998   -0.51664    9    diag
   17      0.244D-09      0.403D-10      -129.83183721    155.750049    0.00000    0.56998   -0.51664    9    diag
   18      0.830D-10      0.125D-10      -129.83183721    155.750049    0.00000    0.56998   -0.51664    9    diag
   19      0.288D-10      0.274D-11      -129.83183721    155.750049    0.00000    0.56998   -0.51664    9    fixocc
   20      0.665D-11      0.421D-12      -129.83183721    155.750049    0.00000    0.56998   -0.51664    9    orth
   21      0.794D-12      0.127D-12      -129.83183721    155.750049    0.00000    0.56998   -0.51664    0    orth

 Final occupancy:   7   1

 !RHF STATE 1.1 Energy               -129.831837211844
 Nuclear energy                        30.66779587
 One-electron energy                 -238.37465773
 Two-electron energy                   77.87502464
 Virial quotient                       -0.99927739
 !RHF STATE 1.1 Dipole moment           0.00000000     0.56998423    -0.51663559
 Dipole moment /Debye                   0.00000000     1.44866052    -1.31307068

 Orbital energies:

         1.1          2.1          3.1          4.1          5.1          6.1          7.1          8.1          9.1
    -20.646603   -15.705918    -1.538425    -0.986219    -0.747353    -0.666359    -0.421925     0.144657     0.371907

         1.2          2.2          3.2
     -0.599502     0.091938     0.611244

 HOMO      7.1    -0.421925 =     -11.4812eV
 LUMO      2.2     0.091938 =       2.5018eV
 LUMO-HOMO         0.513863 =      13.9829eV


 **********************************************************************************************************************************
 DATASETS  * FILE   NREC   LENGTH (MB)   RECORD NAMES
              1      19       35.89       500      610      700      900      950      970     1000      129      960     1100   
                                          VAR    BASINP    GEOM    SYMINP    ZMAT    AOBASIS   BASIS     P2S    ABASIS      S 
                                         1400     1410     1200     1210     1080     1600     1650     1300     1700   
                                           T        V       H0       H01     AOSYM     SMH    MOLCAS    ERIS     OPER   

              2       4        2.85       700     1000      520     2100   
                                         GEOM     BASIS   MCVARS     RHF  

 PROGRAMS   *        TOTAL        HF       INT
 CPU TIMES  *         0.86      0.21      0.53
 REAL TIME  *         1.44 SEC
 DISK USED  *        75.59 MB      
 **********************************************************************************************************************************


 PROGRAM * CCSD (Closed-shell coupled cluster)     Authors: C. Hampel, H.-J. Werner, 1991, M. Deegan, P.J. Knowles, 1992


 Convergence thresholds:  THRVAR = 1.00D-08  THRDEN = 1.00D-12

 CCSD(T)     terms to be evaluated (factor= 1.000)


 Number of core orbitals:           2 (   2   0 )
 Number of closed-shell orbitals:   6 (   5   1 )
 Number of external orbitals:      66 (  43  23 )

 Molecular orbitals read from record     2100.2  Type=RHF/CANONICAL (state 1.1)

 Number of N-1 electron functions:               6
 Number of N-2 electron functions:              21
 Number of singly external CSFs:               238
 Number of doubly external CSFs:             41002
 Total number of CSFs:                       41241

 Length of J-op  integral file:               0.00 MB
 Length of K-op  integral file:               0.25 MB
 Length of 3-ext integral record:             0.00 MB

 Memory could be reduced to 1.65 Mwords without degradation in triples

 Integral transformation finished. Total CPU:   0.03 sec, npass=  1  Memory used:   0.55 MW

 Reference energy:                   -129.83183721

 MP2 singlet pair energy:              -0.27210641
 MP2 triplet pair energy:              -0.16146140
 MP2 correlation energy:               -0.43356781
 MP2 total energy:                   -130.26540503

 SCS-MP2 correlation energy:           -0.42699257   (PS=  1.200000  PT=  0.333333)
 SCS-MP2 total energy:               -130.25882978

 ITER.      SQ.NORM     CORR.ENERGY   TOTAL ENERGY   ENERGY CHANGE        DEN1      VAR(S)    VAR(P)  DIIS     TIME  TIME/IT
   1      1.11696381    -0.43925469  -130.27109190    -0.00568687     0.00950908  0.28D-02  0.28D-02  1  1     0.06     0.04
   2      1.12747217    -0.43962213  -130.27145934    -0.00036744    -0.01193974  0.81D-04  0.48D-03  2  2     0.10     0.04
   3      1.13347072    -0.43998846  -130.27182567    -0.00036633    -0.00288499  0.44D-04  0.47D-04  3  3     0.13     0.04
   4      1.13611062    -0.44001288  -130.27185009    -0.00002442    -0.00091338  0.37D-05  0.84D-05  4  4     0.18     0.04
   5      1.13703213    -0.44004007  -130.27187728    -0.00002719    -0.00019072  0.13D-05  0.16D-05  5  5     0.21     0.04
   6      1.13737427    -0.44002519  -130.27186240     0.00001488    -0.00003826  0.10D-06  0.40D-06  6  6     0.25     0.04
   7      1.13746115    -0.44002685  -130.27186406    -0.00000166    -0.00000272  0.12D-07  0.80D-07  6  1     0.29     0.04
   8      1.13749145    -0.44002698  -130.27186419    -0.00000013     0.00000180  0.41D-08  0.90D-08  6  2     0.33     0.04
   9      1.13749875    -0.44002678  -130.27186400     0.00000019    -0.00000216  0.23D-08  0.10D-08  6  3     0.37     0.04
  10      1.13749757    -0.44002726  -130.27186447    -0.00000048     0.00000057  0.46D-09  0.18D-09  6  4     0.40     0.04
  11      1.13749587    -0.44002732  -130.27186453    -0.00000006     0.00000020  0.14D-09  0.21D-10  6  5     0.44     0.04
  12      1.13749453    -0.44002748  -130.27186469    -0.00000016     0.00000041  0.15D-10  0.71D-11  6  6     0.47     0.04
  13      1.13749395    -0.44002749  -130.27186470    -0.00000001     0.00000012  0.65D-11  0.11D-11  6  1     0.51     0.04
  14      1.13749358    -0.44002751  -130.27186472    -0.00000002     0.00000007  0.89D-12  0.39D-12  6  2     0.55     0.04
  15      1.13749346    -0.44002751  -130.27186472    -0.00000000     0.00000001  0.22D-12  0.13D-12  6  3     0.58     0.04
  16      1.13749337    -0.44002751  -130.27186472    -0.00000000     0.00000001  0.24D-13  0.15D-13  6  5     0.62     0.04
  17      1.13749334    -0.44002751  -130.27186472    -0.00000000     0.00000000  0.79D-15  0.23D-14  6  4     0.64     0.04
  18      1.13749334    -0.44002751  -130.27186472     0.00000000    -0.00000000  0.49D-15  0.33D-15  6  1     0.68     0.04
  19      1.13749334    -0.44002751  -130.27186472    -0.00000000     0.00000000  0.39D-16  0.56D-16  6  6     0.72     0.04
  20      1.13749333    -0.44002751  -130.27186472    -0.00000000     0.00000000  0.78D-17  0.13D-16  6  2     0.75     0.04
  21      1.13749333    -0.44002751  -130.27186472    -0.00000000     0.00000000  0.17D-17  0.95D-18  6  5     0.79     0.04
  22      1.13749333    -0.44002751  -130.27186472     0.00000000     0.00000000  0.11D-18  0.70D-19  6  3     0.83     0.04
  23      1.13749333    -0.44002751  -130.27186472     0.00000000    -0.00000000  0.31D-19  0.15D-19  6  4     0.87     0.04
  24      1.13749333    -0.44002751  -130.27186472     0.00000000    -0.00000000  0.45D-20  0.43D-20  6  1     0.91     0.04
  25      1.13749333    -0.44002751  -130.27186472     0.00000000    -0.00000000  0.47D-21  0.77D-21  6  6     0.95     0.04

 Norm of t1 vector:      0.07299516      S-energy:     0.00000000      T1 diagnostic:  0.01490008
                                                                       D1 diagnostic:  0.04053674

 Doubles amplitudes (print threshold =  0.500E-01):

         I         J         SYM. A    SYM. B    A         B      T(IJ, AB)

         6         6         2         2         1         1     -0.13950566


 Total CPU time for triples:      0.23 sec


 RESULTS
 =======

  Reference energy                   -129.831837211843
  CCSD singlet pair energy             -0.301382574010
  CCSD triplet pair energy             -0.138644935243
  CCSD correlation energy              -0.440027509254

  Triples (T) contribution             -0.019351448484
  Total correlation energy             -0.459378957737

  CCSD total energy                  -130.271864721097
  CCSD[T] energy                     -130.292177028499
  CCSD-T energy                      -130.290832441317
 !CCSD(T) total energy               -130.291216169581

 Timing summary (sec):

 STEP                 CPU(USER)    SYS     CPU(TOT)    WALL
 Transformation          0.03      0.01      0.04      0.04
 CCSD iterations         0.92      0.12      1.04      1.07
 Triples                 0.23      0.01      0.24      0.24

 Program statistics:

 Available memory in ccsd:               994999756
 Min. memory needed in ccsd:                154850
 Max. memory used in ccsd:                  184802
 Max. memory used in cckext:                238416 (25 integral passes)



 **********************************************************************************************************************************
 DATASETS  * FILE   NREC   LENGTH (MB)   RECORD NAMES
              1      20       40.28       500      610      700      900      950      970     1000      129      960     1100   
                                          VAR    BASINP    GEOM    SYMINP    ZMAT    AOBASIS   BASIS     P2S    ABASIS      S 
                                         1400     1410     1200     1210     1080     1600     1650     1300     1700     1380   
                                           T        V       H0       H01     AOSYM     SMH    MOLCAS    ERIS     OPER     JKOP   

              2       4        2.85       700     1000      520     2100   
                                         GEOM     BASIS   MCVARS     RHF  

 PROGRAMS   *        TOTAL   CCSD(T)        HF       INT
 CPU TIMES  *         2.07      1.21      0.21      0.53
 REAL TIME  *         2.82 SEC
 DISK USED  *        75.59 MB      
 **********************************************************************************************************************************

 CCSD(T)/cc-pVTZ-DK energy=   -130.291216169581

        CCSD(T)         HF-SCF  
   -130.29121617   -129.83183721
 **********************************************************************************************************************************
 Molpro calculation terminated
 Variable memory released
