
 Primary working directories    : /tmp/r2666/282602.maple
 Secondary working directories  : /tmp/r2666/282602.maple
 Wavefunction directory         : /ddn/home4/r2666/wfu/
 Main file repository           : /tmp/r2666/282602.maple/

 SHA1      : d5ffa45e93fdbca01ffc919aa182cfdae0147319
 NAME      : 2015.1.35
 ARCHNAME  : linux/x86_64
 FC        : /opt/intel/composer_xe_2015.1.133/bin/intel64/ifort
 BLASLIB   : -Wl,-_start-group /opt/intel/mkl/lib/intel64/libmkl_intel_ilp64.a /opt/intel/mkl/lib/intel64/libmkl_intel_thread.a /opt/intel/mkl/lib/intel64/libmkl_core.a -Wl,-_end-group
 id        : olemiss

 Nodes     nprocs
 cn086        1

 Using customized tuning parameters: mindgm=1; mindgv=20; mindgc=4; mindgr=1; noblas=0; minvec=7
 default implementation of scratch files=df  

 ***,hno CCSD(T)/TZ-F12 QFF
 memory, 995, m;
 gthresh,energy=1.d-12,zero=1.d-22,oneint=1.d-22,twoint=1.d-22;
 gthresh,optgrad=1.d-8,optstep=1.d-8;
 nocompress;
 geomtyp=xyz
 bohr
 geometry={
 3
        112       112
 H        0.0000000000        1.6749369283       -1.9306550732
 N        0.0000000000       -0.1704620112       -1.1417536126
 O        0.0000000000        0.0372928730        1.1218190948
 }
 
 basis=vtz-dk
 dkroll=0
   {hf,maxit=500;accu,20;}
 {ccsd(t),nocheck,maxit=250;orbital,IGNORE_ERROR;}

 Variables initialized (889), CPU time= 0.01 sec
 Commands  initialized (702), CPU time= 0.01 sec, 572 directives.
 Default parameters read. Elapsed time= 0.08 sec

 Checking input...
 Passed
1


                                         ***  PROGRAM SYSTEM MOLPRO  ***
                                       Copyright, TTI GmbH Stuttgart, 2015
                                    Version 2015.1 linked Jul  9 2018 13:16:40


 **********************************************************************************************************************************
 LABEL *   hno CCSD(T)/TZ-F12 QFF                                                        
  64 bit serial version                                                                  DATE: 04-Mar-20          TIME: 13:51:02  
 **********************************************************************************************************************************

 SHA1:             d5ffa45e93fdbca01ffc919aa182cfdae0147319
 **********************************************************************************************************************************

 THRESHOLDS:

 ZERO    =  1.00D-22  ONEINT  =  1.00D-22  TWOINT  =  1.00D-22  PREFAC  =  1.00D-14  LOCALI  =  1.00D-09  EORDER  =  1.00D-04
 ENERGY  =  1.00D-12  ETEST   =  0.00D+00  EDENS   =  0.00D+00  THRDEDEF=  1.00D-06  GRADIENT=  1.00D-02  STEP    =  1.00D-03
 ORBITAL =  1.00D-05  CIVEC   =  1.00D-05  COEFF   =  1.00D-04  PRINTCI =  5.00D-02  PUNCHCI =  9.90D+01  OPTGRAD =  3.00D-04
 OPTENERG=  1.00D-06  OPTSTEP =  3.00D-04  THRGRAD =  1.00D-10  COMPRESS=  1.00D-11  VARMIN  =  1.00D-07  VARMAX  =  1.00D-03
 THRDOUB =  0.00D+00  THRDIV  =  1.00D-05  THRRED  =  1.00D-07  THRPSP  =  1.00D+00  THRDC   =  1.00D-10  THRCS   =  1.00D-10
 THRNRM  =  1.00D-08  THREQ   =  0.00D+00  THRDE   =  1.00D+00  THRREF  =  1.00D-05  SPARFAC =  1.00D+00  THRDLP  =  1.00D-07
 THRDIA  =  1.00D-10  THRDLS  =  1.00D-07  THRGPS  =  0.00D+00  THRKEX  =  0.00D+00  THRDIS  =  2.00D-01  THRVAR  =  1.00D-10
 THRLOC  =  1.00D-06  THRGAP  =  1.00D-06  THRLOCT = -1.00D+00  THRGAPT = -1.00D+00  THRORB  =  1.00D-06  THRMLTP =  0.00D+00
 THRCPQCI=  1.00D-10  KEXTA   =  0.00D+00  THRCOARS=  0.00D+00  SYMTOL  =  1.00D-06  GRADTOL =  1.00D-06  THROVL  =  1.00D-08
 THRORTH =  1.00D-08  GRID    =  1.00D-06  GRIDMAX =  1.00D-03  DTMAX   =  0.00D+00  THROCCDE=  1.00D-01  THROCCDE=  1.00D-01



 THRESHOLDS:

 ZERO    =  1.00D-22  ONEINT  =  1.00D-22  TWOINT  =  1.00D-22  PREFAC  =  1.00D-14  LOCALI  =  1.00D-09  EORDER  =  1.00D-04
 ENERGY  =  1.00D-12  ETEST   =  0.00D+00  EDENS   =  0.00D+00  THRDEDEF=  1.00D-06  GRADIENT=  1.00D-02  STEP    =  1.00D-03
 ORBITAL =  1.00D-05  CIVEC   =  1.00D-05  COEFF   =  1.00D-04  PRINTCI =  5.00D-02  PUNCHCI =  9.90D+01  OPTGRAD =  1.00D-08
 OPTENERG=  1.00D-06  OPTSTEP =  1.00D-08  THRGRAD =  1.00D-10  COMPRESS=  1.00D-11  VARMIN  =  1.00D-07  VARMAX  =  1.00D-03
 THRDOUB =  0.00D+00  THRDIV  =  1.00D-05  THRRED  =  1.00D-07  THRPSP  =  1.00D+00  THRDC   =  1.00D-10  THRCS   =  1.00D-10
 THRNRM  =  1.00D-08  THREQ   =  0.00D+00  THRDE   =  1.00D+00  THRREF  =  1.00D-05  SPARFAC =  1.00D+00  THRDLP  =  1.00D-07
 THRDIA  =  1.00D-10  THRDLS  =  1.00D-07  THRGPS  =  0.00D+00  THRKEX  =  0.00D+00  THRDIS  =  2.00D-01  THRVAR  =  1.00D-10
 THRLOC  =  1.00D-06  THRGAP  =  1.00D-06  THRLOCT = -1.00D+00  THRGAPT = -1.00D+00  THRORB  =  1.00D-06  THRMLTP =  0.00D+00
 THRCPQCI=  1.00D-10  KEXTA   =  0.00D+00  THRCOARS=  0.00D+00  SYMTOL  =  1.00D-06  GRADTOL =  1.00D-06  THROVL  =  1.00D-08
 THRORTH =  1.00D-08  GRID    =  1.00D-06  GRIDMAX =  1.00D-03  DTMAX   =  0.00D+00  THROCCDE=  1.00D-01  THROCCDE=  1.00D-01



 Input parameters for SORTINT:

 COMPRESS =    0.000000
 C_FINAL  =    1.000000
 DEBUG    =   -1.000000
 C_SORT1  =    0.000000
 C_SEWARD =    0.000000
 THRESH   =    0.000000
 IO       =  molpro                                                          
 SPRI     =    0.000000
 SETTING GEOMTYP        =    XYZ
 ZUNIT=BOHR
 

 Variable memory set to  995000000 words,  buffer space   230000 words

 SETTING BASIS          =    VTZ-DK
 SETTING DKROLL         =     0.00000000D+00                                  


 Recomputing integrals since basis changed


 Using spherical harmonics

 Library entry H      S cc-pVTZ-DK           selected for orbital group  1
 Library entry H      P cc-pVTZ-DK           selected for orbital group  1
 Library entry H      D cc-pVTZ-DK           selected for orbital group  1
 Library entry N      S cc-pVTZ-DK           selected for orbital group  2
 Library entry N      P cc-pVTZ-DK           selected for orbital group  2
 Library entry N      D cc-pVTZ-DK           selected for orbital group  2
 Library entry N      F cc-pVTZ-DK           selected for orbital group  2
 Library entry O      S cc-pVTZ-DK           selected for orbital group  3
 Library entry O      P cc-pVTZ-DK           selected for orbital group  3
 Library entry O      D cc-pVTZ-DK           selected for orbital group  3
 Library entry O      F cc-pVTZ-DK           selected for orbital group  3


 PROGRAM * SEWARD (Integral evaluation for generally contracted gaussian basis sets)     Author: Roland Lindh, 1990

 Geometry written to block  1 of record 700


 Point group  Cs  



 ATOMIC COORDINATES

 NR  ATOM    CHARGE       X              Y              Z

   1  H       1.00    0.000000000    1.674936928   -1.930655073
   2  N       7.00    0.000000000   -0.170462011   -1.141753613
   3  O       8.00    0.000000000    0.037292873    1.121819095

 Bond lengths in Bohr (Angstrom)

 1-2  2.006953602  2-3  2.273086777
     ( 1.062034110)     ( 1.202865721)

 Bond angles

  1-2-3  107.90251459

 NUCLEAR CHARGE:                   16
 NUMBER OF PRIMITIVE AOS:         111
 NUMBER OF SYMMETRY AOS:          100
 NUMBER OF CONTRACTIONS:           74   (  50A'  +  24A"  )
 NUMBER OF CORE ORBITALS:           2   (   2A'  +   0A"  )
 NUMBER OF VALENCE ORBITALS:        9   (   7A'  +   2A"  )


 NUCLEAR REPULSION ENERGY   30.43342782

 Eigenvalues of metric

         1 0.246E-02 0.398E-02 0.410E-02 0.850E-02 0.132E-01 0.326E-01 0.423E-01 0.464E-01
         2 0.341E-01 0.465E-01 0.101E+00 0.114E+00 0.234E+00 0.345E+00 0.395E+00 0.449E+00


 Contracted 2-electron integrals neglected if value below      1.0D-22

        1874283. INTEGRALS WRITTEN OUT IN     458 BLOCKS ON RECORD 1290 OF FILE 1


 NUMBER OF SORTED TWO-ELECTRON INTEGRALS:    2006100.     BUFFER LENGTH:  32768
 NUMBER OF SEGMENTS:   1  SEGMENT LENGTH:    2006100      RECORD LENGTH: 524288

 Memory used in sort:       2.56 MW

 SORT1 READ     1874283. AND WROTE     1914195. INTEGRALS IN      6 RECORDS. CPU TIME:     0.03 SEC, REAL TIME:     0.04 SEC
 SORT2 READ     1914195. AND WROTE     2006100. INTEGRALS IN      1 RECORDS. CPU TIME:     0.06 SEC, REAL TIME:     0.06 SEC

 FILE SIZES:   FILE 1:    50.1 MBYTE,  FILE 4:    25.2 MBYTE,   TOTAL:     75.3 MBYTE

 OPERATOR DM      FOR CENTER  0  COORDINATES:    0.000000    0.000000    0.000000


 **********************************************************************************************************************************
 DATASETS  * FILE   NREC   LENGTH (MB)   RECORD NAMES
              1      19       35.89       500      610      700      900      950      970     1000      129      960     1100   
                                          VAR    BASINP    GEOM    SYMINP    ZMAT    AOBASIS   BASIS     P2S    ABASIS      S 
                                         1400     1410     1200     1210     1080     1600     1650     1300     1700   
                                           T        V       H0       H01     AOSYM     SMH    MOLCAS    ERIS     OPER   

 PROGRAMS   *        TOTAL       INT
 CPU TIMES  *         0.68      0.56
 REAL TIME  *         1.20 SEC
 DISK USED  *        75.59 MB      
 **********************************************************************************************************************************


 PROGRAM * RHF-SCF (CLOSED SHELL)       Authors: W. Meyer, H.-J. Werner


 NUMBER OF ELECTRONS:       8+    8-
 CONVERGENCE THRESHOLDS:    1.00E-10 (Density)    1.00E-13 (Energy)
 MAX. NUMBER OF ITERATIONS:      500
 INTERPOLATION TYPE:            DIIS
 INTERPOLATION STEPS:              2 (START)      1 (STEP)
 LEVEL SHIFTS:                  0.00 (CLOSED)  0.00 (OPEN) 



 Orbital guess generated from atomic densities. Full valence occupancy:    9   2

 Molecular orbital dump at record        2100.2

 Initial occupancy:   7   1

 ITERATION    DDIFF          GRAD             ENERGY        2-EL.EN.            DIPOLE MOMENTS         DIIS   ORB.
    1      0.000D+00      0.000D+00      -129.78078911    154.241915    0.00000    0.57898   -1.02253    0    start
    2      0.000D+00      0.135D-01      -129.80784066    155.413824    0.00000    0.61097   -0.22173    1    diag
    3      0.185D-01      0.103D-01      -129.82959426    155.519434    0.00000    0.55629   -0.59235    2    diag
    4      0.894D-02      0.155D-02      -129.83032667    155.254557    0.00000    0.56489   -0.53352    3    diag
    5      0.166D-02      0.515D-03      -129.83044191    155.340557    0.00000    0.57038   -0.53480    4    diag
    6      0.719D-03      0.154D-03      -129.83046096    155.325717    0.00000    0.57094   -0.53066    5    diag
    7      0.280D-03      0.764D-04      -129.83046644    155.328078    0.00000    0.57221   -0.52822    6    diag
    8      0.192D-03      0.242D-04      -129.83046694    155.327400    0.00000    0.57223   -0.52744    7    diag
    9      0.632D-04      0.441D-05      -129.83046696    155.327286    0.00000    0.57218   -0.52728    8    diag
   10      0.122D-04      0.980D-06      -129.83046696    155.327268    0.00000    0.57214   -0.52726    9    orth
   11      0.277D-05      0.193D-06      -129.83046696    155.327263    0.00000    0.57214   -0.52726    9    diag
   12      0.513D-06      0.401D-07      -129.83046696    155.327262    0.00000    0.57213   -0.52725    9    diag
   13      0.113D-06      0.992D-08      -129.83046696    155.327261    0.00000    0.57213   -0.52725    9    diag
   14      0.282D-07      0.182D-08      -129.83046696    155.327261    0.00000    0.57213   -0.52725    9    diag
   15      0.463D-08      0.479D-09      -129.83046696    155.327261    0.00000    0.57213   -0.52725    9    diag
   16      0.111D-08      0.124D-09      -129.83046696    155.327261    0.00000    0.57213   -0.52725    9    diag
   17      0.215D-09      0.371D-10      -129.83046696    155.327261    0.00000    0.57213   -0.52725    9    diag
   18      0.712D-10      0.124D-10      -129.83046696    155.327261    0.00000    0.57213   -0.52725    0    orth

 Final occupancy:   7   1

 !RHF STATE 1.1 Energy               -129.830466964883
 Nuclear energy                        30.43342782
 One-electron energy                 -237.92752536
 Two-electron energy                   77.66363058
 Virial quotient                       -0.99962770
 !RHF STATE 1.1 Dipole moment           0.00000000     0.57213397    -0.52725366
 Dipole moment /Debye                   0.00000000     1.45412425    -1.34005735

 Orbital energies:

         1.1          2.1          3.1          4.1          5.1          6.1          7.1          8.1          9.1
    -20.647592   -15.708375    -1.530175    -0.987162    -0.743705    -0.663408    -0.424935     0.143780     0.370714

         1.2          2.2          3.2
     -0.594779     0.088202     0.612342

 HOMO      7.1    -0.424935 =     -11.5631eV
 LUMO      2.2     0.088202 =       2.4001eV
 LUMO-HOMO         0.513137 =      13.9632eV


 **********************************************************************************************************************************
 DATASETS  * FILE   NREC   LENGTH (MB)   RECORD NAMES
              1      19       35.89       500      610      700      900      950      970     1000      129      960     1100   
                                          VAR    BASINP    GEOM    SYMINP    ZMAT    AOBASIS   BASIS     P2S    ABASIS      S 
                                         1400     1410     1200     1210     1080     1600     1650     1300     1700   
                                           T        V       H0       H01     AOSYM     SMH    MOLCAS    ERIS     OPER   

              2       4        2.85       700     1000      520     2100   
                                         GEOM     BASIS   MCVARS     RHF  

 PROGRAMS   *        TOTAL        HF       INT
 CPU TIMES  *         0.85      0.17      0.56
 REAL TIME  *         1.43 SEC
 DISK USED  *        75.59 MB      
 **********************************************************************************************************************************


 PROGRAM * CCSD (Closed-shell coupled cluster)     Authors: C. Hampel, H.-J. Werner, 1991, M. Deegan, P.J. Knowles, 1992


 Convergence thresholds:  THRVAR = 1.00D-08  THRDEN = 1.00D-12

 CCSD(T)     terms to be evaluated (factor= 1.000)


 Number of core orbitals:           2 (   2   0 )
 Number of closed-shell orbitals:   6 (   5   1 )
 Number of external orbitals:      66 (  43  23 )

 Molecular orbitals read from record     2100.2  Type=RHF/CANONICAL (state 1.1)

 Number of N-1 electron functions:               6
 Number of N-2 electron functions:              21
 Number of singly external CSFs:               238
 Number of doubly external CSFs:             41002
 Total number of CSFs:                       41241

 Length of J-op  integral file:               0.00 MB
 Length of K-op  integral file:               0.25 MB
 Length of 3-ext integral record:             0.00 MB

 Memory could be reduced to 1.65 Mwords without degradation in triples

 Integral transformation finished. Total CPU:   0.03 sec, npass=  1  Memory used:   0.55 MW

 Reference energy:                   -129.83046696

 MP2 singlet pair energy:              -0.27326675
 MP2 triplet pair energy:              -0.16220487
 MP2 correlation energy:               -0.43547162
 MP2 total energy:                   -130.26593858

 SCS-MP2 correlation energy:           -0.42884757   (PS=  1.200000  PT=  0.333333)
 SCS-MP2 total energy:               -130.25931454

 ITER.      SQ.NORM     CORR.ENERGY   TOTAL ENERGY   ENERGY CHANGE        DEN1      VAR(S)    VAR(P)  DIIS     TIME  TIME/IT
   1      1.11819844    -0.44078060  -130.27124756    -0.00530898     0.01032297  0.29D-02  0.30D-02  1  1     0.06     0.04
   2      1.12897426    -0.44107653  -130.27154349    -0.00029593    -0.01219587  0.86D-04  0.50D-03  2  2     0.09     0.04
   3      1.13520413    -0.44146082  -130.27192779    -0.00038429    -0.00296436  0.47D-04  0.50D-04  3  3     0.13     0.04
   4      1.13796518    -0.44148568  -130.27195265    -0.00002486    -0.00094763  0.40D-05  0.87D-05  4  4     0.16     0.04
   5      1.13894422    -0.44151480  -130.27198176    -0.00002912    -0.00020290  0.14D-05  0.16D-05  5  5     0.20     0.04
   6      1.13929978    -0.44149870  -130.27196567     0.00001610    -0.00004020  0.10D-06  0.40D-06  6  6     0.23     0.04
   7      1.13938655    -0.44150045  -130.27196741    -0.00000175    -0.00000238  0.13D-07  0.84D-07  6  1     0.26     0.04
   8      1.13941746    -0.44150046  -130.27196743    -0.00000001     0.00000176  0.41D-08  0.10D-07  6  2     0.30     0.04
   9      1.13942527    -0.44150023  -130.27196720     0.00000023    -0.00000220  0.24D-08  0.11D-08  6  3     0.34     0.04
  10      1.13942410    -0.44150073  -130.27196770    -0.00000050     0.00000057  0.47D-09  0.20D-09  6  4     0.39     0.04
  11      1.13942236    -0.44150079  -130.27196776    -0.00000006     0.00000020  0.15D-09  0.22D-10  6  5     0.42     0.04
  12      1.13942097    -0.44150097  -130.27196793    -0.00000017     0.00000043  0.16D-10  0.76D-11  6  6     0.46     0.04
  13      1.13942035    -0.44150097  -130.27196794    -0.00000001     0.00000012  0.68D-11  0.12D-11  6  1     0.50     0.04
  14      1.13941997    -0.44150099  -130.27196796    -0.00000002     0.00000008  0.95D-12  0.42D-12  6  2     0.53     0.04
  15      1.13941983    -0.44150099  -130.27196796    -0.00000000     0.00000001  0.25D-12  0.14D-12  6  3     0.57     0.04
  16      1.13941972    -0.44150100  -130.27196796    -0.00000000     0.00000002  0.70D-14  0.35D-13  6  1     0.60     0.04
  17      1.13941971    -0.44150100  -130.27196796     0.00000000    -0.00000000  0.31D-14  0.26D-14  6  4     0.64     0.04
  18      1.13941970    -0.44150100  -130.27196796    -0.00000000     0.00000000  0.71D-15  0.46D-15  6  5     0.67     0.04
  19      1.13941970    -0.44150100  -130.27196796     0.00000000    -0.00000000  0.12D-15  0.82D-16  6  6     0.71     0.04
  20      1.13941969    -0.44150100  -130.27196796    -0.00000000     0.00000000  0.17D-16  0.18D-16  6  2     0.74     0.04
  21      1.13941969    -0.44150100  -130.27196796    -0.00000000     0.00000000  0.26D-17  0.23D-17  6  3     0.77     0.04
  22      1.13941969    -0.44150100  -130.27196796    -0.00000000     0.00000000  0.29D-18  0.36D-18  6  4     0.81     0.04
  23      1.13941969    -0.44150100  -130.27196796    -0.00000000     0.00000000  0.11D-18  0.30D-19  6  1     0.84     0.04
  24      1.13941969    -0.44150100  -130.27196796     0.00000000    -0.00000000  0.17D-19  0.11D-19  6  6     0.87     0.04
  25      1.13941969    -0.44150100  -130.27196796     0.00000000    -0.00000000  0.38D-20  0.73D-21  6  5     0.91     0.04
  26      1.13941969    -0.44150100  -130.27196796     0.00000000    -0.00000000  0.77D-21  0.29D-21  6  2     0.94     0.04
  27      1.13941969    -0.44150100  -130.27196796     0.00000000    -0.00000000  0.25D-22  0.16D-22  6  3     0.98     0.04

 Norm of t1 vector:      0.07467700      S-energy:     0.00000000      T1 diagnostic:  0.01524338
                                                                       D1 diagnostic:  0.04178563

 Doubles amplitudes (print threshold =  0.500E-01):

         I         J         SYM. A    SYM. B    A         B      T(IJ, AB)

         6         6         2         2         1         1     -0.14222505


 Total CPU time for triples:      0.23 sec


 RESULTS
 =======

  Reference energy                   -129.830466964883
  CCSD singlet pair energy             -0.302664795502
  CCSD triplet pair energy             -0.138836201998
  CCSD correlation energy              -0.441500997500

  Triples (T) contribution             -0.019675057476
  Total correlation energy             -0.461176054976

  CCSD total energy                  -130.271967962383
  CCSD[T] energy                     -130.292647888472
  CCSD-T energy                      -130.291247212261
 !CCSD(T) total energy               -130.291643019859

 Timing summary (sec):

 STEP                 CPU(USER)    SYS     CPU(TOT)    WALL
 Transformation          0.03      0.01      0.04      0.04
 CCSD iterations         0.96      0.11      1.07      1.06
 Triples                 0.23      0.00      0.23      0.24

 Program statistics:

 Available memory in ccsd:               994999756
 Min. memory needed in ccsd:                154850
 Max. memory used in ccsd:                  184802
 Max. memory used in cckext:                238416 (27 integral passes)



 **********************************************************************************************************************************
 DATASETS  * FILE   NREC   LENGTH (MB)   RECORD NAMES
              1      20       40.28       500      610      700      900      950      970     1000      129      960     1100   
                                          VAR    BASINP    GEOM    SYMINP    ZMAT    AOBASIS   BASIS     P2S    ABASIS      S 
                                         1400     1410     1200     1210     1080     1600     1650     1300     1700     1380   
                                           T        V       H0       H01     AOSYM     SMH    MOLCAS    ERIS     OPER     JKOP   

              2       4        2.85       700     1000      520     2100   
                                         GEOM     BASIS   MCVARS     RHF  

 PROGRAMS   *        TOTAL   CCSD(T)        HF       INT
 CPU TIMES  *         2.11      1.26      0.17      0.56
 REAL TIME  *         2.82 SEC
 DISK USED  *        75.59 MB      
 **********************************************************************************************************************************

 CCSD(T)/cc-pVTZ-DK energy=   -130.291643019859

        CCSD(T)         HF-SCF  
   -130.29164302   -129.83046696
 **********************************************************************************************************************************
 Molpro calculation terminated
 Variable memory released
