
 Primary working directories    : /tmp/r2666/282502.maple
 Secondary working directories  : /tmp/r2666/282502.maple
 Wavefunction directory         : /ddn/home4/r2666/wfu/
 Main file repository           : /tmp/r2666/282502.maple/

 SHA1      : d5ffa45e93fdbca01ffc919aa182cfdae0147319
 NAME      : 2015.1.35
 ARCHNAME  : linux/x86_64
 FC        : /opt/intel/composer_xe_2015.1.133/bin/intel64/ifort
 BLASLIB   : -Wl,-_start-group /opt/intel/mkl/lib/intel64/libmkl_intel_ilp64.a /opt/intel/mkl/lib/intel64/libmkl_intel_thread.a /opt/intel/mkl/lib/intel64/libmkl_core.a -Wl,-_end-group
 id        : olemiss

 Nodes     nprocs
 cn075        1

 Using customized tuning parameters: mindgm=1; mindgv=20; mindgc=4; mindgr=1; noblas=0; minvec=7
 default implementation of scratch files=df  

 ***,hno CCSD(T)/TZ-F12 QFF
 memory, 995, m;
 gthresh,energy=1.d-12,zero=1.d-22,oneint=1.d-22,twoint=1.d-22;
 gthresh,optgrad=1.d-8,optstep=1.d-8;
 nocompress;
 geomtyp=xyz
 bohr
 geometry={
 3
         12        12
 H        0.0000000000        1.6572939528       -1.9149164960
 N        0.0000000000       -0.1591567188       -1.1545912707
 O        0.0000000000        0.0436305560        1.1189181757
 }
 
 basis=vtz-dk
 dkroll=0
   {hf,maxit=500;accu,20;}
 {ccsd(t),nocheck,maxit=250;orbital,IGNORE_ERROR;}

 Variables initialized (889), CPU time= 0.01 sec
 Commands  initialized (702), CPU time= 0.01 sec, 572 directives.
 Default parameters read. Elapsed time= 0.04 sec

 Checking input...
 Passed
1


                                         ***  PROGRAM SYSTEM MOLPRO  ***
                                       Copyright, TTI GmbH Stuttgart, 2015
                                    Version 2015.1 linked Jul  9 2018 13:16:40


 **********************************************************************************************************************************
 LABEL *   hno CCSD(T)/TZ-F12 QFF                                                        
  64 bit serial version                                                                  DATE: 04-Mar-20          TIME: 13:50:45  
 **********************************************************************************************************************************

 SHA1:             d5ffa45e93fdbca01ffc919aa182cfdae0147319
 **********************************************************************************************************************************

 THRESHOLDS:

 ZERO    =  1.00D-22  ONEINT  =  1.00D-22  TWOINT  =  1.00D-22  PREFAC  =  1.00D-14  LOCALI  =  1.00D-09  EORDER  =  1.00D-04
 ENERGY  =  1.00D-12  ETEST   =  0.00D+00  EDENS   =  0.00D+00  THRDEDEF=  1.00D-06  GRADIENT=  1.00D-02  STEP    =  1.00D-03
 ORBITAL =  1.00D-05  CIVEC   =  1.00D-05  COEFF   =  1.00D-04  PRINTCI =  5.00D-02  PUNCHCI =  9.90D+01  OPTGRAD =  3.00D-04
 OPTENERG=  1.00D-06  OPTSTEP =  3.00D-04  THRGRAD =  1.00D-10  COMPRESS=  1.00D-11  VARMIN  =  1.00D-07  VARMAX  =  1.00D-03
 THRDOUB =  0.00D+00  THRDIV  =  1.00D-05  THRRED  =  1.00D-07  THRPSP  =  1.00D+00  THRDC   =  1.00D-10  THRCS   =  1.00D-10
 THRNRM  =  1.00D-08  THREQ   =  0.00D+00  THRDE   =  1.00D+00  THRREF  =  1.00D-05  SPARFAC =  1.00D+00  THRDLP  =  1.00D-07
 THRDIA  =  1.00D-10  THRDLS  =  1.00D-07  THRGPS  =  0.00D+00  THRKEX  =  0.00D+00  THRDIS  =  2.00D-01  THRVAR  =  1.00D-10
 THRLOC  =  1.00D-06  THRGAP  =  1.00D-06  THRLOCT = -1.00D+00  THRGAPT = -1.00D+00  THRORB  =  1.00D-06  THRMLTP =  0.00D+00
 THRCPQCI=  1.00D-10  KEXTA   =  0.00D+00  THRCOARS=  0.00D+00  SYMTOL  =  1.00D-06  GRADTOL =  1.00D-06  THROVL  =  1.00D-08
 THRORTH =  1.00D-08  GRID    =  1.00D-06  GRIDMAX =  1.00D-03  DTMAX   =  0.00D+00  THROCCDE=  1.00D-01  THROCCDE=  1.00D-01



 THRESHOLDS:

 ZERO    =  1.00D-22  ONEINT  =  1.00D-22  TWOINT  =  1.00D-22  PREFAC  =  1.00D-14  LOCALI  =  1.00D-09  EORDER  =  1.00D-04
 ENERGY  =  1.00D-12  ETEST   =  0.00D+00  EDENS   =  0.00D+00  THRDEDEF=  1.00D-06  GRADIENT=  1.00D-02  STEP    =  1.00D-03
 ORBITAL =  1.00D-05  CIVEC   =  1.00D-05  COEFF   =  1.00D-04  PRINTCI =  5.00D-02  PUNCHCI =  9.90D+01  OPTGRAD =  1.00D-08
 OPTENERG=  1.00D-06  OPTSTEP =  1.00D-08  THRGRAD =  1.00D-10  COMPRESS=  1.00D-11  VARMIN  =  1.00D-07  VARMAX  =  1.00D-03
 THRDOUB =  0.00D+00  THRDIV  =  1.00D-05  THRRED  =  1.00D-07  THRPSP  =  1.00D+00  THRDC   =  1.00D-10  THRCS   =  1.00D-10
 THRNRM  =  1.00D-08  THREQ   =  0.00D+00  THRDE   =  1.00D+00  THRREF  =  1.00D-05  SPARFAC =  1.00D+00  THRDLP  =  1.00D-07
 THRDIA  =  1.00D-10  THRDLS  =  1.00D-07  THRGPS  =  0.00D+00  THRKEX  =  0.00D+00  THRDIS  =  2.00D-01  THRVAR  =  1.00D-10
 THRLOC  =  1.00D-06  THRGAP  =  1.00D-06  THRLOCT = -1.00D+00  THRGAPT = -1.00D+00  THRORB  =  1.00D-06  THRMLTP =  0.00D+00
 THRCPQCI=  1.00D-10  KEXTA   =  0.00D+00  THRCOARS=  0.00D+00  SYMTOL  =  1.00D-06  GRADTOL =  1.00D-06  THROVL  =  1.00D-08
 THRORTH =  1.00D-08  GRID    =  1.00D-06  GRIDMAX =  1.00D-03  DTMAX   =  0.00D+00  THROCCDE=  1.00D-01  THROCCDE=  1.00D-01



 Input parameters for SORTINT:

 COMPRESS =    0.000000
 C_FINAL  =    1.000000
 DEBUG    =   -1.000000
 C_SORT1  =    0.000000
 C_SEWARD =    0.000000
 THRESH   =    0.000000
 IO       =  molpro                                                          
 SPRI     =    0.000000
 SETTING GEOMTYP        =    XYZ
 ZUNIT=BOHR
 

 Variable memory set to  995000000 words,  buffer space   230000 words

 SETTING BASIS          =    VTZ-DK
 SETTING DKROLL         =     0.00000000D+00                                  


 Recomputing integrals since basis changed


 Using spherical harmonics

 Library entry H      S cc-pVTZ-DK           selected for orbital group  1
 Library entry H      P cc-pVTZ-DK           selected for orbital group  1
 Library entry H      D cc-pVTZ-DK           selected for orbital group  1
 Library entry N      S cc-pVTZ-DK           selected for orbital group  2
 Library entry N      P cc-pVTZ-DK           selected for orbital group  2
 Library entry N      D cc-pVTZ-DK           selected for orbital group  2
 Library entry N      F cc-pVTZ-DK           selected for orbital group  2
 Library entry O      S cc-pVTZ-DK           selected for orbital group  3
 Library entry O      P cc-pVTZ-DK           selected for orbital group  3
 Library entry O      D cc-pVTZ-DK           selected for orbital group  3
 Library entry O      F cc-pVTZ-DK           selected for orbital group  3


 PROGRAM * SEWARD (Integral evaluation for generally contracted gaussian basis sets)     Author: Roland Lindh, 1990

 Geometry written to block  1 of record 700


 Point group  Cs  



 ATOMIC COORDINATES

 NR  ATOM    CHARGE       X              Y              Z

   1  H       1.00    0.000000000    1.657293953   -1.914916496
   2  N       7.00    0.000000000   -0.159156719   -1.154591271
   3  O       8.00    0.000000000    0.043630556    1.118918176

 Bond lengths in Bohr (Angstrom)

 1-2  1.969159082  2-3  2.282535406
     ( 1.042034111)     ( 1.207865720)

 Bond angles

  1-2-3  107.61603570

 NUCLEAR CHARGE:                   16
 NUMBER OF PRIMITIVE AOS:         111
 NUMBER OF SYMMETRY AOS:          100
 NUMBER OF CONTRACTIONS:           74   (  50A'  +  24A"  )
 NUMBER OF CORE ORBITALS:           2   (   2A'  +   0A"  )
 NUMBER OF VALENCE ORBITALS:        9   (   7A'  +   2A"  )


 NUCLEAR REPULSION ENERGY   30.41703281

 Eigenvalues of metric

         1 0.242E-02 0.392E-02 0.415E-02 0.815E-02 0.128E-01 0.325E-01 0.425E-01 0.464E-01
         2 0.341E-01 0.464E-01 0.101E+00 0.110E+00 0.232E+00 0.337E+00 0.394E+00 0.448E+00


 Contracted 2-electron integrals neglected if value below      1.0D-22

        1874283. INTEGRALS WRITTEN OUT IN     458 BLOCKS ON RECORD 1290 OF FILE 1


 NUMBER OF SORTED TWO-ELECTRON INTEGRALS:    2006100.     BUFFER LENGTH:  32768
 NUMBER OF SEGMENTS:   1  SEGMENT LENGTH:    2006100      RECORD LENGTH: 524288

 Memory used in sort:       2.56 MW

 SORT1 READ     1874283. AND WROTE     1914195. INTEGRALS IN      6 RECORDS. CPU TIME:     0.02 SEC, REAL TIME:     0.04 SEC
 SORT2 READ     1914195. AND WROTE     2006100. INTEGRALS IN      1 RECORDS. CPU TIME:     0.03 SEC, REAL TIME:     0.05 SEC

 FILE SIZES:   FILE 1:    50.1 MBYTE,  FILE 4:    25.2 MBYTE,   TOTAL:     75.3 MBYTE

 OPERATOR DM      FOR CENTER  0  COORDINATES:    0.000000    0.000000    0.000000


 **********************************************************************************************************************************
 DATASETS  * FILE   NREC   LENGTH (MB)   RECORD NAMES
              1      19       35.89       500      610      700      900      950      970     1000      129      960     1100   
                                          VAR    BASINP    GEOM    SYMINP    ZMAT    AOBASIS   BASIS     P2S    ABASIS      S 
                                         1400     1410     1200     1210     1080     1600     1650     1300     1700   
                                           T        V       H0       H01     AOSYM     SMH    MOLCAS    ERIS     OPER   

 PROGRAMS   *        TOTAL       INT
 CPU TIMES  *         0.59      0.50
 REAL TIME  *         1.10 SEC
 DISK USED  *        75.59 MB      
 **********************************************************************************************************************************


 PROGRAM * RHF-SCF (CLOSED SHELL)       Authors: W. Meyer, H.-J. Werner


 NUMBER OF ELECTRONS:       8+    8-
 CONVERGENCE THRESHOLDS:    1.00E-10 (Density)    1.00E-13 (Energy)
 MAX. NUMBER OF ITERATIONS:      500
 INTERPOLATION TYPE:            DIIS
 INTERPOLATION STEPS:              2 (START)      1 (STEP)
 LEVEL SHIFTS:                  0.00 (CLOSED)  0.00 (OPEN) 



 Orbital guess generated from atomic densities. Full valence occupancy:    9   2

 Molecular orbital dump at record        2100.2

 Initial occupancy:   7   1

 ITERATION    DDIFF          GRAD             ENERGY        2-EL.EN.            DIPOLE MOMENTS         DIIS   ORB.
    1      0.000D+00      0.000D+00      -129.78098081    154.228652    0.00000    0.59168   -1.03500    0    start
    2      0.000D+00      0.135D-01      -129.80791276    155.368158    0.00000    0.61684   -0.22617    1    diag
    3      0.185D-01      0.102D-01      -129.82962196    155.489783    0.00000    0.56511   -0.60057    2    diag
    4      0.894D-02      0.156D-02      -129.83035907    155.224238    0.00000    0.57395   -0.54099    3    diag
    5      0.167D-02      0.514D-03      -129.83047242    155.309095    0.00000    0.57918   -0.54208    4    diag
    6      0.716D-03      0.152D-03      -129.83049098    155.294463    0.00000    0.57972   -0.53793    5    diag
    7      0.276D-03      0.763D-04      -129.83049645    155.296688    0.00000    0.58091   -0.53542    6    diag
    8      0.191D-03      0.244D-04      -129.83049697    155.296001    0.00000    0.58092   -0.53461    7    diag
    9      0.646D-04      0.441D-05      -129.83049699    155.295888    0.00000    0.58087   -0.53446    8    diag
   10      0.125D-04      0.968D-06      -129.83049699    155.295872    0.00000    0.58084   -0.53444    9    orth
   11      0.277D-05      0.189D-06      -129.83049699    155.295869    0.00000    0.58083   -0.53443    9    diag
   12      0.500D-06      0.395D-07      -129.83049699    155.295867    0.00000    0.58083   -0.53443    9    diag
   13      0.108D-06      0.977D-08      -129.83049699    155.295867    0.00000    0.58083   -0.53443    9    diag
   14      0.268D-07      0.175D-08      -129.83049699    155.295867    0.00000    0.58083   -0.53443    9    diag
   15      0.419D-08      0.447D-09      -129.83049699    155.295867    0.00000    0.58083   -0.53443    9    diag
   16      0.101D-08      0.106D-09      -129.83049699    155.295867    0.00000    0.58083   -0.53443    9    diag
   17      0.167D-09      0.286D-10      -129.83049699    155.295867    0.00000    0.58083   -0.53443    9    diag
   18      0.473D-10      0.916D-11      -129.83049699    155.295867    0.00000    0.58083   -0.53443    9    diag
   19      0.195D-10      0.179D-11      -129.83049699    155.295867    0.00000    0.58083   -0.53443    9    fixocc
   20      0.439D-11      0.298D-12      -129.83049699    155.295867    0.00000    0.58083   -0.53443    9    orth
   21      0.673D-12      0.110D-12      -129.83049699    155.295867    0.00000    0.58083   -0.53443    9    diag
   22      0.258D-12      0.277D-13      -129.83049699    155.295867    0.00000    0.58083   -0.53443    9    diag
   23      0.716D-13      0.216D-13      -129.83049699    155.295867    0.00000    0.58083   -0.53443    9    diag
   24      0.379D-13      0.195D-13      -129.83049699    155.295867    0.00000    0.58083   -0.53443    9    diag
   25      0.234D-13      0.141D-13      -129.83049699    155.295867    0.00000    0.58083   -0.53443    9    diag
   26      0.375D-13      0.165D-13      -129.83049699    155.295867    0.00000    0.58083   -0.53443    0    orth

 Final occupancy:   7   1

 !RHF STATE 1.1 Energy               -129.830496988419
 Nuclear energy                        30.41703281
 One-electron energy                 -237.89546327
 Two-electron energy                   77.64793347
 Virial quotient                       -0.99953669
 !RHF STATE 1.1 Dipole moment           0.00000000     0.58083062    -0.53443010
 Dipole moment /Debye                   0.00000000     1.47622748    -1.35829685

 Orbital energies:

         1.1          2.1          3.1          4.1          5.1          6.1          7.1          8.1          9.1
    -20.647557   -15.706539    -1.526414    -0.993156    -0.744329    -0.661873    -0.427821     0.144835     0.369959

         1.2          2.2          3.2
     -0.592108     0.086396     0.612953

 HOMO      7.1    -0.427821 =     -11.6416eV
 LUMO      2.2     0.086396 =       2.3510eV
 LUMO-HOMO         0.514218 =      13.9926eV


 **********************************************************************************************************************************
 DATASETS  * FILE   NREC   LENGTH (MB)   RECORD NAMES
              1      19       35.89       500      610      700      900      950      970     1000      129      960     1100   
                                          VAR    BASINP    GEOM    SYMINP    ZMAT    AOBASIS   BASIS     P2S    ABASIS      S 
                                         1400     1410     1200     1210     1080     1600     1650     1300     1700   
                                           T        V       H0       H01     AOSYM     SMH    MOLCAS    ERIS     OPER   

              2       4        2.85       700     1000      520     2100   
                                         GEOM     BASIS   MCVARS     RHF  

 PROGRAMS   *        TOTAL        HF       INT
 CPU TIMES  *         0.84      0.25      0.50
 REAL TIME  *         1.45 SEC
 DISK USED  *        75.59 MB      
 **********************************************************************************************************************************


 PROGRAM * CCSD (Closed-shell coupled cluster)     Authors: C. Hampel, H.-J. Werner, 1991, M. Deegan, P.J. Knowles, 1992


 Convergence thresholds:  THRVAR = 1.00D-08  THRDEN = 1.00D-12

 CCSD(T)     terms to be evaluated (factor= 1.000)


 Number of core orbitals:           2 (   2   0 )
 Number of closed-shell orbitals:   6 (   5   1 )
 Number of external orbitals:      66 (  43  23 )

 Molecular orbitals read from record     2100.2  Type=RHF/CANONICAL (state 1.1)

 Number of N-1 electron functions:               6
 Number of N-2 electron functions:              21
 Number of singly external CSFs:               238
 Number of doubly external CSFs:             41002
 Total number of CSFs:                       41241

 Length of J-op  integral file:               0.00 MB
 Length of K-op  integral file:               0.25 MB
 Length of 3-ext integral record:             0.00 MB

 Memory could be reduced to 1.65 Mwords without degradation in triples

 Integral transformation finished. Total CPU:   0.02 sec, npass=  1  Memory used:   0.55 MW

 Reference energy:                   -129.83049699

 MP2 singlet pair energy:              -0.27332300
 MP2 triplet pair energy:              -0.16228024
 MP2 correlation energy:               -0.43560324
 MP2 total energy:                   -130.26610023

 SCS-MP2 correlation energy:           -0.42896197   (PS=  1.200000  PT=  0.333333)
 SCS-MP2 total energy:               -130.25945896

 ITER.      SQ.NORM     CORR.ENERGY   TOTAL ENERGY   ENERGY CHANGE        DEN1      VAR(S)    VAR(P)  DIIS     TIME  TIME/IT
   1      1.11805232    -0.44076770  -130.27126469    -0.00516446     0.01049130  0.29D-02  0.30D-02  1  1     0.07     0.04
   2      1.12881041    -0.44103601  -130.27153300    -0.00026831    -0.01220363  0.86D-04  0.50D-03  2  2     0.11     0.04
   3      1.13500720    -0.44141240  -130.27190939    -0.00037639    -0.00295066  0.45D-04  0.50D-04  3  3     0.15     0.04
   4      1.13777846    -0.44144031  -130.27193730    -0.00002791    -0.00094834  0.37D-05  0.87D-05  4  4     0.18     0.04
   5      1.13874610    -0.44146873  -130.27196572    -0.00002842    -0.00020041  0.13D-05  0.17D-05  5  5     0.21     0.04
   6      1.13909424    -0.44145252  -130.27194951     0.00001621    -0.00003973  0.86D-07  0.41D-06  6  6     0.25     0.04
   7      1.13917629    -0.44145475  -130.27195174    -0.00000223    -0.00000183  0.10D-07  0.87D-07  6  1     0.28     0.04
   8      1.13920573    -0.44145473  -130.27195172     0.00000002     0.00000210  0.47D-08  0.99D-08  6  2     0.32     0.04
   9      1.13921299    -0.44145460  -130.27195159     0.00000013    -0.00000232  0.24D-08  0.11D-08  6  3     0.35     0.04
  10      1.13921170    -0.44145508  -130.27195207    -0.00000048     0.00000067  0.46D-09  0.19D-09  6  4     0.39     0.04
  11      1.13921008    -0.44145514  -130.27195212    -0.00000006     0.00000014  0.14D-09  0.21D-10  6  5     0.42     0.04
  12      1.13920877    -0.44145531  -130.27195229    -0.00000017     0.00000041  0.14D-10  0.67D-11  6  6     0.46     0.04
  13      1.13920822    -0.44145531  -130.27195230    -0.00000001     0.00000011  0.59D-11  0.11D-11  6  1     0.50     0.04
  14      1.13920786    -0.44145533  -130.27195232    -0.00000002     0.00000007  0.83D-12  0.39D-12  6  2     0.53     0.04
  15      1.13920773    -0.44145533  -130.27195232    -0.00000000     0.00000001  0.21D-12  0.13D-12  6  3     0.56     0.04
  16      1.13920764    -0.44145533  -130.27195232    -0.00000000     0.00000001  0.22D-13  0.15D-13  6  5     0.59     0.04
  17      1.13920761    -0.44145533  -130.27195232    -0.00000000     0.00000000  0.66D-15  0.19D-14  6  4     0.63     0.04
  18      1.13920761    -0.44145533  -130.27195232     0.00000000    -0.00000000  0.45D-15  0.27D-15  6  1     0.67     0.04
  19      1.13920761    -0.44145533  -130.27195232    -0.00000000     0.00000000  0.44D-16  0.49D-16  6  6     0.70     0.04
  20      1.13920761    -0.44145533  -130.27195232    -0.00000000     0.00000000  0.99D-17  0.12D-16  6  2     0.73     0.04
  21      1.13920761    -0.44145533  -130.27195232    -0.00000000     0.00000000  0.16D-17  0.94D-18  6  5     0.76     0.04
  22      1.13920761    -0.44145533  -130.27195232    -0.00000000     0.00000000  0.93D-19  0.74D-19  6  3     0.79     0.04
  23      1.13920761    -0.44145533  -130.27195232     0.00000000    -0.00000000  0.27D-19  0.16D-19  6  4     0.82     0.04
  24      1.13920761    -0.44145533  -130.27195232     0.00000000    -0.00000000  0.40D-20  0.44D-20  6  1     0.85     0.04
  25      1.13920761    -0.44145533  -130.27195232     0.00000000    -0.00000000  0.50D-21  0.73D-21  6  6     0.88     0.04

 Norm of t1 vector:      0.07426069      S-energy:     0.00000000      T1 diagnostic:  0.01515840
                                                                       D1 diagnostic:  0.04234344

 Doubles amplitudes (print threshold =  0.500E-01):

         I         J         SYM. A    SYM. B    A         B      T(IJ, AB)

         6         6         2         2         1         1     -0.14383952


 Total CPU time for triples:      0.22 sec


 RESULTS
 =======

  Reference energy                   -129.830496988419
  CCSD singlet pair energy             -0.302631694162
  CCSD triplet pair energy             -0.138823639799
  CCSD correlation energy              -0.441455333961

  Triples (T) contribution             -0.019693519580
  Total correlation energy             -0.461148853540

  CCSD total energy                  -130.271952322379
  CCSD[T] energy                     -130.292647948983
  CCSD-T energy                      -130.291253550359
 !CCSD(T) total energy               -130.291645841959

 Timing summary (sec):

 STEP                 CPU(USER)    SYS     CPU(TOT)    WALL
 Transformation          0.02      0.01      0.03      0.04
 CCSD iterations         0.87      0.15      1.02      1.00
 Triples                 0.22      0.01      0.23      0.24

 Program statistics:

 Available memory in ccsd:               994999756
 Min. memory needed in ccsd:                154850
 Max. memory used in ccsd:                  184802
 Max. memory used in cckext:                238416 (25 integral passes)



 **********************************************************************************************************************************
 DATASETS  * FILE   NREC   LENGTH (MB)   RECORD NAMES
              1      20       40.28       500      610      700      900      950      970     1000      129      960     1100   
                                          VAR    BASINP    GEOM    SYMINP    ZMAT    AOBASIS   BASIS     P2S    ABASIS      S 
                                         1400     1410     1200     1210     1080     1600     1650     1300     1700     1380   
                                           T        V       H0       H01     AOSYM     SMH    MOLCAS    ERIS     OPER     JKOP   

              2       4        2.85       700     1000      520     2100   
                                         GEOM     BASIS   MCVARS     RHF  

 PROGRAMS   *        TOTAL   CCSD(T)        HF       INT
 CPU TIMES  *         1.99      1.15      0.25      0.50
 REAL TIME  *         2.84 SEC
 DISK USED  *        75.59 MB      
 **********************************************************************************************************************************

 CCSD(T)/cc-pVTZ-DK energy=   -130.291645841959

        CCSD(T)         HF-SCF  
   -130.29164584   -129.83049699
 **********************************************************************************************************************************
 Molpro calculation terminated
 Variable memory released
