
 Primary working directories    : /tmp/r2666/282612.maple
 Secondary working directories  : /tmp/r2666/282612.maple
 Wavefunction directory         : /ddn/home4/r2666/wfu/
 Main file repository           : /tmp/r2666/282612.maple/

 SHA1      : d5ffa45e93fdbca01ffc919aa182cfdae0147319
 NAME      : 2015.1.35
 ARCHNAME  : linux/x86_64
 FC        : /opt/intel/composer_xe_2015.1.133/bin/intel64/ifort
 BLASLIB   : -Wl,-_start-group /opt/intel/mkl/lib/intel64/libmkl_intel_ilp64.a /opt/intel/mkl/lib/intel64/libmkl_intel_thread.a /opt/intel/mkl/lib/intel64/libmkl_core.a -Wl,-_end-group
 id        : olemiss

 Nodes     nprocs
 cn079        1

 Using customized tuning parameters: mindgm=1; mindgv=20; mindgc=4; mindgr=1; noblas=0; minvec=7
 default implementation of scratch files=df  

 ***,hno CCSD(T)/TZ-F12 QFF
 memory, 995, m;
 gthresh,energy=1.d-12,zero=1.d-22,oneint=1.d-22,twoint=1.d-22;
 gthresh,optgrad=1.d-8,optstep=1.d-8;
 nocompress;
 geomtyp=xyz
 bohr
 geometry={
 3
        122       122
 H        0.0000000000        1.6769708700       -1.9421083792
 N        0.0000000000       -0.1653545971       -1.1460558474
 O        0.0000000000        0.0301515171        1.1375746355
 }
 
 basis=vtz-dk
 dkroll=0
   {hf,maxit=500;accu,20;}
 {ccsd(t),nocheck,maxit=250;orbital,IGNORE_ERROR;}

 Variables initialized (889), CPU time= 0.00 sec
 Commands  initialized (702), CPU time= 0.01 sec, 572 directives.
 Default parameters read. Elapsed time= 0.04 sec

 Checking input...
 Passed
1


                                         ***  PROGRAM SYSTEM MOLPRO  ***
                                       Copyright, TTI GmbH Stuttgart, 2015
                                    Version 2015.1 linked Jul  9 2018 13:16:40


 **********************************************************************************************************************************
 LABEL *   hno CCSD(T)/TZ-F12 QFF                                                        
  64 bit serial version                                                                  DATE: 04-Mar-20          TIME: 13:51:03  
 **********************************************************************************************************************************

 SHA1:             d5ffa45e93fdbca01ffc919aa182cfdae0147319
 **********************************************************************************************************************************

 THRESHOLDS:

 ZERO    =  1.00D-22  ONEINT  =  1.00D-22  TWOINT  =  1.00D-22  PREFAC  =  1.00D-14  LOCALI  =  1.00D-09  EORDER  =  1.00D-04
 ENERGY  =  1.00D-12  ETEST   =  0.00D+00  EDENS   =  0.00D+00  THRDEDEF=  1.00D-06  GRADIENT=  1.00D-02  STEP    =  1.00D-03
 ORBITAL =  1.00D-05  CIVEC   =  1.00D-05  COEFF   =  1.00D-04  PRINTCI =  5.00D-02  PUNCHCI =  9.90D+01  OPTGRAD =  3.00D-04
 OPTENERG=  1.00D-06  OPTSTEP =  3.00D-04  THRGRAD =  1.00D-10  COMPRESS=  1.00D-11  VARMIN  =  1.00D-07  VARMAX  =  1.00D-03
 THRDOUB =  0.00D+00  THRDIV  =  1.00D-05  THRRED  =  1.00D-07  THRPSP  =  1.00D+00  THRDC   =  1.00D-10  THRCS   =  1.00D-10
 THRNRM  =  1.00D-08  THREQ   =  0.00D+00  THRDE   =  1.00D+00  THRREF  =  1.00D-05  SPARFAC =  1.00D+00  THRDLP  =  1.00D-07
 THRDIA  =  1.00D-10  THRDLS  =  1.00D-07  THRGPS  =  0.00D+00  THRKEX  =  0.00D+00  THRDIS  =  2.00D-01  THRVAR  =  1.00D-10
 THRLOC  =  1.00D-06  THRGAP  =  1.00D-06  THRLOCT = -1.00D+00  THRGAPT = -1.00D+00  THRORB  =  1.00D-06  THRMLTP =  0.00D+00
 THRCPQCI=  1.00D-10  KEXTA   =  0.00D+00  THRCOARS=  0.00D+00  SYMTOL  =  1.00D-06  GRADTOL =  1.00D-06  THROVL  =  1.00D-08
 THRORTH =  1.00D-08  GRID    =  1.00D-06  GRIDMAX =  1.00D-03  DTMAX   =  0.00D+00  THROCCDE=  1.00D-01  THROCCDE=  1.00D-01



 THRESHOLDS:

 ZERO    =  1.00D-22  ONEINT  =  1.00D-22  TWOINT  =  1.00D-22  PREFAC  =  1.00D-14  LOCALI  =  1.00D-09  EORDER  =  1.00D-04
 ENERGY  =  1.00D-12  ETEST   =  0.00D+00  EDENS   =  0.00D+00  THRDEDEF=  1.00D-06  GRADIENT=  1.00D-02  STEP    =  1.00D-03
 ORBITAL =  1.00D-05  CIVEC   =  1.00D-05  COEFF   =  1.00D-04  PRINTCI =  5.00D-02  PUNCHCI =  9.90D+01  OPTGRAD =  1.00D-08
 OPTENERG=  1.00D-06  OPTSTEP =  1.00D-08  THRGRAD =  1.00D-10  COMPRESS=  1.00D-11  VARMIN  =  1.00D-07  VARMAX  =  1.00D-03
 THRDOUB =  0.00D+00  THRDIV  =  1.00D-05  THRRED  =  1.00D-07  THRPSP  =  1.00D+00  THRDC   =  1.00D-10  THRCS   =  1.00D-10
 THRNRM  =  1.00D-08  THREQ   =  0.00D+00  THRDE   =  1.00D+00  THRREF  =  1.00D-05  SPARFAC =  1.00D+00  THRDLP  =  1.00D-07
 THRDIA  =  1.00D-10  THRDLS  =  1.00D-07  THRGPS  =  0.00D+00  THRKEX  =  0.00D+00  THRDIS  =  2.00D-01  THRVAR  =  1.00D-10
 THRLOC  =  1.00D-06  THRGAP  =  1.00D-06  THRLOCT = -1.00D+00  THRGAPT = -1.00D+00  THRORB  =  1.00D-06  THRMLTP =  0.00D+00
 THRCPQCI=  1.00D-10  KEXTA   =  0.00D+00  THRCOARS=  0.00D+00  SYMTOL  =  1.00D-06  GRADTOL =  1.00D-06  THROVL  =  1.00D-08
 THRORTH =  1.00D-08  GRID    =  1.00D-06  GRIDMAX =  1.00D-03  DTMAX   =  0.00D+00  THROCCDE=  1.00D-01  THROCCDE=  1.00D-01



 Input parameters for SORTINT:

 COMPRESS =    0.000000
 C_FINAL  =    1.000000
 DEBUG    =   -1.000000
 C_SORT1  =    0.000000
 C_SEWARD =    0.000000
 THRESH   =    0.000000
 IO       =  molpro                                                          
 SPRI     =    0.000000
 SETTING GEOMTYP        =    XYZ
 ZUNIT=BOHR
 

 Variable memory set to  995000000 words,  buffer space   230000 words

 SETTING BASIS          =    VTZ-DK
 SETTING DKROLL         =     0.00000000D+00                                  


 Recomputing integrals since basis changed


 Using spherical harmonics

 Library entry H      S cc-pVTZ-DK           selected for orbital group  1
 Library entry H      P cc-pVTZ-DK           selected for orbital group  1
 Library entry H      D cc-pVTZ-DK           selected for orbital group  1
 Library entry N      S cc-pVTZ-DK           selected for orbital group  2
 Library entry N      P cc-pVTZ-DK           selected for orbital group  2
 Library entry N      D cc-pVTZ-DK           selected for orbital group  2
 Library entry N      F cc-pVTZ-DK           selected for orbital group  2
 Library entry O      S cc-pVTZ-DK           selected for orbital group  3
 Library entry O      P cc-pVTZ-DK           selected for orbital group  3
 Library entry O      D cc-pVTZ-DK           selected for orbital group  3
 Library entry O      F cc-pVTZ-DK           selected for orbital group  3


 PROGRAM * SEWARD (Integral evaluation for generally contracted gaussian basis sets)     Author: Roland Lindh, 1990

 Geometry written to block  1 of record 700


 Point group  Cs  



 ATOMIC COORDINATES

 NR  ATOM    CHARGE       X              Y              Z

   1  H       1.00    0.000000000    1.676970870   -1.942108379
   2  N       7.00    0.000000000   -0.165354597   -1.146055847
   3  O       8.00    0.000000000    0.030151517    1.137574636

 Bond lengths in Bohr (Angstrom)

 1-2  2.006953602  2-3  2.291984036
     ( 1.062034109)     ( 1.212865720)

 Bond angles

  1-2-3  108.47547239

 NUCLEAR CHARGE:                   16
 NUMBER OF PRIMITIVE AOS:         111
 NUMBER OF SYMMETRY AOS:          100
 NUMBER OF CONTRACTIONS:           74   (  50A'  +  24A"  )
 NUMBER OF CORE ORBITALS:           2   (   2A'  +   0A"  )
 NUMBER OF VALENCE ORBITALS:        9   (   7A'  +   2A"  )


 NUCLEAR REPULSION ENERGY   30.21157887

 Eigenvalues of metric

         1 0.249E-02 0.403E-02 0.423E-02 0.858E-02 0.132E-01 0.332E-01 0.429E-01 0.464E-01
         2 0.346E-01 0.466E-01 0.103E+00 0.114E+00 0.238E+00 0.347E+00 0.398E+00 0.453E+00


 Contracted 2-electron integrals neglected if value below      1.0D-22

        1874283. INTEGRALS WRITTEN OUT IN     458 BLOCKS ON RECORD 1290 OF FILE 1


 NUMBER OF SORTED TWO-ELECTRON INTEGRALS:    2006100.     BUFFER LENGTH:  32768
 NUMBER OF SEGMENTS:   1  SEGMENT LENGTH:    2006100      RECORD LENGTH: 524288

 Memory used in sort:       2.56 MW

 SORT1 READ     1874283. AND WROTE     1914195. INTEGRALS IN      6 RECORDS. CPU TIME:     0.04 SEC, REAL TIME:     0.04 SEC
 SORT2 READ     1914195. AND WROTE     2006100. INTEGRALS IN      1 RECORDS. CPU TIME:     0.03 SEC, REAL TIME:     0.06 SEC

 FILE SIZES:   FILE 1:    50.1 MBYTE,  FILE 4:    25.2 MBYTE,   TOTAL:     75.3 MBYTE

 OPERATOR DM      FOR CENTER  0  COORDINATES:    0.000000    0.000000    0.000000


 **********************************************************************************************************************************
 DATASETS  * FILE   NREC   LENGTH (MB)   RECORD NAMES
              1      19       35.89       500      610      700      900      950      970     1000      129      960     1100   
                                          VAR    BASINP    GEOM    SYMINP    ZMAT    AOBASIS   BASIS     P2S    ABASIS      S 
                                         1400     1410     1200     1210     1080     1600     1650     1300     1700   
                                           T        V       H0       H01     AOSYM     SMH    MOLCAS    ERIS     OPER   

 PROGRAMS   *        TOTAL       INT
 CPU TIMES  *         0.58      0.49
 REAL TIME  *         1.10 SEC
 DISK USED  *        75.59 MB      
 **********************************************************************************************************************************


 PROGRAM * RHF-SCF (CLOSED SHELL)       Authors: W. Meyer, H.-J. Werner


 NUMBER OF ELECTRONS:       8+    8-
 CONVERGENCE THRESHOLDS:    1.00E-10 (Density)    1.00E-13 (Energy)
 MAX. NUMBER OF ITERATIONS:      500
 INTERPOLATION TYPE:            DIIS
 INTERPOLATION STEPS:              2 (START)      1 (STEP)
 LEVEL SHIFTS:                  0.00 (CLOSED)  0.00 (OPEN) 



 Orbital guess generated from atomic densities. Full valence occupancy:    9   2

 Molecular orbital dump at record        2100.2

 Initial occupancy:   7   1

 ITERATION    DDIFF          GRAD             ENERGY        2-EL.EN.            DIPOLE MOMENTS         DIIS   ORB.
    1      0.000D+00      0.000D+00      -129.77800035    153.843247    0.00000    0.58886   -1.05596    0    start
    2      0.000D+00      0.137D-01      -129.80473465    154.998195    0.00000    0.61761   -0.21903    1    diag
    3      0.188D-01      0.106D-01      -129.82809599    155.124495    0.00000    0.56373   -0.60908    2    diag
    4      0.919D-02      0.157D-02      -129.82884832    154.852436    0.00000    0.57185   -0.54850    3    diag
    5      0.167D-02      0.522D-03      -129.82896697    154.939435    0.00000    0.57739   -0.54962    4    diag
    6      0.730D-03      0.156D-03      -129.82898664    154.924466    0.00000    0.57792   -0.54531    5    diag
    7      0.284D-03      0.783D-04      -129.82899246    154.926723    0.00000    0.57916   -0.54274    6    diag
    8      0.196D-03      0.256D-04      -129.82899304    154.926006    0.00000    0.57918   -0.54188    7    diag
    9      0.684D-04      0.471D-05      -129.82899307    154.925880    0.00000    0.57913   -0.54172    8    diag
   10      0.134D-04      0.103D-05      -129.82899307    154.925862    0.00000    0.57909   -0.54169    9    orth
   11      0.290D-05      0.202D-06      -129.82899307    154.925857    0.00000    0.57908   -0.54169    9    diag
   12      0.528D-06      0.425D-07      -129.82899307    154.925856    0.00000    0.57908   -0.54169    9    diag
   13      0.116D-06      0.108D-07      -129.82899307    154.925856    0.00000    0.57908   -0.54169    9    diag
   14      0.296D-07      0.194D-08      -129.82899307    154.925855    0.00000    0.57908   -0.54169    9    diag
   15      0.456D-08      0.490D-09      -129.82899307    154.925855    0.00000    0.57908   -0.54169    9    diag
   16      0.110D-08      0.115D-09      -129.82899307    154.925855    0.00000    0.57908   -0.54169    9    diag
   17      0.176D-09      0.312D-10      -129.82899307    154.925855    0.00000    0.57908   -0.54169    9    diag
   18      0.502D-10      0.101D-10      -129.82899307    154.925855    0.00000    0.57908   -0.54169    0    orth

 Final occupancy:   7   1

 !RHF STATE 1.1 Energy               -129.828993069477
 Nuclear energy                        30.21157887
 One-electron energy                 -237.50349966
 Two-electron energy                   77.46292772
 Virial quotient                       -0.99993150
 !RHF STATE 1.1 Dipole moment           0.00000000     0.57908172    -0.54168751
 Dipole moment /Debye                   0.00000000     1.47178252    -1.37674215

 Orbital energies:

         1.1          2.1          3.1          4.1          5.1          6.1          7.1          8.1          9.1
    -20.648645   -15.709945    -1.521672    -0.989827    -0.740578    -0.660618    -0.427592     0.143055     0.369390

         1.2          2.2          3.2
     -0.589944     0.084449     0.613493

 HOMO      7.1    -0.427592 =     -11.6354eV
 LUMO      2.2     0.084449 =       2.2980eV
 LUMO-HOMO         0.512041 =      13.9333eV


 **********************************************************************************************************************************
 DATASETS  * FILE   NREC   LENGTH (MB)   RECORD NAMES
              1      19       35.89       500      610      700      900      950      970     1000      129      960     1100   
                                          VAR    BASINP    GEOM    SYMINP    ZMAT    AOBASIS   BASIS     P2S    ABASIS      S 
                                         1400     1410     1200     1210     1080     1600     1650     1300     1700   
                                           T        V       H0       H01     AOSYM     SMH    MOLCAS    ERIS     OPER   

              2       4        2.85       700     1000      520     2100   
                                         GEOM     BASIS   MCVARS     RHF  

 PROGRAMS   *        TOTAL        HF       INT
 CPU TIMES  *         0.80      0.23      0.49
 REAL TIME  *         1.34 SEC
 DISK USED  *        75.59 MB      
 **********************************************************************************************************************************


 PROGRAM * CCSD (Closed-shell coupled cluster)     Authors: C. Hampel, H.-J. Werner, 1991, M. Deegan, P.J. Knowles, 1992


 Convergence thresholds:  THRVAR = 1.00D-08  THRDEN = 1.00D-12

 CCSD(T)     terms to be evaluated (factor= 1.000)


 Number of core orbitals:           2 (   2   0 )
 Number of closed-shell orbitals:   6 (   5   1 )
 Number of external orbitals:      66 (  43  23 )

 Molecular orbitals read from record     2100.2  Type=RHF/CANONICAL (state 1.1)

 Number of N-1 electron functions:               6
 Number of N-2 electron functions:              21
 Number of singly external CSFs:               238
 Number of doubly external CSFs:             41002
 Total number of CSFs:                       41241

 Length of J-op  integral file:               0.00 MB
 Length of K-op  integral file:               0.25 MB
 Length of 3-ext integral record:             0.00 MB

 Memory could be reduced to 1.65 Mwords without degradation in triples

 Integral transformation finished. Total CPU:   0.03 sec, npass=  1  Memory used:   0.55 MW

 Reference energy:                   -129.82899307

 MP2 singlet pair energy:              -0.27432075
 MP2 triplet pair energy:              -0.16289517
 MP2 correlation energy:               -0.43721592
 MP2 total energy:                   -130.26620899

 SCS-MP2 correlation energy:           -0.43054190   (PS=  1.200000  PT=  0.333333)
 SCS-MP2 total energy:               -130.25953496

 ITER.      SQ.NORM     CORR.ENERGY   TOTAL ENERGY   ENERGY CHANGE        DEN1      VAR(S)    VAR(P)  DIIS     TIME  TIME/IT
   1      1.11929517    -0.44214921  -130.27114228    -0.00493328     0.01112547  0.30D-02  0.31D-02  1  1     0.06     0.04
   2      1.13032623    -0.44236679  -130.27135986    -0.00021758    -0.01244204  0.92D-04  0.52D-03  2  2     0.10     0.04
   3      1.13677947    -0.44276842  -130.27176149    -0.00040163    -0.00303514  0.50D-04  0.52D-04  3  3     0.13     0.04
   4      1.13966816    -0.44279372  -130.27178679    -0.00002530    -0.00098199  0.43D-05  0.92D-05  4  4     0.17     0.04
   5      1.14071411    -0.44282485  -130.27181792    -0.00003113    -0.00021667  0.15D-05  0.17D-05  5  5     0.20     0.04
   6      1.14108733    -0.44280746  -130.27180053     0.00001739    -0.00004249  0.11D-06  0.41D-06  6  6     0.23     0.04
   7      1.14117516    -0.44280938  -130.27180245    -0.00000192    -0.00000209  0.13D-07  0.89D-07  6  1     0.27     0.04
   8      1.14120667    -0.44280933  -130.27180240     0.00000006     0.00000177  0.43D-08  0.11D-07  6  2     0.31     0.04
   9      1.14121508    -0.44280906  -130.27180213     0.00000027    -0.00000226  0.26D-08  0.13D-08  6  3     0.33     0.04
  10      1.14121387    -0.44280960  -130.27180267    -0.00000054     0.00000059  0.51D-09  0.22D-09  6  4     0.37     0.04
  11      1.14121206    -0.44280966  -130.27180272    -0.00000006     0.00000021  0.16D-09  0.25D-10  6  5     0.41     0.04
  12      1.14121060    -0.44280984  -130.27180291    -0.00000019     0.00000045  0.16D-10  0.83D-11  6  6     0.44     0.04
  13      1.14120994    -0.44280985  -130.27180292    -0.00000001     0.00000013  0.72D-11  0.13D-11  6  1     0.47     0.04
  14      1.14120952    -0.44280987  -130.27180294    -0.00000002     0.00000008  0.10D-11  0.46D-12  6  2     0.51     0.04
  15      1.14120936    -0.44280988  -130.27180295    -0.00000000     0.00000001  0.27D-12  0.15D-12  6  3     0.54     0.04
  16      1.14120924    -0.44280988  -130.27180295    -0.00000000     0.00000002  0.81D-14  0.38D-13  6  1     0.58     0.04
  17      1.14120923    -0.44280988  -130.27180295     0.00000000    -0.00000000  0.31D-14  0.26D-14  6  4     0.62     0.04
  18      1.14120922    -0.44280988  -130.27180295    -0.00000000     0.00000000  0.75D-15  0.45D-15  6  5     0.65     0.04
  19      1.14120922    -0.44280988  -130.27180295     0.00000000    -0.00000000  0.14D-15  0.88D-16  6  6     0.68     0.04
  20      1.14120921    -0.44280988  -130.27180295    -0.00000000     0.00000000  0.23D-16  0.22D-16  6  2     0.72     0.04
  21      1.14120921    -0.44280988  -130.27180295    -0.00000000     0.00000000  0.61D-18  0.16D-17  6  4     0.76     0.04
  22      1.14120921    -0.44280988  -130.27180295    -0.00000000     0.00000000  0.97D-19  0.15D-18  6  3     0.80     0.04
  23      1.14120921    -0.44280988  -130.27180295    -0.00000000     0.00000000  0.86D-20  0.16D-19  6  1     0.83     0.04
  24      1.14120921    -0.44280988  -130.27180295     0.00000000     0.00000000  0.46D-20  0.20D-20  6  6     0.87     0.04
  25      1.14120921    -0.44280988  -130.27180295     0.00000000    -0.00000000  0.28D-21  0.47D-21  6  4     0.91     0.04

 Norm of t1 vector:      0.07641750      S-energy:     0.00000000      T1 diagnostic:  0.01559866
                                                                       D1 diagnostic:  0.04314173

 Doubles amplitudes (print threshold =  0.500E-01):

         I         J         SYM. A    SYM. B    A         B      T(IJ, AB)

         6         6         2         2         1         1     -0.14504031


 Total CPU time for triples:      0.22 sec


 RESULTS
 =======

  Reference energy                   -129.828993069477
  CCSD singlet pair energy             -0.303807272904
  CCSD triplet pair energy             -0.139002606888
  CCSD correlation energy              -0.442809879791

  Triples (T) contribution             -0.019981241934
  Total correlation energy             -0.462791121725

  CCSD total energy                  -130.271802949268
  CCSD[T] energy                     -130.292834971860
  CCSD-T energy                      -130.291376988081
 !CCSD(T) total energy               -130.291784191202

 Timing summary (sec):

 STEP                 CPU(USER)    SYS     CPU(TOT)    WALL
 Transformation          0.03      0.00      0.03      0.05
 CCSD iterations         0.89      0.11      1.00      0.98
 Triples                 0.22      0.01      0.23      0.23

 Program statistics:

 Available memory in ccsd:               994999756
 Min. memory needed in ccsd:                154850
 Max. memory used in ccsd:                  184802
 Max. memory used in cckext:                238416 (25 integral passes)



 **********************************************************************************************************************************
 DATASETS  * FILE   NREC   LENGTH (MB)   RECORD NAMES
              1      20       40.28       500      610      700      900      950      970     1000      129      960     1100   
                                          VAR    BASINP    GEOM    SYMINP    ZMAT    AOBASIS   BASIS     P2S    ABASIS      S 
                                         1400     1410     1200     1210     1080     1600     1650     1300     1700     1380   
                                           T        V       H0       H01     AOSYM     SMH    MOLCAS    ERIS     OPER     JKOP   

              2       4        2.85       700     1000      520     2100   
                                         GEOM     BASIS   MCVARS     RHF  

 PROGRAMS   *        TOTAL   CCSD(T)        HF       INT
 CPU TIMES  *         1.98      1.17      0.23      0.49
 REAL TIME  *         2.66 SEC
 DISK USED  *        75.59 MB      
 **********************************************************************************************************************************

 CCSD(T)/cc-pVTZ-DK energy=   -130.291784191202

        CCSD(T)         HF-SCF  
   -130.29178419   -129.82899307
 **********************************************************************************************************************************
 Molpro calculation terminated
 Variable memory released
