
 Primary working directories    : /tmp/r2666/282603.maple
 Secondary working directories  : /tmp/r2666/282603.maple
 Wavefunction directory         : /ddn/home4/r2666/wfu/
 Main file repository           : /tmp/r2666/282603.maple/

 SHA1      : d5ffa45e93fdbca01ffc919aa182cfdae0147319
 NAME      : 2015.1.35
 ARCHNAME  : linux/x86_64
 FC        : /opt/intel/composer_xe_2015.1.133/bin/intel64/ifort
 BLASLIB   : -Wl,-_start-group /opt/intel/mkl/lib/intel64/libmkl_intel_ilp64.a /opt/intel/mkl/lib/intel64/libmkl_intel_thread.a /opt/intel/mkl/lib/intel64/libmkl_core.a -Wl,-_end-group
 id        : olemiss

 Nodes     nprocs
 cn089        1

 Using customized tuning parameters: mindgm=1; mindgv=20; mindgc=4; mindgr=1; noblas=0; minvec=7
 default implementation of scratch files=df  

 ***,hno CCSD(T)/TZ-F12 QFF
 memory, 995, m;
 gthresh,energy=1.d-12,zero=1.d-22,oneint=1.d-22,twoint=1.d-22;
 gthresh,optgrad=1.d-8,optstep=1.d-8;
 nocompress;
 geomtyp=xyz
 bohr
 geometry={
 3
        113       113
 H        0.0000000000        1.6751480620       -1.9342225498
 N        0.0000000000       -0.1680523163       -1.1401979117
 O        0.0000000000        0.0346720443        1.1238308706
 }
 
 basis=vtz-dk
 dkroll=0
   {hf,maxit=500;accu,20;}
 {ccsd(t),nocheck,maxit=250;orbital,IGNORE_ERROR;}

 Variables initialized (889), CPU time= 0.01 sec
 Commands  initialized (702), CPU time= 0.00 sec, 572 directives.
 Default parameters read. Elapsed time= 0.05 sec

 Checking input...
 Passed
1


                                         ***  PROGRAM SYSTEM MOLPRO  ***
                                       Copyright, TTI GmbH Stuttgart, 2015
                                    Version 2015.1 linked Jul  9 2018 13:16:40


 **********************************************************************************************************************************
 LABEL *   hno CCSD(T)/TZ-F12 QFF                                                        
  64 bit serial version                                                                  DATE: 04-Mar-20          TIME: 13:51:03  
 **********************************************************************************************************************************

 SHA1:             d5ffa45e93fdbca01ffc919aa182cfdae0147319
 **********************************************************************************************************************************

 THRESHOLDS:

 ZERO    =  1.00D-22  ONEINT  =  1.00D-22  TWOINT  =  1.00D-22  PREFAC  =  1.00D-14  LOCALI  =  1.00D-09  EORDER  =  1.00D-04
 ENERGY  =  1.00D-12  ETEST   =  0.00D+00  EDENS   =  0.00D+00  THRDEDEF=  1.00D-06  GRADIENT=  1.00D-02  STEP    =  1.00D-03
 ORBITAL =  1.00D-05  CIVEC   =  1.00D-05  COEFF   =  1.00D-04  PRINTCI =  5.00D-02  PUNCHCI =  9.90D+01  OPTGRAD =  3.00D-04
 OPTENERG=  1.00D-06  OPTSTEP =  3.00D-04  THRGRAD =  1.00D-10  COMPRESS=  1.00D-11  VARMIN  =  1.00D-07  VARMAX  =  1.00D-03
 THRDOUB =  0.00D+00  THRDIV  =  1.00D-05  THRRED  =  1.00D-07  THRPSP  =  1.00D+00  THRDC   =  1.00D-10  THRCS   =  1.00D-10
 THRNRM  =  1.00D-08  THREQ   =  0.00D+00  THRDE   =  1.00D+00  THRREF  =  1.00D-05  SPARFAC =  1.00D+00  THRDLP  =  1.00D-07
 THRDIA  =  1.00D-10  THRDLS  =  1.00D-07  THRGPS  =  0.00D+00  THRKEX  =  0.00D+00  THRDIS  =  2.00D-01  THRVAR  =  1.00D-10
 THRLOC  =  1.00D-06  THRGAP  =  1.00D-06  THRLOCT = -1.00D+00  THRGAPT = -1.00D+00  THRORB  =  1.00D-06  THRMLTP =  0.00D+00
 THRCPQCI=  1.00D-10  KEXTA   =  0.00D+00  THRCOARS=  0.00D+00  SYMTOL  =  1.00D-06  GRADTOL =  1.00D-06  THROVL  =  1.00D-08
 THRORTH =  1.00D-08  GRID    =  1.00D-06  GRIDMAX =  1.00D-03  DTMAX   =  0.00D+00  THROCCDE=  1.00D-01  THROCCDE=  1.00D-01



 THRESHOLDS:

 ZERO    =  1.00D-22  ONEINT  =  1.00D-22  TWOINT  =  1.00D-22  PREFAC  =  1.00D-14  LOCALI  =  1.00D-09  EORDER  =  1.00D-04
 ENERGY  =  1.00D-12  ETEST   =  0.00D+00  EDENS   =  0.00D+00  THRDEDEF=  1.00D-06  GRADIENT=  1.00D-02  STEP    =  1.00D-03
 ORBITAL =  1.00D-05  CIVEC   =  1.00D-05  COEFF   =  1.00D-04  PRINTCI =  5.00D-02  PUNCHCI =  9.90D+01  OPTGRAD =  1.00D-08
 OPTENERG=  1.00D-06  OPTSTEP =  1.00D-08  THRGRAD =  1.00D-10  COMPRESS=  1.00D-11  VARMIN  =  1.00D-07  VARMAX  =  1.00D-03
 THRDOUB =  0.00D+00  THRDIV  =  1.00D-05  THRRED  =  1.00D-07  THRPSP  =  1.00D+00  THRDC   =  1.00D-10  THRCS   =  1.00D-10
 THRNRM  =  1.00D-08  THREQ   =  0.00D+00  THRDE   =  1.00D+00  THRREF  =  1.00D-05  SPARFAC =  1.00D+00  THRDLP  =  1.00D-07
 THRDIA  =  1.00D-10  THRDLS  =  1.00D-07  THRGPS  =  0.00D+00  THRKEX  =  0.00D+00  THRDIS  =  2.00D-01  THRVAR  =  1.00D-10
 THRLOC  =  1.00D-06  THRGAP  =  1.00D-06  THRLOCT = -1.00D+00  THRGAPT = -1.00D+00  THRORB  =  1.00D-06  THRMLTP =  0.00D+00
 THRCPQCI=  1.00D-10  KEXTA   =  0.00D+00  THRCOARS=  0.00D+00  SYMTOL  =  1.00D-06  GRADTOL =  1.00D-06  THROVL  =  1.00D-08
 THRORTH =  1.00D-08  GRID    =  1.00D-06  GRIDMAX =  1.00D-03  DTMAX   =  0.00D+00  THROCCDE=  1.00D-01  THROCCDE=  1.00D-01



 Input parameters for SORTINT:

 COMPRESS =    0.000000
 C_FINAL  =    1.000000
 DEBUG    =   -1.000000
 C_SORT1  =    0.000000
 C_SEWARD =    0.000000
 THRESH   =    0.000000
 IO       =  molpro                                                          
 SPRI     =    0.000000
 SETTING GEOMTYP        =    XYZ
 ZUNIT=BOHR
 

 Variable memory set to  995000000 words,  buffer space   230000 words

 SETTING BASIS          =    VTZ-DK
 SETTING DKROLL         =     0.00000000D+00                                  


 Recomputing integrals since basis changed


 Using spherical harmonics

 Library entry H      S cc-pVTZ-DK           selected for orbital group  1
 Library entry H      P cc-pVTZ-DK           selected for orbital group  1
 Library entry H      D cc-pVTZ-DK           selected for orbital group  1
 Library entry N      S cc-pVTZ-DK           selected for orbital group  2
 Library entry N      P cc-pVTZ-DK           selected for orbital group  2
 Library entry N      D cc-pVTZ-DK           selected for orbital group  2
 Library entry N      F cc-pVTZ-DK           selected for orbital group  2
 Library entry O      S cc-pVTZ-DK           selected for orbital group  3
 Library entry O      P cc-pVTZ-DK           selected for orbital group  3
 Library entry O      D cc-pVTZ-DK           selected for orbital group  3
 Library entry O      F cc-pVTZ-DK           selected for orbital group  3


 PROGRAM * SEWARD (Integral evaluation for generally contracted gaussian basis sets)     Author: Roland Lindh, 1990

 Geometry written to block  1 of record 700


 Point group  Cs  



 ATOMIC COORDINATES

 NR  ATOM    CHARGE       X              Y              Z

   1  H       1.00    0.000000000    1.675148062   -1.934222550
   2  N       7.00    0.000000000   -0.168052316   -1.140197912
   3  O       8.00    0.000000000    0.034672044    1.123830871

 Bond lengths in Bohr (Angstrom)

 1-2  2.006953602  2-3  2.273086776
     ( 1.062034110)     ( 1.202865721)

 Bond angles

  1-2-3  108.18899349

 NUCLEAR CHARGE:                   16
 NUMBER OF PRIMITIVE AOS:         111
 NUMBER OF SYMMETRY AOS:          100
 NUMBER OF CONTRACTIONS:           74   (  50A'  +  24A"  )
 NUMBER OF CORE ORBITALS:           2   (   2A'  +   0A"  )
 NUMBER OF VALENCE ORBITALS:        9   (   7A'  +   2A"  )


 NUCLEAR REPULSION ENERGY   30.42926500

 Eigenvalues of metric

         1 0.246E-02 0.398E-02 0.410E-02 0.851E-02 0.132E-01 0.326E-01 0.423E-01 0.464E-01
         2 0.341E-01 0.465E-01 0.101E+00 0.114E+00 0.234E+00 0.345E+00 0.395E+00 0.449E+00


 Contracted 2-electron integrals neglected if value below      1.0D-22

        1874283. INTEGRALS WRITTEN OUT IN     458 BLOCKS ON RECORD 1290 OF FILE 1


 NUMBER OF SORTED TWO-ELECTRON INTEGRALS:    2006100.     BUFFER LENGTH:  32768
 NUMBER OF SEGMENTS:   1  SEGMENT LENGTH:    2006100      RECORD LENGTH: 524288

 Memory used in sort:       2.56 MW

 SORT1 READ     1874283. AND WROTE     1914195. INTEGRALS IN      6 RECORDS. CPU TIME:     0.03 SEC, REAL TIME:     0.04 SEC
 SORT2 READ     1914195. AND WROTE     2006100. INTEGRALS IN      1 RECORDS. CPU TIME:     0.04 SEC, REAL TIME:     0.06 SEC

 FILE SIZES:   FILE 1:    50.1 MBYTE,  FILE 4:    25.2 MBYTE,   TOTAL:     75.3 MBYTE

 OPERATOR DM      FOR CENTER  0  COORDINATES:    0.000000    0.000000    0.000000


 **********************************************************************************************************************************
 DATASETS  * FILE   NREC   LENGTH (MB)   RECORD NAMES
              1      19       35.89       500      610      700      900      950      970     1000      129      960     1100   
                                          VAR    BASINP    GEOM    SYMINP    ZMAT    AOBASIS   BASIS     P2S    ABASIS      S 
                                         1400     1410     1200     1210     1080     1600     1650     1300     1700   
                                           T        V       H0       H01     AOSYM     SMH    MOLCAS    ERIS     OPER   

 PROGRAMS   *        TOTAL       INT
 CPU TIMES  *         0.59      0.51
 REAL TIME  *         1.09 SEC
 DISK USED  *        75.59 MB      
 **********************************************************************************************************************************


 PROGRAM * RHF-SCF (CLOSED SHELL)       Authors: W. Meyer, H.-J. Werner


 NUMBER OF ELECTRONS:       8+    8-
 CONVERGENCE THRESHOLDS:    1.00E-10 (Density)    1.00E-13 (Energy)
 MAX. NUMBER OF ITERATIONS:      500
 INTERPOLATION TYPE:            DIIS
 INTERPOLATION STEPS:              2 (START)      1 (STEP)
 LEVEL SHIFTS:                  0.00 (CLOSED)  0.00 (OPEN) 



 Orbital guess generated from atomic densities. Full valence occupancy:    9   2

 Molecular orbital dump at record        2100.2

 Initial occupancy:   7   1

 ITERATION    DDIFF          GRAD             ENERGY        2-EL.EN.            DIPOLE MOMENTS         DIIS   ORB.
    1      0.000D+00      0.000D+00      -129.78082642    154.233369    0.00000    0.58150   -1.02317    0    start
    2      0.000D+00      0.135D-01      -129.80787106    155.406381    0.00000    0.61080   -0.22295    1    diag
    3      0.185D-01      0.102D-01      -129.82959651    155.511853    0.00000    0.55738   -0.59350    2    diag
    4      0.893D-02      0.155D-02      -129.83032960    155.246837    0.00000    0.56584   -0.53459    3    diag
    5      0.166D-02      0.515D-03      -129.83044475    155.332923    0.00000    0.57136   -0.53590    4    diag
    6      0.719D-03      0.153D-03      -129.83046377    155.318096    0.00000    0.57193   -0.53176    5    diag
    7      0.280D-03      0.763D-04      -129.83046924    155.320459    0.00000    0.57319   -0.52932    6    diag
    8      0.192D-03      0.242D-04      -129.83046974    155.319784    0.00000    0.57321   -0.52854    7    diag
    9      0.632D-04      0.441D-05      -129.83046976    155.319669    0.00000    0.57317   -0.52839    8    diag
   10      0.123D-04      0.983D-06      -129.83046976    155.319651    0.00000    0.57313   -0.52837    9    orth
   11      0.279D-05      0.194D-06      -129.83046976    155.319646    0.00000    0.57312   -0.52836    9    diag
   12      0.514D-06      0.401D-07      -129.83046976    155.319645    0.00000    0.57312   -0.52836    9    diag
   13      0.113D-06      0.992D-08      -129.83046976    155.319644    0.00000    0.57312   -0.52836    9    diag
   14      0.282D-07      0.182D-08      -129.83046976    155.319644    0.00000    0.57312   -0.52836    9    diag
   15      0.463D-08      0.479D-09      -129.83046976    155.319644    0.00000    0.57312   -0.52836    9    diag
   16      0.111D-08      0.123D-09      -129.83046976    155.319644    0.00000    0.57312   -0.52836    9    diag
   17      0.213D-09      0.368D-10      -129.83046976    155.319644    0.00000    0.57312   -0.52836    9    diag
   18      0.704D-10      0.123D-10      -129.83046976    155.319644    0.00000    0.57312   -0.52836    9    diag
   19      0.292D-10      0.269D-11      -129.83046976    155.319644    0.00000    0.57312   -0.52836    9    fixocc
   20      0.683D-11      0.478D-12      -129.83046976    155.319644    0.00000    0.57312   -0.52836    9    orth
   21      0.875D-12      0.141D-12      -129.83046976    155.319644    0.00000    0.57312   -0.52836    9    diag
   22      0.291D-12      0.330D-13      -129.83046976    155.319644    0.00000    0.57312   -0.52836    0    orth

 Final occupancy:   7   1

 !RHF STATE 1.1 Energy               -129.830469764282
 Nuclear energy                        30.42926500
 One-electron energy                 -237.91955698
 Two-electron energy                   77.65982221
 Virial quotient                       -0.99963600
 !RHF STATE 1.1 Dipole moment           0.00000000     0.57312101    -0.52835920
 Dipole moment /Debye                   0.00000000     1.45663290    -1.34286718

 Orbital energies:

         1.1          2.1          3.1          4.1          5.1          6.1          7.1          8.1          9.1
    -20.647661   -15.708313    -1.530027    -0.987329    -0.743681    -0.663462    -0.424745     0.143721     0.370734

         1.2          2.2          3.2
     -0.594738     0.088174     0.612363

 HOMO      7.1    -0.424745 =     -11.5579eV
 LUMO      2.2     0.088174 =       2.3993eV
 LUMO-HOMO         0.512919 =      13.9572eV


 **********************************************************************************************************************************
 DATASETS  * FILE   NREC   LENGTH (MB)   RECORD NAMES
              1      19       35.89       500      610      700      900      950      970     1000      129      960     1100   
                                          VAR    BASINP    GEOM    SYMINP    ZMAT    AOBASIS   BASIS     P2S    ABASIS      S 
                                         1400     1410     1200     1210     1080     1600     1650     1300     1700   
                                           T        V       H0       H01     AOSYM     SMH    MOLCAS    ERIS     OPER   

              2       4        2.85       700     1000      520     2100   
                                         GEOM     BASIS   MCVARS     RHF  

 PROGRAMS   *        TOTAL        HF       INT
 CPU TIMES  *         0.82      0.23      0.51
 REAL TIME  *         1.37 SEC
 DISK USED  *        75.59 MB      
 **********************************************************************************************************************************


 PROGRAM * CCSD (Closed-shell coupled cluster)     Authors: C. Hampel, H.-J. Werner, 1991, M. Deegan, P.J. Knowles, 1992


 Convergence thresholds:  THRVAR = 1.00D-08  THRDEN = 1.00D-12

 CCSD(T)     terms to be evaluated (factor= 1.000)


 Number of core orbitals:           2 (   2   0 )
 Number of closed-shell orbitals:   6 (   5   1 )
 Number of external orbitals:      66 (  43  23 )

 Molecular orbitals read from record     2100.2  Type=RHF/CANONICAL (state 1.1)

 Number of N-1 electron functions:               6
 Number of N-2 electron functions:              21
 Number of singly external CSFs:               238
 Number of doubly external CSFs:             41002
 Total number of CSFs:                       41241

 Length of J-op  integral file:               0.00 MB
 Length of K-op  integral file:               0.25 MB
 Length of 3-ext integral record:             0.00 MB

 Memory could be reduced to 1.65 Mwords without degradation in triples

 Integral transformation finished. Total CPU:   0.02 sec, npass=  1  Memory used:   0.55 MW

 Reference energy:                   -129.83046976

 MP2 singlet pair energy:              -0.27326616
 MP2 triplet pair energy:              -0.16220532
 MP2 correlation energy:               -0.43547148
 MP2 total energy:                   -130.26594124

 SCS-MP2 correlation energy:           -0.42884715   (PS=  1.200000  PT=  0.333333)
 SCS-MP2 total energy:               -130.25931691

 ITER.      SQ.NORM     CORR.ENERGY   TOTAL ENERGY   ENERGY CHANGE        DEN1      VAR(S)    VAR(P)  DIIS     TIME  TIME/IT
   1      1.11820559    -0.44078116  -130.27125093    -0.00530968     0.01032855  0.29D-02  0.30D-02  1  1     0.06     0.04
   2      1.12898606    -0.44107591  -130.27154568    -0.00029475    -0.01219893  0.86D-04  0.50D-03  2  2     0.09     0.04
   3      1.13522183    -0.44146099  -130.27193075    -0.00038507    -0.00296513  0.47D-04  0.50D-04  3  3     0.13     0.04
   4      1.13798677    -0.44148562  -130.27195539    -0.00002463    -0.00094850  0.40D-05  0.88D-05  4  4     0.16     0.04
   5      1.13896999    -0.44151482  -130.27198458    -0.00002919    -0.00020370  0.14D-05  0.16D-05  5  5     0.20     0.04
   6      1.13932739    -0.44149869  -130.27196845     0.00001613    -0.00004035  0.11D-06  0.40D-06  6  6     0.23     0.04
   7      1.13941484    -0.44150043  -130.27197019    -0.00000174    -0.00000242  0.13D-07  0.84D-07  6  1     0.26     0.04
   8      1.13944590    -0.44150046  -130.27197022    -0.00000003     0.00000175  0.41D-08  0.10D-07  6  2     0.30     0.04
   9      1.13945379    -0.44150022  -130.27196998     0.00000024    -0.00000221  0.25D-08  0.11D-08  6  3     0.33     0.04
  10      1.13945261    -0.44150073  -130.27197049    -0.00000051     0.00000057  0.48D-09  0.20D-09  6  4     0.37     0.04
  11      1.13945086    -0.44150078  -130.27197055    -0.00000006     0.00000021  0.15D-09  0.23D-10  6  5     0.40     0.04
  12      1.13944945    -0.44150096  -130.27197072    -0.00000018     0.00000043  0.16D-10  0.77D-11  6  6     0.44     0.04
  13      1.13944883    -0.44150097  -130.27197073    -0.00000001     0.00000012  0.69D-11  0.12D-11  6  1     0.47     0.04
  14      1.13944843    -0.44150099  -130.27197075    -0.00000002     0.00000008  0.97D-12  0.42D-12  6  2     0.51     0.04
  15      1.13944829    -0.44150099  -130.27197075    -0.00000000     0.00000001  0.25D-12  0.14D-12  6  3     0.54     0.04
  16      1.13944818    -0.44150099  -130.27197076    -0.00000000     0.00000002  0.71D-14  0.36D-13  6  1     0.58     0.04
  17      1.13944817    -0.44150099  -130.27197076     0.00000000    -0.00000000  0.32D-14  0.27D-14  6  4     0.61     0.04
  18      1.13944816    -0.44150099  -130.27197076    -0.00000000     0.00000000  0.73D-15  0.47D-15  6  5     0.64     0.04
  19      1.13944816    -0.44150099  -130.27197076     0.00000000    -0.00000000  0.13D-15  0.84D-16  6  6     0.67     0.04
  20      1.13944816    -0.44150099  -130.27197076    -0.00000000     0.00000000  0.18D-16  0.19D-16  6  2     0.71     0.04
  21      1.13944816    -0.44150099  -130.27197076    -0.00000000     0.00000000  0.27D-17  0.24D-17  6  3     0.74     0.04
  22      1.13944816    -0.44150099  -130.27197076    -0.00000000     0.00000000  0.31D-18  0.37D-18  6  4     0.78     0.04
  23      1.13944816    -0.44150099  -130.27197076    -0.00000000     0.00000000  0.11D-18  0.30D-19  6  1     0.81     0.04
  24      1.13944816    -0.44150099  -130.27197076     0.00000000    -0.00000000  0.17D-19  0.11D-19  6  6     0.85     0.04
  25      1.13944816    -0.44150099  -130.27197076     0.00000000    -0.00000000  0.39D-20  0.75D-21  6  5     0.89     0.04
  26      1.13944816    -0.44150099  -130.27197076     0.00000000    -0.00000000  0.79D-21  0.30D-21  6  2     0.92     0.04
  27      1.13944816    -0.44150099  -130.27197076     0.00000000    -0.00000000  0.26D-22  0.17D-22  6  3     0.96     0.04

 Norm of t1 vector:      0.07476900      S-energy:    -0.00000000      T1 diagnostic:  0.01526216
                                                                       D1 diagnostic:  0.04181149

 Doubles amplitudes (print threshold =  0.500E-01):

         I         J         SYM. A    SYM. B    A         B      T(IJ, AB)

         6         6         2         2         1         1     -0.14223272


 Total CPU time for triples:      0.22 sec


 RESULTS
 =======

  Reference energy                   -129.830469764282
  CCSD singlet pair energy             -0.302664857460
  CCSD triplet pair energy             -0.138836134972
  CCSD correlation energy              -0.441500992432

  Triples (T) contribution             -0.019677923824
  Total correlation energy             -0.461178916256

  CCSD total energy                  -130.271970756714
  CCSD[T] energy                     -130.292655294819
  CCSD-T energy                      -130.291252417712
 !CCSD(T) total energy               -130.291648680538

 Timing summary (sec):

 STEP                 CPU(USER)    SYS     CPU(TOT)    WALL
 Transformation          0.02      0.02      0.04      0.03
 CCSD iterations         0.94      0.09      1.03      1.05
 Triples                 0.22      0.02      0.24      0.23

 Program statistics:

 Available memory in ccsd:               994999756
 Min. memory needed in ccsd:                154850
 Max. memory used in ccsd:                  184802
 Max. memory used in cckext:                238416 (27 integral passes)



 **********************************************************************************************************************************
 DATASETS  * FILE   NREC   LENGTH (MB)   RECORD NAMES
              1      20       40.28       500      610      700      900      950      970     1000      129      960     1100   
                                          VAR    BASINP    GEOM    SYMINP    ZMAT    AOBASIS   BASIS     P2S    ABASIS      S 
                                         1400     1410     1200     1210     1080     1600     1650     1300     1700     1380   
                                           T        V       H0       H01     AOSYM     SMH    MOLCAS    ERIS     OPER     JKOP   

              2       4        2.85       700     1000      520     2100   
                                         GEOM     BASIS   MCVARS     RHF  

 PROGRAMS   *        TOTAL   CCSD(T)        HF       INT
 CPU TIMES  *         2.04      1.21      0.23      0.51
 REAL TIME  *         2.73 SEC
 DISK USED  *        75.59 MB      
 **********************************************************************************************************************************

 CCSD(T)/cc-pVTZ-DK energy=   -130.291648680538

        CCSD(T)         HF-SCF  
   -130.29164868   -129.83046976
 **********************************************************************************************************************************
 Molpro calculation terminated
 Variable memory released
