
 Primary working directories    : /tmp/r2666/282500.maple
 Secondary working directories  : /tmp/r2666/282500.maple
 Wavefunction directory         : /ddn/home4/r2666/wfu/
 Main file repository           : /tmp/r2666/282500.maple/

 SHA1      : d5ffa45e93fdbca01ffc919aa182cfdae0147319
 NAME      : 2015.1.35
 ARCHNAME  : linux/x86_64
 FC        : /opt/intel/composer_xe_2015.1.133/bin/intel64/ifort
 BLASLIB   : -Wl,-_start-group /opt/intel/mkl/lib/intel64/libmkl_intel_ilp64.a /opt/intel/mkl/lib/intel64/libmkl_intel_thread.a /opt/intel/mkl/lib/intel64/libmkl_core.a -Wl,-_end-group
 id        : olemiss

 Nodes     nprocs
 cn091        1

 Using customized tuning parameters: mindgm=1; mindgv=20; mindgc=4; mindgr=1; noblas=0; minvec=7
 default implementation of scratch files=df  

 ***,hno CCSD(T)/TZ-F12 QFF
 memory, 995, m;
 gthresh,energy=1.d-12,zero=1.d-22,oneint=1.d-22,twoint=1.d-22;
 gthresh,optgrad=1.d-8,optstep=1.d-8;
 nocompress;
 geomtyp=xyz
 bohr
 geometry={
 3
         10        10
 H        0.0000000000        1.6569366113       -1.9198337422
 N        0.0000000000       -0.1545587175       -1.1477766427
 O        0.0000000000        0.0393898962        1.1170207939
 }
 
 basis=vtz-dk
 dkroll=0
   {hf,maxit=500;accu,20;}
 {ccsd(t),nocheck,maxit=250;orbital,IGNORE_ERROR;}

 Variables initialized (889), CPU time= 0.01 sec
 Commands  initialized (702), CPU time= 0.02 sec, 572 directives.
 Default parameters read. Elapsed time= 0.05 sec

 Checking input...
 Passed
1


                                         ***  PROGRAM SYSTEM MOLPRO  ***
                                       Copyright, TTI GmbH Stuttgart, 2015
                                    Version 2015.1 linked Jul  9 2018 13:16:40


 **********************************************************************************************************************************
 LABEL *   hno CCSD(T)/TZ-F12 QFF                                                        
  64 bit serial version                                                                  DATE: 04-Mar-20          TIME: 13:50:45  
 **********************************************************************************************************************************

 SHA1:             d5ffa45e93fdbca01ffc919aa182cfdae0147319
 **********************************************************************************************************************************

 THRESHOLDS:

 ZERO    =  1.00D-22  ONEINT  =  1.00D-22  TWOINT  =  1.00D-22  PREFAC  =  1.00D-14  LOCALI  =  1.00D-09  EORDER  =  1.00D-04
 ENERGY  =  1.00D-12  ETEST   =  0.00D+00  EDENS   =  0.00D+00  THRDEDEF=  1.00D-06  GRADIENT=  1.00D-02  STEP    =  1.00D-03
 ORBITAL =  1.00D-05  CIVEC   =  1.00D-05  COEFF   =  1.00D-04  PRINTCI =  5.00D-02  PUNCHCI =  9.90D+01  OPTGRAD =  3.00D-04
 OPTENERG=  1.00D-06  OPTSTEP =  3.00D-04  THRGRAD =  1.00D-10  COMPRESS=  1.00D-11  VARMIN  =  1.00D-07  VARMAX  =  1.00D-03
 THRDOUB =  0.00D+00  THRDIV  =  1.00D-05  THRRED  =  1.00D-07  THRPSP  =  1.00D+00  THRDC   =  1.00D-10  THRCS   =  1.00D-10
 THRNRM  =  1.00D-08  THREQ   =  0.00D+00  THRDE   =  1.00D+00  THRREF  =  1.00D-05  SPARFAC =  1.00D+00  THRDLP  =  1.00D-07
 THRDIA  =  1.00D-10  THRDLS  =  1.00D-07  THRGPS  =  0.00D+00  THRKEX  =  0.00D+00  THRDIS  =  2.00D-01  THRVAR  =  1.00D-10
 THRLOC  =  1.00D-06  THRGAP  =  1.00D-06  THRLOCT = -1.00D+00  THRGAPT = -1.00D+00  THRORB  =  1.00D-06  THRMLTP =  0.00D+00
 THRCPQCI=  1.00D-10  KEXTA   =  0.00D+00  THRCOARS=  0.00D+00  SYMTOL  =  1.00D-06  GRADTOL =  1.00D-06  THROVL  =  1.00D-08
 THRORTH =  1.00D-08  GRID    =  1.00D-06  GRIDMAX =  1.00D-03  DTMAX   =  0.00D+00  THROCCDE=  1.00D-01  THROCCDE=  1.00D-01



 THRESHOLDS:

 ZERO    =  1.00D-22  ONEINT  =  1.00D-22  TWOINT  =  1.00D-22  PREFAC  =  1.00D-14  LOCALI  =  1.00D-09  EORDER  =  1.00D-04
 ENERGY  =  1.00D-12  ETEST   =  0.00D+00  EDENS   =  0.00D+00  THRDEDEF=  1.00D-06  GRADIENT=  1.00D-02  STEP    =  1.00D-03
 ORBITAL =  1.00D-05  CIVEC   =  1.00D-05  COEFF   =  1.00D-04  PRINTCI =  5.00D-02  PUNCHCI =  9.90D+01  OPTGRAD =  1.00D-08
 OPTENERG=  1.00D-06  OPTSTEP =  1.00D-08  THRGRAD =  1.00D-10  COMPRESS=  1.00D-11  VARMIN  =  1.00D-07  VARMAX  =  1.00D-03
 THRDOUB =  0.00D+00  THRDIV  =  1.00D-05  THRRED  =  1.00D-07  THRPSP  =  1.00D+00  THRDC   =  1.00D-10  THRCS   =  1.00D-10
 THRNRM  =  1.00D-08  THREQ   =  0.00D+00  THRDE   =  1.00D+00  THRREF  =  1.00D-05  SPARFAC =  1.00D+00  THRDLP  =  1.00D-07
 THRDIA  =  1.00D-10  THRDLS  =  1.00D-07  THRGPS  =  0.00D+00  THRKEX  =  0.00D+00  THRDIS  =  2.00D-01  THRVAR  =  1.00D-10
 THRLOC  =  1.00D-06  THRGAP  =  1.00D-06  THRLOCT = -1.00D+00  THRGAPT = -1.00D+00  THRORB  =  1.00D-06  THRMLTP =  0.00D+00
 THRCPQCI=  1.00D-10  KEXTA   =  0.00D+00  THRCOARS=  0.00D+00  SYMTOL  =  1.00D-06  GRADTOL =  1.00D-06  THROVL  =  1.00D-08
 THRORTH =  1.00D-08  GRID    =  1.00D-06  GRIDMAX =  1.00D-03  DTMAX   =  0.00D+00  THROCCDE=  1.00D-01  THROCCDE=  1.00D-01



 Input parameters for SORTINT:

 COMPRESS =    0.000000
 C_FINAL  =    1.000000
 DEBUG    =   -1.000000
 C_SORT1  =    0.000000
 C_SEWARD =    0.000000
 THRESH   =    0.000000
 IO       =  molpro                                                          
 SPRI     =    0.000000
 SETTING GEOMTYP        =    XYZ
 ZUNIT=BOHR
 

 Variable memory set to  995000000 words,  buffer space   230000 words

 SETTING BASIS          =    VTZ-DK
 SETTING DKROLL         =     0.00000000D+00                                  


 Recomputing integrals since basis changed


 Using spherical harmonics

 Library entry H      S cc-pVTZ-DK           selected for orbital group  1
 Library entry H      P cc-pVTZ-DK           selected for orbital group  1
 Library entry H      D cc-pVTZ-DK           selected for orbital group  1
 Library entry N      S cc-pVTZ-DK           selected for orbital group  2
 Library entry N      P cc-pVTZ-DK           selected for orbital group  2
 Library entry N      D cc-pVTZ-DK           selected for orbital group  2
 Library entry N      F cc-pVTZ-DK           selected for orbital group  2
 Library entry O      S cc-pVTZ-DK           selected for orbital group  3
 Library entry O      P cc-pVTZ-DK           selected for orbital group  3
 Library entry O      D cc-pVTZ-DK           selected for orbital group  3
 Library entry O      F cc-pVTZ-DK           selected for orbital group  3


 PROGRAM * SEWARD (Integral evaluation for generally contracted gaussian basis sets)     Author: Roland Lindh, 1990

 Geometry written to block  1 of record 700


 Point group  Cs  



 ATOMIC COORDINATES

 NR  ATOM    CHARGE       X              Y              Z

   1  H       1.00    0.000000000    1.656936611   -1.919833742
   2  N       7.00    0.000000000   -0.154558717   -1.147776643
   3  O       8.00    0.000000000    0.039389896    1.117020794

 Bond lengths in Bohr (Angstrom)

 1-2  1.969159082  2-3  2.273086777
     ( 1.042034111)     ( 1.202865721)

 Bond angles

  1-2-3  108.18899349

 NUCLEAR CHARGE:                   16
 NUMBER OF PRIMITIVE AOS:         111
 NUMBER OF SYMMETRY AOS:          100
 NUMBER OF CONTRACTIONS:           74   (  50A'  +  24A"  )
 NUMBER OF CORE ORBITALS:           2   (   2A'  +   0A"  )
 NUMBER OF VALENCE ORBITALS:        9   (   7A'  +   2A"  )


 NUCLEAR REPULSION ENERGY   30.51597650

 Eigenvalues of metric

         1 0.240E-02 0.391E-02 0.408E-02 0.814E-02 0.128E-01 0.322E-01 0.422E-01 0.463E-01
         2 0.339E-01 0.463E-01 0.101E+00 0.109E+00 0.231E+00 0.337E+00 0.392E+00 0.447E+00


 Contracted 2-electron integrals neglected if value below      1.0D-22

        1874283. INTEGRALS WRITTEN OUT IN     458 BLOCKS ON RECORD 1290 OF FILE 1


 NUMBER OF SORTED TWO-ELECTRON INTEGRALS:    2006100.     BUFFER LENGTH:  32768
 NUMBER OF SEGMENTS:   1  SEGMENT LENGTH:    2006100      RECORD LENGTH: 524288

 Memory used in sort:       2.56 MW

 SORT1 READ     1874283. AND WROTE     1914195. INTEGRALS IN      6 RECORDS. CPU TIME:     0.03 SEC, REAL TIME:     0.05 SEC
 SORT2 READ     1914195. AND WROTE     2006100. INTEGRALS IN      1 RECORDS. CPU TIME:     0.04 SEC, REAL TIME:     0.07 SEC

 FILE SIZES:   FILE 1:    50.1 MBYTE,  FILE 4:    25.2 MBYTE,   TOTAL:     75.3 MBYTE

 OPERATOR DM      FOR CENTER  0  COORDINATES:    0.000000    0.000000    0.000000


 **********************************************************************************************************************************
 DATASETS  * FILE   NREC   LENGTH (MB)   RECORD NAMES
              1      19       35.89       500      610      700      900      950      970     1000      129      960     1100   
                                          VAR    BASINP    GEOM    SYMINP    ZMAT    AOBASIS   BASIS     P2S    ABASIS      S 
                                         1400     1410     1200     1210     1080     1600     1650     1300     1700   
                                           T        V       H0       H01     AOSYM     SMH    MOLCAS    ERIS     OPER   

 PROGRAMS   *        TOTAL       INT
 CPU TIMES  *         0.67      0.56
 REAL TIME  *         1.54 SEC
 DISK USED  *        75.59 MB      
 **********************************************************************************************************************************


 PROGRAM * RHF-SCF (CLOSED SHELL)       Authors: W. Meyer, H.-J. Werner


 NUMBER OF ELECTRONS:       8+    8-
 CONVERGENCE THRESHOLDS:    1.00E-10 (Density)    1.00E-13 (Energy)
 MAX. NUMBER OF ITERATIONS:      500
 INTERPOLATION TYPE:            DIIS
 INTERPOLATION STEPS:              2 (START)      1 (STEP)
 LEVEL SHIFTS:                  0.00 (CLOSED)  0.00 (OPEN) 



 Orbital guess generated from atomic densities. Full valence occupancy:    9   2

 Molecular orbital dump at record        2100.2

 Initial occupancy:   7   1

 ITERATION    DDIFF          GRAD             ENERGY        2-EL.EN.            DIPOLE MOMENTS         DIIS   ORB.
    1      0.000D+00      0.000D+00      -129.78239200    154.404558    0.00000    0.59450   -1.02072    0    start
    2      0.000D+00      0.134D-01      -129.80943978    155.554779    0.00000    0.61338   -0.23109    1    diag
    3      0.183D-01      0.101D-01      -129.83031303    155.665836    0.00000    0.56494   -0.59582    2    diag
    4      0.880D-02      0.155D-02      -129.83104192    155.403550    0.00000    0.57360   -0.53691    3    diag
    5      0.166D-02      0.510D-03      -129.83115330    155.488155    0.00000    0.57887   -0.53815    4    diag
    6      0.711D-03      0.150D-03      -129.83117147    155.473618    0.00000    0.57944   -0.53410    5    diag
    7      0.274D-03      0.751D-04      -129.83117673    155.475899    0.00000    0.58065   -0.53167    6    diag
    8      0.188D-03      0.237D-04      -129.83117721    155.475238    0.00000    0.58066   -0.53089    7    diag
    9      0.620D-04      0.427D-05      -129.83117723    155.475129    0.00000    0.58062   -0.53074    8    diag
   10      0.119D-04      0.954D-06      -129.83117723    155.475112    0.00000    0.58058   -0.53072    9    orth
   11      0.274D-05      0.186D-06      -129.83117723    155.475108    0.00000    0.58058   -0.53072    9    diag
   12      0.497D-06      0.383D-07      -129.83117723    155.475107    0.00000    0.58057   -0.53072    9    diag
   13      0.106D-06      0.937D-08      -129.83117723    155.475107    0.00000    0.58057   -0.53072    9    diag
   14      0.261D-07      0.170D-08      -129.83117723    155.475107    0.00000    0.58057   -0.53072    9    diag
   15      0.423D-08      0.441D-09      -129.83117723    155.475107    0.00000    0.58057   -0.53072    9    diag
   16      0.101D-08      0.109D-09      -129.83117723    155.475107    0.00000    0.58057   -0.53072    9    diag
   17      0.182D-09      0.304D-10      -129.83117723    155.475107    0.00000    0.58057   -0.53072    9    diag
   18      0.551D-10      0.101D-10      -129.83117723    155.475107    0.00000    0.58057   -0.53072    9    diag
   19      0.235D-10      0.220D-11      -129.83117723    155.475107    0.00000    0.58057   -0.53072    9    fixocc
   20      0.575D-11      0.436D-12      -129.83117723    155.475107    0.00000    0.58057   -0.53072    9    orth
   21      0.926D-12      0.131D-12      -129.83117723    155.475107    0.00000    0.58057   -0.53072    0    orth

 Final occupancy:   7   1

 !RHF STATE 1.1 Energy               -129.831177234245
 Nuclear energy                        30.51597650
 One-electron energy                 -238.08470712
 Two-electron energy                   77.73755338
 Virial quotient                       -0.99940730
 !RHF STATE 1.1 Dipole moment           0.00000000     0.58057458    -0.53071581
 Dipole moment /Debye                   0.00000000     1.47557673    -1.34885670

 Orbital energies:

         1.1          2.1          3.1          4.1          5.1          6.1          7.1          8.1          9.1
    -20.647203   -15.705547    -1.530198    -0.992342    -0.745813    -0.663410    -0.425894     0.144995     0.370668

         1.2          2.2          3.2
     -0.594393     0.088210     0.612445

 HOMO      7.1    -0.425894 =     -11.5892eV
 LUMO      2.2     0.088210 =       2.4003eV
 LUMO-HOMO         0.514105 =      13.9895eV


 **********************************************************************************************************************************
 DATASETS  * FILE   NREC   LENGTH (MB)   RECORD NAMES
              1      19       35.89       500      610      700      900      950      970     1000      129      960     1100   
                                          VAR    BASINP    GEOM    SYMINP    ZMAT    AOBASIS   BASIS     P2S    ABASIS      S 
                                         1400     1410     1200     1210     1080     1600     1650     1300     1700   
                                           T        V       H0       H01     AOSYM     SMH    MOLCAS    ERIS     OPER   

              2       4        2.85       700     1000      520     2100   
                                         GEOM     BASIS   MCVARS     RHF  

 PROGRAMS   *        TOTAL        HF       INT
 CPU TIMES  *         0.94      0.27      0.56
 REAL TIME  *         1.89 SEC
 DISK USED  *        75.59 MB      
 **********************************************************************************************************************************


 PROGRAM * CCSD (Closed-shell coupled cluster)     Authors: C. Hampel, H.-J. Werner, 1991, M. Deegan, P.J. Knowles, 1992


 Convergence thresholds:  THRVAR = 1.00D-08  THRDEN = 1.00D-12

 CCSD(T)     terms to be evaluated (factor= 1.000)


 Number of core orbitals:           2 (   2   0 )
 Number of closed-shell orbitals:   6 (   5   1 )
 Number of external orbitals:      66 (  43  23 )

 Molecular orbitals read from record     2100.2  Type=RHF/CANONICAL (state 1.1)

 Number of N-1 electron functions:               6
 Number of N-2 electron functions:              21
 Number of singly external CSFs:               238
 Number of doubly external CSFs:             41002
 Total number of CSFs:                       41241

 Length of J-op  integral file:               0.00 MB
 Length of K-op  integral file:               0.25 MB
 Length of 3-ext integral record:             0.00 MB

 Memory could be reduced to 1.65 Mwords without degradation in triples

 Integral transformation finished. Total CPU:   0.03 sec, npass=  1  Memory used:   0.55 MW

 Reference energy:                   -129.83117723

 MP2 singlet pair energy:              -0.27279424
 MP2 triplet pair energy:              -0.16193514
 MP2 correlation energy:               -0.43472938
 MP2 total energy:                   -130.26590662

 SCS-MP2 correlation energy:           -0.42811274   (PS=  1.200000  PT=  0.333333)
 SCS-MP2 total energy:               -130.25928997

 ITER.      SQ.NORM     CORR.ENERGY   TOTAL ENERGY   ENERGY CHANGE        DEN1      VAR(S)    VAR(P)  DIIS     TIME  TIME/IT
   1      1.11752407    -0.44008373  -130.27126096    -0.00535434     0.01010839  0.28D-02  0.29D-02  1  1     0.08     0.05
   2      1.12816884    -0.44038693  -130.27156417    -0.00030321    -0.01209037  0.84D-04  0.49D-03  2  2     0.12     0.05
   3      1.13427265    -0.44075724  -130.27193447    -0.00037031    -0.00291776  0.44D-04  0.49D-04  3  3     0.17     0.05
   4      1.13699273    -0.44078431  -130.27196155    -0.00002708    -0.00093398  0.37D-05  0.86D-05  4  4     0.23     0.05
   5      1.13794028    -0.44081203  -130.27198927    -0.00002772    -0.00019607  0.13D-05  0.17D-05  5  5     0.27     0.05
   6      1.13828534    -0.44079637  -130.27197360     0.00001567    -0.00003908  0.86D-07  0.41D-06  6  6     0.32     0.05
   7      1.13836886    -0.44079850  -130.27197573    -0.00000213    -0.00000211  0.10D-07  0.86D-07  6  1     0.37     0.05
   8      1.13839842    -0.44079857  -130.27197580    -0.00000007     0.00000208  0.47D-08  0.97D-08  6  2     0.41     0.05
   9      1.13840565    -0.44079842  -130.27197566     0.00000014    -0.00000230  0.24D-08  0.11D-08  6  3     0.46     0.05
  10      1.13840437    -0.44079890  -130.27197614    -0.00000048     0.00000065  0.47D-09  0.19D-09  6  4     0.49     0.05
  11      1.13840273    -0.44079896  -130.27197619    -0.00000006     0.00000016  0.14D-09  0.21D-10  6  5     0.55     0.05
  12      1.13840141    -0.44079913  -130.27197636    -0.00000017     0.00000041  0.14D-10  0.68D-11  6  6     0.60     0.05
  13      1.13840085    -0.44079913  -130.27197637    -0.00000001     0.00000011  0.60D-11  0.11D-11  6  1     0.65     0.05
  14      1.13840050    -0.44079915  -130.27197638    -0.00000002     0.00000007  0.84D-12  0.39D-12  6  2     0.69     0.05
  15      1.13840037    -0.44079915  -130.27197638    -0.00000000     0.00000001  0.21D-12  0.13D-12  6  3     0.74     0.05
  16      1.13840028    -0.44079915  -130.27197639    -0.00000000     0.00000001  0.23D-13  0.15D-13  6  5     0.79     0.05
  17      1.13840025    -0.44079915  -130.27197639    -0.00000000     0.00000000  0.77D-15  0.21D-14  6  4     0.84     0.05
  18      1.13840025    -0.44079915  -130.27197639     0.00000000    -0.00000000  0.49D-15  0.30D-15  6  1     0.89     0.05
  19      1.13840025    -0.44079915  -130.27197639    -0.00000000     0.00000000  0.45D-16  0.54D-16  6  6     0.94     0.05
  20      1.13840024    -0.44079915  -130.27197639    -0.00000000     0.00000000  0.97D-17  0.13D-16  6  2     0.99     0.05
  21      1.13840024    -0.44079915  -130.27197639    -0.00000000     0.00000000  0.17D-17  0.97D-18  6  5     1.04     0.05
  22      1.13840024    -0.44079915  -130.27197639     0.00000000     0.00000000  0.10D-18  0.76D-19  6  3     1.08     0.05
  23      1.13840024    -0.44079915  -130.27197639     0.00000000    -0.00000000  0.30D-19  0.16D-19  6  4     1.14     0.05
  24      1.13840024    -0.44079915  -130.27197639     0.00000000    -0.00000000  0.44D-20  0.46D-20  6  1     1.19     0.05
  25      1.13840024    -0.44079915  -130.27197639     0.00000000    -0.00000000  0.48D-21  0.79D-21  6  6     1.23     0.05

 Norm of t1 vector:      0.07365582      S-energy:     0.00000000      T1 diagnostic:  0.01503493
                                                                       D1 diagnostic:  0.04175460

 Doubles amplitudes (print threshold =  0.500E-01):

         I         J         SYM. A    SYM. B    A         B      T(IJ, AB)

         6         6         2         2         1         1     -0.14246136


 Total CPU time for triples:      0.30 sec


 RESULTS
 =======

  Reference energy                   -129.831177234246
  CCSD singlet pair energy             -0.302061630335
  CCSD triplet pair energy             -0.138737523163
  CCSD correlation energy              -0.440799153498

  Triples (T) contribution             -0.019548808267
  Total correlation energy             -0.460347961765

  CCSD total energy                  -130.271976387744
  CCSD[T] energy                     -130.292509748248
  CCSD-T energy                      -130.291137334425
 !CCSD(T) total energy               -130.291525196010

 Timing summary (sec):

 STEP                 CPU(USER)    SYS     CPU(TOT)    WALL
 Transformation          0.03      0.02      0.05      0.05
 CCSD iterations         1.20      0.13      1.33      1.33
 Triples                 0.30      0.01      0.31      0.31

 Program statistics:

 Available memory in ccsd:               994999756
 Min. memory needed in ccsd:                154850
 Max. memory used in ccsd:                  184802
 Max. memory used in cckext:                238416 (25 integral passes)



 **********************************************************************************************************************************
 DATASETS  * FILE   NREC   LENGTH (MB)   RECORD NAMES
              1      20       40.28       500      610      700      900      950      970     1000      129      960     1100   
                                          VAR    BASINP    GEOM    SYMINP    ZMAT    AOBASIS   BASIS     P2S    ABASIS      S 
                                         1400     1410     1200     1210     1080     1600     1650     1300     1700     1380   
                                           T        V       H0       H01     AOSYM     SMH    MOLCAS    ERIS     OPER     JKOP   

              2       4        2.85       700     1000      520     2100   
                                         GEOM     BASIS   MCVARS     RHF  

 PROGRAMS   *        TOTAL   CCSD(T)        HF       INT
 CPU TIMES  *         2.50      1.55      0.27      0.56
 REAL TIME  *         3.62 SEC
 DISK USED  *        75.59 MB      
 **********************************************************************************************************************************

 CCSD(T)/cc-pVTZ-DK energy=   -130.291525196010

        CCSD(T)         HF-SCF  
   -130.29152520   -129.83117723
 **********************************************************************************************************************************
 Molpro calculation terminated
 Variable memory released
