
 Primary working directories    : /tmp/r2666/282616.maple
 Secondary working directories  : /tmp/r2666/282616.maple
 Wavefunction directory         : /ddn/home4/r2666/wfu/
 Main file repository           : /tmp/r2666/282616.maple/

 SHA1      : d5ffa45e93fdbca01ffc919aa182cfdae0147319
 NAME      : 2015.1.35
 ARCHNAME  : linux/x86_64
 FC        : /opt/intel/composer_xe_2015.1.133/bin/intel64/ifort
 BLASLIB   : -Wl,-_start-group /opt/intel/mkl/lib/intel64/libmkl_intel_ilp64.a /opt/intel/mkl/lib/intel64/libmkl_intel_thread.a /opt/intel/mkl/lib/intel64/libmkl_core.a -Wl,-_end-group
 id        : olemiss

 Nodes     nprocs
 cn083        1

 Using customized tuning parameters: mindgm=1; mindgv=20; mindgc=4; mindgr=1; noblas=0; minvec=7
 default implementation of scratch files=df  

 ***,hno CCSD(T)/TZ-F12 QFF
 memory, 995, m;
 gthresh,energy=1.d-12,zero=1.d-22,oneint=1.d-22,twoint=1.d-22;
 gthresh,optgrad=1.d-8,optstep=1.d-8;
 nocompress;
 geomtyp=xyz
 bohr
 geometry={
 3
        126       126
 H        0.0000000000        1.6805078646       -1.9399823437
 N        0.0000000000       -0.1712808513       -1.1420120983
 O        0.0000000000        0.0325407768        1.1314048510
 }
 
 basis=vtz-dk
 dkroll=0
   {hf,maxit=500;accu,20;}
 {ccsd(t),nocheck,maxit=250;orbital,IGNORE_ERROR;}

 Variables initialized (889), CPU time= 0.01 sec
 Commands  initialized (702), CPU time= 0.01 sec, 572 directives.
 Default parameters read. Elapsed time= 0.09 sec

 Checking input...
 Passed
1


                                         ***  PROGRAM SYSTEM MOLPRO  ***
                                       Copyright, TTI GmbH Stuttgart, 2015
                                    Version 2015.1 linked Jul  9 2018 13:16:40


 **********************************************************************************************************************************
 LABEL *   hno CCSD(T)/TZ-F12 QFF                                                        
  64 bit serial version                                                                  DATE: 04-Mar-20          TIME: 13:51:04  
 **********************************************************************************************************************************

 SHA1:             d5ffa45e93fdbca01ffc919aa182cfdae0147319
 **********************************************************************************************************************************

 THRESHOLDS:

 ZERO    =  1.00D-22  ONEINT  =  1.00D-22  TWOINT  =  1.00D-22  PREFAC  =  1.00D-14  LOCALI  =  1.00D-09  EORDER  =  1.00D-04
 ENERGY  =  1.00D-12  ETEST   =  0.00D+00  EDENS   =  0.00D+00  THRDEDEF=  1.00D-06  GRADIENT=  1.00D-02  STEP    =  1.00D-03
 ORBITAL =  1.00D-05  CIVEC   =  1.00D-05  COEFF   =  1.00D-04  PRINTCI =  5.00D-02  PUNCHCI =  9.90D+01  OPTGRAD =  3.00D-04
 OPTENERG=  1.00D-06  OPTSTEP =  3.00D-04  THRGRAD =  1.00D-10  COMPRESS=  1.00D-11  VARMIN  =  1.00D-07  VARMAX  =  1.00D-03
 THRDOUB =  0.00D+00  THRDIV  =  1.00D-05  THRRED  =  1.00D-07  THRPSP  =  1.00D+00  THRDC   =  1.00D-10  THRCS   =  1.00D-10
 THRNRM  =  1.00D-08  THREQ   =  0.00D+00  THRDE   =  1.00D+00  THRREF  =  1.00D-05  SPARFAC =  1.00D+00  THRDLP  =  1.00D-07
 THRDIA  =  1.00D-10  THRDLS  =  1.00D-07  THRGPS  =  0.00D+00  THRKEX  =  0.00D+00  THRDIS  =  2.00D-01  THRVAR  =  1.00D-10
 THRLOC  =  1.00D-06  THRGAP  =  1.00D-06  THRLOCT = -1.00D+00  THRGAPT = -1.00D+00  THRORB  =  1.00D-06  THRMLTP =  0.00D+00
 THRCPQCI=  1.00D-10  KEXTA   =  0.00D+00  THRCOARS=  0.00D+00  SYMTOL  =  1.00D-06  GRADTOL =  1.00D-06  THROVL  =  1.00D-08
 THRORTH =  1.00D-08  GRID    =  1.00D-06  GRIDMAX =  1.00D-03  DTMAX   =  0.00D+00  THROCCDE=  1.00D-01  THROCCDE=  1.00D-01



 THRESHOLDS:

 ZERO    =  1.00D-22  ONEINT  =  1.00D-22  TWOINT  =  1.00D-22  PREFAC  =  1.00D-14  LOCALI  =  1.00D-09  EORDER  =  1.00D-04
 ENERGY  =  1.00D-12  ETEST   =  0.00D+00  EDENS   =  0.00D+00  THRDEDEF=  1.00D-06  GRADIENT=  1.00D-02  STEP    =  1.00D-03
 ORBITAL =  1.00D-05  CIVEC   =  1.00D-05  COEFF   =  1.00D-04  PRINTCI =  5.00D-02  PUNCHCI =  9.90D+01  OPTGRAD =  1.00D-08
 OPTENERG=  1.00D-06  OPTSTEP =  1.00D-08  THRGRAD =  1.00D-10  COMPRESS=  1.00D-11  VARMIN  =  1.00D-07  VARMAX  =  1.00D-03
 THRDOUB =  0.00D+00  THRDIV  =  1.00D-05  THRRED  =  1.00D-07  THRPSP  =  1.00D+00  THRDC   =  1.00D-10  THRCS   =  1.00D-10
 THRNRM  =  1.00D-08  THREQ   =  0.00D+00  THRDE   =  1.00D+00  THRREF  =  1.00D-05  SPARFAC =  1.00D+00  THRDLP  =  1.00D-07
 THRDIA  =  1.00D-10  THRDLS  =  1.00D-07  THRGPS  =  0.00D+00  THRKEX  =  0.00D+00  THRDIS  =  2.00D-01  THRVAR  =  1.00D-10
 THRLOC  =  1.00D-06  THRGAP  =  1.00D-06  THRLOCT = -1.00D+00  THRGAPT = -1.00D+00  THRORB  =  1.00D-06  THRMLTP =  0.00D+00
 THRCPQCI=  1.00D-10  KEXTA   =  0.00D+00  THRCOARS=  0.00D+00  SYMTOL  =  1.00D-06  GRADTOL =  1.00D-06  THROVL  =  1.00D-08
 THRORTH =  1.00D-08  GRID    =  1.00D-06  GRIDMAX =  1.00D-03  DTMAX   =  0.00D+00  THROCCDE=  1.00D-01  THROCCDE=  1.00D-01



 Input parameters for SORTINT:

 COMPRESS =    0.000000
 C_FINAL  =    1.000000
 DEBUG    =   -1.000000
 C_SORT1  =    0.000000
 C_SEWARD =    0.000000
 THRESH   =    0.000000
 IO       =  molpro                                                          
 SPRI     =    0.000000
 SETTING GEOMTYP        =    XYZ
 ZUNIT=BOHR
 

 Variable memory set to  995000000 words,  buffer space   230000 words

 SETTING BASIS          =    VTZ-DK
 SETTING DKROLL         =     0.00000000D+00                                  


 Recomputing integrals since basis changed


 Using spherical harmonics

 Library entry H      S cc-pVTZ-DK           selected for orbital group  1
 Library entry H      P cc-pVTZ-DK           selected for orbital group  1
 Library entry H      D cc-pVTZ-DK           selected for orbital group  1
 Library entry N      S cc-pVTZ-DK           selected for orbital group  2
 Library entry N      P cc-pVTZ-DK           selected for orbital group  2
 Library entry N      D cc-pVTZ-DK           selected for orbital group  2
 Library entry N      F cc-pVTZ-DK           selected for orbital group  2
 Library entry O      S cc-pVTZ-DK           selected for orbital group  3
 Library entry O      P cc-pVTZ-DK           selected for orbital group  3
 Library entry O      D cc-pVTZ-DK           selected for orbital group  3
 Library entry O      F cc-pVTZ-DK           selected for orbital group  3


 PROGRAM * SEWARD (Integral evaluation for generally contracted gaussian basis sets)     Author: Roland Lindh, 1990

 Geometry written to block  1 of record 700


 Point group  Cs  



 ATOMIC COORDINATES

 NR  ATOM    CHARGE       X              Y              Z

   1  H       1.00    0.000000000    1.680507865   -1.939982344
   2  N       7.00    0.000000000   -0.171280851   -1.142012098
   3  O       8.00    0.000000000    0.032540777    1.131404851

 Bond lengths in Bohr (Angstrom)

 1-2  2.016402232  2-3  2.282535406
     ( 1.067034109)     ( 1.207865720)

 Bond angles

  1-2-3  108.18899349

 NUCLEAR CHARGE:                   16
 NUMBER OF PRIMITIVE AOS:         111
 NUMBER OF SYMMETRY AOS:          100
 NUMBER OF CONTRACTIONS:           74   (  50A'  +  24A"  )
 NUMBER OF CORE ORBITALS:           2   (   2A'  +   0A"  )
 NUMBER OF VALENCE ORBITALS:        9   (   7A'  +   2A"  )


 NUCLEAR REPULSION ENERGY   30.30082605

 Eigenvalues of metric

         1 0.249E-02 0.404E-02 0.416E-02 0.863E-02 0.133E-01 0.330E-01 0.427E-01 0.464E-01
         2 0.344E-01 0.466E-01 0.102E+00 0.115E+00 0.237E+00 0.348E+00 0.398E+00 0.452E+00


 Contracted 2-electron integrals neglected if value below      1.0D-22

        1874283. INTEGRALS WRITTEN OUT IN     458 BLOCKS ON RECORD 1290 OF FILE 1


 NUMBER OF SORTED TWO-ELECTRON INTEGRALS:    2006100.     BUFFER LENGTH:  32768
 NUMBER OF SEGMENTS:   1  SEGMENT LENGTH:    2006100      RECORD LENGTH: 524288

 Memory used in sort:       2.56 MW

 SORT1 READ     1874283. AND WROTE     1914195. INTEGRALS IN      6 RECORDS. CPU TIME:     0.02 SEC, REAL TIME:     0.04 SEC
 SORT2 READ     1914195. AND WROTE     2006100. INTEGRALS IN      1 RECORDS. CPU TIME:     0.06 SEC, REAL TIME:     0.07 SEC

 FILE SIZES:   FILE 1:    50.1 MBYTE,  FILE 4:    25.2 MBYTE,   TOTAL:     75.3 MBYTE

 OPERATOR DM      FOR CENTER  0  COORDINATES:    0.000000    0.000000    0.000000


 **********************************************************************************************************************************
 DATASETS  * FILE   NREC   LENGTH (MB)   RECORD NAMES
              1      19       35.89       500      610      700      900      950      970     1000      129      960     1100   
                                          VAR    BASINP    GEOM    SYMINP    ZMAT    AOBASIS   BASIS     P2S    ABASIS      S 
                                         1400     1410     1200     1210     1080     1600     1650     1300     1700   
                                           T        V       H0       H01     AOSYM     SMH    MOLCAS    ERIS     OPER   

 PROGRAMS   *        TOTAL       INT
 CPU TIMES  *         0.65      0.54
 REAL TIME  *         1.22 SEC
 DISK USED  *        75.59 MB      
 **********************************************************************************************************************************


 PROGRAM * RHF-SCF (CLOSED SHELL)       Authors: W. Meyer, H.-J. Werner


 NUMBER OF ELECTRONS:       8+    8-
 CONVERGENCE THRESHOLDS:    1.00E-10 (Density)    1.00E-13 (Energy)
 MAX. NUMBER OF ITERATIONS:      500
 INTERPOLATION TYPE:            DIIS
 INTERPOLATION STEPS:              2 (START)      1 (STEP)
 LEVEL SHIFTS:                  0.00 (CLOSED)  0.00 (OPEN) 



 Orbital guess generated from atomic densities. Full valence occupancy:    9   2

 Molecular orbital dump at record        2100.2

 Initial occupancy:   7   1

 ITERATION    DDIFF          GRAD             ENERGY        2-EL.EN.            DIPOLE MOMENTS         DIIS   ORB.
    1      0.000D+00      0.000D+00      -129.77897884    153.999336    0.00000    0.58054   -1.03968    0    start
    2      0.000D+00      0.136D-01      -129.80587342    155.169002    0.00000    0.61368   -0.21847    1    diag
    3      0.187D-01      0.105D-01      -129.82863282    155.283313    0.00000    0.55809   -0.60013    2    diag
    4      0.910D-02      0.156D-02      -129.82937649    155.014118    0.00000    0.56640   -0.54041    3    diag
    5      0.166D-02      0.520D-03      -129.82949443    155.100994    0.00000    0.57198   -0.54163    4    diag
    6      0.727D-03      0.155D-03      -129.82951403    155.086014    0.00000    0.57252   -0.53738    5    diag
    7      0.283D-03      0.776D-04      -129.82951973    155.088344    0.00000    0.57379   -0.53487    6    diag
    8      0.195D-03      0.250D-04      -129.82952027    155.087642    0.00000    0.57381   -0.53405    7    diag
    9      0.661D-04      0.459D-05      -129.82952030    155.087521    0.00000    0.57376   -0.53389    8    diag
   10      0.129D-04      0.101D-05      -129.82952030    155.087503    0.00000    0.57373   -0.53387    9    orth
   11      0.285D-05      0.199D-06      -129.82952030    155.087498    0.00000    0.57372   -0.53387    9    diag
   12      0.524D-06      0.417D-07      -129.82952030    155.087496    0.00000    0.57372   -0.53386    9    diag
   13      0.116D-06      0.104D-07      -129.82952030    155.087496    0.00000    0.57372   -0.53386    9    diag
   14      0.294D-07      0.189D-08      -129.82952030    155.087496    0.00000    0.57372   -0.53386    9    diag
   15      0.468D-08      0.489D-09      -129.82952030    155.087496    0.00000    0.57372   -0.53386    9    diag
   16      0.112D-08      0.120D-09      -129.82952030    155.087496    0.00000    0.57372   -0.53386    9    diag
   17      0.200D-09      0.348D-10      -129.82952030    155.087496    0.00000    0.57372   -0.53386    9    diag
   18      0.629D-10      0.118D-10      -129.82952030    155.087496    0.00000    0.57372   -0.53386    0    orth

 Final occupancy:   7   1

 !RHF STATE 1.1 Energy               -129.829520297314
 Nuclear energy                        30.30082605
 One-electron energy                 -237.67409439
 Two-electron energy                   77.54374804
 Virial quotient                       -0.99983610
 !RHF STATE 1.1 Dipole moment           0.00000000     0.57371558    -0.53386261
 Dipole moment /Debye                   0.00000000     1.45814403    -1.35685453

 Orbital energies:

         1.1          2.1          3.1          4.1          5.1          6.1          7.1          8.1          9.1
    -20.648241   -15.709848    -1.525870    -0.987296    -0.741589    -0.662032    -0.425984     0.143077     0.370091

         1.2          2.2          3.2
     -0.592439     0.086305     0.612885

 HOMO      7.1    -0.425984 =     -11.5916eV
 LUMO      2.2     0.086305 =       2.3485eV
 LUMO-HOMO         0.512289 =      13.9401eV


 **********************************************************************************************************************************
 DATASETS  * FILE   NREC   LENGTH (MB)   RECORD NAMES
              1      19       35.89       500      610      700      900      950      970     1000      129      960     1100   
                                          VAR    BASINP    GEOM    SYMINP    ZMAT    AOBASIS   BASIS     P2S    ABASIS      S 
                                         1400     1410     1200     1210     1080     1600     1650     1300     1700   
                                           T        V       H0       H01     AOSYM     SMH    MOLCAS    ERIS     OPER   

              2       4        2.85       700     1000      520     2100   
                                         GEOM     BASIS   MCVARS     RHF  

 PROGRAMS   *        TOTAL        HF       INT
 CPU TIMES  *         0.86      0.21      0.54
 REAL TIME  *         1.48 SEC
 DISK USED  *        75.59 MB      
 **********************************************************************************************************************************


 PROGRAM * CCSD (Closed-shell coupled cluster)     Authors: C. Hampel, H.-J. Werner, 1991, M. Deegan, P.J. Knowles, 1992


 Convergence thresholds:  THRVAR = 1.00D-08  THRDEN = 1.00D-12

 CCSD(T)     terms to be evaluated (factor= 1.000)


 Number of core orbitals:           2 (   2   0 )
 Number of closed-shell orbitals:   6 (   5   1 )
 Number of external orbitals:      66 (  43  23 )

 Molecular orbitals read from record     2100.2  Type=RHF/CANONICAL (state 1.1)

 Number of N-1 electron functions:               6
 Number of N-2 electron functions:              21
 Number of singly external CSFs:               238
 Number of doubly external CSFs:             41002
 Total number of CSFs:                       41241

 Length of J-op  integral file:               0.00 MB
 Length of K-op  integral file:               0.25 MB
 Length of 3-ext integral record:             0.00 MB

 Memory could be reduced to 1.65 Mwords without degradation in triples

 Integral transformation finished. Total CPU:   0.03 sec, npass=  1  Memory used:   0.55 MW

 Reference energy:                   -129.82952030

 MP2 singlet pair energy:              -0.27391262
 MP2 triplet pair energy:              -0.16261754
 MP2 correlation energy:               -0.43653016
 MP2 total energy:                   -130.26605046

 SCS-MP2 correlation energy:           -0.42987939   (PS=  1.200000  PT=  0.333333)
 SCS-MP2 total energy:               -130.25939969

 ITER.      SQ.NORM     CORR.ENERGY   TOTAL ENERGY   ENERGY CHANGE        DEN1      VAR(S)    VAR(P)  DIIS     TIME  TIME/IT
   1      1.11891974    -0.44164136  -130.27116165    -0.00511120     0.01077778  0.30D-02  0.30D-02  1  1     0.06     0.04
   2      1.12985748    -0.44189647  -130.27141677    -0.00025512    -0.01234602  0.90D-04  0.51D-03  2  2     0.10     0.04
   3      1.13623289    -0.44229327  -130.27181357    -0.00039680    -0.00301191  0.49D-04  0.51D-04  3  3     0.14     0.04
   4      1.13906914    -0.44231772  -130.27183801    -0.00002444    -0.00096855  0.43D-05  0.90D-05  4  4     0.18     0.04
   5      1.14009044    -0.44234820  -130.27186849    -0.00003048    -0.00021167  0.15D-05  0.16D-05  5  5     0.22     0.04
   6      1.14045787    -0.44233135  -130.27185165     0.00001684    -0.00004165  0.11D-06  0.40D-06  6  6     0.25     0.04
   7      1.14054621    -0.44233308  -130.27185338    -0.00000173    -0.00000232  0.13D-07  0.86D-07  6  1     0.29     0.04
   8      1.14057783    -0.44233305  -130.27185335     0.00000003     0.00000167  0.40D-08  0.11D-07  6  2     0.32     0.04
   9      1.14058613    -0.44233278  -130.27185308     0.00000027    -0.00000221  0.25D-08  0.12D-08  6  3     0.36     0.04
  10      1.14058497    -0.44233331  -130.27185360    -0.00000053     0.00000056  0.49D-09  0.21D-09  6  4     0.40     0.04
  11      1.14058318    -0.44233336  -130.27185366    -0.00000006     0.00000022  0.16D-09  0.24D-10  6  5     0.43     0.04
  12      1.14058173    -0.44233355  -130.27185384    -0.00000018     0.00000044  0.16D-10  0.81D-11  6  6     0.48     0.04
  13      1.14058108    -0.44233356  -130.27185385    -0.00000001     0.00000013  0.72D-11  0.13D-11  6  1     0.51     0.04
  14      1.14058066    -0.44233358  -130.27185387    -0.00000002     0.00000008  0.10D-11  0.45D-12  6  2     0.54     0.04
  15      1.14058051    -0.44233358  -130.27185388    -0.00000000     0.00000001  0.27D-12  0.14D-12  6  3     0.58     0.04
  16      1.14058040    -0.44233358  -130.27185388    -0.00000000     0.00000001  0.27D-13  0.16D-13  6  5     0.62     0.04
  17      1.14058037    -0.44233358  -130.27185388    -0.00000000     0.00000000  0.62D-15  0.20D-14  6  4     0.66     0.04
  18      1.14058037    -0.44233358  -130.27185388     0.00000000    -0.00000000  0.44D-15  0.28D-15  6  1     0.70     0.04
  19      1.14058037    -0.44233358  -130.27185388    -0.00000000     0.00000000  0.43D-16  0.51D-16  6  6     0.74     0.04
  20      1.14058037    -0.44233358  -130.27185388    -0.00000000     0.00000000  0.95D-17  0.13D-16  6  2     0.78     0.04
  21      1.14058037    -0.44233358  -130.27185388    -0.00000000     0.00000000  0.18D-17  0.11D-17  6  5     0.82     0.04
  22      1.14058037    -0.44233358  -130.27185388    -0.00000000     0.00000000  0.99D-19  0.78D-19  6  3     0.85     0.04
  23      1.14058037    -0.44233358  -130.27185388     0.00000000    -0.00000000  0.26D-19  0.16D-19  6  4     0.88     0.04
  24      1.14058037    -0.44233358  -130.27185388     0.00000000    -0.00000000  0.39D-20  0.43D-20  6  1     0.92     0.04
  25      1.14058037    -0.44233358  -130.27185388     0.00000000    -0.00000000  0.57D-21  0.73D-21  6  6     0.96     0.04

 Norm of t1 vector:      0.07582552      S-energy:     0.00000000      T1 diagnostic:  0.01547782
                                                                       D1 diagnostic:  0.04247225

 Doubles amplitudes (print threshold =  0.500E-01):

         I         J         SYM. A    SYM. B    A         B      T(IJ, AB)

         6         6         2         2         1         1     -0.14357338


 Total CPU time for triples:      0.24 sec


 RESULTS
 =======

  Reference energy                   -129.829520297314
  CCSD singlet pair energy             -0.303389065227
  CCSD triplet pair energy             -0.138944516674
  CCSD correlation energy              -0.442333581899

  Triples (T) contribution             -0.019860605776
  Total correlation energy             -0.462194187676

  CCSD total energy                  -130.271853879214
  CCSD[T] energy                     -130.292747789719
  CCSD-T energy                      -130.291310799768
 !CCSD(T) total energy               -130.291714484990

 Timing summary (sec):

 STEP                 CPU(USER)    SYS     CPU(TOT)    WALL
 Transformation          0.03      0.01      0.04      0.04
 CCSD iterations         0.93      0.14      1.07      1.07
 Triples                 0.24      0.00      0.24      0.25

 Program statistics:

 Available memory in ccsd:               994999756
 Min. memory needed in ccsd:                154850
 Max. memory used in ccsd:                  184802
 Max. memory used in cckext:                238416 (25 integral passes)



 **********************************************************************************************************************************
 DATASETS  * FILE   NREC   LENGTH (MB)   RECORD NAMES
              1      20       40.28       500      610      700      900      950      970     1000      129      960     1100   
                                          VAR    BASINP    GEOM    SYMINP    ZMAT    AOBASIS   BASIS     P2S    ABASIS      S 
                                         1400     1410     1200     1210     1080     1600     1650     1300     1700     1380   
                                           T        V       H0       H01     AOSYM     SMH    MOLCAS    ERIS     OPER     JKOP   

              2       4        2.85       700     1000      520     2100   
                                         GEOM     BASIS   MCVARS     RHF  

 PROGRAMS   *        TOTAL   CCSD(T)        HF       INT
 CPU TIMES  *         2.09      1.22      0.21      0.54
 REAL TIME  *         2.87 SEC
 DISK USED  *        75.59 MB      
 **********************************************************************************************************************************

 CCSD(T)/cc-pVTZ-DK energy=   -130.291714484990

        CCSD(T)         HF-SCF  
   -130.29171448   -129.82952030
 **********************************************************************************************************************************
 Molpro calculation terminated
 Variable memory released
