
 Primary working directories    : /tmp/r2666/282594.maple
 Secondary working directories  : /tmp/r2666/282594.maple
 Wavefunction directory         : /ddn/home4/r2666/wfu/
 Main file repository           : /tmp/r2666/282594.maple/

 SHA1      : d5ffa45e93fdbca01ffc919aa182cfdae0147319
 NAME      : 2015.1.35
 ARCHNAME  : linux/x86_64
 FC        : /opt/intel/composer_xe_2015.1.133/bin/intel64/ifort
 BLASLIB   : -Wl,-_start-group /opt/intel/mkl/lib/intel64/libmkl_intel_ilp64.a /opt/intel/mkl/lib/intel64/libmkl_intel_thread.a /opt/intel/mkl/lib/intel64/libmkl_core.a -Wl,-_end-group
 id        : olemiss

 Nodes     nprocs
 cn056        1

 Using customized tuning parameters: mindgm=1; mindgv=20; mindgc=4; mindgr=1; noblas=0; minvec=7
 default implementation of scratch files=df  

 ***,hno CCSD(T)/TZ-F12 QFF
 memory, 995, m;
 gthresh,energy=1.d-12,zero=1.d-22,oneint=1.d-22,twoint=1.d-22;
 gthresh,optgrad=1.d-8,optstep=1.d-8;
 nocompress;
 geomtyp=xyz
 bohr
 geometry={
 3
        104       104
 H        0.0000000000        1.6722105783       -1.9349387247
 N        0.0000000000       -0.1644004106       -1.1495176984
 O        0.0000000000        0.0339576223        1.1338668321
 }
 
 basis=vtz-dk
 dkroll=0
   {hf,maxit=500;accu,20;}
 {ccsd(t),nocheck,maxit=250;orbital,IGNORE_ERROR;}

 Variables initialized (889), CPU time= 0.00 sec
 Commands  initialized (702), CPU time= 0.01 sec, 572 directives.
 Default parameters read. Elapsed time= 0.05 sec

 Checking input...
 Passed
1


                                         ***  PROGRAM SYSTEM MOLPRO  ***
                                       Copyright, TTI GmbH Stuttgart, 2015
                                    Version 2015.1 linked Jul  9 2018 13:16:40


 **********************************************************************************************************************************
 LABEL *   hno CCSD(T)/TZ-F12 QFF                                                        
  64 bit serial version                                                                  DATE: 04-Mar-20          TIME: 13:51:00  
 **********************************************************************************************************************************

 SHA1:             d5ffa45e93fdbca01ffc919aa182cfdae0147319
 **********************************************************************************************************************************

 THRESHOLDS:

 ZERO    =  1.00D-22  ONEINT  =  1.00D-22  TWOINT  =  1.00D-22  PREFAC  =  1.00D-14  LOCALI  =  1.00D-09  EORDER  =  1.00D-04
 ENERGY  =  1.00D-12  ETEST   =  0.00D+00  EDENS   =  0.00D+00  THRDEDEF=  1.00D-06  GRADIENT=  1.00D-02  STEP    =  1.00D-03
 ORBITAL =  1.00D-05  CIVEC   =  1.00D-05  COEFF   =  1.00D-04  PRINTCI =  5.00D-02  PUNCHCI =  9.90D+01  OPTGRAD =  3.00D-04
 OPTENERG=  1.00D-06  OPTSTEP =  3.00D-04  THRGRAD =  1.00D-10  COMPRESS=  1.00D-11  VARMIN  =  1.00D-07  VARMAX  =  1.00D-03
 THRDOUB =  0.00D+00  THRDIV  =  1.00D-05  THRRED  =  1.00D-07  THRPSP  =  1.00D+00  THRDC   =  1.00D-10  THRCS   =  1.00D-10
 THRNRM  =  1.00D-08  THREQ   =  0.00D+00  THRDE   =  1.00D+00  THRREF  =  1.00D-05  SPARFAC =  1.00D+00  THRDLP  =  1.00D-07
 THRDIA  =  1.00D-10  THRDLS  =  1.00D-07  THRGPS  =  0.00D+00  THRKEX  =  0.00D+00  THRDIS  =  2.00D-01  THRVAR  =  1.00D-10
 THRLOC  =  1.00D-06  THRGAP  =  1.00D-06  THRLOCT = -1.00D+00  THRGAPT = -1.00D+00  THRORB  =  1.00D-06  THRMLTP =  0.00D+00
 THRCPQCI=  1.00D-10  KEXTA   =  0.00D+00  THRCOARS=  0.00D+00  SYMTOL  =  1.00D-06  GRADTOL =  1.00D-06  THROVL  =  1.00D-08
 THRORTH =  1.00D-08  GRID    =  1.00D-06  GRIDMAX =  1.00D-03  DTMAX   =  0.00D+00  THROCCDE=  1.00D-01  THROCCDE=  1.00D-01



 THRESHOLDS:

 ZERO    =  1.00D-22  ONEINT  =  1.00D-22  TWOINT  =  1.00D-22  PREFAC  =  1.00D-14  LOCALI  =  1.00D-09  EORDER  =  1.00D-04
 ENERGY  =  1.00D-12  ETEST   =  0.00D+00  EDENS   =  0.00D+00  THRDEDEF=  1.00D-06  GRADIENT=  1.00D-02  STEP    =  1.00D-03
 ORBITAL =  1.00D-05  CIVEC   =  1.00D-05  COEFF   =  1.00D-04  PRINTCI =  5.00D-02  PUNCHCI =  9.90D+01  OPTGRAD =  1.00D-08
 OPTENERG=  1.00D-06  OPTSTEP =  1.00D-08  THRGRAD =  1.00D-10  COMPRESS=  1.00D-11  VARMIN  =  1.00D-07  VARMAX  =  1.00D-03
 THRDOUB =  0.00D+00  THRDIV  =  1.00D-05  THRRED  =  1.00D-07  THRPSP  =  1.00D+00  THRDC   =  1.00D-10  THRCS   =  1.00D-10
 THRNRM  =  1.00D-08  THREQ   =  0.00D+00  THRDE   =  1.00D+00  THRREF  =  1.00D-05  SPARFAC =  1.00D+00  THRDLP  =  1.00D-07
 THRDIA  =  1.00D-10  THRDLS  =  1.00D-07  THRGPS  =  0.00D+00  THRKEX  =  0.00D+00  THRDIS  =  2.00D-01  THRVAR  =  1.00D-10
 THRLOC  =  1.00D-06  THRGAP  =  1.00D-06  THRLOCT = -1.00D+00  THRGAPT = -1.00D+00  THRORB  =  1.00D-06  THRMLTP =  0.00D+00
 THRCPQCI=  1.00D-10  KEXTA   =  0.00D+00  THRCOARS=  0.00D+00  SYMTOL  =  1.00D-06  GRADTOL =  1.00D-06  THROVL  =  1.00D-08
 THRORTH =  1.00D-08  GRID    =  1.00D-06  GRIDMAX =  1.00D-03  DTMAX   =  0.00D+00  THROCCDE=  1.00D-01  THROCCDE=  1.00D-01



 Input parameters for SORTINT:

 COMPRESS =    0.000000
 C_FINAL  =    1.000000
 DEBUG    =   -1.000000
 C_SORT1  =    0.000000
 C_SEWARD =    0.000000
 THRESH   =    0.000000
 IO       =  molpro                                                          
 SPRI     =    0.000000
 SETTING GEOMTYP        =    XYZ
 ZUNIT=BOHR
 

 Variable memory set to  995000000 words,  buffer space   230000 words

 SETTING BASIS          =    VTZ-DK
 SETTING DKROLL         =     0.00000000D+00                                  


 Recomputing integrals since basis changed


 Using spherical harmonics

 Library entry H      S cc-pVTZ-DK           selected for orbital group  1
 Library entry H      P cc-pVTZ-DK           selected for orbital group  1
 Library entry H      D cc-pVTZ-DK           selected for orbital group  1
 Library entry N      S cc-pVTZ-DK           selected for orbital group  2
 Library entry N      P cc-pVTZ-DK           selected for orbital group  2
 Library entry N      D cc-pVTZ-DK           selected for orbital group  2
 Library entry N      F cc-pVTZ-DK           selected for orbital group  2
 Library entry O      S cc-pVTZ-DK           selected for orbital group  3
 Library entry O      P cc-pVTZ-DK           selected for orbital group  3
 Library entry O      D cc-pVTZ-DK           selected for orbital group  3
 Library entry O      F cc-pVTZ-DK           selected for orbital group  3


 PROGRAM * SEWARD (Integral evaluation for generally contracted gaussian basis sets)     Author: Roland Lindh, 1990

 Geometry written to block  1 of record 700


 Point group  Cs  



 ATOMIC COORDINATES

 NR  ATOM    CHARGE       X              Y              Z

   1  H       1.00    0.000000000    1.672210578   -1.934938725
   2  N       7.00    0.000000000   -0.164400411   -1.149517698
   3  O       8.00    0.000000000    0.033957622    1.133866832

 Bond lengths in Bohr (Angstrom)

 1-2  1.997504972  2-3  2.291984036
     ( 1.057034110)     ( 1.212865720)

 Bond angles

  1-2-3  108.18899349

 NUCLEAR CHARGE:                   16
 NUMBER OF PRIMITIVE AOS:         111
 NUMBER OF SYMMETRY AOS:          100
 NUMBER OF CONTRACTIONS:           74   (  50A'  +  24A"  )
 NUMBER OF CORE ORBITALS:           2   (   2A'  +   0A"  )
 NUMBER OF VALENCE ORBITALS:        9   (   7A'  +   2A"  )


 NUCLEAR REPULSION ENERGY   30.23705313

 Eigenvalues of metric

         1 0.248E-02 0.401E-02 0.423E-02 0.848E-02 0.131E-01 0.331E-01 0.429E-01 0.464E-01
         2 0.346E-01 0.466E-01 0.102E+00 0.113E+00 0.237E+00 0.344E+00 0.397E+00 0.452E+00


 Contracted 2-electron integrals neglected if value below      1.0D-22

        1874283. INTEGRALS WRITTEN OUT IN     458 BLOCKS ON RECORD 1290 OF FILE 1


 NUMBER OF SORTED TWO-ELECTRON INTEGRALS:    2006100.     BUFFER LENGTH:  32768
 NUMBER OF SEGMENTS:   1  SEGMENT LENGTH:    2006100      RECORD LENGTH: 524288

 Memory used in sort:       2.56 MW

 SORT1 READ     1874283. AND WROTE     1914195. INTEGRALS IN      6 RECORDS. CPU TIME:     0.06 SEC, REAL TIME:     0.08 SEC
 SORT2 READ     1914195. AND WROTE     2006100. INTEGRALS IN      1 RECORDS. CPU TIME:     0.05 SEC, REAL TIME:     0.07 SEC

 FILE SIZES:   FILE 1:    50.1 MBYTE,  FILE 4:    25.2 MBYTE,   TOTAL:     75.3 MBYTE

 OPERATOR DM      FOR CENTER  0  COORDINATES:    0.000000    0.000000    0.000000


 **********************************************************************************************************************************
 DATASETS  * FILE   NREC   LENGTH (MB)   RECORD NAMES
              1      19       35.89       500      610      700      900      950      970     1000      129      960     1100   
                                          VAR    BASINP    GEOM    SYMINP    ZMAT    AOBASIS   BASIS     P2S    ABASIS      S 
                                         1400     1410     1200     1210     1080     1600     1650     1300     1700   
                                           T        V       H0       H01     AOSYM     SMH    MOLCAS    ERIS     OPER   

 PROGRAMS   *        TOTAL       INT
 CPU TIMES  *         0.74      0.64
 REAL TIME  *         1.46 SEC
 DISK USED  *        75.59 MB      
 **********************************************************************************************************************************


 PROGRAM * RHF-SCF (CLOSED SHELL)       Authors: W. Meyer, H.-J. Werner


 NUMBER OF ELECTRONS:       8+    8-
 CONVERGENCE THRESHOLDS:    1.00E-10 (Density)    1.00E-13 (Energy)
 MAX. NUMBER OF ITERATIONS:      500
 INTERPOLATION TYPE:            DIIS
 INTERPOLATION STEPS:              2 (START)      1 (STEP)
 LEVEL SHIFTS:                  0.00 (CLOSED)  0.00 (OPEN) 



 Orbital guess generated from atomic densities. Full valence occupancy:    9   2

 Molecular orbital dump at record        2100.2

 Initial occupancy:   7   1

 ITERATION    DDIFF          GRAD             ENERGY        2-EL.EN.            DIPOLE MOMENTS         DIIS   ORB.
    1      0.000D+00      0.000D+00      -129.77843022    153.893737    0.00000    0.58953   -1.05463    0    start
    2      0.000D+00      0.137D-01      -129.80518120    155.042032    0.00000    0.61835   -0.21981    1    diag
    3      0.188D-01      0.106D-01      -129.82834493    155.169893    0.00000    0.56445   -0.60844    2    diag
    4      0.916D-02      0.157D-02      -129.82909547    154.898661    0.00000    0.57277   -0.54794    3    diag
    5      0.167D-02      0.521D-03      -129.82921325    154.985199    0.00000    0.57823   -0.54902    4    diag
    6      0.728D-03      0.155D-03      -129.82923273    154.970292    0.00000    0.57875   -0.54472    5    diag
    7      0.282D-03      0.780D-04      -129.82923851    154.972527    0.00000    0.57998   -0.54215    6    diag
    8      0.195D-03      0.255D-04      -129.82923909    154.971811    0.00000    0.57999   -0.54130    7    diag
    9      0.681D-04      0.467D-05      -129.82923911    154.971688    0.00000    0.57994   -0.54113    8    diag
   10      0.133D-04      0.102D-05      -129.82923911    154.971670    0.00000    0.57990   -0.54111    9    orth
   11      0.288D-05      0.199D-06      -129.82923911    154.971666    0.00000    0.57990   -0.54110    9    diag
   12      0.522D-06      0.421D-07      -129.82923911    154.971664    0.00000    0.57989   -0.54110    9    diag
   13      0.115D-06      0.106D-07      -129.82923911    154.971664    0.00000    0.57989   -0.54110    9    diag
   14      0.291D-07      0.191D-08      -129.82923911    154.971664    0.00000    0.57989   -0.54110    9    diag
   15      0.446D-08      0.483D-09      -129.82923911    154.971664    0.00000    0.57989   -0.54110    9    diag
   16      0.108D-08      0.113D-09      -129.82923911    154.971664    0.00000    0.57989   -0.54110    9    diag
   17      0.172D-09      0.306D-10      -129.82923911    154.971664    0.00000    0.57989   -0.54110    9    diag
   18      0.485D-10      0.980D-11      -129.82923911    154.971664    0.00000    0.57989   -0.54110    0    orth

 Final occupancy:   7   1

 !RHF STATE 1.1 Energy               -129.829239110767
 Nuclear energy                        30.23705313
 One-electron energy                 -237.55212425
 Two-electron energy                   77.48583200
 Virial quotient                       -0.99986818
 !RHF STATE 1.1 Dipole moment           0.00000000     0.57989330    -0.54110027
 Dipole moment /Debye                   0.00000000     1.47384522    -1.37524961

 Orbital energies:

         1.1          2.1          3.1          4.1          5.1          6.1          7.1          8.1          9.1
    -20.648469   -15.709327    -1.521864    -0.990886    -0.741142    -0.660561    -0.428078     0.143455     0.369350

         1.2          2.2          3.2
     -0.589902     0.084482     0.613502

 HOMO      7.1    -0.428078 =     -11.6486eV
 LUMO      2.2     0.084482 =       2.2989eV
 LUMO-HOMO         0.512560 =      13.9475eV


 **********************************************************************************************************************************
 DATASETS  * FILE   NREC   LENGTH (MB)   RECORD NAMES
              1      19       35.89       500      610      700      900      950      970     1000      129      960     1100   
                                          VAR    BASINP    GEOM    SYMINP    ZMAT    AOBASIS   BASIS     P2S    ABASIS      S 
                                         1400     1410     1200     1210     1080     1600     1650     1300     1700   
                                           T        V       H0       H01     AOSYM     SMH    MOLCAS    ERIS     OPER   

              2       4        2.85       700     1000      520     2100   
                                         GEOM     BASIS   MCVARS     RHF  

 PROGRAMS   *        TOTAL        HF       INT
 CPU TIMES  *         1.00      0.26      0.64
 REAL TIME  *         1.78 SEC
 DISK USED  *        75.59 MB      
 **********************************************************************************************************************************


 PROGRAM * CCSD (Closed-shell coupled cluster)     Authors: C. Hampel, H.-J. Werner, 1991, M. Deegan, P.J. Knowles, 1992


 Convergence thresholds:  THRVAR = 1.00D-08  THRDEN = 1.00D-12

 CCSD(T)     terms to be evaluated (factor= 1.000)


 Number of core orbitals:           2 (   2   0 )
 Number of closed-shell orbitals:   6 (   5   1 )
 Number of external orbitals:      66 (  43  23 )

 Molecular orbitals read from record     2100.2  Type=RHF/CANONICAL (state 1.1)

 Number of N-1 electron functions:               6
 Number of N-2 electron functions:              21
 Number of singly external CSFs:               238
 Number of doubly external CSFs:             41002
 Total number of CSFs:                       41241

 Length of J-op  integral file:               0.00 MB
 Length of K-op  integral file:               0.25 MB
 Length of 3-ext integral record:             0.00 MB

 Memory could be reduced to 1.65 Mwords without degradation in triples

 Integral transformation finished. Total CPU:   0.04 sec, npass=  1  Memory used:   0.55 MW

 Reference energy:                   -129.82923911

 MP2 singlet pair energy:              -0.27420207
 MP2 triplet pair energy:              -0.16282664
 MP2 correlation energy:               -0.43702871
 MP2 total energy:                   -130.26626782

 SCS-MP2 correlation energy:           -0.43035684   (PS=  1.200000  PT=  0.333333)
 SCS-MP2 total energy:               -130.25959595

 ITER.      SQ.NORM     CORR.ENERGY   TOTAL ENERGY   ENERGY CHANGE        DEN1      VAR(S)    VAR(P)  DIIS     TIME  TIME/IT
   1      1.11911570    -0.44197204  -130.27121115    -0.00494334     0.01106395  0.30D-02  0.31D-02  1  1     0.11     0.06
   2      1.13010737    -0.44219318  -130.27143229    -0.00022114    -0.01241123  0.91D-04  0.51D-03  2  2     0.17     0.06
   3      1.13652025    -0.44259008  -130.27182919    -0.00039690    -0.00302220  0.49D-04  0.52D-04  3  3     0.22     0.06
   4      1.13939300    -0.44261624  -130.27185535    -0.00002616    -0.00097727  0.42D-05  0.91D-05  4  4     0.28     0.06
   5      1.14042509    -0.44264689  -130.27188600    -0.00003065    -0.00021382  0.14D-05  0.17D-05  5  5     0.34     0.07
   6      1.14079317    -0.44262965  -130.27186876     0.00001724    -0.00004201  0.10D-06  0.41D-06  6  6     0.40     0.07
   7      1.14087929    -0.44263168  -130.27187079    -0.00000203    -0.00000196  0.12D-07  0.89D-07  6  1     0.46     0.07
   8      1.14091026    -0.44263161  -130.27187073     0.00000006     0.00000186  0.44D-08  0.11D-07  6  2     0.52     0.07
   9      1.14091839    -0.44263138  -130.27187049     0.00000023    -0.00000229  0.26D-08  0.12D-08  6  3     0.58     0.07
  10      1.14091715    -0.44263191  -130.27187102    -0.00000052     0.00000061  0.50D-09  0.22D-09  6  4     0.65     0.07
  11      1.14091539    -0.44263197  -130.27187108    -0.00000006     0.00000019  0.15D-09  0.24D-10  6  5     0.71     0.07
  12      1.14091396    -0.44263215  -130.27187126    -0.00000018     0.00000044  0.16D-10  0.79D-11  6  6     0.76     0.07
  13      1.14091333    -0.44263216  -130.27187127    -0.00000001     0.00000013  0.68D-11  0.13D-11  6  1     0.82     0.07
  14      1.14091292    -0.44263218  -130.27187129    -0.00000002     0.00000008  0.97D-12  0.45D-12  6  2     0.88     0.07
  15      1.14091277    -0.44263218  -130.27187129    -0.00000000     0.00000001  0.25D-12  0.14D-12  6  3     0.94     0.07
  16      1.14091265    -0.44263218  -130.27187130    -0.00000000     0.00000002  0.77D-14  0.37D-13  6  1     0.99     0.07
  17      1.14091264    -0.44263218  -130.27187129     0.00000000    -0.00000000  0.30D-14  0.25D-14  6  4     1.06     0.07
  18      1.14091263    -0.44263218  -130.27187130    -0.00000000     0.00000000  0.73D-15  0.44D-15  6  5     1.11     0.07
  19      1.14091263    -0.44263218  -130.27187130     0.00000000    -0.00000000  0.14D-15  0.83D-16  6  6     1.16     0.07
  20      1.14091263    -0.44263218  -130.27187130    -0.00000000     0.00000000  0.21D-16  0.20D-16  6  2     1.22     0.07
  21      1.14091263    -0.44263218  -130.27187130    -0.00000000     0.00000000  0.58D-18  0.15D-17  6  4     1.28     0.07
  22      1.14091263    -0.44263218  -130.27187130    -0.00000000     0.00000000  0.89D-19  0.14D-18  6  3     1.34     0.07
  23      1.14091263    -0.44263218  -130.27187130    -0.00000000     0.00000000  0.81D-20  0.15D-19  6  1     1.40     0.07
  24      1.14091263    -0.44263218  -130.27187130     0.00000000     0.00000000  0.42D-20  0.20D-20  6  6     1.46     0.07
  25      1.14091263    -0.44263218  -130.27187130     0.00000000    -0.00000000  0.26D-21  0.44D-21  6  4     1.52     0.07

 Norm of t1 vector:      0.07604291      S-energy:     0.00000000      T1 diagnostic:  0.01552219
                                                                       D1 diagnostic:  0.04309751

 Doubles amplitudes (print threshold =  0.500E-01):

         I         J         SYM. A    SYM. B    A         B      T(IJ, AB)

         6         6         2         2         1         1     -0.14509031


 Total CPU time for triples:      0.44 sec


 RESULTS
 =======

  Reference energy                   -129.829239110767
  CCSD singlet pair energy             -0.303654077661
  CCSD triplet pair energy             -0.138978106893
  CCSD correlation energy              -0.442632184553

  Triples (T) contribution             -0.019945627338
  Total correlation energy             -0.462577811891

  CCSD total energy                  -130.271871295320
  CCSD[T] energy                     -130.292860192184
  CCSD-T energy                      -130.291412315721
 !CCSD(T) total energy               -130.291816922658

 Timing summary (sec):

 STEP                 CPU(USER)    SYS     CPU(TOT)    WALL
 Transformation          0.05      0.02      0.07      0.06
 CCSD iterations         1.47      0.18      1.65      1.67
 Triples                 0.44      0.02      0.46      0.45

 Program statistics:

 Available memory in ccsd:               994999756
 Min. memory needed in ccsd:                154850
 Max. memory used in ccsd:                  184802
 Max. memory used in cckext:                238416 (25 integral passes)



 **********************************************************************************************************************************
 DATASETS  * FILE   NREC   LENGTH (MB)   RECORD NAMES
              1      20       40.28       500      610      700      900      950      970     1000      129      960     1100   
                                          VAR    BASINP    GEOM    SYMINP    ZMAT    AOBASIS   BASIS     P2S    ABASIS      S 
                                         1400     1410     1200     1210     1080     1600     1650     1300     1700     1380   
                                           T        V       H0       H01     AOSYM     SMH    MOLCAS    ERIS     OPER     JKOP   

              2       4        2.85       700     1000      520     2100   
                                         GEOM     BASIS   MCVARS     RHF  

 PROGRAMS   *        TOTAL   CCSD(T)        HF       INT
 CPU TIMES  *         3.00      2.00      0.26      0.64
 REAL TIME  *         4.00 SEC
 DISK USED  *        75.59 MB      
 **********************************************************************************************************************************

 CCSD(T)/cc-pVTZ-DK energy=   -130.291816922658

        CCSD(T)         HF-SCF  
   -130.29181692   -129.82923911
 **********************************************************************************************************************************
 Molpro calculation terminated
 Variable memory released
