
 Primary working directories    : /tmp/r2666/282529.maple
 Secondary working directories  : /tmp/r2666/282529.maple
 Wavefunction directory         : /ddn/home4/r2666/wfu/
 Main file repository           : /tmp/r2666/282529.maple/

 SHA1      : d5ffa45e93fdbca01ffc919aa182cfdae0147319
 NAME      : 2015.1.35
 ARCHNAME  : linux/x86_64
 FC        : /opt/intel/composer_xe_2015.1.133/bin/intel64/ifort
 BLASLIB   : -Wl,-_start-group /opt/intel/mkl/lib/intel64/libmkl_intel_ilp64.a /opt/intel/mkl/lib/intel64/libmkl_intel_thread.a /opt/intel/mkl/lib/intel64/libmkl_core.a -Wl,-_end-group
 id        : olemiss

 Nodes     nprocs
 cn074        1

 Using customized tuning parameters: mindgm=1; mindgv=20; mindgc=4; mindgr=1; noblas=0; minvec=7
 default implementation of scratch files=df  

 ***,hno CCSD(T)/TZ-F12 QFF
 memory, 995, m;
 gthresh,energy=1.d-12,zero=1.d-22,oneint=1.d-22,twoint=1.d-22;
 gthresh,optgrad=1.d-8,optstep=1.d-8;
 nocompress;
 geomtyp=xyz
 bohr
 geometry={
 3
         39        39
 H        0.0000000000        1.6631024700       -1.9277628784
 N        0.0000000000       -0.1576360401       -1.1532954767
 O        0.0000000000        0.0363013601        1.1304687642
 }
 
 basis=vtz-dk
 dkroll=0
   {hf,maxit=500;accu,20;}
 {ccsd(t),nocheck,maxit=250;orbital,IGNORE_ERROR;}

 Variables initialized (889), CPU time= 0.01 sec
 Commands  initialized (702), CPU time= 0.00 sec, 572 directives.
 Default parameters read. Elapsed time= 0.07 sec

 Checking input...
 Passed
1


                                         ***  PROGRAM SYSTEM MOLPRO  ***
                                       Copyright, TTI GmbH Stuttgart, 2015
                                    Version 2015.1 linked Jul  9 2018 13:16:40


 **********************************************************************************************************************************
 LABEL *   hno CCSD(T)/TZ-F12 QFF                                                        
  64 bit serial version                                                                  DATE: 04-Mar-20          TIME: 13:50:51  
 **********************************************************************************************************************************

 SHA1:             d5ffa45e93fdbca01ffc919aa182cfdae0147319
 **********************************************************************************************************************************

 THRESHOLDS:

 ZERO    =  1.00D-22  ONEINT  =  1.00D-22  TWOINT  =  1.00D-22  PREFAC  =  1.00D-14  LOCALI  =  1.00D-09  EORDER  =  1.00D-04
 ENERGY  =  1.00D-12  ETEST   =  0.00D+00  EDENS   =  0.00D+00  THRDEDEF=  1.00D-06  GRADIENT=  1.00D-02  STEP    =  1.00D-03
 ORBITAL =  1.00D-05  CIVEC   =  1.00D-05  COEFF   =  1.00D-04  PRINTCI =  5.00D-02  PUNCHCI =  9.90D+01  OPTGRAD =  3.00D-04
 OPTENERG=  1.00D-06  OPTSTEP =  3.00D-04  THRGRAD =  1.00D-10  COMPRESS=  1.00D-11  VARMIN  =  1.00D-07  VARMAX  =  1.00D-03
 THRDOUB =  0.00D+00  THRDIV  =  1.00D-05  THRRED  =  1.00D-07  THRPSP  =  1.00D+00  THRDC   =  1.00D-10  THRCS   =  1.00D-10
 THRNRM  =  1.00D-08  THREQ   =  0.00D+00  THRDE   =  1.00D+00  THRREF  =  1.00D-05  SPARFAC =  1.00D+00  THRDLP  =  1.00D-07
 THRDIA  =  1.00D-10  THRDLS  =  1.00D-07  THRGPS  =  0.00D+00  THRKEX  =  0.00D+00  THRDIS  =  2.00D-01  THRVAR  =  1.00D-10
 THRLOC  =  1.00D-06  THRGAP  =  1.00D-06  THRLOCT = -1.00D+00  THRGAPT = -1.00D+00  THRORB  =  1.00D-06  THRMLTP =  0.00D+00
 THRCPQCI=  1.00D-10  KEXTA   =  0.00D+00  THRCOARS=  0.00D+00  SYMTOL  =  1.00D-06  GRADTOL =  1.00D-06  THROVL  =  1.00D-08
 THRORTH =  1.00D-08  GRID    =  1.00D-06  GRIDMAX =  1.00D-03  DTMAX   =  0.00D+00  THROCCDE=  1.00D-01  THROCCDE=  1.00D-01



 THRESHOLDS:

 ZERO    =  1.00D-22  ONEINT  =  1.00D-22  TWOINT  =  1.00D-22  PREFAC  =  1.00D-14  LOCALI  =  1.00D-09  EORDER  =  1.00D-04
 ENERGY  =  1.00D-12  ETEST   =  0.00D+00  EDENS   =  0.00D+00  THRDEDEF=  1.00D-06  GRADIENT=  1.00D-02  STEP    =  1.00D-03
 ORBITAL =  1.00D-05  CIVEC   =  1.00D-05  COEFF   =  1.00D-04  PRINTCI =  5.00D-02  PUNCHCI =  9.90D+01  OPTGRAD =  1.00D-08
 OPTENERG=  1.00D-06  OPTSTEP =  1.00D-08  THRGRAD =  1.00D-10  COMPRESS=  1.00D-11  VARMIN  =  1.00D-07  VARMAX  =  1.00D-03
 THRDOUB =  0.00D+00  THRDIV  =  1.00D-05  THRRED  =  1.00D-07  THRPSP  =  1.00D+00  THRDC   =  1.00D-10  THRCS   =  1.00D-10
 THRNRM  =  1.00D-08  THREQ   =  0.00D+00  THRDE   =  1.00D+00  THRREF  =  1.00D-05  SPARFAC =  1.00D+00  THRDLP  =  1.00D-07
 THRDIA  =  1.00D-10  THRDLS  =  1.00D-07  THRGPS  =  0.00D+00  THRKEX  =  0.00D+00  THRDIS  =  2.00D-01  THRVAR  =  1.00D-10
 THRLOC  =  1.00D-06  THRGAP  =  1.00D-06  THRLOCT = -1.00D+00  THRGAPT = -1.00D+00  THRORB  =  1.00D-06  THRMLTP =  0.00D+00
 THRCPQCI=  1.00D-10  KEXTA   =  0.00D+00  THRCOARS=  0.00D+00  SYMTOL  =  1.00D-06  GRADTOL =  1.00D-06  THROVL  =  1.00D-08
 THRORTH =  1.00D-08  GRID    =  1.00D-06  GRIDMAX =  1.00D-03  DTMAX   =  0.00D+00  THROCCDE=  1.00D-01  THROCCDE=  1.00D-01



 Input parameters for SORTINT:

 COMPRESS =    0.000000
 C_FINAL  =    1.000000
 DEBUG    =   -1.000000
 C_SORT1  =    0.000000
 C_SEWARD =    0.000000
 THRESH   =    0.000000
 IO       =  molpro                                                          
 SPRI     =    0.000000
 SETTING GEOMTYP        =    XYZ
 ZUNIT=BOHR
 

 Variable memory set to  995000000 words,  buffer space   230000 words

 SETTING BASIS          =    VTZ-DK
 SETTING DKROLL         =     0.00000000D+00                                  


 Recomputing integrals since basis changed


 Using spherical harmonics

 Library entry H      S cc-pVTZ-DK           selected for orbital group  1
 Library entry H      P cc-pVTZ-DK           selected for orbital group  1
 Library entry H      D cc-pVTZ-DK           selected for orbital group  1
 Library entry N      S cc-pVTZ-DK           selected for orbital group  2
 Library entry N      P cc-pVTZ-DK           selected for orbital group  2
 Library entry N      D cc-pVTZ-DK           selected for orbital group  2
 Library entry N      F cc-pVTZ-DK           selected for orbital group  2
 Library entry O      S cc-pVTZ-DK           selected for orbital group  3
 Library entry O      P cc-pVTZ-DK           selected for orbital group  3
 Library entry O      D cc-pVTZ-DK           selected for orbital group  3
 Library entry O      F cc-pVTZ-DK           selected for orbital group  3


 PROGRAM * SEWARD (Integral evaluation for generally contracted gaussian basis sets)     Author: Roland Lindh, 1990

 Geometry written to block  1 of record 700


 Point group  Cs  



 ATOMIC COORDINATES

 NR  ATOM    CHARGE       X              Y              Z

   1  H       1.00    0.000000000    1.663102470   -1.927762878
   2  N       7.00    0.000000000   -0.157636040   -1.153295477
   3  O       8.00    0.000000000    0.036301360    1.130468764

 Bond lengths in Bohr (Angstrom)

 1-2  1.978607712  2-3  2.291984036
     ( 1.047034111)     ( 1.212865720)

 Bond angles

  1-2-3  108.18899349

 NUCLEAR CHARGE:                   16
 NUMBER OF PRIMITIVE AOS:         111
 NUMBER OF SYMMETRY AOS:          100
 NUMBER OF CONTRACTIONS:           74   (  50A'  +  24A"  )
 NUMBER OF CORE ORBITALS:           2   (   2A'  +   0A"  )
 NUMBER OF VALENCE ORBITALS:        9   (   7A'  +   2A"  )


 NUCLEAR REPULSION ENERGY   30.28029324

 Eigenvalues of metric

         1 0.245E-02 0.396E-02 0.423E-02 0.829E-02 0.129E-01 0.329E-01 0.428E-01 0.464E-01
         2 0.345E-01 0.465E-01 0.102E+00 0.111E+00 0.235E+00 0.340E+00 0.396E+00 0.450E+00


 Contracted 2-electron integrals neglected if value below      1.0D-22

        1874283. INTEGRALS WRITTEN OUT IN     458 BLOCKS ON RECORD 1290 OF FILE 1


 NUMBER OF SORTED TWO-ELECTRON INTEGRALS:    2006100.     BUFFER LENGTH:  32768
 NUMBER OF SEGMENTS:   1  SEGMENT LENGTH:    2006100      RECORD LENGTH: 524288

 Memory used in sort:       2.56 MW

 SORT1 READ     1874283. AND WROTE     1914195. INTEGRALS IN      6 RECORDS. CPU TIME:     0.03 SEC, REAL TIME:     0.04 SEC
 SORT2 READ     1914195. AND WROTE     2006100. INTEGRALS IN      1 RECORDS. CPU TIME:     0.05 SEC, REAL TIME:     0.06 SEC

 FILE SIZES:   FILE 1:    50.1 MBYTE,  FILE 4:    25.2 MBYTE,   TOTAL:     75.3 MBYTE

 OPERATOR DM      FOR CENTER  0  COORDINATES:    0.000000    0.000000    0.000000


 **********************************************************************************************************************************
 DATASETS  * FILE   NREC   LENGTH (MB)   RECORD NAMES
              1      19       35.89       500      610      700      900      950      970     1000      129      960     1100   
                                          VAR    BASINP    GEOM    SYMINP    ZMAT    AOBASIS   BASIS     P2S    ABASIS      S 
                                         1400     1410     1200     1210     1080     1600     1650     1300     1700   
                                           T        V       H0       H01     AOSYM     SMH    MOLCAS    ERIS     OPER   

 PROGRAMS   *        TOTAL       INT
 CPU TIMES  *         0.62      0.52
 REAL TIME  *         1.16 SEC
 DISK USED  *        75.59 MB      
 **********************************************************************************************************************************


 PROGRAM * RHF-SCF (CLOSED SHELL)       Authors: W. Meyer, H.-J. Werner


 NUMBER OF ELECTRONS:       8+    8-
 CONVERGENCE THRESHOLDS:    1.00E-10 (Density)    1.00E-13 (Energy)
 MAX. NUMBER OF ITERATIONS:      500
 INTERPOLATION TYPE:            DIIS
 INTERPOLATION STEPS:              2 (START)      1 (STEP)
 LEVEL SHIFTS:                  0.00 (CLOSED)  0.00 (OPEN) 



 Orbital guess generated from atomic densities. Full valence occupancy:    9   2

 Molecular orbital dump at record        2100.2

 Initial occupancy:   7   1

 ITERATION    DDIFF          GRAD             ENERGY        2-EL.EN.            DIPOLE MOMENTS         DIIS   ORB.
    1      0.000D+00      0.000D+00      -129.77925258    153.977991    0.00000    0.59584   -1.05297    0    start
    2      0.000D+00      0.136D-01      -129.80601891    155.115657    0.00000    0.61933   -0.22379    1    diag
    3      0.187D-01      0.105D-01      -129.82872254    155.246152    0.00000    0.56800   -0.60936    2    diag
    4      0.909D-02      0.157D-02      -129.82947116    154.976257    0.00000    0.57642   -0.54884    3    diag
    5      0.167D-02      0.519D-03      -129.82958700    155.062056    0.00000    0.58177   -0.54991    4    diag
    6      0.723D-03      0.154D-03      -129.82960604    155.047302    0.00000    0.58229   -0.54565    5    diag
    7      0.279D-03      0.774D-04      -129.82961172    155.049498    0.00000    0.58349   -0.54308    6    diag
    8      0.194D-03      0.252D-04      -129.82961229    155.048790    0.00000    0.58350   -0.54223    7    diag
    9      0.675D-04      0.460D-05      -129.82961231    155.048670    0.00000    0.58345   -0.54207    8    diag
   10      0.131D-04      0.100D-05      -129.82961231    155.048653    0.00000    0.58341   -0.54205    9    orth
   11      0.285D-05      0.195D-06      -129.82961231    155.048649    0.00000    0.58341   -0.54204    9    diag
   12      0.513D-06      0.412D-07      -129.82961231    155.048647    0.00000    0.58341   -0.54204    9    diag
   13      0.112D-06      0.104D-07      -129.82961231    155.048647    0.00000    0.58341   -0.54204    9    diag
   14      0.281D-07      0.187D-08      -129.82961231    155.048647    0.00000    0.58341   -0.54204    9    diag
   15      0.428D-08      0.473D-09      -129.82961231    155.048647    0.00000    0.58341   -0.54204    9    diag
   16      0.105D-08      0.112D-09      -129.82961231    155.048647    0.00000    0.58341   -0.54204    9    diag
   17      0.166D-09      0.302D-10      -129.82961231    155.048647    0.00000    0.58341   -0.54204    9    diag
   18      0.466D-10      0.975D-11      -129.82961231    155.048647    0.00000    0.58341   -0.54204    0    orth

 Final occupancy:   7   1

 !RHF STATE 1.1 Energy               -129.829612310345
 Nuclear energy                        30.28029324
 One-electron energy                 -237.63422912
 Two-electron energy                   77.52432357
 Virial quotient                       -0.99975435
 !RHF STATE 1.1 Dipole moment           0.00000000     0.58340514    -0.54204001
 Dipole moment /Debye                   0.00000000     1.48277083    -1.37763806

 Orbital energies:

         1.1          2.1          3.1          4.1          5.1          6.1          7.1          8.1          9.1
    -20.648267   -15.707964    -1.521975    -0.993397    -0.742232    -0.660550    -0.428658     0.144109     0.369312

         1.2          2.2          3.2
     -0.589748     0.084487     0.613539

 HOMO      7.1    -0.428658 =     -11.6644eV
 LUMO      2.2     0.084487 =       2.2990eV
 LUMO-HOMO         0.513145 =      13.9634eV


 **********************************************************************************************************************************
 DATASETS  * FILE   NREC   LENGTH (MB)   RECORD NAMES
              1      19       35.89       500      610      700      900      950      970     1000      129      960     1100   
                                          VAR    BASINP    GEOM    SYMINP    ZMAT    AOBASIS   BASIS     P2S    ABASIS      S 
                                         1400     1410     1200     1210     1080     1600     1650     1300     1700   
                                           T        V       H0       H01     AOSYM     SMH    MOLCAS    ERIS     OPER   

              2       4        2.85       700     1000      520     2100   
                                         GEOM     BASIS   MCVARS     RHF  

 PROGRAMS   *        TOTAL        HF       INT
 CPU TIMES  *         0.81      0.19      0.52
 REAL TIME  *         1.40 SEC
 DISK USED  *        75.59 MB      
 **********************************************************************************************************************************


 PROGRAM * CCSD (Closed-shell coupled cluster)     Authors: C. Hampel, H.-J. Werner, 1991, M. Deegan, P.J. Knowles, 1992


 Convergence thresholds:  THRVAR = 1.00D-08  THRDEN = 1.00D-12

 CCSD(T)     terms to be evaluated (factor= 1.000)


 Number of core orbitals:           2 (   2   0 )
 Number of closed-shell orbitals:   6 (   5   1 )
 Number of external orbitals:      66 (  43  23 )

 Molecular orbitals read from record     2100.2  Type=RHF/CANONICAL (state 1.1)

 Number of N-1 electron functions:               6
 Number of N-2 electron functions:              21
 Number of singly external CSFs:               238
 Number of doubly external CSFs:             41002
 Total number of CSFs:                       41241

 Length of J-op  integral file:               0.00 MB
 Length of K-op  integral file:               0.25 MB
 Length of 3-ext integral record:             0.00 MB

 Memory could be reduced to 1.65 Mwords without degradation in triples

 Integral transformation finished. Total CPU:   0.04 sec, npass=  1  Memory used:   0.55 MW

 Reference energy:                   -129.82961231

 MP2 singlet pair energy:              -0.27396714
 MP2 triplet pair energy:              -0.16269215
 MP2 correlation energy:               -0.43665930
 MP2 total energy:                   -130.26627161

 SCS-MP2 correlation energy:           -0.42999125   (PS=  1.200000  PT=  0.333333)
 SCS-MP2 total energy:               -130.25960356

 ITER.      SQ.NORM     CORR.ENERGY   TOTAL ENERGY   ENERGY CHANGE        DEN1      VAR(S)    VAR(P)  DIIS     TIME  TIME/IT
   1      1.11877779    -0.44162493  -130.27123724    -0.00496563     0.01095344  0.30D-02  0.30D-02  1  1     0.08     0.04
   2      1.12970239    -0.44185088  -130.27146319    -0.00022595    -0.01235697  0.90D-04  0.51D-03  2  2     0.11     0.04
   3      1.13604940    -0.44224028  -130.27185259    -0.00038939    -0.00299856  0.47D-04  0.52D-04  3  3     0.14     0.04
   4      1.13889986    -0.44226766  -130.27187997    -0.00002738    -0.00097000  0.40D-05  0.90D-05  4  4     0.17     0.04
   5      1.13991376    -0.44229754  -130.27190985    -0.00002988    -0.00020992  0.13D-05  0.17D-05  5  5     0.21     0.04
   6      1.14027565    -0.44228053  -130.27189285     0.00001701    -0.00004136  0.91D-07  0.42D-06  6  6     0.25     0.04
   7      1.14035985    -0.44228276  -130.27189507    -0.00000222    -0.00000180  0.11D-07  0.90D-07  6  1     0.28     0.04
   8      1.14039010    -0.44228271  -130.27189502     0.00000005     0.00000203  0.47D-08  0.11D-07  6  2     0.31     0.04
   9      1.14039789    -0.44228253  -130.27189484     0.00000018    -0.00000234  0.26D-08  0.12D-08  6  3     0.34     0.04
  10      1.14039659    -0.44228304  -130.27189535    -0.00000051     0.00000066  0.49D-09  0.21D-09  6  4     0.38     0.04
  11      1.14039489    -0.44228310  -130.27189541    -0.00000006     0.00000016  0.15D-09  0.23D-10  6  5     0.41     0.04
  12      1.14039351    -0.44228328  -130.27189559    -0.00000018     0.00000043  0.15D-10  0.73D-11  6  6     0.44     0.04
  13      1.14039291    -0.44228329  -130.27189560    -0.00000001     0.00000012  0.63D-11  0.12D-11  6  1     0.48     0.04
  14      1.14039253    -0.44228331  -130.27189562    -0.00000002     0.00000008  0.90D-12  0.43D-12  6  2     0.51     0.04
  15      1.14039238    -0.44228331  -130.27189562    -0.00000000     0.00000001  0.23D-12  0.14D-12  6  3     0.55     0.04
  16      1.14039228    -0.44228331  -130.27189562    -0.00000000     0.00000001  0.24D-13  0.16D-13  6  5     0.57     0.04
  17      1.14039225    -0.44228331  -130.27189562    -0.00000000     0.00000000  0.64D-15  0.19D-14  6  4     0.61     0.04
  18      1.14039225    -0.44228331  -130.27189562     0.00000000    -0.00000000  0.44D-15  0.27D-15  6  1     0.64     0.04
  19      1.14039225    -0.44228331  -130.27189562    -0.00000000     0.00000000  0.47D-16  0.49D-16  6  6     0.68     0.04
  20      1.14039225    -0.44228331  -130.27189562    -0.00000000     0.00000000  0.11D-16  0.13D-16  6  2     0.71     0.04
  21      1.14039225    -0.44228331  -130.27189562    -0.00000000     0.00000000  0.17D-17  0.10D-17  6  5     0.75     0.04
  22      1.14039225    -0.44228331  -130.27189562    -0.00000000     0.00000000  0.95D-19  0.79D-19  6  3     0.79     0.04
  23      1.14039225    -0.44228331  -130.27189562     0.00000000     0.00000000  0.27D-19  0.17D-19  6  4     0.82     0.04
  24      1.14039225    -0.44228331  -130.27189562     0.00000000    -0.00000000  0.40D-20  0.45D-20  6  1     0.86     0.04
  25      1.14039225    -0.44228331  -130.27189562     0.00000000    -0.00000000  0.56D-21  0.76D-21  6  6     0.89     0.04

 Norm of t1 vector:      0.07549783      S-energy:     0.00000000      T1 diagnostic:  0.01541093
                                                                       D1 diagnostic:  0.04306496

 Doubles amplitudes (print threshold =  0.500E-01):

         I         J         SYM. A    SYM. B    A         B      T(IJ, AB)

         6         6         2         2         1         1     -0.14520574


 Total CPU time for triples:      0.23 sec


 RESULTS
 =======

  Reference energy                   -129.829612310346
  CCSD singlet pair energy             -0.303353502555
  CCSD triplet pair energy             -0.138929808337
  CCSD correlation energy              -0.442283310891

  Triples (T) contribution             -0.019881626078
  Total correlation energy             -0.462164936969

  CCSD total energy                  -130.271895621236
  CCSD[T] energy                     -130.292809396949
  CCSD-T energy                      -130.291376814868
 !CCSD(T) total energy               -130.291777247314

 Timing summary (sec):

 STEP                 CPU(USER)    SYS     CPU(TOT)    WALL
 Transformation          0.04      0.00      0.04      0.05
 CCSD iterations         0.85      0.14      0.99      0.99
 Triples                 0.23      0.01      0.24      0.24

 Program statistics:

 Available memory in ccsd:               994999756
 Min. memory needed in ccsd:                154850
 Max. memory used in ccsd:                  184802
 Max. memory used in cckext:                238416 (25 integral passes)



 **********************************************************************************************************************************
 DATASETS  * FILE   NREC   LENGTH (MB)   RECORD NAMES
              1      20       40.28       500      610      700      900      950      970     1000      129      960     1100   
                                          VAR    BASINP    GEOM    SYMINP    ZMAT    AOBASIS   BASIS     P2S    ABASIS      S 
                                         1400     1410     1200     1210     1080     1600     1650     1300     1700     1380   
                                           T        V       H0       H01     AOSYM     SMH    MOLCAS    ERIS     OPER     JKOP   

              2       4        2.85       700     1000      520     2100   
                                         GEOM     BASIS   MCVARS     RHF  

 PROGRAMS   *        TOTAL   CCSD(T)        HF       INT
 CPU TIMES  *         1.95      1.14      0.19      0.52
 REAL TIME  *         2.71 SEC
 DISK USED  *        75.59 MB      
 **********************************************************************************************************************************

 CCSD(T)/cc-pVTZ-DK energy=   -130.291777247314

        CCSD(T)         HF-SCF  
   -130.29177725   -129.82961231
 **********************************************************************************************************************************
 Molpro calculation terminated
 Variable memory released
