
 Primary working directories    : /tmp/r2666/282577.maple
 Secondary working directories  : /tmp/r2666/282577.maple
 Wavefunction directory         : /ddn/home4/r2666/wfu/
 Main file repository           : /tmp/r2666/282577.maple/

 SHA1      : d5ffa45e93fdbca01ffc919aa182cfdae0147319
 NAME      : 2015.1.35
 ARCHNAME  : linux/x86_64
 FC        : /opt/intel/composer_xe_2015.1.133/bin/intel64/ifort
 BLASLIB   : -Wl,-_start-group /opt/intel/mkl/lib/intel64/libmkl_intel_ilp64.a /opt/intel/mkl/lib/intel64/libmkl_intel_thread.a /opt/intel/mkl/lib/intel64/libmkl_core.a -Wl,-_end-group
 id        : olemiss

 Nodes     nprocs
 cn075        1

 Using customized tuning parameters: mindgm=1; mindgv=20; mindgc=4; mindgr=1; noblas=0; minvec=7
 default implementation of scratch files=df  

 ***,hno CCSD(T)/TZ-F12 QFF
 memory, 995, m;
 gthresh,energy=1.d-12,zero=1.d-22,oneint=1.d-22,twoint=1.d-22;
 gthresh,optgrad=1.d-8,optstep=1.d-8;
 nocompress;
 geomtyp=xyz
 bohr
 geometry={
 3
         87        87
 H        0.0000000000        1.6695778576       -1.9249111143
 N        0.0000000000       -0.1672224002       -1.1399328176
 O        0.0000000000        0.0394123326        1.1142543410
 }
 
 basis=vtz-dk
 dkroll=0
   {hf,maxit=500;accu,20;}
 {ccsd(t),nocheck,maxit=250;orbital,IGNORE_ERROR;}

 Variables initialized (889), CPU time= 0.01 sec
 Commands  initialized (702), CPU time= 0.01 sec, 572 directives.
 Default parameters read. Elapsed time= 0.08 sec

 Checking input...
 Passed
1


                                         ***  PROGRAM SYSTEM MOLPRO  ***
                                       Copyright, TTI GmbH Stuttgart, 2015
                                    Version 2015.1 linked Jul  9 2018 13:16:40


 **********************************************************************************************************************************
 LABEL *   hno CCSD(T)/TZ-F12 QFF                                                        
  64 bit serial version                                                                  DATE: 04-Mar-20          TIME: 13:50:59  
 **********************************************************************************************************************************

 SHA1:             d5ffa45e93fdbca01ffc919aa182cfdae0147319
 **********************************************************************************************************************************

 THRESHOLDS:

 ZERO    =  1.00D-22  ONEINT  =  1.00D-22  TWOINT  =  1.00D-22  PREFAC  =  1.00D-14  LOCALI  =  1.00D-09  EORDER  =  1.00D-04
 ENERGY  =  1.00D-12  ETEST   =  0.00D+00  EDENS   =  0.00D+00  THRDEDEF=  1.00D-06  GRADIENT=  1.00D-02  STEP    =  1.00D-03
 ORBITAL =  1.00D-05  CIVEC   =  1.00D-05  COEFF   =  1.00D-04  PRINTCI =  5.00D-02  PUNCHCI =  9.90D+01  OPTGRAD =  3.00D-04
 OPTENERG=  1.00D-06  OPTSTEP =  3.00D-04  THRGRAD =  1.00D-10  COMPRESS=  1.00D-11  VARMIN  =  1.00D-07  VARMAX  =  1.00D-03
 THRDOUB =  0.00D+00  THRDIV  =  1.00D-05  THRRED  =  1.00D-07  THRPSP  =  1.00D+00  THRDC   =  1.00D-10  THRCS   =  1.00D-10
 THRNRM  =  1.00D-08  THREQ   =  0.00D+00  THRDE   =  1.00D+00  THRREF  =  1.00D-05  SPARFAC =  1.00D+00  THRDLP  =  1.00D-07
 THRDIA  =  1.00D-10  THRDLS  =  1.00D-07  THRGPS  =  0.00D+00  THRKEX  =  0.00D+00  THRDIS  =  2.00D-01  THRVAR  =  1.00D-10
 THRLOC  =  1.00D-06  THRGAP  =  1.00D-06  THRLOCT = -1.00D+00  THRGAPT = -1.00D+00  THRORB  =  1.00D-06  THRMLTP =  0.00D+00
 THRCPQCI=  1.00D-10  KEXTA   =  0.00D+00  THRCOARS=  0.00D+00  SYMTOL  =  1.00D-06  GRADTOL =  1.00D-06  THROVL  =  1.00D-08
 THRORTH =  1.00D-08  GRID    =  1.00D-06  GRIDMAX =  1.00D-03  DTMAX   =  0.00D+00  THROCCDE=  1.00D-01  THROCCDE=  1.00D-01



 THRESHOLDS:

 ZERO    =  1.00D-22  ONEINT  =  1.00D-22  TWOINT  =  1.00D-22  PREFAC  =  1.00D-14  LOCALI  =  1.00D-09  EORDER  =  1.00D-04
 ENERGY  =  1.00D-12  ETEST   =  0.00D+00  EDENS   =  0.00D+00  THRDEDEF=  1.00D-06  GRADIENT=  1.00D-02  STEP    =  1.00D-03
 ORBITAL =  1.00D-05  CIVEC   =  1.00D-05  COEFF   =  1.00D-04  PRINTCI =  5.00D-02  PUNCHCI =  9.90D+01  OPTGRAD =  1.00D-08
 OPTENERG=  1.00D-06  OPTSTEP =  1.00D-08  THRGRAD =  1.00D-10  COMPRESS=  1.00D-11  VARMIN  =  1.00D-07  VARMAX  =  1.00D-03
 THRDOUB =  0.00D+00  THRDIV  =  1.00D-05  THRRED  =  1.00D-07  THRPSP  =  1.00D+00  THRDC   =  1.00D-10  THRCS   =  1.00D-10
 THRNRM  =  1.00D-08  THREQ   =  0.00D+00  THRDE   =  1.00D+00  THRREF  =  1.00D-05  SPARFAC =  1.00D+00  THRDLP  =  1.00D-07
 THRDIA  =  1.00D-10  THRDLS  =  1.00D-07  THRGPS  =  0.00D+00  THRKEX  =  0.00D+00  THRDIS  =  2.00D-01  THRVAR  =  1.00D-10
 THRLOC  =  1.00D-06  THRGAP  =  1.00D-06  THRLOCT = -1.00D+00  THRGAPT = -1.00D+00  THRORB  =  1.00D-06  THRMLTP =  0.00D+00
 THRCPQCI=  1.00D-10  KEXTA   =  0.00D+00  THRCOARS=  0.00D+00  SYMTOL  =  1.00D-06  GRADTOL =  1.00D-06  THROVL  =  1.00D-08
 THRORTH =  1.00D-08  GRID    =  1.00D-06  GRIDMAX =  1.00D-03  DTMAX   =  0.00D+00  THROCCDE=  1.00D-01  THROCCDE=  1.00D-01



 Input parameters for SORTINT:

 COMPRESS =    0.000000
 C_FINAL  =    1.000000
 DEBUG    =   -1.000000
 C_SORT1  =    0.000000
 C_SEWARD =    0.000000
 THRESH   =    0.000000
 IO       =  molpro                                                          
 SPRI     =    0.000000
 SETTING GEOMTYP        =    XYZ
 ZUNIT=BOHR
 

 Variable memory set to  995000000 words,  buffer space   230000 words

 SETTING BASIS          =    VTZ-DK
 SETTING DKROLL         =     0.00000000D+00                                  


 Recomputing integrals since basis changed


 Using spherical harmonics

 Library entry H      S cc-pVTZ-DK           selected for orbital group  1
 Library entry H      P cc-pVTZ-DK           selected for orbital group  1
 Library entry H      D cc-pVTZ-DK           selected for orbital group  1
 Library entry N      S cc-pVTZ-DK           selected for orbital group  2
 Library entry N      P cc-pVTZ-DK           selected for orbital group  2
 Library entry N      D cc-pVTZ-DK           selected for orbital group  2
 Library entry N      F cc-pVTZ-DK           selected for orbital group  2
 Library entry O      S cc-pVTZ-DK           selected for orbital group  3
 Library entry O      P cc-pVTZ-DK           selected for orbital group  3
 Library entry O      D cc-pVTZ-DK           selected for orbital group  3
 Library entry O      F cc-pVTZ-DK           selected for orbital group  3


 PROGRAM * SEWARD (Integral evaluation for generally contracted gaussian basis sets)     Author: Roland Lindh, 1990

 Geometry written to block  1 of record 700


 Point group  Cs  



 ATOMIC COORDINATES

 NR  ATOM    CHARGE       X              Y              Z

   1  H       1.00    0.000000000    1.669577858   -1.924911114
   2  N       7.00    0.000000000   -0.167222400   -1.139932818
   3  O       8.00    0.000000000    0.039412333    1.114254341

 Bond lengths in Bohr (Angstrom)

 1-2  1.997504972  2-3  2.263638147
     ( 1.057034110)     ( 1.197865721)

 Bond angles

  1-2-3  107.90251459

 NUCLEAR CHARGE:                   16
 NUMBER OF PRIMITIVE AOS:         111
 NUMBER OF SYMMETRY AOS:          100
 NUMBER OF CONTRACTIONS:           74   (  50A'  +  24A"  )
 NUMBER OF CORE ORBITALS:           2   (   2A'  +   0A"  )
 NUMBER OF VALENCE ORBITALS:        9   (   7A'  +   2A"  )


 NUCLEAR REPULSION ENERGY   30.56298038

 Eigenvalues of metric

         1 0.243E-02 0.392E-02 0.405E-02 0.839E-02 0.131E-01 0.322E-01 0.420E-01 0.463E-01
         2 0.338E-01 0.464E-01 0.100E+00 0.112E+00 0.232E+00 0.343E+00 0.393E+00 0.447E+00


 Contracted 2-electron integrals neglected if value below      1.0D-22

        1874283. INTEGRALS WRITTEN OUT IN     458 BLOCKS ON RECORD 1290 OF FILE 1


 NUMBER OF SORTED TWO-ELECTRON INTEGRALS:    2006100.     BUFFER LENGTH:  32768
 NUMBER OF SEGMENTS:   1  SEGMENT LENGTH:    2006100      RECORD LENGTH: 524288

 Memory used in sort:       2.56 MW

 SORT1 READ     1874283. AND WROTE     1914195. INTEGRALS IN      6 RECORDS. CPU TIME:     0.03 SEC, REAL TIME:     0.05 SEC
 SORT2 READ     1914195. AND WROTE     2006100. INTEGRALS IN      1 RECORDS. CPU TIME:     0.06 SEC, REAL TIME:     0.06 SEC

 FILE SIZES:   FILE 1:    50.1 MBYTE,  FILE 4:    25.2 MBYTE,   TOTAL:     75.3 MBYTE

 OPERATOR DM      FOR CENTER  0  COORDINATES:    0.000000    0.000000    0.000000


 **********************************************************************************************************************************
 DATASETS  * FILE   NREC   LENGTH (MB)   RECORD NAMES
              1      19       35.89       500      610      700      900      950      970     1000      129      960     1100   
                                          VAR    BASINP    GEOM    SYMINP    ZMAT    AOBASIS   BASIS     P2S    ABASIS      S 
                                         1400     1410     1200     1210     1080     1600     1650     1300     1700   
                                           T        V       H0       H01     AOSYM     SMH    MOLCAS    ERIS     OPER   

 PROGRAMS   *        TOTAL       INT
 CPU TIMES  *         0.64      0.53
 REAL TIME  *         1.43 SEC
 DISK USED  *        75.59 MB      
 **********************************************************************************************************************************


 PROGRAM * RHF-SCF (CLOSED SHELL)       Authors: W. Meyer, H.-J. Werner


 NUMBER OF ELECTRONS:       8+    8-
 CONVERGENCE THRESHOLDS:    1.00E-10 (Density)    1.00E-13 (Energy)
 MAX. NUMBER OF ITERATIONS:      500
 INTERPOLATION TYPE:            DIIS
 INTERPOLATION STEPS:              2 (START)      1 (STEP)
 LEVEL SHIFTS:                  0.00 (CLOSED)  0.00 (OPEN) 



 Orbital guess generated from atomic densities. Full valence occupancy:    9   2

 Molecular orbital dump at record        2100.2

 Initial occupancy:   7   1

 ITERATION    DDIFF          GRAD             ENERGY        2-EL.EN.            DIPOLE MOMENTS         DIIS   ORB.
    1      0.000D+00      0.000D+00      -129.78250237    154.478287    0.00000    0.57996   -1.00620    0    start
    2      0.000D+00      0.134D-01      -129.80967454    155.652750    0.00000    0.60814   -0.22592    1    diag
    3      0.182D-01      0.100D-01      -129.83043861    155.749720    0.00000    0.55561   -0.58572    2    diag
    4      0.878D-02      0.154D-02      -129.83116029    155.489066    0.00000    0.56435   -0.52772    3    diag
    5      0.165D-02      0.510D-03      -129.83127273    155.574281    0.00000    0.56978   -0.52908    4    diag
    6      0.712D-03      0.152D-03      -129.83129122    155.559593    0.00000    0.57036   -0.52506    5    diag
    7      0.276D-03      0.751D-04      -129.83129647    155.561987    0.00000    0.57163   -0.52269    6    diag
    8      0.188D-03      0.234D-04      -129.83129693    155.561333    0.00000    0.57165   -0.52194    7    diag
    9      0.605D-04      0.423D-05      -129.83129695    155.561225    0.00000    0.57160   -0.52180    8    diag
   10      0.116D-04      0.952D-06      -129.83129695    155.561207    0.00000    0.57157   -0.52177    9    orth
   11      0.271D-05      0.188D-06      -129.83129695    155.561203    0.00000    0.57156   -0.52177    9    diag
   12      0.503D-06      0.386D-07      -129.83129695    155.561202    0.00000    0.57156   -0.52177    9    diag
   13      0.110D-06      0.945D-08      -129.83129695    155.561201    0.00000    0.57156   -0.52177    9    diag
   14      0.271D-07      0.175D-08      -129.83129695    155.561201    0.00000    0.57156   -0.52177    9    diag
   15      0.459D-08      0.473D-09      -129.83129695    155.561201    0.00000    0.57156   -0.52177    9    diag
   16      0.111D-08      0.128D-09      -129.83129695    155.561201    0.00000    0.57156   -0.52177    9    diag
   17      0.227D-09      0.385D-10      -129.83129695    155.561201    0.00000    0.57156   -0.52177    9    diag
   18      0.770D-10      0.124D-10      -129.83129695    155.561201    0.00000    0.57156   -0.52177    9    diag
   19      0.291D-10      0.272D-11      -129.83129695    155.561201    0.00000    0.57156   -0.52177    9    fixocc
   20      0.671D-11      0.444D-12      -129.83129695    155.561201    0.00000    0.57156   -0.52177    9    orth
   21      0.821D-12      0.134D-12      -129.83129695    155.561201    0.00000    0.57156   -0.52177    0    orth

 Final occupancy:   7   1

 !RHF STATE 1.1 Energy               -129.831296948904
 Nuclear energy                        30.56298038
 One-electron energy                 -238.17487794
 Two-electron energy                   77.78060061
 Virial quotient                       -0.99942241
 !RHF STATE 1.1 Dipole moment           0.00000000     0.57155956    -0.52176874
 Dipole moment /Debye                   0.00000000     1.45266434    -1.32611700

 Orbital energies:

         1.1          2.1          3.1          4.1          5.1          6.1          7.1          8.1          9.1
    -20.647002   -15.706831    -1.534371    -0.987212    -0.745803    -0.664839    -0.423679     0.144410     0.371317

         1.2          2.2          3.2
     -0.597101     0.090085     0.611803

 HOMO      7.1    -0.423679 =     -11.5289eV
 LUMO      2.2     0.090085 =       2.4514eV
 LUMO-HOMO         0.513764 =      13.9802eV


 **********************************************************************************************************************************
 DATASETS  * FILE   NREC   LENGTH (MB)   RECORD NAMES
              1      19       35.89       500      610      700      900      950      970     1000      129      960     1100   
                                          VAR    BASINP    GEOM    SYMINP    ZMAT    AOBASIS   BASIS     P2S    ABASIS      S 
                                         1400     1410     1200     1210     1080     1600     1650     1300     1700   
                                           T        V       H0       H01     AOSYM     SMH    MOLCAS    ERIS     OPER   

              2       4        2.85       700     1000      520     2100   
                                         GEOM     BASIS   MCVARS     RHF  

 PROGRAMS   *        TOTAL        HF       INT
 CPU TIMES  *         0.84      0.20      0.53
 REAL TIME  *         1.77 SEC
 DISK USED  *        75.59 MB      
 **********************************************************************************************************************************


 PROGRAM * CCSD (Closed-shell coupled cluster)     Authors: C. Hampel, H.-J. Werner, 1991, M. Deegan, P.J. Knowles, 1992


 Convergence thresholds:  THRVAR = 1.00D-08  THRDEN = 1.00D-12

 CCSD(T)     terms to be evaluated (factor= 1.000)


 Number of core orbitals:           2 (   2   0 )
 Number of closed-shell orbitals:   6 (   5   1 )
 Number of external orbitals:      66 (  43  23 )

 Molecular orbitals read from record     2100.2  Type=RHF/CANONICAL (state 1.1)

 Number of N-1 electron functions:               6
 Number of N-2 electron functions:              21
 Number of singly external CSFs:               238
 Number of doubly external CSFs:             41002
 Total number of CSFs:                       41241

 Length of J-op  integral file:               0.00 MB
 Length of K-op  integral file:               0.25 MB
 Length of 3-ext integral record:             0.00 MB

 Memory could be reduced to 1.65 Mwords without degradation in triples

 Integral transformation finished. Total CPU:   0.03 sec, npass=  1  Memory used:   0.55 MW

 Reference energy:                   -129.83129695

 MP2 singlet pair energy:              -0.27262492
 MP2 triplet pair energy:              -0.16179666
 MP2 correlation energy:               -0.43442159
 MP2 total energy:                   -130.26571853

 SCS-MP2 correlation energy:           -0.42782339   (PS=  1.200000  PT=  0.333333)
 SCS-MP2 total energy:               -130.25912033

 ITER.      SQ.NORM     CORR.ENERGY   TOTAL ENERGY   ENERGY CHANGE        DEN1      VAR(S)    VAR(P)  DIIS     TIME  TIME/IT
   1      1.11748891    -0.43992635  -130.27122330    -0.00550476     0.00988167  0.28D-02  0.29D-02  1  1     0.08     0.04
   2      1.12811013    -0.44026029  -130.27155724    -0.00033394    -0.01205139  0.83D-04  0.49D-03  2  2     0.11     0.04
   3      1.13420339    -0.44063322  -130.27193017    -0.00037294    -0.00291808  0.45D-04  0.48D-04  3  3     0.15     0.04
   4      1.13689526    -0.44065827  -130.27195522    -0.00002504    -0.00092802  0.38D-05  0.85D-05  4  4     0.19     0.04
   5      1.13783824    -0.44068617  -130.27198312    -0.00002790    -0.00019531  0.13D-05  0.16D-05  5  5     0.22     0.04
   6      1.13818436    -0.44067076  -130.27196771     0.00001541    -0.00003897  0.10D-06  0.40D-06  6  6     0.26     0.04
   7      1.13827031    -0.44067252  -130.27196947    -0.00000176    -0.00000248  0.12D-07  0.82D-07  6  1     0.29     0.04
   8      1.13830065    -0.44067259  -130.27196954    -0.00000007     0.00000183  0.41D-08  0.94D-08  6  2     0.33     0.04
   9      1.13830807    -0.44067239  -130.27196934     0.00000019    -0.00000219  0.23D-08  0.10D-08  6  3     0.37     0.04
  10      1.13830689    -0.44067288  -130.27196983    -0.00000048     0.00000058  0.46D-09  0.19D-09  6  4     0.39     0.04
  11      1.13830520    -0.44067293  -130.27196988    -0.00000006     0.00000019  0.14D-09  0.21D-10  6  5     0.43     0.04
  12      1.13830384    -0.44067310  -130.27197005    -0.00000017     0.00000041  0.15D-10  0.72D-11  6  6     0.48     0.04
  13      1.13830326    -0.44067311  -130.27197006    -0.00000001     0.00000012  0.65D-11  0.11D-11  6  1     0.51     0.04
  14      1.13830289    -0.44067313  -130.27197007    -0.00000002     0.00000007  0.90D-12  0.40D-12  6  2     0.55     0.04
  15      1.13830276    -0.44067313  -130.27197008    -0.00000000     0.00000001  0.23D-12  0.13D-12  6  3     0.59     0.04
  16      1.13830267    -0.44067313  -130.27197008    -0.00000000     0.00000001  0.24D-13  0.15D-13  6  5     0.63     0.04
  17      1.13830264    -0.44067313  -130.27197008    -0.00000000     0.00000000  0.73D-15  0.22D-14  6  4     0.66     0.04
  18      1.13830264    -0.44067313  -130.27197008     0.00000000    -0.00000000  0.47D-15  0.31D-15  6  1     0.70     0.04
  19      1.13830263    -0.44067313  -130.27197008    -0.00000000     0.00000000  0.40D-16  0.54D-16  6  6     0.74     0.04
  20      1.13830263    -0.44067313  -130.27197008    -0.00000000     0.00000000  0.83D-17  0.13D-16  6  2     0.78     0.04
  21      1.13830263    -0.44067313  -130.27197008    -0.00000000     0.00000000  0.17D-17  0.96D-18  6  5     0.81     0.04
  22      1.13830263    -0.44067313  -130.27197008     0.00000000     0.00000000  0.10D-18  0.72D-19  6  3     0.85     0.04
  23      1.13830263    -0.44067313  -130.27197008     0.00000000    -0.00000000  0.29D-19  0.16D-19  6  4     0.89     0.04
  24      1.13830263    -0.44067313  -130.27197008     0.00000000    -0.00000000  0.43D-20  0.43D-20  6  1     0.91     0.04
  25      1.13830263    -0.44067313  -130.27197008     0.00000000    -0.00000000  0.50D-21  0.75D-21  6  6     0.94     0.04

 Norm of t1 vector:      0.07364019      S-energy:     0.00000000      T1 diagnostic:  0.01503174
                                                                       D1 diagnostic:  0.04113745

 Doubles amplitudes (print threshold =  0.500E-01):

         I         J         SYM. A    SYM. B    A         B      T(IJ, AB)

         6         6         2         2         1         1     -0.14088763


 Total CPU time for triples:      0.23 sec


 RESULTS
 =======

  Reference energy                   -129.831296948904
  CCSD singlet pair energy             -0.301945228977
  CCSD triplet pair energy             -0.138727900876
  CCSD correlation energy              -0.440673129853

  Triples (T) contribution             -0.019494440359
  Total correlation energy             -0.460167570212

  CCSD total energy                  -130.271970078757
  CCSD[T] energy                     -130.292443461075
  CCSD-T energy                      -130.291076065270
 !CCSD(T) total energy               -130.291464519116

 Timing summary (sec):

 STEP                 CPU(USER)    SYS     CPU(TOT)    WALL
 Transformation          0.03      0.00      0.03      0.04
 CCSD iterations         0.91      0.14      1.05      1.05
 Triples                 0.23      0.01      0.24      0.24

 Program statistics:

 Available memory in ccsd:               994999756
 Min. memory needed in ccsd:                154850
 Max. memory used in ccsd:                  184802
 Max. memory used in cckext:                238416 (25 integral passes)



 **********************************************************************************************************************************
 DATASETS  * FILE   NREC   LENGTH (MB)   RECORD NAMES
              1      20       40.28       500      610      700      900      950      970     1000      129      960     1100   
                                          VAR    BASINP    GEOM    SYMINP    ZMAT    AOBASIS   BASIS     P2S    ABASIS      S 
                                         1400     1410     1200     1210     1080     1600     1650     1300     1700     1380   
                                           T        V       H0       H01     AOSYM     SMH    MOLCAS    ERIS     OPER     JKOP   

              2       4        2.85       700     1000      520     2100   
                                         GEOM     BASIS   MCVARS     RHF  

 PROGRAMS   *        TOTAL   CCSD(T)        HF       INT
 CPU TIMES  *         2.07      1.21      0.20      0.53
 REAL TIME  *         3.43 SEC
 DISK USED  *        75.59 MB      
 **********************************************************************************************************************************

 CCSD(T)/cc-pVTZ-DK energy=   -130.291464519116

        CCSD(T)         HF-SCF  
   -130.29146452   -129.83129695
 **********************************************************************************************************************************
 Molpro calculation terminated
 Variable memory released
