
 Primary working directories    : /tmp/r2666/282581.maple
 Secondary working directories  : /tmp/r2666/282581.maple
 Wavefunction directory         : /ddn/home4/r2666/wfu/
 Main file repository           : /tmp/r2666/282581.maple/

 SHA1      : d5ffa45e93fdbca01ffc919aa182cfdae0147319
 NAME      : 2015.1.35
 ARCHNAME  : linux/x86_64
 FC        : /opt/intel/composer_xe_2015.1.133/bin/intel64/ifort
 BLASLIB   : -Wl,-_start-group /opt/intel/mkl/lib/intel64/libmkl_intel_ilp64.a /opt/intel/mkl/lib/intel64/libmkl_intel_thread.a /opt/intel/mkl/lib/intel64/libmkl_core.a -Wl,-_end-group
 id        : olemiss

 Nodes     nprocs
 cn079        1

 Using customized tuning parameters: mindgm=1; mindgv=20; mindgc=4; mindgr=1; noblas=0; minvec=7
 default implementation of scratch files=df  

 ***,hno CCSD(T)/TZ-F12 QFF
 memory, 995, m;
 gthresh,energy=1.d-12,zero=1.d-22,oneint=1.d-22,twoint=1.d-22;
 gthresh,optgrad=1.d-8,optstep=1.d-8;
 nocompress;
 geomtyp=xyz
 bohr
 geometry={
 3
         91        91
 H        0.0000000000        1.6703834771       -1.9270583109
 N        0.0000000000       -0.1670878690       -1.1436521802
 O        0.0000000000        0.0384721819        1.1201209001
 }
 
 basis=vtz-dk
 dkroll=0
   {hf,maxit=500;accu,20;}
 {ccsd(t),nocheck,maxit=250;orbital,IGNORE_ERROR;}

 Variables initialized (889), CPU time= 0.01 sec
 Commands  initialized (702), CPU time= 0.01 sec, 572 directives.
 Default parameters read. Elapsed time= 0.07 sec

 Checking input...
 Passed
1


                                         ***  PROGRAM SYSTEM MOLPRO  ***
                                       Copyright, TTI GmbH Stuttgart, 2015
                                    Version 2015.1 linked Jul  9 2018 13:16:40


 **********************************************************************************************************************************
 LABEL *   hno CCSD(T)/TZ-F12 QFF                                                        
  64 bit serial version                                                                  DATE: 04-Mar-20          TIME: 13:50:59  
 **********************************************************************************************************************************

 SHA1:             d5ffa45e93fdbca01ffc919aa182cfdae0147319
 **********************************************************************************************************************************

 THRESHOLDS:

 ZERO    =  1.00D-22  ONEINT  =  1.00D-22  TWOINT  =  1.00D-22  PREFAC  =  1.00D-14  LOCALI  =  1.00D-09  EORDER  =  1.00D-04
 ENERGY  =  1.00D-12  ETEST   =  0.00D+00  EDENS   =  0.00D+00  THRDEDEF=  1.00D-06  GRADIENT=  1.00D-02  STEP    =  1.00D-03
 ORBITAL =  1.00D-05  CIVEC   =  1.00D-05  COEFF   =  1.00D-04  PRINTCI =  5.00D-02  PUNCHCI =  9.90D+01  OPTGRAD =  3.00D-04
 OPTENERG=  1.00D-06  OPTSTEP =  3.00D-04  THRGRAD =  1.00D-10  COMPRESS=  1.00D-11  VARMIN  =  1.00D-07  VARMAX  =  1.00D-03
 THRDOUB =  0.00D+00  THRDIV  =  1.00D-05  THRRED  =  1.00D-07  THRPSP  =  1.00D+00  THRDC   =  1.00D-10  THRCS   =  1.00D-10
 THRNRM  =  1.00D-08  THREQ   =  0.00D+00  THRDE   =  1.00D+00  THRREF  =  1.00D-05  SPARFAC =  1.00D+00  THRDLP  =  1.00D-07
 THRDIA  =  1.00D-10  THRDLS  =  1.00D-07  THRGPS  =  0.00D+00  THRKEX  =  0.00D+00  THRDIS  =  2.00D-01  THRVAR  =  1.00D-10
 THRLOC  =  1.00D-06  THRGAP  =  1.00D-06  THRLOCT = -1.00D+00  THRGAPT = -1.00D+00  THRORB  =  1.00D-06  THRMLTP =  0.00D+00
 THRCPQCI=  1.00D-10  KEXTA   =  0.00D+00  THRCOARS=  0.00D+00  SYMTOL  =  1.00D-06  GRADTOL =  1.00D-06  THROVL  =  1.00D-08
 THRORTH =  1.00D-08  GRID    =  1.00D-06  GRIDMAX =  1.00D-03  DTMAX   =  0.00D+00  THROCCDE=  1.00D-01  THROCCDE=  1.00D-01



 THRESHOLDS:

 ZERO    =  1.00D-22  ONEINT  =  1.00D-22  TWOINT  =  1.00D-22  PREFAC  =  1.00D-14  LOCALI  =  1.00D-09  EORDER  =  1.00D-04
 ENERGY  =  1.00D-12  ETEST   =  0.00D+00  EDENS   =  0.00D+00  THRDEDEF=  1.00D-06  GRADIENT=  1.00D-02  STEP    =  1.00D-03
 ORBITAL =  1.00D-05  CIVEC   =  1.00D-05  COEFF   =  1.00D-04  PRINTCI =  5.00D-02  PUNCHCI =  9.90D+01  OPTGRAD =  1.00D-08
 OPTENERG=  1.00D-06  OPTSTEP =  1.00D-08  THRGRAD =  1.00D-10  COMPRESS=  1.00D-11  VARMIN  =  1.00D-07  VARMAX  =  1.00D-03
 THRDOUB =  0.00D+00  THRDIV  =  1.00D-05  THRRED  =  1.00D-07  THRPSP  =  1.00D+00  THRDC   =  1.00D-10  THRCS   =  1.00D-10
 THRNRM  =  1.00D-08  THREQ   =  0.00D+00  THRDE   =  1.00D+00  THRREF  =  1.00D-05  SPARFAC =  1.00D+00  THRDLP  =  1.00D-07
 THRDIA  =  1.00D-10  THRDLS  =  1.00D-07  THRGPS  =  0.00D+00  THRKEX  =  0.00D+00  THRDIS  =  2.00D-01  THRVAR  =  1.00D-10
 THRLOC  =  1.00D-06  THRGAP  =  1.00D-06  THRLOCT = -1.00D+00  THRGAPT = -1.00D+00  THRORB  =  1.00D-06  THRMLTP =  0.00D+00
 THRCPQCI=  1.00D-10  KEXTA   =  0.00D+00  THRCOARS=  0.00D+00  SYMTOL  =  1.00D-06  GRADTOL =  1.00D-06  THROVL  =  1.00D-08
 THRORTH =  1.00D-08  GRID    =  1.00D-06  GRIDMAX =  1.00D-03  DTMAX   =  0.00D+00  THROCCDE=  1.00D-01  THROCCDE=  1.00D-01



 Input parameters for SORTINT:

 COMPRESS =    0.000000
 C_FINAL  =    1.000000
 DEBUG    =   -1.000000
 C_SORT1  =    0.000000
 C_SEWARD =    0.000000
 THRESH   =    0.000000
 IO       =  molpro                                                          
 SPRI     =    0.000000
 SETTING GEOMTYP        =    XYZ
 ZUNIT=BOHR
 

 Variable memory set to  995000000 words,  buffer space   230000 words

 SETTING BASIS          =    VTZ-DK
 SETTING DKROLL         =     0.00000000D+00                                  


 Recomputing integrals since basis changed


 Using spherical harmonics

 Library entry H      S cc-pVTZ-DK           selected for orbital group  1
 Library entry H      P cc-pVTZ-DK           selected for orbital group  1
 Library entry H      D cc-pVTZ-DK           selected for orbital group  1
 Library entry N      S cc-pVTZ-DK           selected for orbital group  2
 Library entry N      P cc-pVTZ-DK           selected for orbital group  2
 Library entry N      D cc-pVTZ-DK           selected for orbital group  2
 Library entry N      F cc-pVTZ-DK           selected for orbital group  2
 Library entry O      S cc-pVTZ-DK           selected for orbital group  3
 Library entry O      P cc-pVTZ-DK           selected for orbital group  3
 Library entry O      D cc-pVTZ-DK           selected for orbital group  3
 Library entry O      F cc-pVTZ-DK           selected for orbital group  3


 PROGRAM * SEWARD (Integral evaluation for generally contracted gaussian basis sets)     Author: Roland Lindh, 1990

 Geometry written to block  1 of record 700


 Point group  Cs  



 ATOMIC COORDINATES

 NR  ATOM    CHARGE       X              Y              Z

   1  H       1.00    0.000000000    1.670383477   -1.927058311
   2  N       7.00    0.000000000   -0.167087869   -1.143652180
   3  O       8.00    0.000000000    0.038472182    1.120120900

 Bond lengths in Bohr (Angstrom)

 1-2  1.997504972  2-3  2.273086777
     ( 1.057034110)     ( 1.202865721)

 Bond angles

  1-2-3  107.90251459

 NUCLEAR CHARGE:                   16
 NUMBER OF PRIMITIVE AOS:         111
 NUMBER OF SYMMETRY AOS:          100
 NUMBER OF CONTRACTIONS:           74   (  50A'  +  24A"  )
 NUMBER OF CORE ORBITALS:           2   (   2A'  +   0A"  )
 NUMBER OF VALENCE ORBITALS:        9   (   7A'  +   2A"  )


 NUCLEAR REPULSION ENERGY   30.45485368

 Eigenvalues of metric

         1 0.245E-02 0.397E-02 0.409E-02 0.841E-02 0.131E-01 0.325E-01 0.423E-01 0.464E-01
         2 0.341E-01 0.465E-01 0.101E+00 0.113E+00 0.233E+00 0.343E+00 0.395E+00 0.449E+00


 Contracted 2-electron integrals neglected if value below      1.0D-22

        1874283. INTEGRALS WRITTEN OUT IN     458 BLOCKS ON RECORD 1290 OF FILE 1


 NUMBER OF SORTED TWO-ELECTRON INTEGRALS:    2006100.     BUFFER LENGTH:  32768
 NUMBER OF SEGMENTS:   1  SEGMENT LENGTH:    2006100      RECORD LENGTH: 524288

 Memory used in sort:       2.56 MW

 SORT1 READ     1874283. AND WROTE     1914195. INTEGRALS IN      6 RECORDS. CPU TIME:     0.02 SEC, REAL TIME:     0.04 SEC
 SORT2 READ     1914195. AND WROTE     2006100. INTEGRALS IN      1 RECORDS. CPU TIME:     0.05 SEC, REAL TIME:     0.05 SEC

 FILE SIZES:   FILE 1:    50.1 MBYTE,  FILE 4:    25.2 MBYTE,   TOTAL:     75.3 MBYTE

 OPERATOR DM      FOR CENTER  0  COORDINATES:    0.000000    0.000000    0.000000


 **********************************************************************************************************************************
 DATASETS  * FILE   NREC   LENGTH (MB)   RECORD NAMES
              1      19       35.89       500      610      700      900      950      970     1000      129      960     1100   
                                          VAR    BASINP    GEOM    SYMINP    ZMAT    AOBASIS   BASIS     P2S    ABASIS      S 
                                         1400     1410     1200     1210     1080     1600     1650     1300     1700   
                                           T        V       H0       H01     AOSYM     SMH    MOLCAS    ERIS     OPER   

 PROGRAMS   *        TOTAL       INT
 CPU TIMES  *         0.61      0.51
 REAL TIME  *         1.14 SEC
 DISK USED  *        75.59 MB      
 **********************************************************************************************************************************


 PROGRAM * RHF-SCF (CLOSED SHELL)       Authors: W. Meyer, H.-J. Werner


 NUMBER OF ELECTRONS:       8+    8-
 CONVERGENCE THRESHOLDS:    1.00E-10 (Density)    1.00E-13 (Energy)
 MAX. NUMBER OF ITERATIONS:      500
 INTERPOLATION TYPE:            DIIS
 INTERPOLATION STEPS:              2 (START)      1 (STEP)
 LEVEL SHIFTS:                  0.00 (CLOSED)  0.00 (OPEN) 



 Orbital guess generated from atomic densities. Full valence occupancy:    9   2

 Molecular orbital dump at record        2100.2

 Initial occupancy:   7   1

 ITERATION    DDIFF          GRAD             ENERGY        2-EL.EN.            DIPOLE MOMENTS         DIIS   ORB.
    1      0.000D+00      0.000D+00      -129.78122131    154.284662    0.00000    0.58234   -1.02207    0    start
    2      0.000D+00      0.135D-01      -129.80827647    155.450613    0.00000    0.61165   -0.22380    1    diag
    3      0.184D-01      0.102D-01      -129.82981879    155.557747    0.00000    0.55823   -0.59300    2    diag
    4      0.890D-02      0.155D-02      -129.83055005    155.293564    0.00000    0.56688   -0.53418    3    diag
    5      0.166D-02      0.514D-03      -129.83066432    155.379189    0.00000    0.57232   -0.53543    4    diag
    6      0.717D-03      0.153D-03      -129.83068316    155.364422    0.00000    0.57288   -0.53132    5    diag
    7      0.278D-03      0.761D-04      -129.83068859    155.366763    0.00000    0.57413   -0.52887    6    diag
    8      0.191D-03      0.241D-04      -129.83068908    155.366088    0.00000    0.57415   -0.52809    7    diag
    9      0.629D-04      0.437D-05      -129.83068910    155.365975    0.00000    0.57410   -0.52794    8    diag
   10      0.122D-04      0.973D-06      -129.83068910    155.365958    0.00000    0.57406   -0.52792    9    orth
   11      0.276D-05      0.191D-06      -129.83068910    155.365953    0.00000    0.57406   -0.52792    9    diag
   12      0.508D-06      0.396D-07      -129.83068910    155.365952    0.00000    0.57405   -0.52791    9    diag
   13      0.111D-06      0.977D-08      -129.83068910    155.365952    0.00000    0.57405   -0.52791    9    diag
   14      0.277D-07      0.178D-08      -129.83068910    155.365952    0.00000    0.57405   -0.52791    9    diag
   15      0.452D-08      0.469D-09      -129.83068910    155.365952    0.00000    0.57405   -0.52791    9    diag
   16      0.108D-08      0.120D-09      -129.83068910    155.365952    0.00000    0.57405   -0.52791    9    diag
   17      0.206D-09      0.354D-10      -129.83068910    155.365952    0.00000    0.57405   -0.52791    9    diag
   18      0.671D-10      0.118D-10      -129.83068910    155.365952    0.00000    0.57405   -0.52791    0    orth

 Final occupancy:   7   1

 !RHF STATE 1.1 Energy               -129.830689104467
 Nuclear energy                        30.45485368
 One-electron energy                 -237.96851856
 Two-electron energy                   77.68297577
 Virial quotient                       -0.99957206
 !RHF STATE 1.1 Dipole moment           0.00000000     0.57405419    -0.52791299
 Dipole moment /Debye                   0.00000000     1.45900465    -1.34173309

 Orbital energies:

         1.1          2.1          3.1          4.1          5.1          6.1          7.1          8.1          9.1
    -20.647470   -15.707683    -1.530209    -0.988379    -0.744240    -0.663389    -0.425225     0.144110     0.370699

         1.2          2.2          3.2
     -0.594687     0.088215     0.612373

 HOMO      7.1    -0.425225 =     -11.5710eV
 LUMO      2.2     0.088215 =       2.4005eV
 LUMO-HOMO         0.513441 =      13.9714eV


 **********************************************************************************************************************************
 DATASETS  * FILE   NREC   LENGTH (MB)   RECORD NAMES
              1      19       35.89       500      610      700      900      950      970     1000      129      960     1100   
                                          VAR    BASINP    GEOM    SYMINP    ZMAT    AOBASIS   BASIS     P2S    ABASIS      S 
                                         1400     1410     1200     1210     1080     1600     1650     1300     1700   
                                           T        V       H0       H01     AOSYM     SMH    MOLCAS    ERIS     OPER   

              2       4        2.85       700     1000      520     2100   
                                         GEOM     BASIS   MCVARS     RHF  

 PROGRAMS   *        TOTAL        HF       INT
 CPU TIMES  *         0.79      0.18      0.51
 REAL TIME  *         1.37 SEC
 DISK USED  *        75.59 MB      
 **********************************************************************************************************************************


 PROGRAM * CCSD (Closed-shell coupled cluster)     Authors: C. Hampel, H.-J. Werner, 1991, M. Deegan, P.J. Knowles, 1992


 Convergence thresholds:  THRVAR = 1.00D-08  THRDEN = 1.00D-12

 CCSD(T)     terms to be evaluated (factor= 1.000)


 Number of core orbitals:           2 (   2   0 )
 Number of closed-shell orbitals:   6 (   5   1 )
 Number of external orbitals:      66 (  43  23 )

 Molecular orbitals read from record     2100.2  Type=RHF/CANONICAL (state 1.1)

 Number of N-1 electron functions:               6
 Number of N-2 electron functions:              21
 Number of singly external CSFs:               238
 Number of doubly external CSFs:             41002
 Total number of CSFs:                       41241

 Length of J-op  integral file:               0.00 MB
 Length of K-op  integral file:               0.25 MB
 Length of 3-ext integral record:             0.00 MB

 Memory could be reduced to 1.65 Mwords without degradation in triples

 Integral transformation finished. Total CPU:   0.03 sec, npass=  1  Memory used:   0.55 MW

 Reference energy:                   -129.83068910

 MP2 singlet pair energy:              -0.27314697
 MP2 triplet pair energy:              -0.16213641
 MP2 correlation energy:               -0.43528338
 MP2 total energy:                   -130.26597249

 SCS-MP2 correlation energy:           -0.42866124   (PS=  1.200000  PT=  0.333333)
 SCS-MP2 total energy:               -130.25935035

 ITER.      SQ.NORM     CORR.ENERGY   TOTAL ENERGY   ENERGY CHANGE        DEN1      VAR(S)    VAR(P)  DIIS     TIME  TIME/IT
   1      1.11802495    -0.44060346  -130.27129257    -0.00532008     0.01026707  0.29D-02  0.30D-02  1  1     0.08     0.05
   2      1.12876579    -0.44090147  -130.27159057    -0.00029800    -0.01216817  0.86D-04  0.50D-03  2  2     0.11     0.04
   3      1.13496146    -0.44128193  -130.27197104    -0.00038047    -0.00295222  0.46D-04  0.50D-04  3  3     0.15     0.04
   4      1.13771062    -0.44130740  -130.27199651    -0.00002547    -0.00094382  0.39D-05  0.87D-05  4  4     0.18     0.04
   5      1.13868042    -0.44133614  -130.27202525    -0.00002874    -0.00020094  0.14D-05  0.16D-05  5  5     0.21     0.04
   6      1.13903277    -0.44132016  -130.27200927     0.00001598    -0.00003987  0.10D-06  0.40D-06  6  6     0.24     0.04
   7      1.13911850    -0.44132201  -130.27201111    -0.00000184    -0.00000229  0.12D-07  0.84D-07  6  1     0.27     0.04
   8      1.13914900    -0.44132203  -130.27201113    -0.00000002     0.00000184  0.42D-08  0.99D-08  6  2     0.30     0.04
   9      1.13915663    -0.44132183  -130.27201093     0.00000020    -0.00000222  0.24D-08  0.11D-08  6  3     0.33     0.04
  10      1.13915543    -0.44132232  -130.27201143    -0.00000050     0.00000059  0.47D-09  0.20D-09  6  4     0.37     0.04
  11      1.13915372    -0.44132238  -130.27201148    -0.00000006     0.00000019  0.14D-09  0.22D-10  6  5     0.41     0.04
  12      1.13915235    -0.44132255  -130.27201165    -0.00000017     0.00000042  0.15D-10  0.73D-11  6  6     0.44     0.04
  13      1.13915175    -0.44132256  -130.27201166    -0.00000001     0.00000012  0.66D-11  0.12D-11  6  1     0.48     0.04
  14      1.13915137    -0.44132258  -130.27201168    -0.00000002     0.00000007  0.92D-12  0.41D-12  6  2     0.51     0.04
  15      1.13915124    -0.44132258  -130.27201168    -0.00000000     0.00000001  0.23D-12  0.13D-12  6  3     0.55     0.04
  16      1.13915113    -0.44132258  -130.27201169    -0.00000000     0.00000002  0.68D-14  0.35D-13  6  1     0.58     0.04
  17      1.13915112    -0.44132258  -130.27201168     0.00000000    -0.00000000  0.31D-14  0.26D-14  6  4     0.61     0.04
  18      1.13915111    -0.44132258  -130.27201168    -0.00000000     0.00000000  0.71D-15  0.46D-15  6  5     0.65     0.04
  19      1.13915111    -0.44132258  -130.27201168     0.00000000    -0.00000000  0.12D-15  0.80D-16  6  6     0.68     0.04
  20      1.13915111    -0.44132258  -130.27201168    -0.00000000     0.00000000  0.16D-16  0.18D-16  6  2     0.72     0.04
  21      1.13915110    -0.44132258  -130.27201168    -0.00000000     0.00000000  0.25D-17  0.21D-17  6  3     0.75     0.04
  22      1.13915110    -0.44132258  -130.27201168    -0.00000000     0.00000000  0.28D-18  0.34D-18  6  4     0.79     0.04
  23      1.13915110    -0.44132258  -130.27201168    -0.00000000     0.00000000  0.10D-18  0.28D-19  6  1     0.83     0.04
  24      1.13915110    -0.44132258  -130.27201168     0.00000000    -0.00000000  0.17D-19  0.11D-19  6  6     0.86     0.04
  25      1.13915110    -0.44132258  -130.27201168     0.00000000    -0.00000000  0.37D-20  0.71D-21  6  5     0.90     0.04
  26      1.13915110    -0.44132258  -130.27201168     0.00000000    -0.00000000  0.74D-21  0.29D-21  6  2     0.93     0.04
  27      1.13915110    -0.44132258  -130.27201168     0.00000000    -0.00000000  0.25D-22  0.16D-22  6  3     0.97     0.04

 Norm of t1 vector:      0.07439208      S-energy:     0.00000000      T1 diagnostic:  0.01518522
                                                                       D1 diagnostic:  0.04177168

 Doubles amplitudes (print threshold =  0.500E-01):

         I         J         SYM. A    SYM. B    A         B      T(IJ, AB)

         6         6         2         2         1         1     -0.14228154


 Total CPU time for triples:      0.22 sec


 RESULTS
 =======

  Reference energy                   -129.830689104467
  CCSD singlet pair energy             -0.302511358356
  CCSD triplet pair energy             -0.138811221887
  CCSD correlation energy              -0.441322580242

  Triples (T) contribution             -0.019642096539
  Total correlation energy             -0.460964676781

  CCSD total energy                  -130.272011684709
  CCSD[T] energy                     -130.292653016876
  CCSD-T energy                      -130.291260121046
 !CCSD(T) total energy               -130.291653781248

 Timing summary (sec):

 STEP                 CPU(USER)    SYS     CPU(TOT)    WALL
 Transformation          0.03      0.01      0.04      0.07
 CCSD iterations         0.95      0.15      1.10      1.07
 Triples                 0.22      0.01      0.23      0.24

 Program statistics:

 Available memory in ccsd:               994999756
 Min. memory needed in ccsd:                154850
 Max. memory used in ccsd:                  184802
 Max. memory used in cckext:                238416 (27 integral passes)



 **********************************************************************************************************************************
 DATASETS  * FILE   NREC   LENGTH (MB)   RECORD NAMES
              1      20       40.28       500      610      700      900      950      970     1000      129      960     1100   
                                          VAR    BASINP    GEOM    SYMINP    ZMAT    AOBASIS   BASIS     P2S    ABASIS      S 
                                         1400     1410     1200     1210     1080     1600     1650     1300     1700     1380   
                                           T        V       H0       H01     AOSYM     SMH    MOLCAS    ERIS     OPER     JKOP   

              2       4        2.85       700     1000      520     2100   
                                         GEOM     BASIS   MCVARS     RHF  

 PROGRAMS   *        TOTAL   CCSD(T)        HF       INT
 CPU TIMES  *         2.01      1.21      0.18      0.51
 REAL TIME  *         2.80 SEC
 DISK USED  *        75.59 MB      
 **********************************************************************************************************************************

 CCSD(T)/cc-pVTZ-DK energy=   -130.291653781248

        CCSD(T)         HF-SCF  
   -130.29165378   -129.83068910
 **********************************************************************************************************************************
 Molpro calculation terminated
 Variable memory released
