
 Primary working directories    : /tmp/r2666/282611.maple
 Secondary working directories  : /tmp/r2666/282611.maple
 Wavefunction directory         : /ddn/home4/r2666/wfu/
 Main file repository           : /tmp/r2666/282611.maple/

 SHA1      : d5ffa45e93fdbca01ffc919aa182cfdae0147319
 NAME      : 2015.1.35
 ARCHNAME  : linux/x86_64
 FC        : /opt/intel/composer_xe_2015.1.133/bin/intel64/ifort
 BLASLIB   : -Wl,-_start-group /opt/intel/mkl/lib/intel64/libmkl_intel_ilp64.a /opt/intel/mkl/lib/intel64/libmkl_intel_thread.a /opt/intel/mkl/lib/intel64/libmkl_core.a -Wl,-_end-group
 id        : olemiss

 Nodes     nprocs
 cn084        1

 Using customized tuning parameters: mindgm=1; mindgv=20; mindgc=4; mindgr=1; noblas=0; minvec=7
 default implementation of scratch files=df  

 ***,hno CCSD(T)/TZ-F12 QFF
 memory, 995, m;
 gthresh,energy=1.d-12,zero=1.d-22,oneint=1.d-22,twoint=1.d-22;
 gthresh,optgrad=1.d-8,optstep=1.d-8;
 nocompress;
 geomtyp=xyz
 bohr
 geometry={
 3
        121       121
 H        0.0000000000        1.6767635949       -1.9385346468
 N        0.0000000000       -0.1677750491       -1.1476238104
 O        0.0000000000        0.0327792442        1.1355688662
 }
 
 basis=vtz-dk
 dkroll=0
   {hf,maxit=500;accu,20;}
 {ccsd(t),nocheck,maxit=250;orbital,IGNORE_ERROR;}

 Variables initialized (889), CPU time= 0.01 sec
 Commands  initialized (702), CPU time= 0.01 sec, 572 directives.
 Default parameters read. Elapsed time= 0.05 sec

 Checking input...
 Passed
1


                                         ***  PROGRAM SYSTEM MOLPRO  ***
                                       Copyright, TTI GmbH Stuttgart, 2015
                                    Version 2015.1 linked Jul  9 2018 13:16:40


 **********************************************************************************************************************************
 LABEL *   hno CCSD(T)/TZ-F12 QFF                                                        
  64 bit serial version                                                                  DATE: 04-Mar-20          TIME: 13:51:04  
 **********************************************************************************************************************************

 SHA1:             d5ffa45e93fdbca01ffc919aa182cfdae0147319
 **********************************************************************************************************************************

 THRESHOLDS:

 ZERO    =  1.00D-22  ONEINT  =  1.00D-22  TWOINT  =  1.00D-22  PREFAC  =  1.00D-14  LOCALI  =  1.00D-09  EORDER  =  1.00D-04
 ENERGY  =  1.00D-12  ETEST   =  0.00D+00  EDENS   =  0.00D+00  THRDEDEF=  1.00D-06  GRADIENT=  1.00D-02  STEP    =  1.00D-03
 ORBITAL =  1.00D-05  CIVEC   =  1.00D-05  COEFF   =  1.00D-04  PRINTCI =  5.00D-02  PUNCHCI =  9.90D+01  OPTGRAD =  3.00D-04
 OPTENERG=  1.00D-06  OPTSTEP =  3.00D-04  THRGRAD =  1.00D-10  COMPRESS=  1.00D-11  VARMIN  =  1.00D-07  VARMAX  =  1.00D-03
 THRDOUB =  0.00D+00  THRDIV  =  1.00D-05  THRRED  =  1.00D-07  THRPSP  =  1.00D+00  THRDC   =  1.00D-10  THRCS   =  1.00D-10
 THRNRM  =  1.00D-08  THREQ   =  0.00D+00  THRDE   =  1.00D+00  THRREF  =  1.00D-05  SPARFAC =  1.00D+00  THRDLP  =  1.00D-07
 THRDIA  =  1.00D-10  THRDLS  =  1.00D-07  THRGPS  =  0.00D+00  THRKEX  =  0.00D+00  THRDIS  =  2.00D-01  THRVAR  =  1.00D-10
 THRLOC  =  1.00D-06  THRGAP  =  1.00D-06  THRLOCT = -1.00D+00  THRGAPT = -1.00D+00  THRORB  =  1.00D-06  THRMLTP =  0.00D+00
 THRCPQCI=  1.00D-10  KEXTA   =  0.00D+00  THRCOARS=  0.00D+00  SYMTOL  =  1.00D-06  GRADTOL =  1.00D-06  THROVL  =  1.00D-08
 THRORTH =  1.00D-08  GRID    =  1.00D-06  GRIDMAX =  1.00D-03  DTMAX   =  0.00D+00  THROCCDE=  1.00D-01  THROCCDE=  1.00D-01



 THRESHOLDS:

 ZERO    =  1.00D-22  ONEINT  =  1.00D-22  TWOINT  =  1.00D-22  PREFAC  =  1.00D-14  LOCALI  =  1.00D-09  EORDER  =  1.00D-04
 ENERGY  =  1.00D-12  ETEST   =  0.00D+00  EDENS   =  0.00D+00  THRDEDEF=  1.00D-06  GRADIENT=  1.00D-02  STEP    =  1.00D-03
 ORBITAL =  1.00D-05  CIVEC   =  1.00D-05  COEFF   =  1.00D-04  PRINTCI =  5.00D-02  PUNCHCI =  9.90D+01  OPTGRAD =  1.00D-08
 OPTENERG=  1.00D-06  OPTSTEP =  1.00D-08  THRGRAD =  1.00D-10  COMPRESS=  1.00D-11  VARMIN  =  1.00D-07  VARMAX  =  1.00D-03
 THRDOUB =  0.00D+00  THRDIV  =  1.00D-05  THRRED  =  1.00D-07  THRPSP  =  1.00D+00  THRDC   =  1.00D-10  THRCS   =  1.00D-10
 THRNRM  =  1.00D-08  THREQ   =  0.00D+00  THRDE   =  1.00D+00  THRREF  =  1.00D-05  SPARFAC =  1.00D+00  THRDLP  =  1.00D-07
 THRDIA  =  1.00D-10  THRDLS  =  1.00D-07  THRGPS  =  0.00D+00  THRKEX  =  0.00D+00  THRDIS  =  2.00D-01  THRVAR  =  1.00D-10
 THRLOC  =  1.00D-06  THRGAP  =  1.00D-06  THRLOCT = -1.00D+00  THRGAPT = -1.00D+00  THRORB  =  1.00D-06  THRMLTP =  0.00D+00
 THRCPQCI=  1.00D-10  KEXTA   =  0.00D+00  THRCOARS=  0.00D+00  SYMTOL  =  1.00D-06  GRADTOL =  1.00D-06  THROVL  =  1.00D-08
 THRORTH =  1.00D-08  GRID    =  1.00D-06  GRIDMAX =  1.00D-03  DTMAX   =  0.00D+00  THROCCDE=  1.00D-01  THROCCDE=  1.00D-01



 Input parameters for SORTINT:

 COMPRESS =    0.000000
 C_FINAL  =    1.000000
 DEBUG    =   -1.000000
 C_SORT1  =    0.000000
 C_SEWARD =    0.000000
 THRESH   =    0.000000
 IO       =  molpro                                                          
 SPRI     =    0.000000
 SETTING GEOMTYP        =    XYZ
 ZUNIT=BOHR
 

 Variable memory set to  995000000 words,  buffer space   230000 words

 SETTING BASIS          =    VTZ-DK
 SETTING DKROLL         =     0.00000000D+00                                  


 Recomputing integrals since basis changed


 Using spherical harmonics

 Library entry H      S cc-pVTZ-DK           selected for orbital group  1
 Library entry H      P cc-pVTZ-DK           selected for orbital group  1
 Library entry H      D cc-pVTZ-DK           selected for orbital group  1
 Library entry N      S cc-pVTZ-DK           selected for orbital group  2
 Library entry N      P cc-pVTZ-DK           selected for orbital group  2
 Library entry N      D cc-pVTZ-DK           selected for orbital group  2
 Library entry N      F cc-pVTZ-DK           selected for orbital group  2
 Library entry O      S cc-pVTZ-DK           selected for orbital group  3
 Library entry O      P cc-pVTZ-DK           selected for orbital group  3
 Library entry O      D cc-pVTZ-DK           selected for orbital group  3
 Library entry O      F cc-pVTZ-DK           selected for orbital group  3


 PROGRAM * SEWARD (Integral evaluation for generally contracted gaussian basis sets)     Author: Roland Lindh, 1990

 Geometry written to block  1 of record 700


 Point group  Cs  



 ATOMIC COORDINATES

 NR  ATOM    CHARGE       X              Y              Z

   1  H       1.00    0.000000000    1.676763595   -1.938534647
   2  N       7.00    0.000000000   -0.167775049   -1.147623810
   3  O       8.00    0.000000000    0.032779244    1.135568866

 Bond lengths in Bohr (Angstrom)

 1-2  2.006953602  2-3  2.291984036
     ( 1.062034110)     ( 1.212865720)

 Bond angles

  1-2-3  108.18899349

 NUCLEAR CHARGE:                   16
 NUMBER OF PRIMITIVE AOS:         111
 NUMBER OF SYMMETRY AOS:          100
 NUMBER OF CONTRACTIONS:           74   (  50A'  +  24A"  )
 NUMBER OF CORE ORBITALS:           2   (   2A'  +   0A"  )
 NUMBER OF VALENCE ORBITALS:        9   (   7A'  +   2A"  )


 NUCLEAR REPULSION ENERGY   30.21569042

 Eigenvalues of metric

         1 0.250E-02 0.403E-02 0.423E-02 0.857E-02 0.132E-01 0.332E-01 0.429E-01 0.465E-01
         2 0.346E-01 0.466E-01 0.103E+00 0.114E+00 0.238E+00 0.346E+00 0.398E+00 0.452E+00


 Contracted 2-electron integrals neglected if value below      1.0D-22

        1874283. INTEGRALS WRITTEN OUT IN     458 BLOCKS ON RECORD 1290 OF FILE 1


 NUMBER OF SORTED TWO-ELECTRON INTEGRALS:    2006100.     BUFFER LENGTH:  32768
 NUMBER OF SEGMENTS:   1  SEGMENT LENGTH:    2006100      RECORD LENGTH: 524288

 Memory used in sort:       2.56 MW

 SORT1 READ     1874283. AND WROTE     1914195. INTEGRALS IN      6 RECORDS. CPU TIME:     0.04 SEC, REAL TIME:     0.04 SEC
 SORT2 READ     1914195. AND WROTE     2006100. INTEGRALS IN      1 RECORDS. CPU TIME:     0.05 SEC, REAL TIME:     0.06 SEC

 FILE SIZES:   FILE 1:    50.1 MBYTE,  FILE 4:    25.2 MBYTE,   TOTAL:     75.3 MBYTE

 OPERATOR DM      FOR CENTER  0  COORDINATES:    0.000000    0.000000    0.000000


 **********************************************************************************************************************************
 DATASETS  * FILE   NREC   LENGTH (MB)   RECORD NAMES
              1      19       35.89       500      610      700      900      950      970     1000      129      960     1100   
                                          VAR    BASINP    GEOM    SYMINP    ZMAT    AOBASIS   BASIS     P2S    ABASIS      S 
                                         1400     1410     1200     1210     1080     1600     1650     1300     1700   
                                           T        V       H0       H01     AOSYM     SMH    MOLCAS    ERIS     OPER   

 PROGRAMS   *        TOTAL       INT
 CPU TIMES  *         0.64      0.55
 REAL TIME  *         1.15 SEC
 DISK USED  *        75.59 MB      
 **********************************************************************************************************************************


 PROGRAM * RHF-SCF (CLOSED SHELL)       Authors: W. Meyer, H.-J. Werner


 NUMBER OF ELECTRONS:       8+    8-
 CONVERGENCE THRESHOLDS:    1.00E-10 (Density)    1.00E-13 (Energy)
 MAX. NUMBER OF ITERATIONS:      500
 INTERPOLATION TYPE:            DIIS
 INTERPOLATION STEPS:              2 (START)      1 (STEP)
 LEVEL SHIFTS:                  0.00 (CLOSED)  0.00 (OPEN) 



 Orbital guess generated from atomic densities. Full valence occupancy:    9   2

 Molecular orbital dump at record        2100.2

 Initial occupancy:   7   1

 ITERATION    DDIFF          GRAD             ENERGY        2-EL.EN.            DIPOLE MOMENTS         DIIS   ORB.
    1      0.000D+00      0.000D+00      -129.77797951    153.851661    0.00000    0.58627   -1.05531    0    start
    2      0.000D+00      0.137D-01      -129.80471983    155.005530    0.00000    0.61781   -0.21779    1    diag
    3      0.188D-01      0.106D-01      -129.82811106    155.131958    0.00000    0.56261   -0.60792    2    diag
    4      0.920D-02      0.157D-02      -129.82886269    154.860040    0.00000    0.57088   -0.54742    3    diag
    5      0.167D-02      0.522D-03      -129.82898145    154.946953    0.00000    0.57640   -0.54851    4    diag
    6      0.730D-03      0.156D-03      -129.82900116    154.931970    0.00000    0.57692   -0.54419    5    diag
    7      0.284D-03      0.783D-04      -129.82900699    154.934225    0.00000    0.57816   -0.54162    6    diag
    8      0.196D-03      0.256D-04      -129.82900757    154.933505    0.00000    0.57817   -0.54076    7    diag
    9      0.684D-04      0.471D-05      -129.82900760    154.933380    0.00000    0.57812   -0.54060    8    diag
   10      0.134D-04      0.103D-05      -129.82900760    154.933362    0.00000    0.57809   -0.54057    9    orth
   11      0.289D-05      0.201D-06      -129.82900760    154.933357    0.00000    0.57808   -0.54057    9    diag
   12      0.526D-06      0.425D-07      -129.82900760    154.933356    0.00000    0.57808   -0.54057    9    diag
   13      0.116D-06      0.108D-07      -129.82900760    154.933355    0.00000    0.57808   -0.54057    9    diag
   14      0.296D-07      0.193D-08      -129.82900760    154.933355    0.00000    0.57808   -0.54057    9    diag
   15      0.456D-08      0.489D-09      -129.82900760    154.933355    0.00000    0.57808   -0.54057    9    diag
   16      0.109D-08      0.114D-09      -129.82900760    154.933355    0.00000    0.57808   -0.54057    9    diag
   17      0.176D-09      0.312D-10      -129.82900760    154.933355    0.00000    0.57808   -0.54057    9    diag
   18      0.503D-10      0.101D-10      -129.82900760    154.933355    0.00000    0.57808   -0.54057    0    orth

 Final occupancy:   7   1

 !RHF STATE 1.1 Energy               -129.829007596796
 Nuclear energy                        30.21569042
 One-electron energy                 -237.51137564
 Two-electron energy                   77.46667762
 Virial quotient                       -0.99992353
 !RHF STATE 1.1 Dipole moment           0.00000000     0.57807766    -0.54056696
 Dipole moment /Debye                   0.00000000     1.46923062    -1.37389419

 Orbital energies:

         1.1          2.1          3.1          4.1          5.1          6.1          7.1          8.1          9.1
    -20.648578   -15.710009    -1.521820    -0.989663    -0.740595    -0.660572    -0.427788     0.143117     0.369368

         1.2          2.2          3.2
     -0.589985     0.084474     0.613472

 HOMO      7.1    -0.427788 =     -11.6407eV
 LUMO      2.2     0.084474 =       2.2987eV
 LUMO-HOMO         0.512262 =      13.9394eV


 **********************************************************************************************************************************
 DATASETS  * FILE   NREC   LENGTH (MB)   RECORD NAMES
              1      19       35.89       500      610      700      900      950      970     1000      129      960     1100   
                                          VAR    BASINP    GEOM    SYMINP    ZMAT    AOBASIS   BASIS     P2S    ABASIS      S 
                                         1400     1410     1200     1210     1080     1600     1650     1300     1700   
                                           T        V       H0       H01     AOSYM     SMH    MOLCAS    ERIS     OPER   

              2       4        2.85       700     1000      520     2100   
                                         GEOM     BASIS   MCVARS     RHF  

 PROGRAMS   *        TOTAL        HF       INT
 CPU TIMES  *         0.83      0.19      0.55
 REAL TIME  *         1.38 SEC
 DISK USED  *        75.59 MB      
 **********************************************************************************************************************************


 PROGRAM * CCSD (Closed-shell coupled cluster)     Authors: C. Hampel, H.-J. Werner, 1991, M. Deegan, P.J. Knowles, 1992


 Convergence thresholds:  THRVAR = 1.00D-08  THRDEN = 1.00D-12

 CCSD(T)     terms to be evaluated (factor= 1.000)


 Number of core orbitals:           2 (   2   0 )
 Number of closed-shell orbitals:   6 (   5   1 )
 Number of external orbitals:      66 (  43  23 )

 Molecular orbitals read from record     2100.2  Type=RHF/CANONICAL (state 1.1)

 Number of N-1 electron functions:               6
 Number of N-2 electron functions:              21
 Number of singly external CSFs:               238
 Number of doubly external CSFs:             41002
 Total number of CSFs:                       41241

 Length of J-op  integral file:               0.00 MB
 Length of K-op  integral file:               0.25 MB
 Length of 3-ext integral record:             0.00 MB

 Memory could be reduced to 1.65 Mwords without degradation in triples

 Integral transformation finished. Total CPU:   0.02 sec, npass=  1  Memory used:   0.55 MW

 Reference energy:                   -129.82900760

 MP2 singlet pair energy:              -0.27432139
 MP2 triplet pair energy:              -0.16289498
 MP2 correlation energy:               -0.43721637
 MP2 total energy:                   -130.26622396

 SCS-MP2 correlation energy:           -0.43054254   (PS=  1.200000  PT=  0.333333)
 SCS-MP2 total energy:               -130.25955014

 ITER.      SQ.NORM     CORR.ENERGY   TOTAL ENERGY   ENERGY CHANGE        DEN1      VAR(S)    VAR(P)  DIIS     TIME  TIME/IT
   1      1.11928781    -0.44214855  -130.27115615    -0.00493218     0.01112027  0.30D-02  0.31D-02  1  1     0.07     0.04
   2      1.13031409    -0.44236726  -130.27137486    -0.00021872    -0.01243897  0.92D-04  0.52D-03  2  2     0.11     0.04
   3      1.13676114    -0.44276806  -130.27177566    -0.00040080    -0.00303433  0.50D-04  0.52D-04  3  3     0.13     0.04
   4      1.13964573    -0.44279359  -130.27180119    -0.00002553    -0.00098108  0.43D-05  0.92D-05  4  4     0.17     0.04
   5      1.14068730    -0.44282464  -130.27183224    -0.00003105    -0.00021584  0.15D-05  0.17D-05  5  5     0.20     0.04
   6      1.14105862    -0.44280728  -130.27181488     0.00001736    -0.00004234  0.11D-06  0.41D-06  6  6     0.24     0.04
   7      1.14114575    -0.44280921  -130.27181681    -0.00000193    -0.00000204  0.13D-07  0.88D-07  6  1     0.28     0.04
   8      1.14117711    -0.44280914  -130.27181673     0.00000007     0.00000178  0.42D-08  0.11D-07  6  2     0.30     0.04
   9      1.14118542    -0.44280888  -130.27181648     0.00000026    -0.00000226  0.26D-08  0.13D-08  6  3     0.34     0.04
  10      1.14118422    -0.44280941  -130.27181701    -0.00000053     0.00000059  0.50D-09  0.22D-09  6  4     0.37     0.04
  11      1.14118243    -0.44280947  -130.27181707    -0.00000006     0.00000020  0.16D-09  0.24D-10  6  5     0.41     0.04
  12      1.14118098    -0.44280966  -130.27181725    -0.00000019     0.00000045  0.16D-10  0.81D-11  6  6     0.44     0.04
  13      1.14118033    -0.44280966  -130.27181726    -0.00000001     0.00000013  0.71D-11  0.13D-11  6  1     0.47     0.04
  14      1.14117992    -0.44280968  -130.27181728    -0.00000002     0.00000008  0.10D-11  0.45D-12  6  2     0.50     0.04
  15      1.14117976    -0.44280969  -130.27181728    -0.00000000     0.00000001  0.26D-12  0.14D-12  6  3     0.54     0.04
  16      1.14117964    -0.44280969  -130.27181729    -0.00000000     0.00000002  0.79D-14  0.37D-13  6  1     0.58     0.04
  17      1.14117963    -0.44280969  -130.27181729     0.00000000    -0.00000000  0.30D-14  0.26D-14  6  4     0.61     0.04
  18      1.14117962    -0.44280969  -130.27181729    -0.00000000     0.00000000  0.73D-15  0.44D-15  6  5     0.64     0.04
  19      1.14117962    -0.44280969  -130.27181729     0.00000000    -0.00000000  0.14D-15  0.86D-16  6  6     0.68     0.04
  20      1.14117962    -0.44280969  -130.27181729    -0.00000000     0.00000000  0.22D-16  0.21D-16  6  2     0.71     0.04
  21      1.14117962    -0.44280969  -130.27181729    -0.00000000     0.00000000  0.59D-18  0.16D-17  6  4     0.75     0.04
  22      1.14117962    -0.44280969  -130.27181729    -0.00000000     0.00000000  0.94D-19  0.15D-18  6  3     0.78     0.04
  23      1.14117962    -0.44280969  -130.27181729    -0.00000000     0.00000000  0.84D-20  0.15D-19  6  1     0.82     0.04
  24      1.14117962    -0.44280969  -130.27181729     0.00000000     0.00000000  0.45D-20  0.20D-20  6  6     0.85     0.04
  25      1.14117962    -0.44280969  -130.27181729     0.00000000    -0.00000000  0.28D-21  0.46D-21  6  4     0.89     0.04

 Norm of t1 vector:      0.07632340      S-energy:     0.00000000      T1 diagnostic:  0.01557945
                                                                       D1 diagnostic:  0.04311353

 Doubles amplitudes (print threshold =  0.500E-01):

         I         J         SYM. A    SYM. B    A         B      T(IJ, AB)

         6         6         2         2         1         1     -0.14503269


 Total CPU time for triples:      0.23 sec


 RESULTS
 =======

  Reference energy                   -129.829007596797
  CCSD singlet pair energy             -0.303806958873
  CCSD triplet pair energy             -0.139002731908
  CCSD correlation energy              -0.442809690780

  Triples (T) contribution             -0.019978361774
  Total correlation energy             -0.462788052554

  CCSD total energy                  -130.271817287576
  CCSD[T] energy                     -130.292844632741
  CCSD-T energy                      -130.291388896901
 !CCSD(T) total energy               -130.291795649351

 Timing summary (sec):

 STEP                 CPU(USER)    SYS     CPU(TOT)    WALL
 Transformation          0.03      0.01      0.04      0.04
 CCSD iterations         0.86      0.13      0.99      0.99
 Triples                 0.23      0.00      0.23      0.24

 Program statistics:

 Available memory in ccsd:               994999756
 Min. memory needed in ccsd:                154850
 Max. memory used in ccsd:                  184802
 Max. memory used in cckext:                238416 (25 integral passes)



 **********************************************************************************************************************************
 DATASETS  * FILE   NREC   LENGTH (MB)   RECORD NAMES
              1      20       40.28       500      610      700      900      950      970     1000      129      960     1100   
                                          VAR    BASINP    GEOM    SYMINP    ZMAT    AOBASIS   BASIS     P2S    ABASIS      S 
                                         1400     1410     1200     1210     1080     1600     1650     1300     1700     1380   
                                           T        V       H0       H01     AOSYM     SMH    MOLCAS    ERIS     OPER     JKOP   

              2       4        2.85       700     1000      520     2100   
                                         GEOM     BASIS   MCVARS     RHF  

 PROGRAMS   *        TOTAL   CCSD(T)        HF       INT
 CPU TIMES  *         1.98      1.15      0.19      0.55
 REAL TIME  *         2.74 SEC
 DISK USED  *        75.59 MB      
 **********************************************************************************************************************************

 CCSD(T)/cc-pVTZ-DK energy=   -130.291795649351

        CCSD(T)         HF-SCF  
   -130.29179565   -129.82900760
 **********************************************************************************************************************************
 Molpro calculation terminated
 Variable memory released
