
 Primary working directories    : /tmp/r2666/282509.maple
 Secondary working directories  : /tmp/r2666/282509.maple
 Wavefunction directory         : /ddn/home4/r2666/wfu/
 Main file repository           : /tmp/r2666/282509.maple/

 SHA1      : d5ffa45e93fdbca01ffc919aa182cfdae0147319
 NAME      : 2015.1.35
 ARCHNAME  : linux/x86_64
 FC        : /opt/intel/composer_xe_2015.1.133/bin/intel64/ifort
 BLASLIB   : -Wl,-_start-group /opt/intel/mkl/lib/intel64/libmkl_intel_ilp64.a /opt/intel/mkl/lib/intel64/libmkl_intel_thread.a /opt/intel/mkl/lib/intel64/libmkl_core.a -Wl,-_end-group
 id        : olemiss

 Nodes     nprocs
 cn086        1

 Using customized tuning parameters: mindgm=1; mindgv=20; mindgc=4; mindgr=1; noblas=0; minvec=7
 default implementation of scratch files=df  

 ***,hno CCSD(T)/TZ-F12 QFF
 memory, 995, m;
 gthresh,energy=1.d-12,zero=1.d-22,oneint=1.d-22,twoint=1.d-22;
 gthresh,optgrad=1.d-8,optstep=1.d-8;
 nocompress;
 geomtyp=xyz
 bohr
 geometry={
 3
         19        19
 H        0.0000000000        1.6587610590       -1.9277226079
 N        0.0000000000       -0.1518594403       -1.1536160918
 O        0.0000000000        0.0348661713        1.1307491087
 }
 
 basis=vtz-dk
 dkroll=0
   {hf,maxit=500;accu,20;}
 {ccsd(t),nocheck,maxit=250;orbital,IGNORE_ERROR;}

 Variables initialized (889), CPU time= 0.01 sec
 Commands  initialized (702), CPU time= 0.01 sec, 572 directives.
 Default parameters read. Elapsed time= 0.07 sec

 Checking input...
 Passed
1


                                         ***  PROGRAM SYSTEM MOLPRO  ***
                                       Copyright, TTI GmbH Stuttgart, 2015
                                    Version 2015.1 linked Jul  9 2018 13:16:40


 **********************************************************************************************************************************
 LABEL *   hno CCSD(T)/TZ-F12 QFF                                                        
  64 bit serial version                                                                  DATE: 04-Mar-20          TIME: 13:50:47  
 **********************************************************************************************************************************

 SHA1:             d5ffa45e93fdbca01ffc919aa182cfdae0147319
 **********************************************************************************************************************************

 THRESHOLDS:

 ZERO    =  1.00D-22  ONEINT  =  1.00D-22  TWOINT  =  1.00D-22  PREFAC  =  1.00D-14  LOCALI  =  1.00D-09  EORDER  =  1.00D-04
 ENERGY  =  1.00D-12  ETEST   =  0.00D+00  EDENS   =  0.00D+00  THRDEDEF=  1.00D-06  GRADIENT=  1.00D-02  STEP    =  1.00D-03
 ORBITAL =  1.00D-05  CIVEC   =  1.00D-05  COEFF   =  1.00D-04  PRINTCI =  5.00D-02  PUNCHCI =  9.90D+01  OPTGRAD =  3.00D-04
 OPTENERG=  1.00D-06  OPTSTEP =  3.00D-04  THRGRAD =  1.00D-10  COMPRESS=  1.00D-11  VARMIN  =  1.00D-07  VARMAX  =  1.00D-03
 THRDOUB =  0.00D+00  THRDIV  =  1.00D-05  THRRED  =  1.00D-07  THRPSP  =  1.00D+00  THRDC   =  1.00D-10  THRCS   =  1.00D-10
 THRNRM  =  1.00D-08  THREQ   =  0.00D+00  THRDE   =  1.00D+00  THRREF  =  1.00D-05  SPARFAC =  1.00D+00  THRDLP  =  1.00D-07
 THRDIA  =  1.00D-10  THRDLS  =  1.00D-07  THRGPS  =  0.00D+00  THRKEX  =  0.00D+00  THRDIS  =  2.00D-01  THRVAR  =  1.00D-10
 THRLOC  =  1.00D-06  THRGAP  =  1.00D-06  THRLOCT = -1.00D+00  THRGAPT = -1.00D+00  THRORB  =  1.00D-06  THRMLTP =  0.00D+00
 THRCPQCI=  1.00D-10  KEXTA   =  0.00D+00  THRCOARS=  0.00D+00  SYMTOL  =  1.00D-06  GRADTOL =  1.00D-06  THROVL  =  1.00D-08
 THRORTH =  1.00D-08  GRID    =  1.00D-06  GRIDMAX =  1.00D-03  DTMAX   =  0.00D+00  THROCCDE=  1.00D-01  THROCCDE=  1.00D-01



 THRESHOLDS:

 ZERO    =  1.00D-22  ONEINT  =  1.00D-22  TWOINT  =  1.00D-22  PREFAC  =  1.00D-14  LOCALI  =  1.00D-09  EORDER  =  1.00D-04
 ENERGY  =  1.00D-12  ETEST   =  0.00D+00  EDENS   =  0.00D+00  THRDEDEF=  1.00D-06  GRADIENT=  1.00D-02  STEP    =  1.00D-03
 ORBITAL =  1.00D-05  CIVEC   =  1.00D-05  COEFF   =  1.00D-04  PRINTCI =  5.00D-02  PUNCHCI =  9.90D+01  OPTGRAD =  1.00D-08
 OPTENERG=  1.00D-06  OPTSTEP =  1.00D-08  THRGRAD =  1.00D-10  COMPRESS=  1.00D-11  VARMIN  =  1.00D-07  VARMAX  =  1.00D-03
 THRDOUB =  0.00D+00  THRDIV  =  1.00D-05  THRRED  =  1.00D-07  THRPSP  =  1.00D+00  THRDC   =  1.00D-10  THRCS   =  1.00D-10
 THRNRM  =  1.00D-08  THREQ   =  0.00D+00  THRDE   =  1.00D+00  THRREF  =  1.00D-05  SPARFAC =  1.00D+00  THRDLP  =  1.00D-07
 THRDIA  =  1.00D-10  THRDLS  =  1.00D-07  THRGPS  =  0.00D+00  THRKEX  =  0.00D+00  THRDIS  =  2.00D-01  THRVAR  =  1.00D-10
 THRLOC  =  1.00D-06  THRGAP  =  1.00D-06  THRLOCT = -1.00D+00  THRGAPT = -1.00D+00  THRORB  =  1.00D-06  THRMLTP =  0.00D+00
 THRCPQCI=  1.00D-10  KEXTA   =  0.00D+00  THRCOARS=  0.00D+00  SYMTOL  =  1.00D-06  GRADTOL =  1.00D-06  THROVL  =  1.00D-08
 THRORTH =  1.00D-08  GRID    =  1.00D-06  GRIDMAX =  1.00D-03  DTMAX   =  0.00D+00  THROCCDE=  1.00D-01  THROCCDE=  1.00D-01



 Input parameters for SORTINT:

 COMPRESS =    0.000000
 C_FINAL  =    1.000000
 DEBUG    =   -1.000000
 C_SORT1  =    0.000000
 C_SEWARD =    0.000000
 THRESH   =    0.000000
 IO       =  molpro                                                          
 SPRI     =    0.000000
 SETTING GEOMTYP        =    XYZ
 ZUNIT=BOHR
 

 Variable memory set to  995000000 words,  buffer space   230000 words

 SETTING BASIS          =    VTZ-DK
 SETTING DKROLL         =     0.00000000D+00                                  


 Recomputing integrals since basis changed


 Using spherical harmonics

 Library entry H      S cc-pVTZ-DK           selected for orbital group  1
 Library entry H      P cc-pVTZ-DK           selected for orbital group  1
 Library entry H      D cc-pVTZ-DK           selected for orbital group  1
 Library entry N      S cc-pVTZ-DK           selected for orbital group  2
 Library entry N      P cc-pVTZ-DK           selected for orbital group  2
 Library entry N      D cc-pVTZ-DK           selected for orbital group  2
 Library entry N      F cc-pVTZ-DK           selected for orbital group  2
 Library entry O      S cc-pVTZ-DK           selected for orbital group  3
 Library entry O      P cc-pVTZ-DK           selected for orbital group  3
 Library entry O      D cc-pVTZ-DK           selected for orbital group  3
 Library entry O      F cc-pVTZ-DK           selected for orbital group  3


 PROGRAM * SEWARD (Integral evaluation for generally contracted gaussian basis sets)     Author: Roland Lindh, 1990

 Geometry written to block  1 of record 700


 Point group  Cs  



 ATOMIC COORDINATES

 NR  ATOM    CHARGE       X              Y              Z

   1  H       1.00    0.000000000    1.658761059   -1.927722608
   2  N       7.00    0.000000000   -0.151859440   -1.153616092
   3  O       8.00    0.000000000    0.034866171    1.130749109

 Bond lengths in Bohr (Angstrom)

 1-2  1.969159082  2-3  2.291984036
     ( 1.042034111)     ( 1.212865720)

 Bond angles

  1-2-3  108.47547239

 NUCLEAR CHARGE:                   16
 NUMBER OF PRIMITIVE AOS:         111
 NUMBER OF SYMMETRY AOS:          100
 NUMBER OF CONTRACTIONS:           74   (  50A'  +  24A"  )
 NUMBER OF CORE ORBITALS:           2   (   2A'  +   0A"  )
 NUMBER OF VALENCE ORBITALS:        9   (   7A'  +   2A"  )


 NUCLEAR REPULSION ENERGY   30.29803710

 Eigenvalues of metric

         1 0.243E-02 0.394E-02 0.422E-02 0.820E-02 0.128E-01 0.328E-01 0.428E-01 0.463E-01
         2 0.344E-01 0.465E-01 0.102E+00 0.110E+00 0.234E+00 0.338E+00 0.395E+00 0.450E+00


 Contracted 2-electron integrals neglected if value below      1.0D-22

        1874283. INTEGRALS WRITTEN OUT IN     458 BLOCKS ON RECORD 1290 OF FILE 1


 NUMBER OF SORTED TWO-ELECTRON INTEGRALS:    2006100.     BUFFER LENGTH:  32768
 NUMBER OF SEGMENTS:   1  SEGMENT LENGTH:    2006100      RECORD LENGTH: 524288

 Memory used in sort:       2.56 MW

 SORT1 READ     1874283. AND WROTE     1914195. INTEGRALS IN      6 RECORDS. CPU TIME:     0.03 SEC, REAL TIME:     0.04 SEC
 SORT2 READ     1914195. AND WROTE     2006100. INTEGRALS IN      1 RECORDS. CPU TIME:     0.06 SEC, REAL TIME:     0.06 SEC

 FILE SIZES:   FILE 1:    50.1 MBYTE,  FILE 4:    25.2 MBYTE,   TOTAL:     75.3 MBYTE

 OPERATOR DM      FOR CENTER  0  COORDINATES:    0.000000    0.000000    0.000000


 **********************************************************************************************************************************
 DATASETS  * FILE   NREC   LENGTH (MB)   RECORD NAMES
              1      19       35.89       500      610      700      900      950      970     1000      129      960     1100   
                                          VAR    BASINP    GEOM    SYMINP    ZMAT    AOBASIS   BASIS     P2S    ABASIS      S 
                                         1400     1410     1200     1210     1080     1600     1650     1300     1700   
                                           T        V       H0       H01     AOSYM     SMH    MOLCAS    ERIS     OPER   

 PROGRAMS   *        TOTAL       INT
 CPU TIMES  *         0.62      0.52
 REAL TIME  *         1.15 SEC
 DISK USED  *        75.59 MB      
 **********************************************************************************************************************************


 PROGRAM * RHF-SCF (CLOSED SHELL)       Authors: W. Meyer, H.-J. Werner


 NUMBER OF ELECTRONS:       8+    8-
 CONVERGENCE THRESHOLDS:    1.00E-10 (Density)    1.00E-13 (Energy)
 MAX. NUMBER OF ITERATIONS:      500
 INTERPOLATION TYPE:            DIIS
 INTERPOLATION STEPS:              2 (START)      1 (STEP)
 LEVEL SHIFTS:                  0.00 (CLOSED)  0.00 (OPEN) 



 Orbital guess generated from atomic densities. Full valence occupancy:    9   2

 Molecular orbital dump at record        2100.2

 Initial occupancy:   7   1

 ITERATION    DDIFF          GRAD             ENERGY        2-EL.EN.            DIPOLE MOMENTS         DIIS   ORB.
    1      0.000D+00      0.000D+00      -129.77963987    154.011776    0.00000    0.60144   -1.05263    0    start
    2      0.000D+00      0.136D-01      -129.80640530    155.145461    0.00000    0.61964   -0.22698    1    diag
    3      0.186D-01      0.104D-01      -129.82884902    155.276985    0.00000    0.57086   -0.61091    2    diag
    4      0.905D-02      0.157D-02      -129.82959746    155.007622    0.00000    0.57918   -0.55030    3    diag
    5      0.168D-02      0.517D-03      -129.82971224    155.093138    0.00000    0.58449   -0.55138    4    diag
    6      0.721D-03      0.153D-03      -129.82973103    155.078472    0.00000    0.58502   -0.54714    5    diag
    7      0.278D-03      0.770D-04      -129.82973664    155.080650    0.00000    0.58621   -0.54458    6    diag
    8      0.193D-03      0.251D-04      -129.82973720    155.079949    0.00000    0.58622   -0.54374    7    diag
    9      0.671D-04      0.456D-05      -129.82973723    155.079830    0.00000    0.58617   -0.54357    8    diag
   10      0.131D-04      0.998D-06      -129.82973723    155.079813    0.00000    0.58613   -0.54355    9    orth
   11      0.285D-05      0.194D-06      -129.82973723    155.079809    0.00000    0.58613   -0.54355    9    diag
   12      0.510D-06      0.409D-07      -129.82973723    155.079808    0.00000    0.58612   -0.54355    9    diag
   13      0.110D-06      0.103D-07      -129.82973723    155.079808    0.00000    0.58612   -0.54355    9    diag
   14      0.276D-07      0.185D-08      -129.82973723    155.079808    0.00000    0.58612   -0.54355    9    diag
   15      0.421D-08      0.472D-09      -129.82973723    155.079808    0.00000    0.58612   -0.54355    9    diag
   16      0.104D-08      0.113D-09      -129.82973723    155.079808    0.00000    0.58612   -0.54355    9    diag
   17      0.165D-09      0.307D-10      -129.82973723    155.079808    0.00000    0.58612   -0.54355    9    diag
   18      0.470D-10      0.101D-10      -129.82973723    155.079808    0.00000    0.58612   -0.54355    9    diag
   19      0.192D-10      0.212D-11      -129.82973723    155.079808    0.00000    0.58612   -0.54355    9    fixocc
   20      0.507D-11      0.387D-12      -129.82973723    155.079808    0.00000    0.58612   -0.54355    9    orth
   21      0.108D-11      0.128D-12      -129.82973723    155.079808    0.00000    0.58612   -0.54355    9    diag
   22      0.346D-12      0.267D-13      -129.82973723    155.079808    0.00000    0.58612   -0.54355    9    diag
   23      0.727D-13      0.166D-13      -129.82973723    155.079808    0.00000    0.58612   -0.54355    9    diag
   24      0.249D-13      0.164D-13      -129.82973723    155.079808    0.00000    0.58612   -0.54355    9    diag
   25      0.149D-13      0.150D-13      -129.82973723    155.079808    0.00000    0.58612   -0.54355    0    orth

 Final occupancy:   7   1

 !RHF STATE 1.1 Energy               -129.829737227626
 Nuclear energy                        30.29803710
 One-electron energy                 -237.66767819
 Two-electron energy                   77.53990386
 Virial quotient                       -0.99970391
 !RHF STATE 1.1 Dipole moment           0.00000000     0.58612466    -0.54354661
 Dipole moment /Debye                   0.00000000     1.48968272    -1.38146718

 Orbital energies:

         1.1          2.1          3.1          4.1          5.1          6.1          7.1          8.1          9.1
    -20.648238   -15.707219    -1.521884    -0.994861    -0.742759    -0.660597    -0.428744     0.144360     0.369312

         1.2          2.2          3.2
     -0.589633     0.084459     0.613570

 HOMO      7.1    -0.428744 =     -11.6667eV
 LUMO      2.2     0.084459 =       2.2983eV
 LUMO-HOMO         0.513203 =      13.9650eV


 **********************************************************************************************************************************
 DATASETS  * FILE   NREC   LENGTH (MB)   RECORD NAMES
              1      19       35.89       500      610      700      900      950      970     1000      129      960     1100   
                                          VAR    BASINP    GEOM    SYMINP    ZMAT    AOBASIS   BASIS     P2S    ABASIS      S 
                                         1400     1410     1200     1210     1080     1600     1650     1300     1700   
                                           T        V       H0       H01     AOSYM     SMH    MOLCAS    ERIS     OPER   

              2       4        2.85       700     1000      520     2100   
                                         GEOM     BASIS   MCVARS     RHF  

 PROGRAMS   *        TOTAL        HF       INT
 CPU TIMES  *         0.84      0.22      0.52
 REAL TIME  *         1.46 SEC
 DISK USED  *        75.59 MB      
 **********************************************************************************************************************************


 PROGRAM * CCSD (Closed-shell coupled cluster)     Authors: C. Hampel, H.-J. Werner, 1991, M. Deegan, P.J. Knowles, 1992


 Convergence thresholds:  THRVAR = 1.00D-08  THRDEN = 1.00D-12

 CCSD(T)     terms to be evaluated (factor= 1.000)


 Number of core orbitals:           2 (   2   0 )
 Number of closed-shell orbitals:   6 (   5   1 )
 Number of external orbitals:      66 (  43  23 )

 Molecular orbitals read from record     2100.2  Type=RHF/CANONICAL (state 1.1)

 Number of N-1 electron functions:               6
 Number of N-2 electron functions:              21
 Number of singly external CSFs:               238
 Number of doubly external CSFs:             41002
 Total number of CSFs:                       41241

 Length of J-op  integral file:               0.00 MB
 Length of K-op  integral file:               0.25 MB
 Length of 3-ext integral record:             0.00 MB

 Memory could be reduced to 1.65 Mwords without degradation in triples

 Integral transformation finished. Total CPU:   0.01 sec, npass=  1  Memory used:   0.55 MW

 Reference energy:                   -129.82973723

 MP2 singlet pair energy:              -0.27385066
 MP2 triplet pair energy:              -0.16262546
 MP2 correlation energy:               -0.43647612
 MP2 total energy:                   -130.26621335

 SCS-MP2 correlation energy:           -0.42980996   (PS=  1.200000  PT=  0.333333)
 SCS-MP2 total energy:               -130.25954719

 ITER.      SQ.NORM     CORR.ENERGY   TOTAL ENERGY   ENERGY CHANGE        DEN1      VAR(S)    VAR(P)  DIIS     TIME  TIME/IT
   1      1.11861911    -0.44145428  -130.27119150    -0.00497816     0.01090366  0.30D-02  0.30D-02  1  1     0.05     0.04
   2      1.12951591    -0.44168171  -130.27141894    -0.00022743    -0.01233332  0.89D-04  0.51D-03  2  2     0.09     0.04
   3      1.13583726    -0.44206830  -130.27180553    -0.00038659    -0.00298787  0.47D-04  0.52D-04  3  3     0.12     0.04
   4      1.13868136    -0.44209610  -130.27183333    -0.00002780    -0.00096746  0.39D-05  0.90D-05  4  4     0.16     0.04
   5      1.13969067    -0.44212569  -130.27186291    -0.00002959    -0.00020882  0.13D-05  0.17D-05  5  5     0.20     0.04
   6      1.14005146    -0.44210877  -130.27184600     0.00001692    -0.00004120  0.88D-07  0.42D-06  6  6     0.23     0.04
   7      1.14013543    -0.44211109  -130.27184831    -0.00000232    -0.00000177  0.10D-07  0.91D-07  6  1     0.27     0.04
   8      1.14016552    -0.44211106  -130.27184829     0.00000002     0.00000211  0.49D-08  0.11D-07  6  2     0.30     0.04
   9      1.14017324    -0.44211090  -130.27184812     0.00000017    -0.00000237  0.26D-08  0.12D-08  6  3     0.33     0.04
  10      1.14017190    -0.44211140  -130.27184863    -0.00000051     0.00000067  0.49D-09  0.21D-09  6  4     0.37     0.04
  11      1.14017022    -0.44211146  -130.27184869    -0.00000006     0.00000015  0.15D-09  0.23D-10  6  5     0.41     0.04
  12      1.14016885    -0.44211164  -130.27184887    -0.00000018     0.00000043  0.14D-10  0.72D-11  6  6     0.45     0.04
  13      1.14016826    -0.44211165  -130.27184888    -0.00000001     0.00000012  0.62D-11  0.12D-11  6  1     0.48     0.04
  14      1.14016788    -0.44211167  -130.27184890    -0.00000002     0.00000007  0.88D-12  0.43D-12  6  2     0.52     0.04
  15      1.14016774    -0.44211167  -130.27184890    -0.00000000     0.00000001  0.22D-12  0.14D-12  6  3     0.55     0.04
  16      1.14016764    -0.44211167  -130.27184890    -0.00000000     0.00000001  0.24D-13  0.16D-13  6  5     0.58     0.04
  17      1.14016761    -0.44211167  -130.27184890    -0.00000000     0.00000000  0.68D-15  0.20D-14  6  4     0.62     0.04
  18      1.14016761    -0.44211167  -130.27184890     0.00000000    -0.00000000  0.46D-15  0.27D-15  6  1     0.66     0.04
  19      1.14016761    -0.44211167  -130.27184890    -0.00000000     0.00000000  0.50D-16  0.51D-16  6  6     0.70     0.04
  20      1.14016761    -0.44211167  -130.27184890    -0.00000000     0.00000000  0.12D-16  0.13D-16  6  2     0.73     0.04
  21      1.14016760    -0.44211167  -130.27184890    -0.00000000     0.00000000  0.17D-17  0.10D-17  6  5     0.76     0.04
  22      1.14016760    -0.44211167  -130.27184890    -0.00000000     0.00000000  0.97D-19  0.80D-19  6  3     0.79     0.04
  23      1.14016760    -0.44211167  -130.27184890     0.00000000     0.00000000  0.27D-19  0.17D-19  6  4     0.83     0.04
  24      1.14016760    -0.44211167  -130.27184890     0.00000000    -0.00000000  0.41D-20  0.47D-20  6  1     0.88     0.04
  25      1.14016760    -0.44211167  -130.27184890     0.00000000    -0.00000000  0.55D-21  0.78D-21  6  6     0.91     0.04

 Norm of t1 vector:      0.07532202      S-energy:     0.00000000      T1 diagnostic:  0.01537504
                                                                       D1 diagnostic:  0.04307656

 Doubles amplitudes (print threshold =  0.500E-01):

         I         J         SYM. A    SYM. B    A         B      T(IJ, AB)

         6         6         2         2         1         1     -0.14527352


 Total CPU time for triples:      0.22 sec


 RESULTS
 =======

  Reference energy                   -129.829737227626
  CCSD singlet pair energy             -0.303206282188
  CCSD triplet pair energy             -0.138905391766
  CCSD correlation energy              -0.442111673953

  Triples (T) contribution             -0.019852992797
  Total correlation energy             -0.461964666750

  CCSD total energy                  -130.271848901579
  CCSD[T] energy                     -130.292730293515
  CCSD-T energy                      -130.291303083605
 !CCSD(T) total energy               -130.291701894376

 Timing summary (sec):

 STEP                 CPU(USER)    SYS     CPU(TOT)    WALL
 Transformation          0.01      0.02      0.03      0.04
 CCSD iterations         0.91      0.10      1.01      1.00
 Triples                 0.22      0.01      0.23      0.24

 Program statistics:

 Available memory in ccsd:               994999756
 Min. memory needed in ccsd:                154850
 Max. memory used in ccsd:                  184802
 Max. memory used in cckext:                238416 (25 integral passes)



 **********************************************************************************************************************************
 DATASETS  * FILE   NREC   LENGTH (MB)   RECORD NAMES
              1      20       40.28       500      610      700      900      950      970     1000      129      960     1100   
                                          VAR    BASINP    GEOM    SYMINP    ZMAT    AOBASIS   BASIS     P2S    ABASIS      S 
                                         1400     1410     1200     1210     1080     1600     1650     1300     1700     1380   
                                           T        V       H0       H01     AOSYM     SMH    MOLCAS    ERIS     OPER     JKOP   

              2       4        2.85       700     1000      520     2100   
                                         GEOM     BASIS   MCVARS     RHF  

 PROGRAMS   *        TOTAL   CCSD(T)        HF       INT
 CPU TIMES  *         1.99      1.15      0.22      0.52
 REAL TIME  *         2.78 SEC
 DISK USED  *        75.59 MB      
 **********************************************************************************************************************************

 CCSD(T)/cc-pVTZ-DK energy=   -130.291701894376

        CCSD(T)         HF-SCF  
   -130.29170189   -129.82973723
 **********************************************************************************************************************************
 Molpro calculation terminated
 Variable memory released
