
 Primary working directories    : /tmp/r2666/282572.maple
 Secondary working directories  : /tmp/r2666/282572.maple
 Wavefunction directory         : /ddn/home4/r2666/wfu/
 Main file repository           : /tmp/r2666/282572.maple/

 SHA1      : d5ffa45e93fdbca01ffc919aa182cfdae0147319
 NAME      : 2015.1.35
 ARCHNAME  : linux/x86_64
 FC        : /opt/intel/composer_xe_2015.1.133/bin/intel64/ifort
 BLASLIB   : -Wl,-_start-group /opt/intel/mkl/lib/intel64/libmkl_intel_ilp64.a /opt/intel/mkl/lib/intel64/libmkl_intel_thread.a /opt/intel/mkl/lib/intel64/libmkl_core.a -Wl,-_end-group
 id        : olemiss

 Nodes     nprocs
 cn079        1

 Using customized tuning parameters: mindgm=1; mindgv=20; mindgc=4; mindgr=1; noblas=0; minvec=7
 default implementation of scratch files=df  

 ***,hno CCSD(T)/TZ-F12 QFF
 memory, 995, m;
 gthresh,energy=1.d-12,zero=1.d-22,oneint=1.d-22,twoint=1.d-22;
 gthresh,optgrad=1.d-8,optstep=1.d-8;
 nocompress;
 geomtyp=xyz
 bohr
 geometry={
 3
         82        82
 H        0.0000000000        1.6690444555       -1.9321151434
 N        0.0000000000       -0.1631140904       -1.1603878069
 O        0.0000000000        0.0358374249        1.1419133593
 }
 
 basis=vtz-dk
 dkroll=0
   {hf,maxit=500;accu,20;}
 {ccsd(t),nocheck,maxit=250;orbital,IGNORE_ERROR;}

 Variables initialized (889), CPU time= 0.00 sec
 Commands  initialized (702), CPU time= 0.01 sec, 572 directives.
 Default parameters read. Elapsed time= 0.05 sec

 Checking input...
 Passed
1


                                         ***  PROGRAM SYSTEM MOLPRO  ***
                                       Copyright, TTI GmbH Stuttgart, 2015
                                    Version 2015.1 linked Jul  9 2018 13:16:40


 **********************************************************************************************************************************
 LABEL *   hno CCSD(T)/TZ-F12 QFF                                                        
  64 bit serial version                                                                  DATE: 04-Mar-20          TIME: 13:50:58  
 **********************************************************************************************************************************

 SHA1:             d5ffa45e93fdbca01ffc919aa182cfdae0147319
 **********************************************************************************************************************************

 THRESHOLDS:

 ZERO    =  1.00D-22  ONEINT  =  1.00D-22  TWOINT  =  1.00D-22  PREFAC  =  1.00D-14  LOCALI  =  1.00D-09  EORDER  =  1.00D-04
 ENERGY  =  1.00D-12  ETEST   =  0.00D+00  EDENS   =  0.00D+00  THRDEDEF=  1.00D-06  GRADIENT=  1.00D-02  STEP    =  1.00D-03
 ORBITAL =  1.00D-05  CIVEC   =  1.00D-05  COEFF   =  1.00D-04  PRINTCI =  5.00D-02  PUNCHCI =  9.90D+01  OPTGRAD =  3.00D-04
 OPTENERG=  1.00D-06  OPTSTEP =  3.00D-04  THRGRAD =  1.00D-10  COMPRESS=  1.00D-11  VARMIN  =  1.00D-07  VARMAX  =  1.00D-03
 THRDOUB =  0.00D+00  THRDIV  =  1.00D-05  THRRED  =  1.00D-07  THRPSP  =  1.00D+00  THRDC   =  1.00D-10  THRCS   =  1.00D-10
 THRNRM  =  1.00D-08  THREQ   =  0.00D+00  THRDE   =  1.00D+00  THRREF  =  1.00D-05  SPARFAC =  1.00D+00  THRDLP  =  1.00D-07
 THRDIA  =  1.00D-10  THRDLS  =  1.00D-07  THRGPS  =  0.00D+00  THRKEX  =  0.00D+00  THRDIS  =  2.00D-01  THRVAR  =  1.00D-10
 THRLOC  =  1.00D-06  THRGAP  =  1.00D-06  THRLOCT = -1.00D+00  THRGAPT = -1.00D+00  THRORB  =  1.00D-06  THRMLTP =  0.00D+00
 THRCPQCI=  1.00D-10  KEXTA   =  0.00D+00  THRCOARS=  0.00D+00  SYMTOL  =  1.00D-06  GRADTOL =  1.00D-06  THROVL  =  1.00D-08
 THRORTH =  1.00D-08  GRID    =  1.00D-06  GRIDMAX =  1.00D-03  DTMAX   =  0.00D+00  THROCCDE=  1.00D-01  THROCCDE=  1.00D-01



 THRESHOLDS:

 ZERO    =  1.00D-22  ONEINT  =  1.00D-22  TWOINT  =  1.00D-22  PREFAC  =  1.00D-14  LOCALI  =  1.00D-09  EORDER  =  1.00D-04
 ENERGY  =  1.00D-12  ETEST   =  0.00D+00  EDENS   =  0.00D+00  THRDEDEF=  1.00D-06  GRADIENT=  1.00D-02  STEP    =  1.00D-03
 ORBITAL =  1.00D-05  CIVEC   =  1.00D-05  COEFF   =  1.00D-04  PRINTCI =  5.00D-02  PUNCHCI =  9.90D+01  OPTGRAD =  1.00D-08
 OPTENERG=  1.00D-06  OPTSTEP =  1.00D-08  THRGRAD =  1.00D-10  COMPRESS=  1.00D-11  VARMIN  =  1.00D-07  VARMAX  =  1.00D-03
 THRDOUB =  0.00D+00  THRDIV  =  1.00D-05  THRRED  =  1.00D-07  THRPSP  =  1.00D+00  THRDC   =  1.00D-10  THRCS   =  1.00D-10
 THRNRM  =  1.00D-08  THREQ   =  0.00D+00  THRDE   =  1.00D+00  THRREF  =  1.00D-05  SPARFAC =  1.00D+00  THRDLP  =  1.00D-07
 THRDIA  =  1.00D-10  THRDLS  =  1.00D-07  THRGPS  =  0.00D+00  THRKEX  =  0.00D+00  THRDIS  =  2.00D-01  THRVAR  =  1.00D-10
 THRLOC  =  1.00D-06  THRGAP  =  1.00D-06  THRLOCT = -1.00D+00  THRGAPT = -1.00D+00  THRORB  =  1.00D-06  THRMLTP =  0.00D+00
 THRCPQCI=  1.00D-10  KEXTA   =  0.00D+00  THRCOARS=  0.00D+00  SYMTOL  =  1.00D-06  GRADTOL =  1.00D-06  THROVL  =  1.00D-08
 THRORTH =  1.00D-08  GRID    =  1.00D-06  GRIDMAX =  1.00D-03  DTMAX   =  0.00D+00  THROCCDE=  1.00D-01  THROCCDE=  1.00D-01



 Input parameters for SORTINT:

 COMPRESS =    0.000000
 C_FINAL  =    1.000000
 DEBUG    =   -1.000000
 C_SORT1  =    0.000000
 C_SEWARD =    0.000000
 THRESH   =    0.000000
 IO       =  molpro                                                          
 SPRI     =    0.000000
 SETTING GEOMTYP        =    XYZ
 ZUNIT=BOHR
 

 Variable memory set to  995000000 words,  buffer space   230000 words

 SETTING BASIS          =    VTZ-DK
 SETTING DKROLL         =     0.00000000D+00                                  


 Recomputing integrals since basis changed


 Using spherical harmonics

 Library entry H      S cc-pVTZ-DK           selected for orbital group  1
 Library entry H      P cc-pVTZ-DK           selected for orbital group  1
 Library entry H      D cc-pVTZ-DK           selected for orbital group  1
 Library entry N      S cc-pVTZ-DK           selected for orbital group  2
 Library entry N      P cc-pVTZ-DK           selected for orbital group  2
 Library entry N      D cc-pVTZ-DK           selected for orbital group  2
 Library entry N      F cc-pVTZ-DK           selected for orbital group  2
 Library entry O      S cc-pVTZ-DK           selected for orbital group  3
 Library entry O      P cc-pVTZ-DK           selected for orbital group  3
 Library entry O      D cc-pVTZ-DK           selected for orbital group  3
 Library entry O      F cc-pVTZ-DK           selected for orbital group  3


 PROGRAM * SEWARD (Integral evaluation for generally contracted gaussian basis sets)     Author: Roland Lindh, 1990

 Geometry written to block  1 of record 700


 Point group  Cs  



 ATOMIC COORDINATES

 NR  ATOM    CHARGE       X              Y              Z

   1  H       1.00    0.000000000    1.669044455   -1.932115143
   2  N       7.00    0.000000000   -0.163114090   -1.160387807
   3  O       8.00    0.000000000    0.035837425    1.141913359

 Bond lengths in Bohr (Angstrom)

 1-2  1.988056342  2-3  2.310881296
     ( 1.052034110)     ( 1.222865719)

 Bond angles

  1-2-3  107.90251460

 NUCLEAR CHARGE:                   16
 NUMBER OF PRIMITIVE AOS:         111
 NUMBER OF SYMMETRY AOS:          100
 NUMBER OF CONTRACTIONS:           74   (  50A'  +  24A"  )
 NUMBER OF CORE ORBITALS:           2   (   2A'  +   0A"  )
 NUMBER OF VALENCE ORBITALS:        9   (   7A'  +   2A"  )


 NUCLEAR REPULSION ENERGY   30.05242878

 Eigenvalues of metric

         1 0.250E-02 0.401E-02 0.439E-02 0.844E-02 0.130E-01 0.336E-01 0.434E-01 0.465E-01
         2 0.349E-01 0.467E-01 0.103E+00 0.113E+00 0.239E+00 0.343E+00 0.399E+00 0.454E+00


 Contracted 2-electron integrals neglected if value below      1.0D-22

        1874283. INTEGRALS WRITTEN OUT IN     458 BLOCKS ON RECORD 1290 OF FILE 1


 NUMBER OF SORTED TWO-ELECTRON INTEGRALS:    2006100.     BUFFER LENGTH:  32768
 NUMBER OF SEGMENTS:   1  SEGMENT LENGTH:    2006100      RECORD LENGTH: 524288

 Memory used in sort:       2.56 MW

 SORT1 READ     1874283. AND WROTE     1914195. INTEGRALS IN      6 RECORDS. CPU TIME:     0.02 SEC, REAL TIME:     0.04 SEC
 SORT2 READ     1914195. AND WROTE     2006100. INTEGRALS IN      1 RECORDS. CPU TIME:     0.05 SEC, REAL TIME:     0.05 SEC

 FILE SIZES:   FILE 1:    50.1 MBYTE,  FILE 4:    25.2 MBYTE,   TOTAL:     75.3 MBYTE

 OPERATOR DM      FOR CENTER  0  COORDINATES:    0.000000    0.000000    0.000000


 **********************************************************************************************************************************
 DATASETS  * FILE   NREC   LENGTH (MB)   RECORD NAMES
              1      19       35.89       500      610      700      900      950      970     1000      129      960     1100   
                                          VAR    BASINP    GEOM    SYMINP    ZMAT    AOBASIS   BASIS     P2S    ABASIS      S 
                                         1400     1410     1200     1210     1080     1600     1650     1300     1700   
                                           T        V       H0       H01     AOSYM     SMH    MOLCAS    ERIS     OPER   

 PROGRAMS   *        TOTAL       INT
 CPU TIMES  *         0.60      0.50
 REAL TIME  *         1.16 SEC
 DISK USED  *        75.59 MB      
 **********************************************************************************************************************************


 PROGRAM * RHF-SCF (CLOSED SHELL)       Authors: W. Meyer, H.-J. Werner


 NUMBER OF ELECTRONS:       8+    8-
 CONVERGENCE THRESHOLDS:    1.00E-10 (Density)    1.00E-13 (Energy)
 MAX. NUMBER OF ITERATIONS:      500
 INTERPOLATION TYPE:            DIIS
 INTERPOLATION STEPS:              2 (START)      1 (STEP)
 LEVEL SHIFTS:                  0.00 (CLOSED)  0.00 (OPEN) 



 Orbital guess generated from atomic densities. Full valence occupancy:    9   2

 Molecular orbital dump at record        2100.2

 Initial occupancy:   7   1

 ITERATION    DDIFF          GRAD             ENERGY        2-EL.EN.            DIPOLE MOMENTS         DIIS   ORB.
    1      0.000D+00      0.000D+00      -129.77569903    153.567587    0.00000    0.59447   -1.08514    0    start
    2      0.000D+00      0.138D-01      -129.80208161    154.688751    0.00000    0.62556   -0.21396    1    diag
    3      0.191D-01      0.109D-01      -129.82681065    154.839581    0.00000    0.56992   -0.62160    2    diag
    4      0.940D-02      0.158D-02      -129.82757734    154.562450    0.00000    0.57823   -0.55961    3    diag
    5      0.169D-02      0.528D-03      -129.82769775    154.649372    0.00000    0.58361   -0.56047    4    diag
    6      0.736D-03      0.157D-03      -129.82771769    154.634382    0.00000    0.58409   -0.55601    5    diag
    7      0.285D-03      0.798D-04      -129.82772380    154.636489    0.00000    0.58527   -0.55330    6    diag
    8      0.199D-03      0.268D-04      -129.82772447    154.635728    0.00000    0.58528   -0.55237    7    diag
    9      0.735D-04      0.494D-05      -129.82772450    154.635596    0.00000    0.58523   -0.55220    8    diag
   10      0.145D-04      0.105D-05      -129.82772450    154.635578    0.00000    0.58519   -0.55217    9    orth
   11      0.295D-05      0.206D-06      -129.82772450    154.635574    0.00000    0.58518   -0.55217    9    diag
   12      0.530D-06      0.449D-07      -129.82772450    154.635573    0.00000    0.58518   -0.55217    9    diag
   13      0.118D-06      0.117D-07      -129.82772450    154.635573    0.00000    0.58518   -0.55217    9    diag
   14      0.306D-07      0.213D-08      -129.82772450    154.635573    0.00000    0.58518   -0.55217    9    diag
   15      0.450D-08      0.547D-09      -129.82772450    154.635573    0.00000    0.58518   -0.55217    9    diag
   16      0.117D-08      0.141D-09      -129.82772450    154.635573    0.00000    0.58518   -0.55217    9    diag
   17      0.205D-09      0.420D-10      -129.82772450    154.635573    0.00000    0.58518   -0.55217    9    diag
   18      0.702D-10      0.149D-10      -129.82772450    154.635573    0.00000    0.58518   -0.55217    0    orth

 Final occupancy:   7   1

 !RHF STATE 1.1 Energy               -129.827724499360
 Nuclear energy                        30.05242878
 One-electron energy                 -237.19793954
 Two-electron energy                   77.31778627
 Virial quotient                       -1.00007731
 !RHF STATE 1.1 Dipole moment           0.00000000     0.58518124    -0.55216748
 Dipole moment /Debye                   0.00000000     1.48728492    -1.40337781

 Orbital energies:

         1.1          2.1          3.1          4.1          5.1          6.1          7.1          8.1          9.1
    -20.649237   -15.710426    -1.514058    -0.994305    -0.738697    -0.657670    -0.431548     0.143275     0.367737

         1.2          2.2          3.2
     -0.585242     0.080843     0.614565

 HOMO      7.1    -0.431548 =     -11.7430eV
 LUMO      2.2     0.080843 =       2.1999eV
 LUMO-HOMO         0.512391 =      13.9429eV


 **********************************************************************************************************************************
 DATASETS  * FILE   NREC   LENGTH (MB)   RECORD NAMES
              1      19       35.89       500      610      700      900      950      970     1000      129      960     1100   
                                          VAR    BASINP    GEOM    SYMINP    ZMAT    AOBASIS   BASIS     P2S    ABASIS      S 
                                         1400     1410     1200     1210     1080     1600     1650     1300     1700   
                                           T        V       H0       H01     AOSYM     SMH    MOLCAS    ERIS     OPER   

              2       4        2.85       700     1000      520     2100   
                                         GEOM     BASIS   MCVARS     RHF  

 PROGRAMS   *        TOTAL        HF       INT
 CPU TIMES  *         0.79      0.19      0.50
 REAL TIME  *         1.40 SEC
 DISK USED  *        75.59 MB      
 **********************************************************************************************************************************


 PROGRAM * CCSD (Closed-shell coupled cluster)     Authors: C. Hampel, H.-J. Werner, 1991, M. Deegan, P.J. Knowles, 1992


 Convergence thresholds:  THRVAR = 1.00D-08  THRDEN = 1.00D-12

 CCSD(T)     terms to be evaluated (factor= 1.000)


 Number of core orbitals:           2 (   2   0 )
 Number of closed-shell orbitals:   6 (   5   1 )
 Number of external orbitals:      66 (  43  23 )

 Molecular orbitals read from record     2100.2  Type=RHF/CANONICAL (state 1.1)

 Number of N-1 electron functions:               6
 Number of N-2 electron functions:              21
 Number of singly external CSFs:               238
 Number of doubly external CSFs:             41002
 Total number of CSFs:                       41241

 Length of J-op  integral file:               0.00 MB
 Length of K-op  integral file:               0.25 MB
 Length of 3-ext integral record:             0.00 MB

 Memory could be reduced to 1.65 Mwords without degradation in triples

 Integral transformation finished. Total CPU:   0.03 sec, npass=  1  Memory used:   0.55 MW

 Reference energy:                   -129.82772450

 MP2 singlet pair energy:              -0.27515721
 MP2 triplet pair energy:              -0.16346483
 MP2 correlation energy:               -0.43862203
 MP2 total energy:                   -130.26634653

 SCS-MP2 correlation energy:           -0.43190010   (PS=  1.200000  PT=  0.333333)
 SCS-MP2 total energy:               -130.25962460

 ITER.      SQ.NORM     CORR.ENERGY   TOTAL ENERGY   ENERGY CHANGE        DEN1      VAR(S)    VAR(P)  DIIS     TIME  TIME/IT
   1      1.12003870    -0.44318580  -130.27091030    -0.00456377     0.01182407  0.31D-02  0.32D-02  1  1     0.08     0.04
   2      1.13124762    -0.44332944  -130.27105394    -0.00014364    -0.01262994  0.96D-04  0.53D-03  2  2     0.11     0.04
   3      1.13784084    -0.44373808  -130.27146258    -0.00040864    -0.00307987  0.51D-04  0.54D-04  3  3     0.14     0.04
   4      1.14082456    -0.44376604  -130.27149054    -0.00002796    -0.00100649  0.44D-05  0.95D-05  4  4     0.17     0.04
   5      1.14190739    -0.44379826  -130.27152276    -0.00003223    -0.00022428  0.14D-05  0.17D-05  5  5     0.20     0.04
   6      1.14228639    -0.44377985  -130.27150435     0.00001842    -0.00004373  0.97D-07  0.41D-06  6  6     0.24     0.04
   7      1.14237081    -0.44378218  -130.27150668    -0.00000233    -0.00000146  0.11D-07  0.93D-07  6  1     0.28     0.04
   8      1.14240156    -0.44378199  -130.27150649     0.00000019     0.00000198  0.46D-08  0.12D-07  6  2     0.31     0.04
   9      1.14240983    -0.44378177  -130.27150627     0.00000022    -0.00000236  0.27D-08  0.13D-08  6  3     0.34     0.04
  10      1.14240852    -0.44378231  -130.27150681    -0.00000053     0.00000067  0.51D-09  0.23D-09  6  4     0.38     0.04
  11      1.14240678    -0.44378237  -130.27150687    -0.00000006     0.00000015  0.16D-09  0.25D-10  6  5     0.41     0.04
  12      1.14240535    -0.44378256  -130.27150706    -0.00000019     0.00000045  0.15D-10  0.78D-11  6  6     0.45     0.04
  13      1.14240472    -0.44378256  -130.27150706    -0.00000001     0.00000013  0.65D-11  0.13D-11  6  1     0.48     0.04
  14      1.14240431    -0.44378259  -130.27150709    -0.00000002     0.00000008  0.94D-12  0.46D-12  6  2     0.52     0.04
  15      1.14240415    -0.44378259  -130.27150709    -0.00000000     0.00000002  0.25D-12  0.14D-12  6  3     0.54     0.04
  16      1.14240403    -0.44378259  -130.27150709    -0.00000000     0.00000002  0.82D-14  0.36D-13  6  1     0.58     0.04
  17      1.14240402    -0.44378259  -130.27150709     0.00000000    -0.00000000  0.26D-14  0.23D-14  6  4     0.61     0.04
  18      1.14240401    -0.44378259  -130.27150709    -0.00000000     0.00000000  0.68D-15  0.38D-15  6  5     0.65     0.04
  19      1.14240401    -0.44378259  -130.27150709     0.00000000    -0.00000000  0.14D-15  0.77D-16  6  6     0.67     0.04
  20      1.14240401    -0.44378259  -130.27150709    -0.00000000     0.00000000  0.23D-16  0.20D-16  6  2     0.70     0.04
  21      1.14240401    -0.44378259  -130.27150709    -0.00000000     0.00000000  0.65D-18  0.15D-17  6  4     0.73     0.04
  22      1.14240401    -0.44378259  -130.27150709    -0.00000000     0.00000000  0.87D-19  0.15D-18  6  3     0.76     0.04
  23      1.14240401    -0.44378259  -130.27150709    -0.00000000     0.00000000  0.81D-20  0.16D-19  6  1     0.80     0.04
  24      1.14240401    -0.44378259  -130.27150709     0.00000000     0.00000000  0.42D-20  0.22D-20  6  6     0.83     0.04
  25      1.14240401    -0.44378259  -130.27150709     0.00000000     0.00000000  0.50D-21  0.49D-21  6  5     0.87     0.04

 Norm of t1 vector:      0.07731641      S-energy:     0.00000000      T1 diagnostic:  0.01578215
                                                                       D1 diagnostic:  0.04439082

 Doubles amplitudes (print threshold =  0.500E-01):

         I         J         SYM. A    SYM. B    A         B      T(IJ, AB)

         6         6         2         2         1         1     -0.14795546


 Total CPU time for triples:      0.23 sec


 RESULTS
 =======

  Reference energy                   -129.827724499360
  CCSD singlet pair energy             -0.304659483496
  CCSD triplet pair energy             -0.139123109453
  CCSD correlation energy              -0.443782592946

  Triples (T) contribution             -0.020219040749
  Total correlation energy             -0.464001633696

  CCSD total energy                  -130.271507092306
  CCSD[T] energy                     -130.292806661725
  CCSD-T energy                      -130.291313446768
 !CCSD(T) total energy               -130.291726133055

 Timing summary (sec):

 STEP                 CPU(USER)    SYS     CPU(TOT)    WALL
 Transformation          0.03      0.00      0.03      0.04
 CCSD iterations         0.84      0.16      1.00      0.98
 Triples                 0.23      0.00      0.23      0.24

 Program statistics:

 Available memory in ccsd:               994999756
 Min. memory needed in ccsd:                154850
 Max. memory used in ccsd:                  184802
 Max. memory used in cckext:                238416 (25 integral passes)



 **********************************************************************************************************************************
 DATASETS  * FILE   NREC   LENGTH (MB)   RECORD NAMES
              1      20       40.28       500      610      700      900      950      970     1000      129      960     1100   
                                          VAR    BASINP    GEOM    SYMINP    ZMAT    AOBASIS   BASIS     P2S    ABASIS      S 
                                         1400     1410     1200     1210     1080     1600     1650     1300     1700     1380   
                                           T        V       H0       H01     AOSYM     SMH    MOLCAS    ERIS     OPER     JKOP   

              2       4        2.85       700     1000      520     2100   
                                         GEOM     BASIS   MCVARS     RHF  

 PROGRAMS   *        TOTAL   CCSD(T)        HF       INT
 CPU TIMES  *         1.93      1.14      0.19      0.50
 REAL TIME  *         2.75 SEC
 DISK USED  *        75.59 MB      
 **********************************************************************************************************************************

 CCSD(T)/cc-pVTZ-DK energy=   -130.291726133055

        CCSD(T)         HF-SCF  
   -130.29172613   -129.82772450
 **********************************************************************************************************************************
 Molpro calculation terminated
 Variable memory released
