
 Primary working directories    : /tmp/r2666/282558.maple
 Secondary working directories  : /tmp/r2666/282558.maple
 Wavefunction directory         : /ddn/home4/r2666/wfu/
 Main file repository           : /tmp/r2666/282558.maple/

 SHA1      : d5ffa45e93fdbca01ffc919aa182cfdae0147319
 NAME      : 2015.1.35
 ARCHNAME  : linux/x86_64
 FC        : /opt/intel/composer_xe_2015.1.133/bin/intel64/ifort
 BLASLIB   : -Wl,-_start-group /opt/intel/mkl/lib/intel64/libmkl_intel_ilp64.a /opt/intel/mkl/lib/intel64/libmkl_intel_thread.a /opt/intel/mkl/lib/intel64/libmkl_core.a -Wl,-_end-group
 id        : olemiss

 Nodes     nprocs
 cn083        1

 Using customized tuning parameters: mindgm=1; mindgv=20; mindgc=4; mindgr=1; noblas=0; minvec=7
 default implementation of scratch files=df  

 ***,hno CCSD(T)/TZ-F12 QFF
 memory, 995, m;
 gthresh,energy=1.d-12,zero=1.d-22,oneint=1.d-22,twoint=1.d-22;
 gthresh,optgrad=1.d-8,optstep=1.d-8;
 nocompress;
 geomtyp=xyz
 bohr
 geometry={
 3
         68        68
 H        0.0000000000        1.6674498676       -1.9398038131
 N        0.0000000000       -0.1539508152       -1.1430180377
 O        0.0000000000        0.0282687377        1.1322322598
 }
 
 basis=vtz-dk
 dkroll=0
   {hf,maxit=500;accu,20;}
 {ccsd(t),nocheck,maxit=250;orbital,IGNORE_ERROR;}

 Variables initialized (889), CPU time= 0.01 sec
 Commands  initialized (702), CPU time= 0.01 sec, 572 directives.
 Default parameters read. Elapsed time= 0.04 sec

 Checking input...
 Passed
1


                                         ***  PROGRAM SYSTEM MOLPRO  ***
                                       Copyright, TTI GmbH Stuttgart, 2015
                                    Version 2015.1 linked Jul  9 2018 13:16:40


 **********************************************************************************************************************************
 LABEL *   hno CCSD(T)/TZ-F12 QFF                                                        
  64 bit serial version                                                                  DATE: 04-Mar-20          TIME: 13:50:56  
 **********************************************************************************************************************************

 SHA1:             d5ffa45e93fdbca01ffc919aa182cfdae0147319
 **********************************************************************************************************************************

 THRESHOLDS:

 ZERO    =  1.00D-22  ONEINT  =  1.00D-22  TWOINT  =  1.00D-22  PREFAC  =  1.00D-14  LOCALI  =  1.00D-09  EORDER  =  1.00D-04
 ENERGY  =  1.00D-12  ETEST   =  0.00D+00  EDENS   =  0.00D+00  THRDEDEF=  1.00D-06  GRADIENT=  1.00D-02  STEP    =  1.00D-03
 ORBITAL =  1.00D-05  CIVEC   =  1.00D-05  COEFF   =  1.00D-04  PRINTCI =  5.00D-02  PUNCHCI =  9.90D+01  OPTGRAD =  3.00D-04
 OPTENERG=  1.00D-06  OPTSTEP =  3.00D-04  THRGRAD =  1.00D-10  COMPRESS=  1.00D-11  VARMIN  =  1.00D-07  VARMAX  =  1.00D-03
 THRDOUB =  0.00D+00  THRDIV  =  1.00D-05  THRRED  =  1.00D-07  THRPSP  =  1.00D+00  THRDC   =  1.00D-10  THRCS   =  1.00D-10
 THRNRM  =  1.00D-08  THREQ   =  0.00D+00  THRDE   =  1.00D+00  THRREF  =  1.00D-05  SPARFAC =  1.00D+00  THRDLP  =  1.00D-07
 THRDIA  =  1.00D-10  THRDLS  =  1.00D-07  THRGPS  =  0.00D+00  THRKEX  =  0.00D+00  THRDIS  =  2.00D-01  THRVAR  =  1.00D-10
 THRLOC  =  1.00D-06  THRGAP  =  1.00D-06  THRLOCT = -1.00D+00  THRGAPT = -1.00D+00  THRORB  =  1.00D-06  THRMLTP =  0.00D+00
 THRCPQCI=  1.00D-10  KEXTA   =  0.00D+00  THRCOARS=  0.00D+00  SYMTOL  =  1.00D-06  GRADTOL =  1.00D-06  THROVL  =  1.00D-08
 THRORTH =  1.00D-08  GRID    =  1.00D-06  GRIDMAX =  1.00D-03  DTMAX   =  0.00D+00  THROCCDE=  1.00D-01  THROCCDE=  1.00D-01



 THRESHOLDS:

 ZERO    =  1.00D-22  ONEINT  =  1.00D-22  TWOINT  =  1.00D-22  PREFAC  =  1.00D-14  LOCALI  =  1.00D-09  EORDER  =  1.00D-04
 ENERGY  =  1.00D-12  ETEST   =  0.00D+00  EDENS   =  0.00D+00  THRDEDEF=  1.00D-06  GRADIENT=  1.00D-02  STEP    =  1.00D-03
 ORBITAL =  1.00D-05  CIVEC   =  1.00D-05  COEFF   =  1.00D-04  PRINTCI =  5.00D-02  PUNCHCI =  9.90D+01  OPTGRAD =  1.00D-08
 OPTENERG=  1.00D-06  OPTSTEP =  1.00D-08  THRGRAD =  1.00D-10  COMPRESS=  1.00D-11  VARMIN  =  1.00D-07  VARMAX  =  1.00D-03
 THRDOUB =  0.00D+00  THRDIV  =  1.00D-05  THRRED  =  1.00D-07  THRPSP  =  1.00D+00  THRDC   =  1.00D-10  THRCS   =  1.00D-10
 THRNRM  =  1.00D-08  THREQ   =  0.00D+00  THRDE   =  1.00D+00  THRREF  =  1.00D-05  SPARFAC =  1.00D+00  THRDLP  =  1.00D-07
 THRDIA  =  1.00D-10  THRDLS  =  1.00D-07  THRGPS  =  0.00D+00  THRKEX  =  0.00D+00  THRDIS  =  2.00D-01  THRVAR  =  1.00D-10
 THRLOC  =  1.00D-06  THRGAP  =  1.00D-06  THRLOCT = -1.00D+00  THRGAPT = -1.00D+00  THRORB  =  1.00D-06  THRMLTP =  0.00D+00
 THRCPQCI=  1.00D-10  KEXTA   =  0.00D+00  THRCOARS=  0.00D+00  SYMTOL  =  1.00D-06  GRADTOL =  1.00D-06  THROVL  =  1.00D-08
 THRORTH =  1.00D-08  GRID    =  1.00D-06  GRIDMAX =  1.00D-03  DTMAX   =  0.00D+00  THROCCDE=  1.00D-01  THROCCDE=  1.00D-01



 Input parameters for SORTINT:

 COMPRESS =    0.000000
 C_FINAL  =    1.000000
 DEBUG    =   -1.000000
 C_SORT1  =    0.000000
 C_SEWARD =    0.000000
 THRESH   =    0.000000
 IO       =  molpro                                                          
 SPRI     =    0.000000
 SETTING GEOMTYP        =    XYZ
 ZUNIT=BOHR
 

 Variable memory set to  995000000 words,  buffer space   230000 words

 SETTING BASIS          =    VTZ-DK
 SETTING DKROLL         =     0.00000000D+00                                  


 Recomputing integrals since basis changed


 Using spherical harmonics

 Library entry H      S cc-pVTZ-DK           selected for orbital group  1
 Library entry H      P cc-pVTZ-DK           selected for orbital group  1
 Library entry H      D cc-pVTZ-DK           selected for orbital group  1
 Library entry N      S cc-pVTZ-DK           selected for orbital group  2
 Library entry N      P cc-pVTZ-DK           selected for orbital group  2
 Library entry N      D cc-pVTZ-DK           selected for orbital group  2
 Library entry N      F cc-pVTZ-DK           selected for orbital group  2
 Library entry O      S cc-pVTZ-DK           selected for orbital group  3
 Library entry O      P cc-pVTZ-DK           selected for orbital group  3
 Library entry O      D cc-pVTZ-DK           selected for orbital group  3
 Library entry O      F cc-pVTZ-DK           selected for orbital group  3


 PROGRAM * SEWARD (Integral evaluation for generally contracted gaussian basis sets)     Author: Roland Lindh, 1990

 Geometry written to block  1 of record 700


 Point group  Cs  



 ATOMIC COORDINATES

 NR  ATOM    CHARGE       X              Y              Z

   1  H       1.00    0.000000000    1.667449868   -1.939803813
   2  N       7.00    0.000000000   -0.153950815   -1.143018038
   3  O       8.00    0.000000000    0.028268738    1.132232260

 Bond lengths in Bohr (Angstrom)

 1-2  1.988056342  2-3  2.282535406
     ( 1.052034110)     ( 1.207865720)

 Bond angles

  1-2-3  109.04843018

 NUCLEAR CHARGE:                   16
 NUMBER OF PRIMITIVE AOS:         111
 NUMBER OF SYMMETRY AOS:          100
 NUMBER OF CONTRACTIONS:           74   (  50A'  +  24A"  )
 NUMBER OF CORE ORBITALS:           2   (   2A'  +   0A"  )
 NUMBER OF VALENCE ORBITALS:        9   (   7A'  +   2A"  )


 NUCLEAR REPULSION ENERGY   30.35267853

 Eigenvalues of metric

         1 0.244E-02 0.397E-02 0.414E-02 0.838E-02 0.130E-01 0.327E-01 0.426E-01 0.463E-01
         2 0.343E-01 0.465E-01 0.102E+00 0.111E+00 0.234E+00 0.342E+00 0.395E+00 0.450E+00


 Contracted 2-electron integrals neglected if value below      1.0D-22

        1874283. INTEGRALS WRITTEN OUT IN     458 BLOCKS ON RECORD 1290 OF FILE 1


 NUMBER OF SORTED TWO-ELECTRON INTEGRALS:    2006100.     BUFFER LENGTH:  32768
 NUMBER OF SEGMENTS:   1  SEGMENT LENGTH:    2006100      RECORD LENGTH: 524288

 Memory used in sort:       2.56 MW

 SORT1 READ     1874283. AND WROTE     1914195. INTEGRALS IN      6 RECORDS. CPU TIME:     0.04 SEC, REAL TIME:     0.05 SEC
 SORT2 READ     1914195. AND WROTE     2006100. INTEGRALS IN      1 RECORDS. CPU TIME:     0.04 SEC, REAL TIME:     0.06 SEC

 FILE SIZES:   FILE 1:    50.1 MBYTE,  FILE 4:    25.2 MBYTE,   TOTAL:     75.3 MBYTE

 OPERATOR DM      FOR CENTER  0  COORDINATES:    0.000000    0.000000    0.000000


 **********************************************************************************************************************************
 DATASETS  * FILE   NREC   LENGTH (MB)   RECORD NAMES
              1      19       35.89       500      610      700      900      950      970     1000      129      960     1100   
                                          VAR    BASINP    GEOM    SYMINP    ZMAT    AOBASIS   BASIS     P2S    ABASIS      S 
                                         1400     1410     1200     1210     1080     1600     1650     1300     1700   
                                           T        V       H0       H01     AOSYM     SMH    MOLCAS    ERIS     OPER   

 PROGRAMS   *        TOTAL       INT
 CPU TIMES  *         0.63      0.54
 REAL TIME  *         1.15 SEC
 DISK USED  *        75.59 MB      
 **********************************************************************************************************************************


 PROGRAM * RHF-SCF (CLOSED SHELL)       Authors: W. Meyer, H.-J. Werner


 NUMBER OF ELECTRONS:       8+    8-
 CONVERGENCE THRESHOLDS:    1.00E-10 (Density)    1.00E-13 (Energy)
 MAX. NUMBER OF ITERATIONS:      500
 INTERPOLATION TYPE:            DIIS
 INTERPOLATION STEPS:              2 (START)      1 (STEP)
 LEVEL SHIFTS:                  0.00 (CLOSED)  0.00 (OPEN) 



 Orbital guess generated from atomic densities. Full valence occupancy:    9   2

 Molecular orbital dump at record        2100.2

 Initial occupancy:   7   1

 ITERATION    DDIFF          GRAD             ENERGY        2-EL.EN.            DIPOLE MOMENTS         DIIS   ORB.
    1      0.000D+00      0.000D+00      -129.78034598    154.101510    0.00000    0.59809   -1.03991    0    start
    2      0.000D+00      0.135D-01      -129.80724296    155.257077    0.00000    0.61508   -0.22829    1    diag
    3      0.185D-01      0.103D-01      -129.82926198    155.375347    0.00000    0.56711   -0.60531    2    diag
    4      0.898D-02      0.157D-02      -129.83000427    155.107843    0.00000    0.57516   -0.54537    3    diag
    5      0.167D-02      0.515D-03      -129.83011899    155.193842    0.00000    0.58062   -0.54662    4    diag
    6      0.720D-03      0.153D-03      -129.83013782    155.179123    0.00000    0.58119   -0.54244    5    diag
    7      0.278D-03      0.765D-04      -129.83014333    155.181396    0.00000    0.58242   -0.53995    6    diag
    8      0.192D-03      0.246D-04      -129.83014386    155.180715    0.00000    0.58244   -0.53914    7    diag
    9      0.650D-04      0.450D-05      -129.83014388    155.180597    0.00000    0.58238   -0.53898    8    diag
   10      0.127D-04      0.998D-06      -129.83014388    155.180579    0.00000    0.58235   -0.53896    9    orth
   11      0.285D-05      0.195D-06      -129.83014388    155.180575    0.00000    0.58234   -0.53896    9    diag
   12      0.515D-06      0.404D-07      -129.83014388    155.180573    0.00000    0.58234   -0.53896    9    diag
   13      0.111D-06      0.101D-07      -129.83014388    155.180573    0.00000    0.58234   -0.53896    9    diag
   14      0.278D-07      0.182D-08      -129.83014388    155.180573    0.00000    0.58234   -0.53896    9    diag
   15      0.439D-08      0.465D-09      -129.83014388    155.180573    0.00000    0.58234   -0.53896    9    diag
   16      0.105D-08      0.111D-09      -129.83014388    155.180573    0.00000    0.58234   -0.53896    9    diag
   17      0.177D-09      0.300D-10      -129.83014388    155.180573    0.00000    0.58234   -0.53896    9    diag
   18      0.509D-10      0.972D-11      -129.83014388    155.180573    0.00000    0.58234   -0.53896    9    diag
   19      0.214D-10      0.194D-11      -129.83014388    155.180573    0.00000    0.58234   -0.53896    0    orth

 Final occupancy:   7   1

 !RHF STATE 1.1 Energy               -129.830143878679
 Nuclear energy                        30.35267853
 One-electron energy                 -237.77310889
 Two-electron energy                   77.59028648
 Virial quotient                       -0.99969359
 !RHF STATE 1.1 Dipole moment           0.00000000     0.58234082    -0.53895562
 Dipole moment /Debye                   0.00000000     1.48006578    -1.36979882

 Orbital energies:

         1.1          2.1          3.1          4.1          5.1          6.1          7.1          8.1          9.1
    -20.648092   -15.707592    -1.525531    -0.991469    -0.743156    -0.662134    -0.426244     0.143887     0.370085

         1.2          2.2          3.2
     -0.592050     0.086259     0.613045

 HOMO      7.1    -0.426244 =     -11.5987eV
 LUMO      2.2     0.086259 =       2.3472eV
 LUMO-HOMO         0.512503 =      13.9459eV


 **********************************************************************************************************************************
 DATASETS  * FILE   NREC   LENGTH (MB)   RECORD NAMES
              1      19       35.89       500      610      700      900      950      970     1000      129      960     1100   
                                          VAR    BASINP    GEOM    SYMINP    ZMAT    AOBASIS   BASIS     P2S    ABASIS      S 
                                         1400     1410     1200     1210     1080     1600     1650     1300     1700   
                                           T        V       H0       H01     AOSYM     SMH    MOLCAS    ERIS     OPER   

              2       4        2.85       700     1000      520     2100   
                                         GEOM     BASIS   MCVARS     RHF  

 PROGRAMS   *        TOTAL        HF       INT
 CPU TIMES  *         0.82      0.19      0.54
 REAL TIME  *         1.42 SEC
 DISK USED  *        75.59 MB      
 **********************************************************************************************************************************


 PROGRAM * CCSD (Closed-shell coupled cluster)     Authors: C. Hampel, H.-J. Werner, 1991, M. Deegan, P.J. Knowles, 1992


 Convergence thresholds:  THRVAR = 1.00D-08  THRDEN = 1.00D-12

 CCSD(T)     terms to be evaluated (factor= 1.000)


 Number of core orbitals:           2 (   2   0 )
 Number of closed-shell orbitals:   6 (   5   1 )
 Number of external orbitals:      66 (  43  23 )

 Molecular orbitals read from record     2100.2  Type=RHF/CANONICAL (state 1.1)

 Number of N-1 electron functions:               6
 Number of N-2 electron functions:              21
 Number of singly external CSFs:               238
 Number of doubly external CSFs:             41002
 Total number of CSFs:                       41241

 Length of J-op  integral file:               0.00 MB
 Length of K-op  integral file:               0.25 MB
 Length of 3-ext integral record:             0.00 MB

 Memory could be reduced to 1.65 Mwords without degradation in triples

 Integral transformation finished. Total CPU:   0.02 sec, npass=  1  Memory used:   0.55 MW

 Reference energy:                   -129.83014388

 MP2 singlet pair energy:              -0.27355250
 MP2 triplet pair energy:              -0.16241321
 MP2 correlation energy:               -0.43596572
 MP2 total energy:                   -130.26610960

 SCS-MP2 correlation energy:           -0.42932012   (PS=  1.200000  PT=  0.333333)
 SCS-MP2 total energy:               -130.25946400

 ITER.      SQ.NORM     CORR.ENERGY   TOTAL ENERGY   ENERGY CHANGE        DEN1      VAR(S)    VAR(P)  DIIS     TIME  TIME/IT
   1      1.11842342    -0.44111322  -130.27125710    -0.00514750     0.01062457  0.29D-02  0.30D-02  1  1     0.05     0.04
   2      1.12927089    -0.44137202  -130.27151590    -0.00025880    -0.01227173  0.88D-04  0.50D-03  2  2     0.09     0.04
   3      1.13556175    -0.44175966  -130.27190354    -0.00038764    -0.00297795  0.48D-04  0.51D-04  3  3     0.13     0.04
   4      1.13837459    -0.44178536  -130.27192924    -0.00002570    -0.00095985  0.40D-05  0.90D-05  4  4     0.17     0.04
   5      1.13938035    -0.44181494  -130.27195882    -0.00002958    -0.00020808  0.14D-05  0.17D-05  5  5     0.21     0.04
   6      1.13974376    -0.44179836  -130.27194224     0.00001659    -0.00004113  0.97D-07  0.42D-06  6  6     0.25     0.04
   7      1.13983110    -0.44180038  -130.27194426    -0.00000202    -0.00000221  0.12D-07  0.90D-07  6  1     0.28     0.04
   8      1.13986203    -0.44180042  -130.27194430    -0.00000005     0.00000191  0.46D-08  0.11D-07  6  2     0.31     0.04
   9      1.13987004    -0.44180020  -130.27194408     0.00000022    -0.00000230  0.26D-08  0.12D-08  6  3     0.36     0.04
  10      1.13986877    -0.44180072  -130.27194460    -0.00000052     0.00000061  0.51D-09  0.21D-09  6  4     0.40     0.04
  11      1.13986699    -0.44180078  -130.27194466    -0.00000006     0.00000020  0.15D-09  0.24D-10  6  5     0.43     0.04
  12      1.13986557    -0.44180096  -130.27194484    -0.00000018     0.00000044  0.16D-10  0.79D-11  6  6     0.48     0.04
  13      1.13986494    -0.44180097  -130.27194485    -0.00000001     0.00000013  0.69D-11  0.13D-11  6  1     0.51     0.04
  14      1.13986454    -0.44180099  -130.27194487    -0.00000002     0.00000008  0.96D-12  0.45D-12  6  2     0.55     0.04
  15      1.13986439    -0.44180099  -130.27194487    -0.00000000     0.00000001  0.24D-12  0.15D-12  6  3     0.59     0.04
  16      1.13986429    -0.44180099  -130.27194487    -0.00000000     0.00000001  0.27D-13  0.17D-13  6  5     0.64     0.04
  17      1.13986426    -0.44180100  -130.27194488    -0.00000000     0.00000000  0.77D-15  0.22D-14  6  4     0.67     0.04
  18      1.13986426    -0.44180100  -130.27194488     0.00000000    -0.00000000  0.50D-15  0.31D-15  6  1     0.72     0.04
  19      1.13986425    -0.44180100  -130.27194488    -0.00000000     0.00000000  0.51D-16  0.56D-16  6  6     0.75     0.04
  20      1.13986425    -0.44180100  -130.27194488    -0.00000000     0.00000000  0.11D-16  0.14D-16  6  2     0.79     0.04
  21      1.13986425    -0.44180100  -130.27194488    -0.00000000     0.00000000  0.19D-17  0.11D-17  6  5     0.83     0.04
  22      1.13986425    -0.44180100  -130.27194488    -0.00000000     0.00000000  0.11D-18  0.83D-19  6  3     0.88     0.04
  23      1.13986425    -0.44180100  -130.27194488     0.00000000    -0.00000000  0.30D-19  0.17D-19  6  4     0.91     0.04
  24      1.13986425    -0.44180100  -130.27194488     0.00000000    -0.00000000  0.44D-20  0.48D-20  6  1     0.95     0.04
  25      1.13986425    -0.44180100  -130.27194488     0.00000000    -0.00000000  0.56D-21  0.84D-21  6  6     0.99     0.04

 Norm of t1 vector:      0.07524815      S-energy:     0.00000000      T1 diagnostic:  0.01535996
                                                                       D1 diagnostic:  0.04250978

 Doubles amplitudes (print threshold =  0.500E-01):

         I         J         SYM. A    SYM. B    A         B      T(IJ, AB)

         6         6         2         2         1         1     -0.14376978


 Total CPU time for triples:      0.23 sec


 RESULTS
 =======

  Reference energy                   -129.830143878679
  CCSD singlet pair energy             -0.302931341718
  CCSD triplet pair energy             -0.138869655619
  CCSD correlation energy              -0.441800997337

  Triples (T) contribution             -0.019770510578
  Total correlation energy             -0.461571507915

  CCSD total energy                  -130.271944876016
  CCSD[T] energy                     -130.292736741552
  CCSD-T energy                      -130.291316872336
 !CCSD(T) total energy               -130.291715386594

 Timing summary (sec):

 STEP                 CPU(USER)    SYS     CPU(TOT)    WALL
 Transformation          0.02      0.02      0.04      0.04
 CCSD iterations         0.98      0.08      1.06      1.06
 Triples                 0.23      0.02      0.25      0.25

 Program statistics:

 Available memory in ccsd:               994999756
 Min. memory needed in ccsd:                154850
 Max. memory used in ccsd:                  184802
 Max. memory used in cckext:                238416 (25 integral passes)



 **********************************************************************************************************************************
 DATASETS  * FILE   NREC   LENGTH (MB)   RECORD NAMES
              1      20       40.28       500      610      700      900      950      970     1000      129      960     1100   
                                          VAR    BASINP    GEOM    SYMINP    ZMAT    AOBASIS   BASIS     P2S    ABASIS      S 
                                         1400     1410     1200     1210     1080     1600     1650     1300     1700     1380   
                                           T        V       H0       H01     AOSYM     SMH    MOLCAS    ERIS     OPER     JKOP   

              2       4        2.85       700     1000      520     2100   
                                         GEOM     BASIS   MCVARS     RHF  

 PROGRAMS   *        TOTAL   CCSD(T)        HF       INT
 CPU TIMES  *         2.08      1.24      0.19      0.54
 REAL TIME  *         2.80 SEC
 DISK USED  *        75.59 MB      
 **********************************************************************************************************************************

 CCSD(T)/cc-pVTZ-DK energy=   -130.291715386594

        CCSD(T)         HF-SCF  
   -130.29171539   -129.83014388
 **********************************************************************************************************************************
 Molpro calculation terminated
 Variable memory released
