
 Primary working directories    : /tmp/r2666/282559.maple
 Secondary working directories  : /tmp/r2666/282559.maple
 Wavefunction directory         : /ddn/home4/r2666/wfu/
 Main file repository           : /tmp/r2666/282559.maple/

 SHA1      : d5ffa45e93fdbca01ffc919aa182cfdae0147319
 NAME      : 2015.1.35
 ARCHNAME  : linux/x86_64
 FC        : /opt/intel/composer_xe_2015.1.133/bin/intel64/ifort
 BLASLIB   : -Wl,-_start-group /opt/intel/mkl/lib/intel64/libmkl_intel_ilp64.a /opt/intel/mkl/lib/intel64/libmkl_intel_thread.a /opt/intel/mkl/lib/intel64/libmkl_core.a -Wl,-_end-group
 id        : olemiss

 Nodes     nprocs
 cn074        1

 Using customized tuning parameters: mindgm=1; mindgv=20; mindgc=4; mindgr=1; noblas=0; minvec=7
 default implementation of scratch files=df  

 ***,hno CCSD(T)/TZ-F12 QFF
 memory, 995, m;
 gthresh,energy=1.d-12,zero=1.d-22,oneint=1.d-22,twoint=1.d-22;
 gthresh,optgrad=1.d-8,optstep=1.d-8;
 nocompress;
 geomtyp=xyz
 bohr
 geometry={
 3
         69        69
 H        0.0000000000        1.6676328082       -1.9433277838
 N        0.0000000000       -0.1515336872       -1.1414541771
 O        0.0000000000        0.0256686690        1.1341923699
 }
 
 basis=vtz-dk
 dkroll=0
   {hf,maxit=500;accu,20;}
 {ccsd(t),nocheck,maxit=250;orbital,IGNORE_ERROR;}

 Variables initialized (889), CPU time= 0.00 sec
 Commands  initialized (702), CPU time= 0.02 sec, 572 directives.
 Default parameters read. Elapsed time= 0.05 sec

 Checking input...
 Passed
1


                                         ***  PROGRAM SYSTEM MOLPRO  ***
                                       Copyright, TTI GmbH Stuttgart, 2015
                                    Version 2015.1 linked Jul  9 2018 13:16:40


 **********************************************************************************************************************************
 LABEL *   hno CCSD(T)/TZ-F12 QFF                                                        
  64 bit serial version                                                                  DATE: 04-Mar-20          TIME: 13:50:56  
 **********************************************************************************************************************************

 SHA1:             d5ffa45e93fdbca01ffc919aa182cfdae0147319
 **********************************************************************************************************************************

 THRESHOLDS:

 ZERO    =  1.00D-22  ONEINT  =  1.00D-22  TWOINT  =  1.00D-22  PREFAC  =  1.00D-14  LOCALI  =  1.00D-09  EORDER  =  1.00D-04
 ENERGY  =  1.00D-12  ETEST   =  0.00D+00  EDENS   =  0.00D+00  THRDEDEF=  1.00D-06  GRADIENT=  1.00D-02  STEP    =  1.00D-03
 ORBITAL =  1.00D-05  CIVEC   =  1.00D-05  COEFF   =  1.00D-04  PRINTCI =  5.00D-02  PUNCHCI =  9.90D+01  OPTGRAD =  3.00D-04
 OPTENERG=  1.00D-06  OPTSTEP =  3.00D-04  THRGRAD =  1.00D-10  COMPRESS=  1.00D-11  VARMIN  =  1.00D-07  VARMAX  =  1.00D-03
 THRDOUB =  0.00D+00  THRDIV  =  1.00D-05  THRRED  =  1.00D-07  THRPSP  =  1.00D+00  THRDC   =  1.00D-10  THRCS   =  1.00D-10
 THRNRM  =  1.00D-08  THREQ   =  0.00D+00  THRDE   =  1.00D+00  THRREF  =  1.00D-05  SPARFAC =  1.00D+00  THRDLP  =  1.00D-07
 THRDIA  =  1.00D-10  THRDLS  =  1.00D-07  THRGPS  =  0.00D+00  THRKEX  =  0.00D+00  THRDIS  =  2.00D-01  THRVAR  =  1.00D-10
 THRLOC  =  1.00D-06  THRGAP  =  1.00D-06  THRLOCT = -1.00D+00  THRGAPT = -1.00D+00  THRORB  =  1.00D-06  THRMLTP =  0.00D+00
 THRCPQCI=  1.00D-10  KEXTA   =  0.00D+00  THRCOARS=  0.00D+00  SYMTOL  =  1.00D-06  GRADTOL =  1.00D-06  THROVL  =  1.00D-08
 THRORTH =  1.00D-08  GRID    =  1.00D-06  GRIDMAX =  1.00D-03  DTMAX   =  0.00D+00  THROCCDE=  1.00D-01  THROCCDE=  1.00D-01



 THRESHOLDS:

 ZERO    =  1.00D-22  ONEINT  =  1.00D-22  TWOINT  =  1.00D-22  PREFAC  =  1.00D-14  LOCALI  =  1.00D-09  EORDER  =  1.00D-04
 ENERGY  =  1.00D-12  ETEST   =  0.00D+00  EDENS   =  0.00D+00  THRDEDEF=  1.00D-06  GRADIENT=  1.00D-02  STEP    =  1.00D-03
 ORBITAL =  1.00D-05  CIVEC   =  1.00D-05  COEFF   =  1.00D-04  PRINTCI =  5.00D-02  PUNCHCI =  9.90D+01  OPTGRAD =  1.00D-08
 OPTENERG=  1.00D-06  OPTSTEP =  1.00D-08  THRGRAD =  1.00D-10  COMPRESS=  1.00D-11  VARMIN  =  1.00D-07  VARMAX  =  1.00D-03
 THRDOUB =  0.00D+00  THRDIV  =  1.00D-05  THRRED  =  1.00D-07  THRPSP  =  1.00D+00  THRDC   =  1.00D-10  THRCS   =  1.00D-10
 THRNRM  =  1.00D-08  THREQ   =  0.00D+00  THRDE   =  1.00D+00  THRREF  =  1.00D-05  SPARFAC =  1.00D+00  THRDLP  =  1.00D-07
 THRDIA  =  1.00D-10  THRDLS  =  1.00D-07  THRGPS  =  0.00D+00  THRKEX  =  0.00D+00  THRDIS  =  2.00D-01  THRVAR  =  1.00D-10
 THRLOC  =  1.00D-06  THRGAP  =  1.00D-06  THRLOCT = -1.00D+00  THRGAPT = -1.00D+00  THRORB  =  1.00D-06  THRMLTP =  0.00D+00
 THRCPQCI=  1.00D-10  KEXTA   =  0.00D+00  THRCOARS=  0.00D+00  SYMTOL  =  1.00D-06  GRADTOL =  1.00D-06  THROVL  =  1.00D-08
 THRORTH =  1.00D-08  GRID    =  1.00D-06  GRIDMAX =  1.00D-03  DTMAX   =  0.00D+00  THROCCDE=  1.00D-01  THROCCDE=  1.00D-01



 Input parameters for SORTINT:

 COMPRESS =    0.000000
 C_FINAL  =    1.000000
 DEBUG    =   -1.000000
 C_SORT1  =    0.000000
 C_SEWARD =    0.000000
 THRESH   =    0.000000
 IO       =  molpro                                                          
 SPRI     =    0.000000
 SETTING GEOMTYP        =    XYZ
 ZUNIT=BOHR
 

 Variable memory set to  995000000 words,  buffer space   230000 words

 SETTING BASIS          =    VTZ-DK
 SETTING DKROLL         =     0.00000000D+00                                  


 Recomputing integrals since basis changed


 Using spherical harmonics

 Library entry H      S cc-pVTZ-DK           selected for orbital group  1
 Library entry H      P cc-pVTZ-DK           selected for orbital group  1
 Library entry H      D cc-pVTZ-DK           selected for orbital group  1
 Library entry N      S cc-pVTZ-DK           selected for orbital group  2
 Library entry N      P cc-pVTZ-DK           selected for orbital group  2
 Library entry N      D cc-pVTZ-DK           selected for orbital group  2
 Library entry N      F cc-pVTZ-DK           selected for orbital group  2
 Library entry O      S cc-pVTZ-DK           selected for orbital group  3
 Library entry O      P cc-pVTZ-DK           selected for orbital group  3
 Library entry O      D cc-pVTZ-DK           selected for orbital group  3
 Library entry O      F cc-pVTZ-DK           selected for orbital group  3


 PROGRAM * SEWARD (Integral evaluation for generally contracted gaussian basis sets)     Author: Roland Lindh, 1990

 Geometry written to block  1 of record 700


 Point group  Cs  



 ATOMIC COORDINATES

 NR  ATOM    CHARGE       X              Y              Z

   1  H       1.00    0.000000000    1.667632808   -1.943327784
   2  N       7.00    0.000000000   -0.151533687   -1.141454177
   3  O       8.00    0.000000000    0.025668669    1.134192370

 Bond lengths in Bohr (Angstrom)

 1-2  1.988056342  2-3  2.282535406
     ( 1.052034110)     ( 1.207865720)

 Bond angles

  1-2-3  109.33490908

 NUCLEAR CHARGE:                   16
 NUMBER OF PRIMITIVE AOS:         111
 NUMBER OF SYMMETRY AOS:          100
 NUMBER OF CONTRACTIONS:           74   (  50A'  +  24A"  )
 NUMBER OF CORE ORBITALS:           2   (   2A'  +   0A"  )
 NUMBER OF VALENCE ORBITALS:        9   (   7A'  +   2A"  )


 NUCLEAR REPULSION ENERGY   30.34862870

 Eigenvalues of metric

         1 0.244E-02 0.397E-02 0.414E-02 0.838E-02 0.130E-01 0.327E-01 0.426E-01 0.462E-01
         2 0.343E-01 0.464E-01 0.102E+00 0.111E+00 0.234E+00 0.343E+00 0.394E+00 0.450E+00


 Contracted 2-electron integrals neglected if value below      1.0D-22

        1874283. INTEGRALS WRITTEN OUT IN     458 BLOCKS ON RECORD 1290 OF FILE 1


 NUMBER OF SORTED TWO-ELECTRON INTEGRALS:    2006100.     BUFFER LENGTH:  32768
 NUMBER OF SEGMENTS:   1  SEGMENT LENGTH:    2006100      RECORD LENGTH: 524288

 Memory used in sort:       2.56 MW

 SORT1 READ     1874283. AND WROTE     1914195. INTEGRALS IN      6 RECORDS. CPU TIME:     0.02 SEC, REAL TIME:     0.04 SEC
 SORT2 READ     1914195. AND WROTE     2006100. INTEGRALS IN      1 RECORDS. CPU TIME:     0.05 SEC, REAL TIME:     0.07 SEC

 FILE SIZES:   FILE 1:    50.1 MBYTE,  FILE 4:    25.2 MBYTE,   TOTAL:     75.3 MBYTE

 OPERATOR DM      FOR CENTER  0  COORDINATES:    0.000000    0.000000    0.000000


 **********************************************************************************************************************************
 DATASETS  * FILE   NREC   LENGTH (MB)   RECORD NAMES
              1      19       35.89       500      610      700      900      950      970     1000      129      960     1100   
                                          VAR    BASINP    GEOM    SYMINP    ZMAT    AOBASIS   BASIS     P2S    ABASIS      S 
                                         1400     1410     1200     1210     1080     1600     1650     1300     1700   
                                           T        V       H0       H01     AOSYM     SMH    MOLCAS    ERIS     OPER   

 PROGRAMS   *        TOTAL       INT
 CPU TIMES  *         0.63      0.54
 REAL TIME  *         1.12 SEC
 DISK USED  *        75.59 MB      
 **********************************************************************************************************************************


 PROGRAM * RHF-SCF (CLOSED SHELL)       Authors: W. Meyer, H.-J. Werner


 NUMBER OF ELECTRONS:       8+    8-
 CONVERGENCE THRESHOLDS:    1.00E-10 (Density)    1.00E-13 (Energy)
 MAX. NUMBER OF ITERATIONS:      500
 INTERPOLATION TYPE:            DIIS
 INTERPOLATION STEPS:              2 (START)      1 (STEP)
 LEVEL SHIFTS:                  0.00 (CLOSED)  0.00 (OPEN) 



 Orbital guess generated from atomic densities. Full valence occupancy:    9   2

 Molecular orbital dump at record        2100.2

 Initial occupancy:   7   1

 ITERATION    DDIFF          GRAD             ENERGY        2-EL.EN.            DIPOLE MOMENTS         DIIS   ORB.
    1      0.000D+00      0.000D+00      -129.78034435    154.093315    0.00000    0.60064   -1.04055    0    start
    2      0.000D+00      0.135D-01      -129.80723498    155.249920    0.00000    0.61494   -0.22953    1    diag
    3      0.185D-01      0.103D-01      -129.82922595    155.368032    0.00000    0.56823   -0.60645    2    diag
    4      0.898D-02      0.157D-02      -129.82996891    155.100404    0.00000    0.57614   -0.54644    3    diag
    5      0.167D-02      0.515D-03      -129.83008351    155.186485    0.00000    0.58162   -0.54772    4    diag
    6      0.719D-03      0.152D-03      -129.83010230    155.171777    0.00000    0.58219   -0.54355    5    diag
    7      0.278D-03      0.764D-04      -129.83010780    155.174053    0.00000    0.58342   -0.54106    6    diag
    8      0.192D-03      0.246D-04      -129.83010833    155.173374    0.00000    0.58344   -0.54025    7    diag
    9      0.650D-04      0.450D-05      -129.83010835    155.173255    0.00000    0.58339   -0.54009    8    diag
   10      0.127D-04      0.100D-05      -129.83010835    155.173237    0.00000    0.58335   -0.54007    9    orth
   11      0.286D-05      0.195D-06      -129.83010835    155.173233    0.00000    0.58335   -0.54006    9    diag
   12      0.517D-06      0.404D-07      -129.83010835    155.173231    0.00000    0.58335   -0.54006    9    diag
   13      0.111D-06      0.101D-07      -129.83010835    155.173231    0.00000    0.58335   -0.54006    9    diag
   14      0.279D-07      0.183D-08      -129.83010835    155.173231    0.00000    0.58335   -0.54006    9    diag
   15      0.439D-08      0.466D-09      -129.83010835    155.173231    0.00000    0.58335   -0.54006    9    diag
   16      0.106D-08      0.111D-09      -129.83010835    155.173231    0.00000    0.58335   -0.54006    9    diag
   17      0.176D-09      0.299D-10      -129.83010835    155.173231    0.00000    0.58335   -0.54006    9    diag
   18      0.505D-10      0.966D-11      -129.83010835    155.173231    0.00000    0.58335   -0.54006    9    diag
   19      0.211D-10      0.191D-11      -129.83010835    155.173231    0.00000    0.58335   -0.54006    9    fixocc
   20      0.476D-11      0.319D-12      -129.83010835    155.173231    0.00000    0.58335   -0.54006    0    orth

 Final occupancy:   7   1

 !RHF STATE 1.1 Energy               -129.830108351253
 Nuclear energy                        30.34862870
 One-electron energy                 -237.76535261
 Two-electron energy                   77.58661556
 Virial quotient                       -0.99970132
 !RHF STATE 1.1 Dipole moment           0.00000000     0.58334537    -0.54006169
 Dipole moment /Debye                   0.00000000     1.48261893    -1.37260998

 Orbital energies:

         1.1          2.1          3.1          4.1          5.1          6.1          7.1          8.1          9.1
    -20.648156   -15.707525    -1.525381    -0.991636    -0.743141    -0.662181    -0.426033     0.143823     0.370092

         1.2          2.2          3.2
     -0.592008     0.086233     0.613067

 HOMO      7.1    -0.426033 =     -11.5930eV
 LUMO      2.2     0.086233 =       2.3465eV
 LUMO-HOMO         0.512266 =      13.9395eV


 **********************************************************************************************************************************
 DATASETS  * FILE   NREC   LENGTH (MB)   RECORD NAMES
              1      19       35.89       500      610      700      900      950      970     1000      129      960     1100   
                                          VAR    BASINP    GEOM    SYMINP    ZMAT    AOBASIS   BASIS     P2S    ABASIS      S 
                                         1400     1410     1200     1210     1080     1600     1650     1300     1700   
                                           T        V       H0       H01     AOSYM     SMH    MOLCAS    ERIS     OPER   

              2       4        2.85       700     1000      520     2100   
                                         GEOM     BASIS   MCVARS     RHF  

 PROGRAMS   *        TOTAL        HF       INT
 CPU TIMES  *         0.81      0.18      0.54
 REAL TIME  *         1.38 SEC
 DISK USED  *        75.59 MB      
 **********************************************************************************************************************************


 PROGRAM * CCSD (Closed-shell coupled cluster)     Authors: C. Hampel, H.-J. Werner, 1991, M. Deegan, P.J. Knowles, 1992


 Convergence thresholds:  THRVAR = 1.00D-08  THRDEN = 1.00D-12

 CCSD(T)     terms to be evaluated (factor= 1.000)


 Number of core orbitals:           2 (   2   0 )
 Number of closed-shell orbitals:   6 (   5   1 )
 Number of external orbitals:      66 (  43  23 )

 Molecular orbitals read from record     2100.2  Type=RHF/CANONICAL (state 1.1)

 Number of N-1 electron functions:               6
 Number of N-2 electron functions:              21
 Number of singly external CSFs:               238
 Number of doubly external CSFs:             41002
 Total number of CSFs:                       41241

 Length of J-op  integral file:               0.00 MB
 Length of K-op  integral file:               0.25 MB
 Length of 3-ext integral record:             0.00 MB

 Memory could be reduced to 1.65 Mwords without degradation in triples

 Integral transformation finished. Total CPU:   0.02 sec, npass=  1  Memory used:   0.55 MW

 Reference energy:                   -129.83010835

 MP2 singlet pair energy:              -0.27355241
 MP2 triplet pair energy:              -0.16241417
 MP2 correlation energy:               -0.43596658
 MP2 total energy:                   -130.26607493

 SCS-MP2 correlation energy:           -0.42932060   (PS=  1.200000  PT=  0.333333)
 SCS-MP2 total energy:               -130.25942895

 ITER.      SQ.NORM     CORR.ENERGY   TOTAL ENERGY   ENERGY CHANGE        DEN1      VAR(S)    VAR(P)  DIIS     TIME  TIME/IT
   1      1.11843112    -0.44111489  -130.27122324    -0.00514830     0.01062990  0.29D-02  0.30D-02  1  1     0.05     0.04
   2      1.12928335    -0.44137264  -130.27148100    -0.00025776    -0.01227475  0.88D-04  0.50D-03  2  2     0.08     0.04
   3      1.13558032    -0.44176112  -130.27186947    -0.00038847    -0.00297877  0.48D-04  0.51D-04  3  3     0.12     0.04
   4      1.13839730    -0.44178662  -130.27189497    -0.00002550    -0.00096077  0.41D-05  0.91D-05  4  4     0.15     0.04
   5      1.13940736    -0.44181629  -130.27192464    -0.00002967    -0.00020889  0.14D-05  0.17D-05  5  5     0.19     0.04
   6      1.13977271    -0.44179967  -130.27190802     0.00001661    -0.00004129  0.97D-07  0.42D-06  6  6     0.22     0.04
   7      1.13986078    -0.44180169  -130.27191004    -0.00000201    -0.00000226  0.12D-07  0.90D-07  6  1     0.26     0.04
   8      1.13989187    -0.44180175  -130.27191010    -0.00000006     0.00000191  0.46D-08  0.11D-07  6  2     0.30     0.04
   9      1.13989997    -0.44180152  -130.27190987     0.00000023    -0.00000230  0.27D-08  0.12D-08  6  3     0.33     0.04
  10      1.13989869    -0.44180205  -130.27191040    -0.00000053     0.00000061  0.52D-09  0.22D-09  6  4     0.36     0.04
  11      1.13989689    -0.44180211  -130.27191046    -0.00000006     0.00000020  0.16D-09  0.24D-10  6  5     0.40     0.04
  12      1.13989546    -0.44180229  -130.27191064    -0.00000018     0.00000045  0.16D-10  0.80D-11  6  6     0.43     0.04
  13      1.13989482    -0.44180230  -130.27191065    -0.00000001     0.00000013  0.70D-11  0.13D-11  6  1     0.46     0.04
  14      1.13989441    -0.44180232  -130.27191067    -0.00000002     0.00000008  0.97D-12  0.46D-12  6  2     0.50     0.04
  15      1.13989426    -0.44180232  -130.27191067    -0.00000000     0.00000001  0.25D-12  0.15D-12  6  3     0.53     0.04
  16      1.13989416    -0.44180232  -130.27191067    -0.00000000     0.00000001  0.28D-13  0.17D-13  6  5     0.57     0.04
  17      1.13989413    -0.44180232  -130.27191067    -0.00000000     0.00000000  0.80D-15  0.22D-14  6  4     0.60     0.04
  18      1.13989413    -0.44180232  -130.27191067     0.00000000    -0.00000000  0.52D-15  0.31D-15  6  1     0.62     0.04
  19      1.13989412    -0.44180232  -130.27191067    -0.00000000     0.00000000  0.52D-16  0.58D-16  6  6     0.66     0.04
  20      1.13989412    -0.44180232  -130.27191067    -0.00000000     0.00000000  0.11D-16  0.15D-16  6  2     0.70     0.04
  21      1.13989412    -0.44180232  -130.27191067    -0.00000000     0.00000000  0.20D-17  0.12D-17  6  5     0.73     0.04
  22      1.13989412    -0.44180232  -130.27191067    -0.00000000     0.00000000  0.11D-18  0.85D-19  6  3     0.76     0.04
  23      1.13989412    -0.44180232  -130.27191067     0.00000000    -0.00000000  0.30D-19  0.18D-19  6  4     0.80     0.04
  24      1.13989412    -0.44180232  -130.27191067     0.00000000    -0.00000000  0.45D-20  0.50D-20  6  1     0.84     0.04
  25      1.13989412    -0.44180232  -130.27191067     0.00000000    -0.00000000  0.57D-21  0.86D-21  6  6     0.87     0.04

 Norm of t1 vector:      0.07533973      S-energy:     0.00000000      T1 diagnostic:  0.01537866
                                                                       D1 diagnostic:  0.04253797

 Doubles amplitudes (print threshold =  0.500E-01):

         I         J         SYM. A    SYM. B    A         B      T(IJ, AB)

         6         6         2         2         1         1     -0.14377699


 Total CPU time for triples:      0.23 sec


 RESULTS
 =======

  Reference energy                   -129.830108351253
  CCSD singlet pair energy             -0.302932300135
  CCSD triplet pair energy             -0.138870022983
  CCSD correlation energy              -0.441802323118

  Triples (T) contribution             -0.019773477503
  Total correlation energy             -0.461575800621

  CCSD total energy                  -130.271910674371
  CCSD[T] energy                     -130.292707222450
  CCSD-T energy                      -130.291285213782
 !CCSD(T) total energy               -130.291684151875

 Timing summary (sec):

 STEP                 CPU(USER)    SYS     CPU(TOT)    WALL
 Transformation          0.02      0.01      0.03      0.04
 CCSD iterations         0.85      0.16      1.01      1.00
 Triples                 0.23      0.00      0.23      0.24

 Program statistics:

 Available memory in ccsd:               994999756
 Min. memory needed in ccsd:                154850
 Max. memory used in ccsd:                  184802
 Max. memory used in cckext:                238416 (25 integral passes)



 **********************************************************************************************************************************
 DATASETS  * FILE   NREC   LENGTH (MB)   RECORD NAMES
              1      20       40.28       500      610      700      900      950      970     1000      129      960     1100   
                                          VAR    BASINP    GEOM    SYMINP    ZMAT    AOBASIS   BASIS     P2S    ABASIS      S 
                                         1400     1410     1200     1210     1080     1600     1650     1300     1700     1380   
                                           T        V       H0       H01     AOSYM     SMH    MOLCAS    ERIS     OPER     JKOP   

              2       4        2.85       700     1000      520     2100   
                                         GEOM     BASIS   MCVARS     RHF  

 PROGRAMS   *        TOTAL   CCSD(T)        HF       INT
 CPU TIMES  *         1.93      1.12      0.18      0.54
 REAL TIME  *         2.68 SEC
 DISK USED  *        75.59 MB      
 **********************************************************************************************************************************

 CCSD(T)/cc-pVTZ-DK energy=   -130.291684151875

        CCSD(T)         HF-SCF  
   -130.29168415   -129.83010835
 **********************************************************************************************************************************
 Molpro calculation terminated
 Variable memory released
