
 Primary working directories    : /tmp/r2666/282542.maple
 Secondary working directories  : /tmp/r2666/282542.maple
 Wavefunction directory         : /ddn/home4/r2666/wfu/
 Main file repository           : /tmp/r2666/282542.maple/

 SHA1      : d5ffa45e93fdbca01ffc919aa182cfdae0147319
 NAME      : 2015.1.35
 ARCHNAME  : linux/x86_64
 FC        : /opt/intel/composer_xe_2015.1.133/bin/intel64/ifort
 BLASLIB   : -Wl,-_start-group /opt/intel/mkl/lib/intel64/libmkl_intel_ilp64.a /opt/intel/mkl/lib/intel64/libmkl_intel_thread.a /opt/intel/mkl/lib/intel64/libmkl_core.a -Wl,-_end-group
 id        : olemiss

 Nodes     nprocs
 cn075        1

 Using customized tuning parameters: mindgm=1; mindgv=20; mindgc=4; mindgr=1; noblas=0; minvec=7
 default implementation of scratch files=df  

 ***,hno CCSD(T)/TZ-F12 QFF
 memory, 995, m;
 gthresh,energy=1.d-12,zero=1.d-22,oneint=1.d-22,twoint=1.d-22;
 gthresh,optgrad=1.d-8,optstep=1.d-8;
 nocompress;
 geomtyp=xyz
 bohr
 geometry={
 3
         52        52
 H        0.0000000000        1.6652363119       -1.9248583068
 N        0.0000000000       -0.1614572837       -1.1402829266
 O        0.0000000000        0.0379887618        1.1145516424
 }
 
 basis=vtz-dk
 dkroll=0
   {hf,maxit=500;accu,20;}
 {ccsd(t),nocheck,maxit=250;orbital,IGNORE_ERROR;}

 Variables initialized (889), CPU time= 0.01 sec
 Commands  initialized (702), CPU time= 0.02 sec, 572 directives.
 Default parameters read. Elapsed time= 0.16 sec

 Checking input...
 Passed
1


                                         ***  PROGRAM SYSTEM MOLPRO  ***
                                       Copyright, TTI GmbH Stuttgart, 2015
                                    Version 2015.1 linked Jul  9 2018 13:16:40


 **********************************************************************************************************************************
 LABEL *   hno CCSD(T)/TZ-F12 QFF                                                        
  64 bit serial version                                                                  DATE: 04-Mar-20          TIME: 13:50:54  
 **********************************************************************************************************************************

 SHA1:             d5ffa45e93fdbca01ffc919aa182cfdae0147319
 **********************************************************************************************************************************

 THRESHOLDS:

 ZERO    =  1.00D-22  ONEINT  =  1.00D-22  TWOINT  =  1.00D-22  PREFAC  =  1.00D-14  LOCALI  =  1.00D-09  EORDER  =  1.00D-04
 ENERGY  =  1.00D-12  ETEST   =  0.00D+00  EDENS   =  0.00D+00  THRDEDEF=  1.00D-06  GRADIENT=  1.00D-02  STEP    =  1.00D-03
 ORBITAL =  1.00D-05  CIVEC   =  1.00D-05  COEFF   =  1.00D-04  PRINTCI =  5.00D-02  PUNCHCI =  9.90D+01  OPTGRAD =  3.00D-04
 OPTENERG=  1.00D-06  OPTSTEP =  3.00D-04  THRGRAD =  1.00D-10  COMPRESS=  1.00D-11  VARMIN  =  1.00D-07  VARMAX  =  1.00D-03
 THRDOUB =  0.00D+00  THRDIV  =  1.00D-05  THRRED  =  1.00D-07  THRPSP  =  1.00D+00  THRDC   =  1.00D-10  THRCS   =  1.00D-10
 THRNRM  =  1.00D-08  THREQ   =  0.00D+00  THRDE   =  1.00D+00  THRREF  =  1.00D-05  SPARFAC =  1.00D+00  THRDLP  =  1.00D-07
 THRDIA  =  1.00D-10  THRDLS  =  1.00D-07  THRGPS  =  0.00D+00  THRKEX  =  0.00D+00  THRDIS  =  2.00D-01  THRVAR  =  1.00D-10
 THRLOC  =  1.00D-06  THRGAP  =  1.00D-06  THRLOCT = -1.00D+00  THRGAPT = -1.00D+00  THRORB  =  1.00D-06  THRMLTP =  0.00D+00
 THRCPQCI=  1.00D-10  KEXTA   =  0.00D+00  THRCOARS=  0.00D+00  SYMTOL  =  1.00D-06  GRADTOL =  1.00D-06  THROVL  =  1.00D-08
 THRORTH =  1.00D-08  GRID    =  1.00D-06  GRIDMAX =  1.00D-03  DTMAX   =  0.00D+00  THROCCDE=  1.00D-01  THROCCDE=  1.00D-01



 THRESHOLDS:

 ZERO    =  1.00D-22  ONEINT  =  1.00D-22  TWOINT  =  1.00D-22  PREFAC  =  1.00D-14  LOCALI  =  1.00D-09  EORDER  =  1.00D-04
 ENERGY  =  1.00D-12  ETEST   =  0.00D+00  EDENS   =  0.00D+00  THRDEDEF=  1.00D-06  GRADIENT=  1.00D-02  STEP    =  1.00D-03
 ORBITAL =  1.00D-05  CIVEC   =  1.00D-05  COEFF   =  1.00D-04  PRINTCI =  5.00D-02  PUNCHCI =  9.90D+01  OPTGRAD =  1.00D-08
 OPTENERG=  1.00D-06  OPTSTEP =  1.00D-08  THRGRAD =  1.00D-10  COMPRESS=  1.00D-11  VARMIN  =  1.00D-07  VARMAX  =  1.00D-03
 THRDOUB =  0.00D+00  THRDIV  =  1.00D-05  THRRED  =  1.00D-07  THRPSP  =  1.00D+00  THRDC   =  1.00D-10  THRCS   =  1.00D-10
 THRNRM  =  1.00D-08  THREQ   =  0.00D+00  THRDE   =  1.00D+00  THRREF  =  1.00D-05  SPARFAC =  1.00D+00  THRDLP  =  1.00D-07
 THRDIA  =  1.00D-10  THRDLS  =  1.00D-07  THRGPS  =  0.00D+00  THRKEX  =  0.00D+00  THRDIS  =  2.00D-01  THRVAR  =  1.00D-10
 THRLOC  =  1.00D-06  THRGAP  =  1.00D-06  THRLOCT = -1.00D+00  THRGAPT = -1.00D+00  THRORB  =  1.00D-06  THRMLTP =  0.00D+00
 THRCPQCI=  1.00D-10  KEXTA   =  0.00D+00  THRCOARS=  0.00D+00  SYMTOL  =  1.00D-06  GRADTOL =  1.00D-06  THROVL  =  1.00D-08
 THRORTH =  1.00D-08  GRID    =  1.00D-06  GRIDMAX =  1.00D-03  DTMAX   =  0.00D+00  THROCCDE=  1.00D-01  THROCCDE=  1.00D-01



 Input parameters for SORTINT:

 COMPRESS =    0.000000
 C_FINAL  =    1.000000
 DEBUG    =   -1.000000
 C_SORT1  =    0.000000
 C_SEWARD =    0.000000
 THRESH   =    0.000000
 IO       =  molpro                                                          
 SPRI     =    0.000000
 SETTING GEOMTYP        =    XYZ
 ZUNIT=BOHR
 

 Variable memory set to  995000000 words,  buffer space   230000 words

 SETTING BASIS          =    VTZ-DK
 SETTING DKROLL         =     0.00000000D+00                                  


 Recomputing integrals since basis changed


 Using spherical harmonics

 Library entry H      S cc-pVTZ-DK           selected for orbital group  1
 Library entry H      P cc-pVTZ-DK           selected for orbital group  1
 Library entry H      D cc-pVTZ-DK           selected for orbital group  1
 Library entry N      S cc-pVTZ-DK           selected for orbital group  2
 Library entry N      P cc-pVTZ-DK           selected for orbital group  2
 Library entry N      D cc-pVTZ-DK           selected for orbital group  2
 Library entry N      F cc-pVTZ-DK           selected for orbital group  2
 Library entry O      S cc-pVTZ-DK           selected for orbital group  3
 Library entry O      P cc-pVTZ-DK           selected for orbital group  3
 Library entry O      D cc-pVTZ-DK           selected for orbital group  3
 Library entry O      F cc-pVTZ-DK           selected for orbital group  3


 PROGRAM * SEWARD (Integral evaluation for generally contracted gaussian basis sets)     Author: Roland Lindh, 1990

 Geometry written to block  1 of record 700


 Point group  Cs  



 ATOMIC COORDINATES

 NR  ATOM    CHARGE       X              Y              Z

   1  H       1.00    0.000000000    1.665236312   -1.924858307
   2  N       7.00    0.000000000   -0.161457284   -1.140282927
   3  O       8.00    0.000000000    0.037988762    1.114551642

 Bond lengths in Bohr (Angstrom)

 1-2  1.988056342  2-3  2.263638147
     ( 1.052034110)     ( 1.197865721)

 Bond angles

  1-2-3  108.18899349

 NUCLEAR CHARGE:                   16
 NUMBER OF PRIMITIVE AOS:         111
 NUMBER OF SYMMETRY AOS:          100
 NUMBER OF CONTRACTIONS:           74   (  50A'  +  24A"  )
 NUMBER OF CORE ORBITALS:           2   (   2A'  +   0A"  )
 NUMBER OF VALENCE ORBITALS:        9   (   7A'  +   2A"  )


 NUCLEAR REPULSION ENERGY   30.58041795

 Eigenvalues of metric

         1 0.241E-02 0.391E-02 0.403E-02 0.830E-02 0.130E-01 0.321E-01 0.420E-01 0.463E-01
         2 0.338E-01 0.464E-01 0.100E+00 0.111E+00 0.231E+00 0.341E+00 0.392E+00 0.447E+00


 Contracted 2-electron integrals neglected if value below      1.0D-22

        1874283. INTEGRALS WRITTEN OUT IN     458 BLOCKS ON RECORD 1290 OF FILE 1


 NUMBER OF SORTED TWO-ELECTRON INTEGRALS:    2006100.     BUFFER LENGTH:  32768
 NUMBER OF SEGMENTS:   1  SEGMENT LENGTH:    2006100      RECORD LENGTH: 524288

 Memory used in sort:       2.56 MW

 SORT1 READ     1874283. AND WROTE     1914195. INTEGRALS IN      6 RECORDS. CPU TIME:     0.02 SEC, REAL TIME:     0.04 SEC
 SORT2 READ     1914195. AND WROTE     2006100. INTEGRALS IN      1 RECORDS. CPU TIME:     0.05 SEC, REAL TIME:     0.06 SEC

 FILE SIZES:   FILE 1:    50.1 MBYTE,  FILE 4:    25.2 MBYTE,   TOTAL:     75.3 MBYTE

 OPERATOR DM      FOR CENTER  0  COORDINATES:    0.000000    0.000000    0.000000


 **********************************************************************************************************************************
 DATASETS  * FILE   NREC   LENGTH (MB)   RECORD NAMES
              1      19       35.89       500      610      700      900      950      970     1000      129      960     1100   
                                          VAR    BASINP    GEOM    SYMINP    ZMAT    AOBASIS   BASIS     P2S    ABASIS      S 
                                         1400     1410     1200     1210     1080     1600     1650     1300     1700   
                                           T        V       H0       H01     AOSYM     SMH    MOLCAS    ERIS     OPER   

 PROGRAMS   *        TOTAL       INT
 CPU TIMES  *         0.70      0.54
 REAL TIME  *         1.44 SEC
 DISK USED  *        75.59 MB      
 **********************************************************************************************************************************


 PROGRAM * RHF-SCF (CLOSED SHELL)       Authors: W. Meyer, H.-J. Werner


 NUMBER OF ELECTRONS:       8+    8-
 CONVERGENCE THRESHOLDS:    1.00E-10 (Density)    1.00E-13 (Energy)
 MAX. NUMBER OF ITERATIONS:      500
 INTERPOLATION TYPE:            DIIS
 INTERPOLATION STEPS:              2 (START)      1 (STEP)
 LEVEL SHIFTS:                  0.00 (CLOSED)  0.00 (OPEN) 



 Orbital guess generated from atomic densities. Full valence occupancy:    9   2

 Molecular orbital dump at record        2100.2

 Initial occupancy:   7   1

 ITERATION    DDIFF          GRAD             ENERGY        2-EL.EN.            DIPOLE MOMENTS         DIIS   ORB.
    1      0.000D+00      0.000D+00      -129.78293876    154.512841    0.00000    0.58578   -1.00639    0    start
    2      0.000D+00      0.134D-01      -129.81010240    155.682429    0.00000    0.60874   -0.22920    1    diag
    3      0.182D-01      0.998D-02      -129.83063549    155.780725    0.00000    0.55867   -0.58751    2    diag
    4      0.874D-02      0.154D-02      -129.83135670    155.520633    0.00000    0.56732   -0.52945    3    diag
    5      0.165D-02      0.508D-03      -129.83146812    155.605559    0.00000    0.57271   -0.53082    4    diag
    6      0.709D-03      0.151D-03      -129.83148638    155.590953    0.00000    0.57330   -0.52682    5    diag
    7      0.275D-03      0.747D-04      -129.83149157    155.593328    0.00000    0.57455   -0.52445    6    diag
    8      0.187D-03      0.232D-04      -129.83149202    155.592680    0.00000    0.57457   -0.52371    7    diag
    9      0.601D-04      0.420D-05      -129.83149204    155.592573    0.00000    0.57453   -0.52356    8    diag
   10      0.116D-04      0.948D-06      -129.83149204    155.592556    0.00000    0.57449   -0.52354    9    orth
   11      0.271D-05      0.187D-06      -129.83149204    155.592552    0.00000    0.57449   -0.52354    9    diag
   12      0.500D-06      0.381D-07      -129.83149204    155.592550    0.00000    0.57448   -0.52354    9    diag
   13      0.108D-06      0.930D-08      -129.83149204    155.592550    0.00000    0.57448   -0.52354    9    diag
   14      0.266D-07      0.172D-08      -129.83149204    155.592550    0.00000    0.57448   -0.52354    9    diag
   15      0.448D-08      0.461D-09      -129.83149204    155.592550    0.00000    0.57448   -0.52354    9    diag
   16      0.108D-08      0.123D-09      -129.83149204    155.592550    0.00000    0.57448   -0.52354    9    diag
   17      0.218D-09      0.366D-10      -129.83149204    155.592550    0.00000    0.57448   -0.52354    9    diag
   18      0.728D-10      0.119D-10      -129.83149204    155.592550    0.00000    0.57448   -0.52354    0    orth

 Final occupancy:   7   1

 !RHF STATE 1.1 Energy               -129.831492040883
 Nuclear energy                        30.58041795
 One-electron energy                 -238.20818493
 Two-electron energy                   77.79627494
 Virial quotient                       -0.99937406
 !RHF STATE 1.1 Dipole moment           0.00000000     0.57448325    -0.52353514
 Dipole moment /Debye                   0.00000000     1.46009513    -1.33060645

 Orbital energies:

         1.1          2.1          3.1          4.1          5.1          6.1          7.1          8.1          9.1
    -20.646947   -15.706073    -1.534253    -0.988624    -0.746303    -0.664878    -0.423773     0.144669     0.371319

         1.2          2.2          3.2
     -0.596967     0.090072     0.611851

 HOMO      7.1    -0.423773 =     -11.5315eV
 LUMO      2.2     0.090072 =       2.4510eV
 LUMO-HOMO         0.513845 =      13.9824eV


 **********************************************************************************************************************************
 DATASETS  * FILE   NREC   LENGTH (MB)   RECORD NAMES
              1      19       35.89       500      610      700      900      950      970     1000      129      960     1100   
                                          VAR    BASINP    GEOM    SYMINP    ZMAT    AOBASIS   BASIS     P2S    ABASIS      S 
                                         1400     1410     1200     1210     1080     1600     1650     1300     1700   
                                           T        V       H0       H01     AOSYM     SMH    MOLCAS    ERIS     OPER   

              2       4        2.85       700     1000      520     2100   
                                         GEOM     BASIS   MCVARS     RHF  

 PROGRAMS   *        TOTAL        HF       INT
 CPU TIMES  *         0.89      0.19      0.54
 REAL TIME  *         1.68 SEC
 DISK USED  *        75.59 MB      
 **********************************************************************************************************************************


 PROGRAM * CCSD (Closed-shell coupled cluster)     Authors: C. Hampel, H.-J. Werner, 1991, M. Deegan, P.J. Knowles, 1992


 Convergence thresholds:  THRVAR = 1.00D-08  THRDEN = 1.00D-12

 CCSD(T)     terms to be evaluated (factor= 1.000)


 Number of core orbitals:           2 (   2   0 )
 Number of closed-shell orbitals:   6 (   5   1 )
 Number of external orbitals:      66 (  43  23 )

 Molecular orbitals read from record     2100.2  Type=RHF/CANONICAL (state 1.1)

 Number of N-1 electron functions:               6
 Number of N-2 electron functions:              21
 Number of singly external CSFs:               238
 Number of doubly external CSFs:             41002
 Total number of CSFs:                       41241

 Length of J-op  integral file:               0.00 MB
 Length of K-op  integral file:               0.25 MB
 Length of 3-ext integral record:             0.00 MB

 Memory could be reduced to 1.65 Mwords without degradation in triples

 Integral transformation finished. Total CPU:   0.03 sec, npass=  1  Memory used:   0.55 MW

 Reference energy:                   -129.83149204

 MP2 singlet pair energy:              -0.27250552
 MP2 triplet pair energy:              -0.16172911
 MP2 correlation energy:               -0.43423463
 MP2 total energy:                   -130.26572667

 SCS-MP2 correlation energy:           -0.42763807   (PS=  1.200000  PT=  0.333333)
 SCS-MP2 total energy:               -130.25913011

 ITER.      SQ.NORM     CORR.ENERGY   TOTAL ENERGY   ENERGY CHANGE        DEN1      VAR(S)    VAR(P)  DIIS     TIME  TIME/IT
   1      1.11732383    -0.43975112  -130.27124316    -0.00551649     0.00983198  0.28D-02  0.29D-02  1  1     0.07     0.04
   2      1.12791515    -0.44008588  -130.27157792    -0.00033476    -0.01202705  0.83D-04  0.49D-03  2  2     0.10     0.04
   3      1.13398075    -0.44045587  -130.27194791    -0.00036999    -0.00290688  0.44D-04  0.48D-04  3  3     0.14     0.04
   4      1.13666495    -0.44048131  -130.27197335    -0.00002544    -0.00092520  0.37D-05  0.85D-05  4  4     0.18     0.04
   5      1.13760302    -0.44050893  -130.27200097    -0.00002762    -0.00019418  0.13D-05  0.16D-05  5  5     0.21     0.04
   6      1.13794784    -0.44049361  -130.27198565     0.00001532    -0.00003880  0.95D-07  0.41D-06  6  6     0.24     0.04
   7      1.13803345    -0.44049546  -130.27198750    -0.00000185    -0.00000245  0.12D-07  0.83D-07  6  1     0.28     0.04
   8      1.13806354    -0.44049556  -130.27198760    -0.00000010     0.00000190  0.43D-08  0.94D-08  6  2     0.32     0.04
   9      1.13807088    -0.44049537  -130.27198742     0.00000018    -0.00000222  0.24D-08  0.10D-08  6  3     0.35     0.04
  10      1.13806966    -0.44049586  -130.27198790    -0.00000048     0.00000060  0.46D-09  0.19D-09  6  4     0.38     0.04
  11      1.13806797    -0.44049591  -130.27198795    -0.00000006     0.00000019  0.14D-09  0.21D-10  6  5     0.42     0.04
  12      1.13806663    -0.44049608  -130.27198812    -0.00000017     0.00000041  0.15D-10  0.71D-11  6  6     0.45     0.04
  13      1.13806605    -0.44049609  -130.27198813    -0.00000001     0.00000012  0.64D-11  0.11D-11  6  1     0.48     0.04
  14      1.13806569    -0.44049610  -130.27198815    -0.00000002     0.00000007  0.88D-12  0.40D-12  6  2     0.51     0.04
  15      1.13806556    -0.44049611  -130.27198815    -0.00000000     0.00000001  0.22D-12  0.13D-12  6  3     0.55     0.04
  16      1.13806547    -0.44049611  -130.27198815    -0.00000000     0.00000001  0.24D-13  0.15D-13  6  5     0.59     0.04
  17      1.13806544    -0.44049611  -130.27198815    -0.00000000     0.00000000  0.78D-15  0.22D-14  6  4     0.62     0.04
  18      1.13806544    -0.44049611  -130.27198815     0.00000000    -0.00000000  0.49D-15  0.32D-15  6  1     0.65     0.04
  19      1.13806543    -0.44049611  -130.27198815    -0.00000000     0.00000000  0.42D-16  0.56D-16  6  6     0.69     0.04
  20      1.13806543    -0.44049611  -130.27198815    -0.00000000     0.00000000  0.87D-17  0.13D-16  6  2     0.72     0.04
  21      1.13806543    -0.44049611  -130.27198815    -0.00000000     0.00000000  0.17D-17  0.98D-18  6  5     0.76     0.04
  22      1.13806543    -0.44049611  -130.27198815     0.00000000     0.00000000  0.11D-18  0.73D-19  6  3     0.80     0.04
  23      1.13806543    -0.44049611  -130.27198815     0.00000000    -0.00000000  0.30D-19  0.16D-19  6  4     0.83     0.04
  24      1.13806543    -0.44049611  -130.27198815     0.00000000    -0.00000000  0.45D-20  0.45D-20  6  1     0.87     0.04
  25      1.13806543    -0.44049611  -130.27198815     0.00000000    -0.00000000  0.49D-21  0.78D-21  6  6     0.90     0.04

 Norm of t1 vector:      0.07344620      S-energy:     0.00000000      T1 diagnostic:  0.01499214
                                                                       D1 diagnostic:  0.04114920

 Doubles amplitudes (print threshold =  0.500E-01):

         I         J         SYM. A    SYM. B    A         B      T(IJ, AB)

         6         6         2         2         1         1     -0.14095250


 Total CPU time for triples:      0.22 sec


 RESULTS
 =======

  Reference energy                   -129.831492040883
  CCSD singlet pair energy             -0.301793367675
  CCSD triplet pair energy             -0.138702741117
  CCSD correlation energy              -0.440496108790

  Triples (T) contribution             -0.019464601798
  Total correlation energy             -0.459960710589

  CCSD total energy                  -130.271988149673
  CCSD[T] energy                     -130.292427838169
  CCSD-T energy                      -130.291065976897
 !CCSD(T) total energy               -130.291452751472

 Timing summary (sec):

 STEP                 CPU(USER)    SYS     CPU(TOT)    WALL
 Transformation          0.03      0.01      0.04      0.03
 CCSD iterations         0.87      0.11      0.98      1.00
 Triples                 0.22      0.02      0.24      0.24

 Program statistics:

 Available memory in ccsd:               994999756
 Min. memory needed in ccsd:                154850
 Max. memory used in ccsd:                  184802
 Max. memory used in cckext:                238416 (25 integral passes)



 **********************************************************************************************************************************
 DATASETS  * FILE   NREC   LENGTH (MB)   RECORD NAMES
              1      20       40.28       500      610      700      900      950      970     1000      129      960     1100   
                                          VAR    BASINP    GEOM    SYMINP    ZMAT    AOBASIS   BASIS     P2S    ABASIS      S 
                                         1400     1410     1200     1210     1080     1600     1650     1300     1700     1380   
                                           T        V       H0       H01     AOSYM     SMH    MOLCAS    ERIS     OPER     JKOP   

              2       4        2.85       700     1000      520     2100   
                                         GEOM     BASIS   MCVARS     RHF  

 PROGRAMS   *        TOTAL   CCSD(T)        HF       INT
 CPU TIMES  *         2.03      1.14      0.19      0.54
 REAL TIME  *         2.98 SEC
 DISK USED  *        75.59 MB      
 **********************************************************************************************************************************

 CCSD(T)/cc-pVTZ-DK energy=   -130.291452751472

        CCSD(T)         HF-SCF  
   -130.29145275   -129.83149204
 **********************************************************************************************************************************
 Molpro calculation terminated
 Variable memory released
