
 Primary working directories    : /tmp/r2666/282549.maple
 Secondary working directories  : /tmp/r2666/282549.maple
 Wavefunction directory         : /ddn/home4/r2666/wfu/
 Main file repository           : /tmp/r2666/282549.maple/

 SHA1      : d5ffa45e93fdbca01ffc919aa182cfdae0147319
 NAME      : 2015.1.35
 ARCHNAME  : linux/x86_64
 FC        : /opt/intel/composer_xe_2015.1.133/bin/intel64/ifort
 BLASLIB   : -Wl,-_start-group /opt/intel/mkl/lib/intel64/libmkl_intel_ilp64.a /opt/intel/mkl/lib/intel64/libmkl_intel_thread.a /opt/intel/mkl/lib/intel64/libmkl_core.a -Wl,-_end-group
 id        : olemiss

 Nodes     nprocs
 cn079        1

 Using customized tuning parameters: mindgm=1; mindgv=20; mindgc=4; mindgr=1; noblas=0; minvec=7
 default implementation of scratch files=df  

 ***,hno CCSD(T)/TZ-F12 QFF
 memory, 995, m;
 gthresh,energy=1.d-12,zero=1.d-22,oneint=1.d-22,twoint=1.d-22;
 gthresh,optgrad=1.d-8,optstep=1.d-8;
 nocompress;
 geomtyp=xyz
 bohr
 geometry={
 3
         59        59
 H        0.0000000000        1.6662496134       -1.9305597149
 N        0.0000000000       -0.1589172208       -1.1424391362
 O        0.0000000000        0.0344353974        1.1224092601
 }
 
 basis=vtz-dk
 dkroll=0
   {hf,maxit=500;accu,20;}
 {ccsd(t),nocheck,maxit=250;orbital,IGNORE_ERROR;}

 Variables initialized (889), CPU time= 0.01 sec
 Commands  initialized (702), CPU time= 0.01 sec, 572 directives.
 Default parameters read. Elapsed time= 0.06 sec

 Checking input...
 Passed
1


                                         ***  PROGRAM SYSTEM MOLPRO  ***
                                       Copyright, TTI GmbH Stuttgart, 2015
                                    Version 2015.1 linked Jul  9 2018 13:16:40


 **********************************************************************************************************************************
 LABEL *   hno CCSD(T)/TZ-F12 QFF                                                        
  64 bit serial version                                                                  DATE: 04-Mar-20          TIME: 13:50:55  
 **********************************************************************************************************************************

 SHA1:             d5ffa45e93fdbca01ffc919aa182cfdae0147319
 **********************************************************************************************************************************

 THRESHOLDS:

 ZERO    =  1.00D-22  ONEINT  =  1.00D-22  TWOINT  =  1.00D-22  PREFAC  =  1.00D-14  LOCALI  =  1.00D-09  EORDER  =  1.00D-04
 ENERGY  =  1.00D-12  ETEST   =  0.00D+00  EDENS   =  0.00D+00  THRDEDEF=  1.00D-06  GRADIENT=  1.00D-02  STEP    =  1.00D-03
 ORBITAL =  1.00D-05  CIVEC   =  1.00D-05  COEFF   =  1.00D-04  PRINTCI =  5.00D-02  PUNCHCI =  9.90D+01  OPTGRAD =  3.00D-04
 OPTENERG=  1.00D-06  OPTSTEP =  3.00D-04  THRGRAD =  1.00D-10  COMPRESS=  1.00D-11  VARMIN  =  1.00D-07  VARMAX  =  1.00D-03
 THRDOUB =  0.00D+00  THRDIV  =  1.00D-05  THRRED  =  1.00D-07  THRPSP  =  1.00D+00  THRDC   =  1.00D-10  THRCS   =  1.00D-10
 THRNRM  =  1.00D-08  THREQ   =  0.00D+00  THRDE   =  1.00D+00  THRREF  =  1.00D-05  SPARFAC =  1.00D+00  THRDLP  =  1.00D-07
 THRDIA  =  1.00D-10  THRDLS  =  1.00D-07  THRGPS  =  0.00D+00  THRKEX  =  0.00D+00  THRDIS  =  2.00D-01  THRVAR  =  1.00D-10
 THRLOC  =  1.00D-06  THRGAP  =  1.00D-06  THRLOCT = -1.00D+00  THRGAPT = -1.00D+00  THRORB  =  1.00D-06  THRMLTP =  0.00D+00
 THRCPQCI=  1.00D-10  KEXTA   =  0.00D+00  THRCOARS=  0.00D+00  SYMTOL  =  1.00D-06  GRADTOL =  1.00D-06  THROVL  =  1.00D-08
 THRORTH =  1.00D-08  GRID    =  1.00D-06  GRIDMAX =  1.00D-03  DTMAX   =  0.00D+00  THROCCDE=  1.00D-01  THROCCDE=  1.00D-01



 THRESHOLDS:

 ZERO    =  1.00D-22  ONEINT  =  1.00D-22  TWOINT  =  1.00D-22  PREFAC  =  1.00D-14  LOCALI  =  1.00D-09  EORDER  =  1.00D-04
 ENERGY  =  1.00D-12  ETEST   =  0.00D+00  EDENS   =  0.00D+00  THRDEDEF=  1.00D-06  GRADIENT=  1.00D-02  STEP    =  1.00D-03
 ORBITAL =  1.00D-05  CIVEC   =  1.00D-05  COEFF   =  1.00D-04  PRINTCI =  5.00D-02  PUNCHCI =  9.90D+01  OPTGRAD =  1.00D-08
 OPTENERG=  1.00D-06  OPTSTEP =  1.00D-08  THRGRAD =  1.00D-10  COMPRESS=  1.00D-11  VARMIN  =  1.00D-07  VARMAX  =  1.00D-03
 THRDOUB =  0.00D+00  THRDIV  =  1.00D-05  THRRED  =  1.00D-07  THRPSP  =  1.00D+00  THRDC   =  1.00D-10  THRCS   =  1.00D-10
 THRNRM  =  1.00D-08  THREQ   =  0.00D+00  THRDE   =  1.00D+00  THRREF  =  1.00D-05  SPARFAC =  1.00D+00  THRDLP  =  1.00D-07
 THRDIA  =  1.00D-10  THRDLS  =  1.00D-07  THRGPS  =  0.00D+00  THRKEX  =  0.00D+00  THRDIS  =  2.00D-01  THRVAR  =  1.00D-10
 THRLOC  =  1.00D-06  THRGAP  =  1.00D-06  THRLOCT = -1.00D+00  THRGAPT = -1.00D+00  THRORB  =  1.00D-06  THRMLTP =  0.00D+00
 THRCPQCI=  1.00D-10  KEXTA   =  0.00D+00  THRCOARS=  0.00D+00  SYMTOL  =  1.00D-06  GRADTOL =  1.00D-06  THROVL  =  1.00D-08
 THRORTH =  1.00D-08  GRID    =  1.00D-06  GRIDMAX =  1.00D-03  DTMAX   =  0.00D+00  THROCCDE=  1.00D-01  THROCCDE=  1.00D-01



 Input parameters for SORTINT:

 COMPRESS =    0.000000
 C_FINAL  =    1.000000
 DEBUG    =   -1.000000
 C_SORT1  =    0.000000
 C_SEWARD =    0.000000
 THRESH   =    0.000000
 IO       =  molpro                                                          
 SPRI     =    0.000000
 SETTING GEOMTYP        =    XYZ
 ZUNIT=BOHR
 

 Variable memory set to  995000000 words,  buffer space   230000 words

 SETTING BASIS          =    VTZ-DK
 SETTING DKROLL         =     0.00000000D+00                                  


 Recomputing integrals since basis changed


 Using spherical harmonics

 Library entry H      S cc-pVTZ-DK           selected for orbital group  1
 Library entry H      P cc-pVTZ-DK           selected for orbital group  1
 Library entry H      D cc-pVTZ-DK           selected for orbital group  1
 Library entry N      S cc-pVTZ-DK           selected for orbital group  2
 Library entry N      P cc-pVTZ-DK           selected for orbital group  2
 Library entry N      D cc-pVTZ-DK           selected for orbital group  2
 Library entry N      F cc-pVTZ-DK           selected for orbital group  2
 Library entry O      S cc-pVTZ-DK           selected for orbital group  3
 Library entry O      P cc-pVTZ-DK           selected for orbital group  3
 Library entry O      D cc-pVTZ-DK           selected for orbital group  3
 Library entry O      F cc-pVTZ-DK           selected for orbital group  3


 PROGRAM * SEWARD (Integral evaluation for generally contracted gaussian basis sets)     Author: Roland Lindh, 1990

 Geometry written to block  1 of record 700


 Point group  Cs  



 ATOMIC COORDINATES

 NR  ATOM    CHARGE       X              Y              Z

   1  H       1.00    0.000000000    1.666249613   -1.930559715
   2  N       7.00    0.000000000   -0.158917221   -1.142439136
   3  O       8.00    0.000000000    0.034435397    1.122409260

 Bond lengths in Bohr (Angstrom)

 1-2  1.988056342  2-3  2.273086776
     ( 1.052034110)     ( 1.202865721)

 Bond angles

  1-2-3  108.47547239

 NUCLEAR CHARGE:                   16
 NUMBER OF PRIMITIVE AOS:         111
 NUMBER OF SYMMETRY AOS:          100
 NUMBER OF CONTRACTIONS:           74   (  50A'  +  24A"  )
 NUMBER OF CORE ORBITALS:           2   (   2A'  +   0A"  )
 NUMBER OF VALENCE ORBITALS:        9   (   7A'  +   2A"  )


 NUCLEAR REPULSION ENERGY   30.46812648

 Eigenvalues of metric

         1 0.243E-02 0.395E-02 0.408E-02 0.833E-02 0.130E-01 0.324E-01 0.423E-01 0.463E-01
         2 0.340E-01 0.464E-01 0.101E+00 0.111E+00 0.233E+00 0.342E+00 0.393E+00 0.448E+00


 Contracted 2-electron integrals neglected if value below      1.0D-22

        1874283. INTEGRALS WRITTEN OUT IN     458 BLOCKS ON RECORD 1290 OF FILE 1


 NUMBER OF SORTED TWO-ELECTRON INTEGRALS:    2006100.     BUFFER LENGTH:  32768
 NUMBER OF SEGMENTS:   1  SEGMENT LENGTH:    2006100      RECORD LENGTH: 524288

 Memory used in sort:       2.56 MW

 SORT1 READ     1874283. AND WROTE     1914195. INTEGRALS IN      6 RECORDS. CPU TIME:     0.04 SEC, REAL TIME:     0.06 SEC
 SORT2 READ     1914195. AND WROTE     2006100. INTEGRALS IN      1 RECORDS. CPU TIME:     0.05 SEC, REAL TIME:     0.07 SEC

 FILE SIZES:   FILE 1:    50.1 MBYTE,  FILE 4:    25.2 MBYTE,   TOTAL:     75.3 MBYTE

 OPERATOR DM      FOR CENTER  0  COORDINATES:    0.000000    0.000000    0.000000


 **********************************************************************************************************************************
 DATASETS  * FILE   NREC   LENGTH (MB)   RECORD NAMES
              1      19       35.89       500      610      700      900      950      970     1000      129      960     1100   
                                          VAR    BASINP    GEOM    SYMINP    ZMAT    AOBASIS   BASIS     P2S    ABASIS      S 
                                         1400     1410     1200     1210     1080     1600     1650     1300     1700   
                                           T        V       H0       H01     AOSYM     SMH    MOLCAS    ERIS     OPER   

 PROGRAMS   *        TOTAL       INT
 CPU TIMES  *         0.64      0.53
 REAL TIME  *         1.18 SEC
 DISK USED  *        75.59 MB      
 **********************************************************************************************************************************


 PROGRAM * RHF-SCF (CLOSED SHELL)       Authors: W. Meyer, H.-J. Werner


 NUMBER OF ELECTRONS:       8+    8-
 CONVERGENCE THRESHOLDS:    1.00E-10 (Density)    1.00E-13 (Energy)
 MAX. NUMBER OF ITERATIONS:      500
 INTERPOLATION TYPE:            DIIS
 INTERPOLATION STEPS:              2 (START)      1 (STEP)
 LEVEL SHIFTS:                  0.00 (CLOSED)  0.00 (OPEN) 



 Orbital guess generated from atomic densities. Full valence occupancy:    9   2

 Molecular orbital dump at record        2100.2

 Initial occupancy:   7   1

 ITERATION    DDIFF          GRAD             ENERGY        2-EL.EN.            DIPOLE MOMENTS         DIIS   ORB.
    1      0.000D+00      0.000D+00      -129.78169057    154.310440    0.00000    0.59065   -1.02280    0    start
    2      0.000D+00      0.135D-01      -129.80873405    155.472792    0.00000    0.61202   -0.22828    1    diag
    3      0.184D-01      0.101D-01      -129.83000962    155.581057    0.00000    0.56235   -0.59587    2    diag
    4      0.886D-02      0.156D-02      -129.83074113    155.317300    0.00000    0.57077   -0.53691    3    diag
    5      0.166D-02      0.512D-03      -129.83085427    155.402720    0.00000    0.57619   -0.53820    4    diag
    6      0.715D-03      0.152D-03      -129.83087283    155.388051    0.00000    0.57676   -0.53411    5    diag
    7      0.277D-03      0.756D-04      -129.83087819    155.390374    0.00000    0.57800   -0.53168    6    diag
    8      0.190D-03      0.239D-04      -129.83087868    155.389709    0.00000    0.57802   -0.53090    7    diag
    9      0.625D-04      0.434D-05      -129.83087870    155.389596    0.00000    0.57797   -0.53075    8    diag
   10      0.121D-04      0.971D-06      -129.83087870    155.389579    0.00000    0.57794   -0.53073    9    orth
   11      0.277D-05      0.190D-06      -129.83087870    155.389575    0.00000    0.57793   -0.53072    9    diag
   12      0.507D-06      0.392D-07      -129.83087870    155.389573    0.00000    0.57793   -0.53072    9    diag
   13      0.110D-06      0.963D-08      -129.83087870    155.389573    0.00000    0.57793   -0.53072    9    diag
   14      0.271D-07      0.176D-08      -129.83087870    155.389573    0.00000    0.57793   -0.53072    9    diag
   15      0.442D-08      0.458D-09      -129.83087870    155.389573    0.00000    0.57793   -0.53072    9    diag
   16      0.106D-08      0.115D-09      -129.83087870    155.389573    0.00000    0.57793   -0.53072    9    diag
   17      0.196D-09      0.331D-10      -129.83087870    155.389573    0.00000    0.57793   -0.53072    9    diag
   18      0.618D-10      0.111D-10      -129.83087870    155.389573    0.00000    0.57793   -0.53072    9    diag
   19      0.263D-10      0.245D-11      -129.83087870    155.389573    0.00000    0.57793   -0.53072    0    orth

 Final occupancy:   7   1

 !RHF STATE 1.1 Energy               -129.830878698125
 Nuclear energy                        30.46812648
 One-electron energy                 -237.99379159
 Two-electron energy                   77.69478642
 Virial quotient                       -0.99953196
 !RHF STATE 1.1 Dipole moment           0.00000000     0.57792751    -0.53072124
 Dipole moment /Debye                   0.00000000     1.46884900    -1.34887049

 Orbital energies:

         1.1          2.1          3.1          4.1          5.1          6.1          7.1          8.1          9.1
    -20.647489   -15.706866    -1.529945    -0.989963    -0.744727    -0.663482    -0.425122     0.144311     0.370718

         1.2          2.2          3.2
     -0.594515     0.088172     0.612442

 HOMO      7.1    -0.425122 =     -11.5682eV
 LUMO      2.2     0.088172 =       2.3993eV
 LUMO-HOMO         0.513294 =      13.9674eV


 **********************************************************************************************************************************
 DATASETS  * FILE   NREC   LENGTH (MB)   RECORD NAMES
              1      19       35.89       500      610      700      900      950      970     1000      129      960     1100   
                                          VAR    BASINP    GEOM    SYMINP    ZMAT    AOBASIS   BASIS     P2S    ABASIS      S 
                                         1400     1410     1200     1210     1080     1600     1650     1300     1700   
                                           T        V       H0       H01     AOSYM     SMH    MOLCAS    ERIS     OPER   

              2       4        2.85       700     1000      520     2100   
                                         GEOM     BASIS   MCVARS     RHF  

 PROGRAMS   *        TOTAL        HF       INT
 CPU TIMES  *         0.85      0.21      0.53
 REAL TIME  *         1.44 SEC
 DISK USED  *        75.59 MB      
 **********************************************************************************************************************************


 PROGRAM * CCSD (Closed-shell coupled cluster)     Authors: C. Hampel, H.-J. Werner, 1991, M. Deegan, P.J. Knowles, 1992


 Convergence thresholds:  THRVAR = 1.00D-08  THRDEN = 1.00D-12

 CCSD(T)     terms to be evaluated (factor= 1.000)


 Number of core orbitals:           2 (   2   0 )
 Number of closed-shell orbitals:   6 (   5   1 )
 Number of external orbitals:      66 (  43  23 )

 Molecular orbitals read from record     2100.2  Type=RHF/CANONICAL (state 1.1)

 Number of N-1 electron functions:               6
 Number of N-2 electron functions:              21
 Number of singly external CSFs:               238
 Number of doubly external CSFs:             41002
 Total number of CSFs:                       41241

 Length of J-op  integral file:               0.00 MB
 Length of K-op  integral file:               0.25 MB
 Length of 3-ext integral record:             0.00 MB

 Memory could be reduced to 1.65 Mwords without degradation in triples

 Integral transformation finished. Total CPU:   0.03 sec, npass=  1  Memory used:   0.55 MW

 Reference energy:                   -129.83087870

 MP2 singlet pair energy:              -0.27302720
 MP2 triplet pair energy:              -0.16206911
 MP2 correlation energy:               -0.43509631
 MP2 total energy:                   -130.26597500

 SCS-MP2 correlation energy:           -0.42847564   (PS=  1.200000  PT=  0.333333)
 SCS-MP2 total energy:               -130.25935434

 ITER.      SQ.NORM     CORR.ENERGY   TOTAL ENERGY   ENERGY CHANGE        DEN1      VAR(S)    VAR(P)  DIIS     TIME  TIME/IT
   1      1.11786783    -0.44042911  -130.27130781    -0.00533280     0.01022233  0.29D-02  0.29D-02  1  1     0.06     0.04
   2      1.12858365    -0.44072703  -130.27160573    -0.00029792    -0.01214681  0.85D-04  0.49D-03  2  2     0.09     0.04
   3      1.13475766    -0.44110532  -130.27198402    -0.00037829    -0.00294183  0.46D-04  0.50D-04  3  3     0.11     0.04
   4      1.13750321    -0.44113099  -130.27200968    -0.00002566    -0.00094189  0.39D-05  0.87D-05  4  4     0.14     0.04
   5      1.13847219    -0.44115952  -130.27203822    -0.00002853    -0.00020057  0.13D-05  0.17D-05  5  5     0.18     0.04
   6      1.13882509    -0.44114359  -130.27202229     0.00001593    -0.00003986  0.96D-07  0.41D-06  6  6     0.21     0.04
   7      1.13891118    -0.44114552  -130.27202422    -0.00000193    -0.00000231  0.12D-07  0.86D-07  6  1     0.24     0.04
   8      1.13894160    -0.44114559  -130.27202429    -0.00000006     0.00000191  0.44D-08  0.10D-07  6  2     0.27     0.04
   9      1.13894923    -0.44114539  -130.27202409     0.00000020    -0.00000226  0.25D-08  0.11D-08  6  3     0.31     0.04
  10      1.13894799    -0.44114589  -130.27202459    -0.00000050     0.00000061  0.48D-09  0.20D-09  6  4     0.34     0.04
  11      1.13894627    -0.44114595  -130.27202465    -0.00000006     0.00000019  0.15D-09  0.22D-10  6  5     0.38     0.04
  12      1.13894489    -0.44114612  -130.27202482    -0.00000017     0.00000043  0.15D-10  0.74D-11  6  6     0.42     0.04
  13      1.13894429    -0.44114613  -130.27202483    -0.00000001     0.00000012  0.66D-11  0.12D-11  6  1     0.46     0.04
  14      1.13894391    -0.44114615  -130.27202484    -0.00000002     0.00000007  0.92D-12  0.42D-12  6  2     0.50     0.04
  15      1.13894377    -0.44114615  -130.27202485    -0.00000000     0.00000001  0.23D-12  0.14D-12  6  3     0.53     0.04
  16      1.13894368    -0.44114615  -130.27202485    -0.00000000     0.00000001  0.25D-13  0.16D-13  6  5     0.57     0.04
  17      1.13894365    -0.44114615  -130.27202485    -0.00000000     0.00000000  0.76D-15  0.22D-14  6  4     0.61     0.04
  18      1.13894365    -0.44114615  -130.27202485     0.00000000    -0.00000000  0.49D-15  0.31D-15  6  1     0.64     0.04
  19      1.13894364    -0.44114615  -130.27202485    -0.00000000     0.00000000  0.45D-16  0.56D-16  6  6     0.68     0.04
  20      1.13894364    -0.44114615  -130.27202485    -0.00000000     0.00000000  0.97D-17  0.14D-16  6  2     0.71     0.04
  21      1.13894364    -0.44114615  -130.27202485    -0.00000000     0.00000000  0.18D-17  0.10D-17  6  5     0.75     0.04
  22      1.13894364    -0.44114615  -130.27202485     0.00000000     0.00000000  0.11D-18  0.77D-19  6  3     0.78     0.04
  23      1.13894364    -0.44114615  -130.27202485     0.00000000    -0.00000000  0.30D-19  0.17D-19  6  4     0.82     0.04
  24      1.13894364    -0.44114615  -130.27202485     0.00000000    -0.00000000  0.44D-20  0.46D-20  6  1     0.85     0.04
  25      1.13894364    -0.44114615  -130.27202485     0.00000000    -0.00000000  0.52D-21  0.80D-21  6  6     0.88     0.04

 Norm of t1 vector:      0.07429149      S-energy:     0.00000000      T1 diagnostic:  0.01516469
                                                                       D1 diagnostic:  0.04180952

 Doubles amplitudes (print threshold =  0.500E-01):

         I         J         SYM. A    SYM. B    A         B      T(IJ, AB)

         6         6         2         2         1         1     -0.14235529


 Total CPU time for triples:      0.24 sec


 RESULTS
 =======

  Reference energy                   -129.830878698124
  CCSD singlet pair energy             -0.302360129696
  CCSD triplet pair energy             -0.138786021742
  CCSD correlation energy              -0.441146151437

  Triples (T) contribution             -0.019615188987
  Total correlation energy             -0.460761340425

  CCSD total energy                  -130.272024849562
  CCSD[T] energy                     -130.292637099825
  CCSD-T energy                      -130.291247620961
 !CCSD(T) total energy               -130.291640038549

 Timing summary (sec):

 STEP                 CPU(USER)    SYS     CPU(TOT)    WALL
 Transformation          0.03      0.02      0.05      0.03
 CCSD iterations         0.85      0.11      0.96      0.98
 Triples                 0.24      0.00      0.24      0.24

 Program statistics:

 Available memory in ccsd:               994999756
 Min. memory needed in ccsd:                154850
 Max. memory used in ccsd:                  184802
 Max. memory used in cckext:                238416 (25 integral passes)



 **********************************************************************************************************************************
 DATASETS  * FILE   NREC   LENGTH (MB)   RECORD NAMES
              1      20       40.28       500      610      700      900      950      970     1000      129      960     1100   
                                          VAR    BASINP    GEOM    SYMINP    ZMAT    AOBASIS   BASIS     P2S    ABASIS      S 
                                         1400     1410     1200     1210     1080     1600     1650     1300     1700     1380   
                                           T        V       H0       H01     AOSYM     SMH    MOLCAS    ERIS     OPER     JKOP   

              2       4        2.85       700     1000      520     2100   
                                         GEOM     BASIS   MCVARS     RHF  

 PROGRAMS   *        TOTAL   CCSD(T)        HF       INT
 CPU TIMES  *         2.00      1.14      0.21      0.53
 REAL TIME  *         2.74 SEC
 DISK USED  *        75.59 MB      
 **********************************************************************************************************************************

 CCSD(T)/cc-pVTZ-DK energy=   -130.291640038549

        CCSD(T)         HF-SCF  
   -130.29164004   -129.83087870
 **********************************************************************************************************************************
 Molpro calculation terminated
 Variable memory released
