
 Primary working directories    : /tmp/r2666/282597.maple
 Secondary working directories  : /tmp/r2666/282597.maple
 Wavefunction directory         : /ddn/home4/r2666/wfu/
 Main file repository           : /tmp/r2666/282597.maple/

 SHA1      : d5ffa45e93fdbca01ffc919aa182cfdae0147319
 NAME      : 2015.1.35
 ARCHNAME  : linux/x86_64
 FC        : /opt/intel/composer_xe_2015.1.133/bin/intel64/ifort
 BLASLIB   : -Wl,-_start-group /opt/intel/mkl/lib/intel64/libmkl_intel_ilp64.a /opt/intel/mkl/lib/intel64/libmkl_intel_thread.a /opt/intel/mkl/lib/intel64/libmkl_core.a -Wl,-_end-group
 id        : olemiss

 Nodes     nprocs
 cn038        1

 Using customized tuning parameters: mindgm=1; mindgv=20; mindgc=4; mindgr=1; noblas=0; minvec=7
 default implementation of scratch files=df  

 ***,hno CCSD(T)/TZ-F12 QFF
 memory, 995, m;
 gthresh,energy=1.d-12,zero=1.d-22,oneint=1.d-22,twoint=1.d-22;
 gthresh,optgrad=1.d-8,optstep=1.d-8;
 nocompress;
 geomtyp=xyz
 bohr
 geometry={
 3
        107       107
 H        0.0000000000        1.6727973741       -1.9335243628
 N        0.0000000000       -0.1666609025       -1.1547950377
 O        0.0000000000        0.0356313184        1.1377298095
 }
 
 basis=vtz-dk
 dkroll=0
   {hf,maxit=500;accu,20;}
 {ccsd(t),nocheck,maxit=250;orbital,IGNORE_ERROR;}

 Variables initialized (889), CPU time= 0.00 sec
 Commands  initialized (702), CPU time= 0.01 sec, 572 directives.
 Default parameters read. Elapsed time= 0.05 sec

 Checking input...
 Passed
1


                                         ***  PROGRAM SYSTEM MOLPRO  ***
                                       Copyright, TTI GmbH Stuttgart, 2015
                                    Version 2015.1 linked Jul  9 2018 13:16:40


 **********************************************************************************************************************************
 LABEL *   hno CCSD(T)/TZ-F12 QFF                                                        
  64 bit serial version                                                                  DATE: 04-Mar-20          TIME: 13:51:01  
 **********************************************************************************************************************************

 SHA1:             d5ffa45e93fdbca01ffc919aa182cfdae0147319
 **********************************************************************************************************************************

 THRESHOLDS:

 ZERO    =  1.00D-22  ONEINT  =  1.00D-22  TWOINT  =  1.00D-22  PREFAC  =  1.00D-14  LOCALI  =  1.00D-09  EORDER  =  1.00D-04
 ENERGY  =  1.00D-12  ETEST   =  0.00D+00  EDENS   =  0.00D+00  THRDEDEF=  1.00D-06  GRADIENT=  1.00D-02  STEP    =  1.00D-03
 ORBITAL =  1.00D-05  CIVEC   =  1.00D-05  COEFF   =  1.00D-04  PRINTCI =  5.00D-02  PUNCHCI =  9.90D+01  OPTGRAD =  3.00D-04
 OPTENERG=  1.00D-06  OPTSTEP =  3.00D-04  THRGRAD =  1.00D-10  COMPRESS=  1.00D-11  VARMIN  =  1.00D-07  VARMAX  =  1.00D-03
 THRDOUB =  0.00D+00  THRDIV  =  1.00D-05  THRRED  =  1.00D-07  THRPSP  =  1.00D+00  THRDC   =  1.00D-10  THRCS   =  1.00D-10
 THRNRM  =  1.00D-08  THREQ   =  0.00D+00  THRDE   =  1.00D+00  THRREF  =  1.00D-05  SPARFAC =  1.00D+00  THRDLP  =  1.00D-07
 THRDIA  =  1.00D-10  THRDLS  =  1.00D-07  THRGPS  =  0.00D+00  THRKEX  =  0.00D+00  THRDIS  =  2.00D-01  THRVAR  =  1.00D-10
 THRLOC  =  1.00D-06  THRGAP  =  1.00D-06  THRLOCT = -1.00D+00  THRGAPT = -1.00D+00  THRORB  =  1.00D-06  THRMLTP =  0.00D+00
 THRCPQCI=  1.00D-10  KEXTA   =  0.00D+00  THRCOARS=  0.00D+00  SYMTOL  =  1.00D-06  GRADTOL =  1.00D-06  THROVL  =  1.00D-08
 THRORTH =  1.00D-08  GRID    =  1.00D-06  GRIDMAX =  1.00D-03  DTMAX   =  0.00D+00  THROCCDE=  1.00D-01  THROCCDE=  1.00D-01



 THRESHOLDS:

 ZERO    =  1.00D-22  ONEINT  =  1.00D-22  TWOINT  =  1.00D-22  PREFAC  =  1.00D-14  LOCALI  =  1.00D-09  EORDER  =  1.00D-04
 ENERGY  =  1.00D-12  ETEST   =  0.00D+00  EDENS   =  0.00D+00  THRDEDEF=  1.00D-06  GRADIENT=  1.00D-02  STEP    =  1.00D-03
 ORBITAL =  1.00D-05  CIVEC   =  1.00D-05  COEFF   =  1.00D-04  PRINTCI =  5.00D-02  PUNCHCI =  9.90D+01  OPTGRAD =  1.00D-08
 OPTENERG=  1.00D-06  OPTSTEP =  1.00D-08  THRGRAD =  1.00D-10  COMPRESS=  1.00D-11  VARMIN  =  1.00D-07  VARMAX  =  1.00D-03
 THRDOUB =  0.00D+00  THRDIV  =  1.00D-05  THRRED  =  1.00D-07  THRPSP  =  1.00D+00  THRDC   =  1.00D-10  THRCS   =  1.00D-10
 THRNRM  =  1.00D-08  THREQ   =  0.00D+00  THRDE   =  1.00D+00  THRREF  =  1.00D-05  SPARFAC =  1.00D+00  THRDLP  =  1.00D-07
 THRDIA  =  1.00D-10  THRDLS  =  1.00D-07  THRGPS  =  0.00D+00  THRKEX  =  0.00D+00  THRDIS  =  2.00D-01  THRVAR  =  1.00D-10
 THRLOC  =  1.00D-06  THRGAP  =  1.00D-06  THRLOCT = -1.00D+00  THRGAPT = -1.00D+00  THRORB  =  1.00D-06  THRMLTP =  0.00D+00
 THRCPQCI=  1.00D-10  KEXTA   =  0.00D+00  THRCOARS=  0.00D+00  SYMTOL  =  1.00D-06  GRADTOL =  1.00D-06  THROVL  =  1.00D-08
 THRORTH =  1.00D-08  GRID    =  1.00D-06  GRIDMAX =  1.00D-03  DTMAX   =  0.00D+00  THROCCDE=  1.00D-01  THROCCDE=  1.00D-01



 Input parameters for SORTINT:

 COMPRESS =    0.000000
 C_FINAL  =    1.000000
 DEBUG    =   -1.000000
 C_SORT1  =    0.000000
 C_SEWARD =    0.000000
 THRESH   =    0.000000
 IO       =  molpro                                                          
 SPRI     =    0.000000
 SETTING GEOMTYP        =    XYZ
 ZUNIT=BOHR
 

 Variable memory set to  995000000 words,  buffer space   230000 words

 SETTING BASIS          =    VTZ-DK
 SETTING DKROLL         =     0.00000000D+00                                  


 Recomputing integrals since basis changed


 Using spherical harmonics

 Library entry H      S cc-pVTZ-DK           selected for orbital group  1
 Library entry H      P cc-pVTZ-DK           selected for orbital group  1
 Library entry H      D cc-pVTZ-DK           selected for orbital group  1
 Library entry N      S cc-pVTZ-DK           selected for orbital group  2
 Library entry N      P cc-pVTZ-DK           selected for orbital group  2
 Library entry N      D cc-pVTZ-DK           selected for orbital group  2
 Library entry N      F cc-pVTZ-DK           selected for orbital group  2
 Library entry O      S cc-pVTZ-DK           selected for orbital group  3
 Library entry O      P cc-pVTZ-DK           selected for orbital group  3
 Library entry O      D cc-pVTZ-DK           selected for orbital group  3
 Library entry O      F cc-pVTZ-DK           selected for orbital group  3


 PROGRAM * SEWARD (Integral evaluation for generally contracted gaussian basis sets)     Author: Roland Lindh, 1990

 Geometry written to block  1 of record 700


 Point group  Cs  



 ATOMIC COORDINATES

 NR  ATOM    CHARGE       X              Y              Z

   1  H       1.00    0.000000000    1.672797374   -1.933524363
   2  N       7.00    0.000000000   -0.166660903   -1.154795038
   3  O       8.00    0.000000000    0.035631318    1.137729809

 Bond lengths in Bohr (Angstrom)

 1-2  1.997504972  2-3  2.301432666
     ( 1.057034110)     ( 1.217865719)

 Bond angles

  1-2-3  107.90251459

 NUCLEAR CHARGE:                   16
 NUMBER OF PRIMITIVE AOS:         111
 NUMBER OF SYMMETRY AOS:          100
 NUMBER OF CONTRACTIONS:           74   (  50A'  +  24A"  )
 NUMBER OF CORE ORBITALS:           2   (   2A'  +   0A"  )
 NUMBER OF VALENCE ORBITALS:        9   (   7A'  +   2A"  )


 NUCLEAR REPULSION ENERGY   30.13565298

 Eigenvalues of metric

         1 0.250E-02 0.402E-02 0.431E-02 0.850E-02 0.131E-01 0.334E-01 0.431E-01 0.465E-01
         2 0.348E-01 0.467E-01 0.103E+00 0.114E+00 0.238E+00 0.344E+00 0.399E+00 0.453E+00


 Contracted 2-electron integrals neglected if value below      1.0D-22

        1874283. INTEGRALS WRITTEN OUT IN     458 BLOCKS ON RECORD 1290 OF FILE 1


 NUMBER OF SORTED TWO-ELECTRON INTEGRALS:    2006100.     BUFFER LENGTH:  32768
 NUMBER OF SEGMENTS:   1  SEGMENT LENGTH:    2006100      RECORD LENGTH: 524288

 Memory used in sort:       2.56 MW

 SORT1 READ     1874283. AND WROTE     1914195. INTEGRALS IN      6 RECORDS. CPU TIME:     0.05 SEC, REAL TIME:     0.07 SEC
 SORT2 READ     1914195. AND WROTE     2006100. INTEGRALS IN      1 RECORDS. CPU TIME:     0.04 SEC, REAL TIME:     0.06 SEC

 FILE SIZES:   FILE 1:    50.1 MBYTE,  FILE 4:    25.2 MBYTE,   TOTAL:     75.3 MBYTE

 OPERATOR DM      FOR CENTER  0  COORDINATES:    0.000000    0.000000    0.000000


 **********************************************************************************************************************************
 DATASETS  * FILE   NREC   LENGTH (MB)   RECORD NAMES
              1      19       35.89       500      610      700      900      950      970     1000      129      960     1100   
                                          VAR    BASINP    GEOM    SYMINP    ZMAT    AOBASIS   BASIS     P2S    ABASIS      S 
                                         1400     1410     1200     1210     1080     1600     1650     1300     1700   
                                           T        V       H0       H01     AOSYM     SMH    MOLCAS    ERIS     OPER   

 PROGRAMS   *        TOTAL       INT
 CPU TIMES  *         0.62      0.52
 REAL TIME  *         3.23 SEC
 DISK USED  *        75.59 MB      
 **********************************************************************************************************************************


 PROGRAM * RHF-SCF (CLOSED SHELL)       Authors: W. Meyer, H.-J. Werner


 NUMBER OF ELECTRONS:       8+    8-
 CONVERGENCE THRESHOLDS:    1.00E-10 (Density)    1.00E-13 (Energy)
 MAX. NUMBER OF ITERATIONS:      500
 INTERPOLATION TYPE:            DIIS
 INTERPOLATION STEPS:              2 (START)      1 (STEP)
 LEVEL SHIFTS:                  0.00 (CLOSED)  0.00 (OPEN) 



 Orbital guess generated from atomic densities. Full valence occupancy:    9   2

 Molecular orbital dump at record        2100.2

 Initial occupancy:   7   1

 ITERATION    DDIFF          GRAD             ENERGY        2-EL.EN.            DIPOLE MOMENTS         DIIS   ORB.
    1      0.000D+00      0.000D+00      -129.77686813    153.713394    0.00000    0.58918   -1.07003    0    start
    2      0.000D+00      0.137D-01      -129.80344170    154.850371    0.00000    0.62190   -0.21545    1    diag
    3      0.190D-01      0.107D-01      -129.82750932    154.989057    0.00000    0.56581   -0.61430    2    diag
    4      0.930D-02      0.158D-02      -129.82826816    154.714588    0.00000    0.57417   -0.55309    3    diag
    5      0.168D-02      0.525D-03      -129.82838781    154.801458    0.00000    0.57960   -0.55405    4    diag
    6      0.733D-03      0.156D-03      -129.82840765    154.786463    0.00000    0.58010   -0.54966    5    diag
    7      0.284D-03      0.791D-04      -129.82841363    154.788642    0.00000    0.58131   -0.54701    6    diag
    8      0.198D-03      0.262D-04      -129.82841426    154.787900    0.00000    0.58132   -0.54612    7    diag
    9      0.709D-04      0.482D-05      -129.82841428    154.787772    0.00000    0.58127   -0.54595    8    diag
   10      0.139D-04      0.104D-05      -129.82841428    154.787754    0.00000    0.58123   -0.54592    9    orth
   11      0.292D-05      0.203D-06      -129.82841428    154.787750    0.00000    0.58123   -0.54592    9    diag
   12      0.527D-06      0.435D-07      -129.82841428    154.787748    0.00000    0.58122   -0.54592    9    diag
   13      0.117D-06      0.112D-07      -129.82841428    154.787748    0.00000    0.58122   -0.54592    9    diag
   14      0.299D-07      0.200D-08      -129.82841428    154.787748    0.00000    0.58122   -0.54592    9    diag
   15      0.448D-08      0.506D-09      -129.82841428    154.787748    0.00000    0.58122   -0.54592    9    diag
   16      0.110D-08      0.120D-09      -129.82841428    154.787748    0.00000    0.58122   -0.54592    9    diag
   17      0.174D-09      0.337D-10      -129.82841428    154.787748    0.00000    0.58122   -0.54592    9    diag
   18      0.513D-10      0.113D-10      -129.82841428    154.787748    0.00000    0.58122   -0.54592    9    diag
   19      0.219D-10      0.241D-11      -129.82841428    154.787748    0.00000    0.58122   -0.54592    9    fixocc
   20      0.603D-11      0.466D-12      -129.82841428    154.787748    0.00000    0.58122   -0.54592    9    orth
   21      0.128D-11      0.148D-12      -129.82841428    154.787748    0.00000    0.58122   -0.54592    9    diag
   22      0.424D-12      0.309D-13      -129.82841428    154.787748    0.00000    0.58122   -0.54592    0    orth

 Final occupancy:   7   1

 !RHF STATE 1.1 Energy               -129.828414283697
 Nuclear energy                        30.13565298
 One-electron energy                 -237.35794115
 Two-electron energy                   77.39387389
 Virial quotient                       -0.99999854
 !RHF STATE 1.1 Dipole moment           0.00000000     0.58122301    -0.54591857
 Dipole moment /Debye                   0.00000000     1.47722477    -1.38749572

 Orbital energies:

         1.1          2.1          3.1          4.1          5.1          6.1          7.1          8.1          9.1
    -20.648866   -15.710244    -1.517982    -0.991889    -0.739642    -0.659088    -0.429771     0.143225     0.368566

         1.2          2.2          3.2
     -0.587614     0.082671     0.614018

 HOMO      7.1    -0.429771 =     -11.6947eV
 LUMO      2.2     0.082671 =       2.2496eV
 LUMO-HOMO         0.512441 =      13.9442eV


 **********************************************************************************************************************************
 DATASETS  * FILE   NREC   LENGTH (MB)   RECORD NAMES
              1      19       35.89       500      610      700      900      950      970     1000      129      960     1100   
                                          VAR    BASINP    GEOM    SYMINP    ZMAT    AOBASIS   BASIS     P2S    ABASIS      S 
                                         1400     1410     1200     1210     1080     1600     1650     1300     1700   
                                           T        V       H0       H01     AOSYM     SMH    MOLCAS    ERIS     OPER   

              2       4        2.85       700     1000      520     2100   
                                         GEOM     BASIS   MCVARS     RHF  

 PROGRAMS   *        TOTAL        HF       INT
 CPU TIMES  *         0.88      0.26      0.52
 REAL TIME  *         3.54 SEC
 DISK USED  *        75.59 MB      
 **********************************************************************************************************************************


 PROGRAM * CCSD (Closed-shell coupled cluster)     Authors: C. Hampel, H.-J. Werner, 1991, M. Deegan, P.J. Knowles, 1992


 Convergence thresholds:  THRVAR = 1.00D-08  THRDEN = 1.00D-12

 CCSD(T)     terms to be evaluated (factor= 1.000)


 Number of core orbitals:           2 (   2   0 )
 Number of closed-shell orbitals:   6 (   5   1 )
 Number of external orbitals:      66 (  43  23 )

 Molecular orbitals read from record     2100.2  Type=RHF/CANONICAL (state 1.1)

 Number of N-1 electron functions:               6
 Number of N-2 electron functions:              21
 Number of singly external CSFs:               238
 Number of doubly external CSFs:             41002
 Total number of CSFs:                       41241

 Length of J-op  integral file:               0.00 MB
 Length of K-op  integral file:               0.25 MB
 Length of 3-ext integral record:             0.00 MB

 Memory could be reduced to 1.65 Mwords without degradation in triples

 Integral transformation finished. Total CPU:   0.03 sec, npass=  1  Memory used:   0.55 MW

 Reference energy:                   -129.82841428

 MP2 singlet pair energy:              -0.27473687
 MP2 triplet pair energy:              -0.16317764
 MP2 correlation energy:               -0.43791451
 MP2 total energy:                   -130.26632880

 SCS-MP2 correlation energy:           -0.43121700   (PS=  1.200000  PT=  0.333333)
 SCS-MP2 total energy:               -130.25963128

 ITER.      SQ.NORM     CORR.ENERGY   TOTAL ENERGY   ENERGY CHANGE        DEN1      VAR(S)    VAR(P)  DIIS     TIME  TIME/IT
   1      1.11965603    -0.44266332  -130.27107761    -0.00474881     0.01146577  0.31D-02  0.31D-02  1  1     0.08     0.05
   2      1.13076953    -0.44284562  -130.27125990    -0.00018230    -0.01253159  0.94D-04  0.52D-03  2  2     0.13     0.05
   3      1.13728506    -0.44324981  -130.27166409    -0.00040419    -0.00305643  0.50D-04  0.53D-04  3  3     0.18     0.05
   4      1.14021604    -0.44327666  -130.27169094    -0.00002685    -0.00099311  0.43D-05  0.93D-05  4  4     0.23     0.05
   5      1.14127521    -0.44330823  -130.27172252    -0.00003157    -0.00021949  0.14D-05  0.17D-05  5  5     0.27     0.05
   6      1.14164912    -0.44329037  -130.27170466     0.00001786    -0.00004293  0.10D-06  0.41D-06  6  6     0.31     0.05
   7      1.14173449    -0.44329251  -130.27170679    -0.00000213    -0.00000173  0.12D-07  0.90D-07  6  1     0.36     0.05
   8      1.14176545    -0.44329237  -130.27170665     0.00000014     0.00000189  0.44D-08  0.11D-07  6  2     0.41     0.05
   9      1.14177370    -0.44329214  -130.27170642     0.00000023    -0.00000231  0.26D-08  0.13D-08  6  3     0.46     0.05
  10      1.14177245    -0.44329267  -130.27170695    -0.00000053     0.00000063  0.50D-09  0.23D-09  6  4     0.50     0.05
  11      1.14177070    -0.44329273  -130.27170701    -0.00000006     0.00000017  0.15D-09  0.24D-10  6  5     0.55     0.05
  12      1.14176926    -0.44329291  -130.27170720    -0.00000019     0.00000045  0.15D-10  0.79D-11  6  6     0.59     0.05
  13      1.14176862    -0.44329292  -130.27170721    -0.00000001     0.00000013  0.68D-11  0.13D-11  6  1     0.65     0.05
  14      1.14176821    -0.44329294  -130.27170723    -0.00000002     0.00000008  0.97D-12  0.45D-12  6  2     0.69     0.05
  15      1.14176806    -0.44329294  -130.27170723    -0.00000000     0.00000002  0.26D-12  0.14D-12  6  3     0.74     0.05
  16      1.14176794    -0.44329295  -130.27170723    -0.00000000     0.00000002  0.80D-14  0.37D-13  6  1     0.79     0.05
  17      1.14176792    -0.44329295  -130.27170723     0.00000000    -0.00000000  0.28D-14  0.24D-14  6  4     0.84     0.05
  18      1.14176791    -0.44329295  -130.27170723    -0.00000000     0.00000000  0.70D-15  0.41D-15  6  5     0.88     0.05
  19      1.14176792    -0.44329295  -130.27170723     0.00000000    -0.00000000  0.14D-15  0.81D-16  6  6     0.93     0.05
  20      1.14176791    -0.44329295  -130.27170723    -0.00000000     0.00000000  0.22D-16  0.20D-16  6  2     0.98     0.05
  21      1.14176791    -0.44329295  -130.27170723    -0.00000000     0.00000000  0.61D-18  0.15D-17  6  4     1.02     0.05
  22      1.14176791    -0.44329295  -130.27170723    -0.00000000     0.00000000  0.89D-19  0.15D-18  6  3     1.06     0.05
  23      1.14176791    -0.44329295  -130.27170723    -0.00000000     0.00000000  0.82D-20  0.15D-19  6  1     1.11     0.05
  24      1.14176791    -0.44329295  -130.27170723     0.00000000     0.00000000  0.43D-20  0.21D-20  6  6     1.15     0.05
  25      1.14176791    -0.44329295  -130.27170723     0.00000000    -0.00000000  0.27D-21  0.48D-21  6  4     1.20     0.05

 Norm of t1 vector:      0.07675791      S-energy:    -0.00000000      T1 diagnostic:  0.01566814
                                                                       D1 diagnostic:  0.04373409

 Doubles amplitudes (print threshold =  0.500E-01):

         I         J         SYM. A    SYM. B    A         B      T(IJ, AB)

         6         6         2         2         1         1     -0.14648772


 Total CPU time for triples:      0.36 sec


 RESULTS
 =======

  Reference energy                   -129.828414283697
  CCSD singlet pair energy             -0.304230334973
  CCSD triplet pair energy             -0.139062613855
  CCSD correlation energy              -0.443292948828

  Triples (T) contribution             -0.020095998337
  Total correlation energy             -0.463388947166

  CCSD total energy                  -130.271707232525
  CCSD[T] energy                     -130.292866759618
  CCSD-T energy                      -130.291393775506
 !CCSD(T) total energy               -130.291803230862

 Timing summary (sec):

 STEP                 CPU(USER)    SYS     CPU(TOT)    WALL
 Transformation          0.03      0.03      0.06      0.05
 CCSD iterations         1.18      0.11      1.29      1.30
 Triples                 0.36      0.01      0.37      0.37

 Program statistics:

 Available memory in ccsd:               994999756
 Min. memory needed in ccsd:                154850
 Max. memory used in ccsd:                  184802
 Max. memory used in cckext:                238416 (25 integral passes)



 **********************************************************************************************************************************
 DATASETS  * FILE   NREC   LENGTH (MB)   RECORD NAMES
              1      20       40.28       500      610      700      900      950      970     1000      129      960     1100   
                                          VAR    BASINP    GEOM    SYMINP    ZMAT    AOBASIS   BASIS     P2S    ABASIS      S 
                                         1400     1410     1200     1210     1080     1600     1650     1300     1700     1380   
                                           T        V       H0       H01     AOSYM     SMH    MOLCAS    ERIS     OPER     JKOP   

              2       4        2.85       700     1000      520     2100   
                                         GEOM     BASIS   MCVARS     RHF  

 PROGRAMS   *        TOTAL   CCSD(T)        HF       INT
 CPU TIMES  *         2.46      1.58      0.26      0.52
 REAL TIME  *         5.29 SEC
 DISK USED  *        75.59 MB      
 **********************************************************************************************************************************

 CCSD(T)/cc-pVTZ-DK energy=   -130.291803230862

        CCSD(T)         HF-SCF  
   -130.29180323   -129.82841428
 **********************************************************************************************************************************
 Molpro calculation terminated
 Variable memory released
