
 Primary working directories    : /tmp/r2666/282536.maple
 Secondary working directories  : /tmp/r2666/282536.maple
 Wavefunction directory         : /ddn/home4/r2666/wfu/
 Main file repository           : /tmp/r2666/282536.maple/

 SHA1      : d5ffa45e93fdbca01ffc919aa182cfdae0147319
 NAME      : 2015.1.35
 ARCHNAME  : linux/x86_64
 FC        : /opt/intel/composer_xe_2015.1.133/bin/intel64/ifort
 BLASLIB   : -Wl,-_start-group /opt/intel/mkl/lib/intel64/libmkl_intel_ilp64.a /opt/intel/mkl/lib/intel64/libmkl_intel_thread.a /opt/intel/mkl/lib/intel64/libmkl_core.a -Wl,-_end-group
 id        : olemiss

 Nodes     nprocs
 cn084        1

 Using customized tuning parameters: mindgm=1; mindgv=20; mindgc=4; mindgr=1; noblas=0; minvec=7
 default implementation of scratch files=df  

 ***,hno CCSD(T)/TZ-F12 QFF
 memory, 995, m;
 gthresh,energy=1.d-12,zero=1.d-22,oneint=1.d-22,twoint=1.d-22;
 gthresh,optgrad=1.d-8,optstep=1.d-8;
 nocompress;
 geomtyp=xyz
 bohr
 geometry={
 3
         46        46
 H        0.0000000000        1.6636200501       -1.9205521379
 N        0.0000000000       -0.1617288543       -1.1328533399
 O        0.0000000000        0.0398765942        1.1028158868
 }
 
 basis=vtz-dk
 dkroll=0
   {hf,maxit=500;accu,20;}
 {ccsd(t),nocheck,maxit=250;orbital,IGNORE_ERROR;}

 Variables initialized (889), CPU time= 0.01 sec
 Commands  initialized (702), CPU time= 0.00 sec, 572 directives.
 Default parameters read. Elapsed time= 0.05 sec

 Checking input...
 Passed
1


                                         ***  PROGRAM SYSTEM MOLPRO  ***
                                       Copyright, TTI GmbH Stuttgart, 2015
                                    Version 2015.1 linked Jul  9 2018 13:16:40


 **********************************************************************************************************************************
 LABEL *   hno CCSD(T)/TZ-F12 QFF                                                        
  64 bit serial version                                                                  DATE: 04-Mar-20          TIME: 13:50:53  
 **********************************************************************************************************************************

 SHA1:             d5ffa45e93fdbca01ffc919aa182cfdae0147319
 **********************************************************************************************************************************

 THRESHOLDS:

 ZERO    =  1.00D-22  ONEINT  =  1.00D-22  TWOINT  =  1.00D-22  PREFAC  =  1.00D-14  LOCALI  =  1.00D-09  EORDER  =  1.00D-04
 ENERGY  =  1.00D-12  ETEST   =  0.00D+00  EDENS   =  0.00D+00  THRDEDEF=  1.00D-06  GRADIENT=  1.00D-02  STEP    =  1.00D-03
 ORBITAL =  1.00D-05  CIVEC   =  1.00D-05  COEFF   =  1.00D-04  PRINTCI =  5.00D-02  PUNCHCI =  9.90D+01  OPTGRAD =  3.00D-04
 OPTENERG=  1.00D-06  OPTSTEP =  3.00D-04  THRGRAD =  1.00D-10  COMPRESS=  1.00D-11  VARMIN  =  1.00D-07  VARMAX  =  1.00D-03
 THRDOUB =  0.00D+00  THRDIV  =  1.00D-05  THRRED  =  1.00D-07  THRPSP  =  1.00D+00  THRDC   =  1.00D-10  THRCS   =  1.00D-10
 THRNRM  =  1.00D-08  THREQ   =  0.00D+00  THRDE   =  1.00D+00  THRREF  =  1.00D-05  SPARFAC =  1.00D+00  THRDLP  =  1.00D-07
 THRDIA  =  1.00D-10  THRDLS  =  1.00D-07  THRGPS  =  0.00D+00  THRKEX  =  0.00D+00  THRDIS  =  2.00D-01  THRVAR  =  1.00D-10
 THRLOC  =  1.00D-06  THRGAP  =  1.00D-06  THRLOCT = -1.00D+00  THRGAPT = -1.00D+00  THRORB  =  1.00D-06  THRMLTP =  0.00D+00
 THRCPQCI=  1.00D-10  KEXTA   =  0.00D+00  THRCOARS=  0.00D+00  SYMTOL  =  1.00D-06  GRADTOL =  1.00D-06  THROVL  =  1.00D-08
 THRORTH =  1.00D-08  GRID    =  1.00D-06  GRIDMAX =  1.00D-03  DTMAX   =  0.00D+00  THROCCDE=  1.00D-01  THROCCDE=  1.00D-01



 THRESHOLDS:

 ZERO    =  1.00D-22  ONEINT  =  1.00D-22  TWOINT  =  1.00D-22  PREFAC  =  1.00D-14  LOCALI  =  1.00D-09  EORDER  =  1.00D-04
 ENERGY  =  1.00D-12  ETEST   =  0.00D+00  EDENS   =  0.00D+00  THRDEDEF=  1.00D-06  GRADIENT=  1.00D-02  STEP    =  1.00D-03
 ORBITAL =  1.00D-05  CIVEC   =  1.00D-05  COEFF   =  1.00D-04  PRINTCI =  5.00D-02  PUNCHCI =  9.90D+01  OPTGRAD =  1.00D-08
 OPTENERG=  1.00D-06  OPTSTEP =  1.00D-08  THRGRAD =  1.00D-10  COMPRESS=  1.00D-11  VARMIN  =  1.00D-07  VARMAX  =  1.00D-03
 THRDOUB =  0.00D+00  THRDIV  =  1.00D-05  THRRED  =  1.00D-07  THRPSP  =  1.00D+00  THRDC   =  1.00D-10  THRCS   =  1.00D-10
 THRNRM  =  1.00D-08  THREQ   =  0.00D+00  THRDE   =  1.00D+00  THRREF  =  1.00D-05  SPARFAC =  1.00D+00  THRDLP  =  1.00D-07
 THRDIA  =  1.00D-10  THRDLS  =  1.00D-07  THRGPS  =  0.00D+00  THRKEX  =  0.00D+00  THRDIS  =  2.00D-01  THRVAR  =  1.00D-10
 THRLOC  =  1.00D-06  THRGAP  =  1.00D-06  THRLOCT = -1.00D+00  THRGAPT = -1.00D+00  THRORB  =  1.00D-06  THRMLTP =  0.00D+00
 THRCPQCI=  1.00D-10  KEXTA   =  0.00D+00  THRCOARS=  0.00D+00  SYMTOL  =  1.00D-06  GRADTOL =  1.00D-06  THROVL  =  1.00D-08
 THRORTH =  1.00D-08  GRID    =  1.00D-06  GRIDMAX =  1.00D-03  DTMAX   =  0.00D+00  THROCCDE=  1.00D-01  THROCCDE=  1.00D-01



 Input parameters for SORTINT:

 COMPRESS =    0.000000
 C_FINAL  =    1.000000
 DEBUG    =   -1.000000
 C_SORT1  =    0.000000
 C_SEWARD =    0.000000
 THRESH   =    0.000000
 IO       =  molpro                                                          
 SPRI     =    0.000000
 SETTING GEOMTYP        =    XYZ
 ZUNIT=BOHR
 

 Variable memory set to  995000000 words,  buffer space   230000 words

 SETTING BASIS          =    VTZ-DK
 SETTING DKROLL         =     0.00000000D+00                                  


 Recomputing integrals since basis changed


 Using spherical harmonics

 Library entry H      S cc-pVTZ-DK           selected for orbital group  1
 Library entry H      P cc-pVTZ-DK           selected for orbital group  1
 Library entry H      D cc-pVTZ-DK           selected for orbital group  1
 Library entry N      S cc-pVTZ-DK           selected for orbital group  2
 Library entry N      P cc-pVTZ-DK           selected for orbital group  2
 Library entry N      D cc-pVTZ-DK           selected for orbital group  2
 Library entry N      F cc-pVTZ-DK           selected for orbital group  2
 Library entry O      S cc-pVTZ-DK           selected for orbital group  3
 Library entry O      P cc-pVTZ-DK           selected for orbital group  3
 Library entry O      D cc-pVTZ-DK           selected for orbital group  3
 Library entry O      F cc-pVTZ-DK           selected for orbital group  3


 PROGRAM * SEWARD (Integral evaluation for generally contracted gaussian basis sets)     Author: Roland Lindh, 1990

 Geometry written to block  1 of record 700


 Point group  Cs  



 ATOMIC COORDINATES

 NR  ATOM    CHARGE       X              Y              Z

   1  H       1.00    0.000000000    1.663620050   -1.920552138
   2  N       7.00    0.000000000   -0.161728854   -1.132853340
   3  O       8.00    0.000000000    0.039876594    1.102815887

 Bond lengths in Bohr (Angstrom)

 1-2  1.988056342  2-3  2.244740887
     ( 1.052034110)     ( 1.187865722)

 Bond angles

  1-2-3  108.18899349

 NUCLEAR CHARGE:                   16
 NUMBER OF PRIMITIVE AOS:         111
 NUMBER OF SYMMETRY AOS:          100
 NUMBER OF CONTRACTIONS:           74   (  50A'  +  24A"  )
 NUMBER OF CORE ORBITALS:           2   (   2A'  +   0A"  )
 NUMBER OF VALENCE ORBITALS:        9   (   7A'  +   2A"  )


 NUCLEAR REPULSION ENERGY   30.79936069

 Eigenvalues of metric

         1 0.237E-02 0.380E-02 0.398E-02 0.825E-02 0.130E-01 0.314E-01 0.413E-01 0.462E-01
         2 0.333E-01 0.462E-01 0.990E-01 0.110E+00 0.227E+00 0.340E+00 0.389E+00 0.443E+00


 Contracted 2-electron integrals neglected if value below      1.0D-22

        1874283. INTEGRALS WRITTEN OUT IN     458 BLOCKS ON RECORD 1290 OF FILE 1


 NUMBER OF SORTED TWO-ELECTRON INTEGRALS:    2006100.     BUFFER LENGTH:  32768
 NUMBER OF SEGMENTS:   1  SEGMENT LENGTH:    2006100      RECORD LENGTH: 524288

 Memory used in sort:       2.56 MW

 SORT1 READ     1874283. AND WROTE     1914195. INTEGRALS IN      6 RECORDS. CPU TIME:     0.03 SEC, REAL TIME:     0.04 SEC
 SORT2 READ     1914195. AND WROTE     2006100. INTEGRALS IN      1 RECORDS. CPU TIME:     0.06 SEC, REAL TIME:     0.06 SEC

 FILE SIZES:   FILE 1:    50.1 MBYTE,  FILE 4:    25.2 MBYTE,   TOTAL:     75.3 MBYTE

 OPERATOR DM      FOR CENTER  0  COORDINATES:    0.000000    0.000000    0.000000


 **********************************************************************************************************************************
 DATASETS  * FILE   NREC   LENGTH (MB)   RECORD NAMES
              1      19       35.89       500      610      700      900      950      970     1000      129      960     1100   
                                          VAR    BASINP    GEOM    SYMINP    ZMAT    AOBASIS   BASIS     P2S    ABASIS      S 
                                         1400     1410     1200     1210     1080     1600     1650     1300     1700   
                                           T        V       H0       H01     AOSYM     SMH    MOLCAS    ERIS     OPER   

 PROGRAMS   *        TOTAL       INT
 CPU TIMES  *         0.64      0.55
 REAL TIME  *         1.21 SEC
 DISK USED  *        75.59 MB      
 **********************************************************************************************************************************


 PROGRAM * RHF-SCF (CLOSED SHELL)       Authors: W. Meyer, H.-J. Werner


 NUMBER OF ELECTRONS:       8+    8-
 CONVERGENCE THRESHOLDS:    1.00E-10 (Density)    1.00E-13 (Energy)
 MAX. NUMBER OF ITERATIONS:      500
 INTERPOLATION TYPE:            DIIS
 INTERPOLATION STEPS:              2 (START)      1 (STEP)
 LEVEL SHIFTS:                  0.00 (CLOSED)  0.00 (OPEN) 



 Orbital guess generated from atomic densities. Full valence occupancy:    9   2

 Molecular orbital dump at record        2100.2

 Initial occupancy:   7   1

 ITERATION    DDIFF          GRAD             ENERGY        2-EL.EN.            DIPOLE MOMENTS         DIIS   ORB.
    1      0.000D+00      0.000D+00      -129.78522051    154.905617    0.00000    0.58088   -0.97503    0    start
    2      0.000D+00      0.132D-01      -129.81255207    156.090086    0.00000    0.60174   -0.23248    1    diag
    3      0.179D-01      0.964D-02      -129.83163340    156.168692    0.00000    0.55335   -0.57280    2    diag
    4      0.849D-02      0.153D-02      -129.83233488    155.915812    0.00000    0.56218   -0.51643    3    diag
    5      0.163D-02      0.500D-03      -129.83244262    155.999918    0.00000    0.56757   -0.51801    4    diag
    6      0.698D-03      0.148D-03      -129.83246018    155.985465    0.00000    0.56821   -0.51420    5    diag
    7      0.270D-03      0.726D-04      -129.83246503    155.987947    0.00000    0.56949   -0.51198    6    diag
    8      0.182D-03      0.219D-04      -129.83246542    155.987338    0.00000    0.56951   -0.51129    7    diag
    9      0.556D-04      0.393D-05      -129.83246543    155.987239    0.00000    0.56947   -0.51116    8    diag
   10      0.106D-04      0.907D-06      -129.83246544    155.987222    0.00000    0.56943   -0.51114    9    orth
   11      0.261D-05      0.180D-06      -129.83246544    155.987218    0.00000    0.56943   -0.51113    9    diag
   12      0.491D-06      0.365D-07      -129.83246544    155.987216    0.00000    0.56943   -0.51113    9    diag
   13      0.106D-06      0.879D-08      -129.83246544    155.987216    0.00000    0.56943   -0.51113    9    diag
   14      0.257D-07      0.169D-08      -129.83246544    155.987216    0.00000    0.56943   -0.51113    9    diag
   15      0.461D-08      0.473D-09      -129.83246544    155.987216    0.00000    0.56943   -0.51113    9    diag
   16      0.112D-08      0.136D-09      -129.83246544    155.987216    0.00000    0.56943   -0.51113    9    diag
   17      0.250D-09      0.400D-10      -129.83246544    155.987216    0.00000    0.56943   -0.51113    9    diag
   18      0.840D-10      0.121D-10      -129.83246544    155.987216    0.00000    0.56943   -0.51113    9    diag
   19      0.273D-10      0.268D-11      -129.83246544    155.987216    0.00000    0.56943   -0.51113    0    orth

 Final occupancy:   7   1

 !RHF STATE 1.1 Energy               -129.832465435645
 Nuclear energy                        30.79936069
 One-electron energy                 -238.62543412
 Two-electron energy                   77.99360799
 Virial quotient                       -0.99906295
 !RHF STATE 1.1 Dipole moment           0.00000000     0.56942538    -0.51113194
 Dipole moment /Debye                   0.00000000     1.44724016    -1.29908271

 Orbital energies:

         1.1          2.1          3.1          4.1          5.1          6.1          7.1          8.1          9.1
    -20.645995   -15.704362    -1.542694    -0.986295    -0.749459    -0.667803    -0.420630     0.145273     0.372426

         1.2          2.2          3.2
     -0.601872     0.093850     0.610681

 HOMO      7.1    -0.420630 =     -11.4459eV
 LUMO      2.2     0.093850 =       2.5538eV
 LUMO-HOMO         0.514480 =      13.9997eV


 **********************************************************************************************************************************
 DATASETS  * FILE   NREC   LENGTH (MB)   RECORD NAMES
              1      19       35.89       500      610      700      900      950      970     1000      129      960     1100   
                                          VAR    BASINP    GEOM    SYMINP    ZMAT    AOBASIS   BASIS     P2S    ABASIS      S 
                                         1400     1410     1200     1210     1080     1600     1650     1300     1700   
                                           T        V       H0       H01     AOSYM     SMH    MOLCAS    ERIS     OPER   

              2       4        2.85       700     1000      520     2100   
                                         GEOM     BASIS   MCVARS     RHF  

 PROGRAMS   *        TOTAL        HF       INT
 CPU TIMES  *         0.85      0.21      0.55
 REAL TIME  *         1.45 SEC
 DISK USED  *        75.59 MB      
 **********************************************************************************************************************************


 PROGRAM * CCSD (Closed-shell coupled cluster)     Authors: C. Hampel, H.-J. Werner, 1991, M. Deegan, P.J. Knowles, 1992


 Convergence thresholds:  THRVAR = 1.00D-08  THRDEN = 1.00D-12

 CCSD(T)     terms to be evaluated (factor= 1.000)


 Number of core orbitals:           2 (   2   0 )
 Number of closed-shell orbitals:   6 (   5   1 )
 Number of external orbitals:      66 (  43  23 )

 Molecular orbitals read from record     2100.2  Type=RHF/CANONICAL (state 1.1)

 Number of N-1 electron functions:               6
 Number of N-2 electron functions:              21
 Number of singly external CSFs:               238
 Number of doubly external CSFs:             41002
 Total number of CSFs:                       41241

 Length of J-op  integral file:               0.00 MB
 Length of K-op  integral file:               0.25 MB
 Length of 3-ext integral record:             0.00 MB

 Memory could be reduced to 1.65 Mwords without degradation in triples

 Integral transformation finished. Total CPU:   0.02 sec, npass=  1  Memory used:   0.55 MW

 Reference energy:                   -129.83246544

 MP2 singlet pair energy:              -0.27147303
 MP2 triplet pair energy:              -0.16106095
 MP2 correlation energy:               -0.43253398
 MP2 total energy:                   -130.26499942

 SCS-MP2 correlation energy:           -0.42598334   (PS=  1.200000  PT=  0.333333)
 SCS-MP2 total energy:               -130.25844878

 ITER.      SQ.NORM     CORR.ENERGY   TOTAL ENERGY   ENERGY CHANGE        DEN1      VAR(S)    VAR(P)  DIIS     TIME  TIME/IT
   1      1.11626195    -0.43841071  -130.27087615    -0.00587673     0.00908268  0.27D-02  0.28D-02  1  1     0.07     0.04
   2      1.12662022    -0.43881327  -130.27127871    -0.00040256    -0.01179978  0.78D-04  0.47D-03  2  2     0.10     0.04
   3      1.13248685    -0.43916877  -130.27163420    -0.00035549    -0.00283947  0.42D-04  0.46D-04  3  3     0.13     0.04
   4      1.13506096    -0.43919340  -130.27165883    -0.00002463    -0.00089450  0.35D-05  0.82D-05  4  4     0.17     0.04
   5      1.13594947    -0.43921950  -130.27168494    -0.00002610    -0.00018373  0.13D-05  0.16D-05  5  5     0.21     0.04
   6      1.13628311    -0.43920526  -130.27167070     0.00001424    -0.00003713  0.96D-07  0.40D-06  6  6     0.24     0.04
   7      1.13636925    -0.43920694  -130.27167238    -0.00000168    -0.00000282  0.12D-07  0.78D-07  6  1     0.28     0.04
   8      1.13639895    -0.43920712  -130.27167255    -0.00000018     0.00000187  0.41D-08  0.85D-08  6  2     0.32     0.04
   9      1.13640588    -0.43920695  -130.27167239     0.00000017    -0.00000214  0.22D-08  0.93D-09  6  3     0.35     0.04
  10      1.13640470    -0.43920741  -130.27167285    -0.00000046     0.00000058  0.44D-09  0.17D-09  6  4     0.39     0.04
  11      1.13640304    -0.43920747  -130.27167290    -0.00000005     0.00000019  0.13D-09  0.20D-10  6  5     0.43     0.04
  12      1.13640174    -0.43920762  -130.27167306    -0.00000016     0.00000040  0.15D-10  0.67D-11  6  6     0.46     0.04
  13      1.13640118    -0.43920763  -130.27167306    -0.00000001     0.00000011  0.62D-11  0.11D-11  6  1     0.49     0.04
  14      1.13640084    -0.43920765  -130.27167308    -0.00000002     0.00000007  0.84D-12  0.37D-12  6  2     0.53     0.04
  15      1.13640072    -0.43920765  -130.27167308    -0.00000000     0.00000001  0.20D-12  0.13D-12  6  3     0.57     0.04
  16      1.13640064    -0.43920765  -130.27167308    -0.00000000     0.00000001  0.23D-13  0.14D-13  6  5     0.60     0.04
  17      1.13640061    -0.43920765  -130.27167308    -0.00000000     0.00000000  0.85D-15  0.24D-14  6  4     0.64     0.04
  18      1.13640061    -0.43920765  -130.27167308     0.00000000     0.00000000  0.47D-15  0.65D-15  6  6     0.67     0.04
  19      1.13640060    -0.43920765  -130.27167308    -0.00000000    -0.00000000  0.93D-16  0.72D-16  6  1     0.71     0.04
  20      1.13640060    -0.43920765  -130.27167308     0.00000000     0.00000000  0.49D-17  0.10D-16  6  2     0.75     0.04
  21      1.13640060    -0.43920765  -130.27167308    -0.00000000     0.00000000  0.21D-17  0.10D-17  6  3     0.78     0.04
  22      1.13640060    -0.43920765  -130.27167308    -0.00000000     0.00000000  0.45D-19  0.17D-18  6  4     0.82     0.04
  23      1.13640060    -0.43920765  -130.27167308    -0.00000000     0.00000000  0.12D-19  0.88D-20  6  5     0.86     0.04
  24      1.13640060    -0.43920765  -130.27167308    -0.00000000    -0.00000000  0.20D-20  0.27D-20  6  6     0.89     0.04
  25      1.13640060    -0.43920765  -130.27167308     0.00000000    -0.00000000  0.96D-22  0.29D-21  6  1     0.92     0.04

 Norm of t1 vector:      0.07198779      S-energy:     0.00000000      T1 diagnostic:  0.01469445
                                                                       D1 diagnostic:  0.03990909

 Doubles amplitudes (print threshold =  0.500E-01):

         I         J         SYM. A    SYM. B    A         B      T(IJ, AB)

         6         6         2         2         1         1     -0.13817610


 Total CPU time for triples:      0.22 sec


 RESULTS
 =======

  Reference energy                   -129.832465435645
  CCSD singlet pair energy             -0.300670853279
  CCSD triplet pair energy             -0.138536796057
  CCSD correlation energy              -0.439207649335

  Triples (T) contribution             -0.019174457377
  Total correlation energy             -0.458382106712

  CCSD total energy                  -130.271673084980
  CCSD[T] energy                     -130.291783654129
  CCSD-T energy                      -130.290471080330
 !CCSD(T) total energy               -130.290847542357

 Timing summary (sec):

 STEP                 CPU(USER)    SYS     CPU(TOT)    WALL
 Transformation          0.02      0.01      0.03      0.04
 CCSD iterations         0.91      0.10      1.01      0.98
 Triples                 0.22      0.01      0.23      0.24

 Program statistics:

 Available memory in ccsd:               994999756
 Min. memory needed in ccsd:                154850
 Max. memory used in ccsd:                  184802
 Max. memory used in cckext:                238416 (25 integral passes)



 **********************************************************************************************************************************
 DATASETS  * FILE   NREC   LENGTH (MB)   RECORD NAMES
              1      20       40.28       500      610      700      900      950      970     1000      129      960     1100   
                                          VAR    BASINP    GEOM    SYMINP    ZMAT    AOBASIS   BASIS     P2S    ABASIS      S 
                                         1400     1410     1200     1210     1080     1600     1650     1300     1700     1380   
                                           T        V       H0       H01     AOSYM     SMH    MOLCAS    ERIS     OPER     JKOP   

              2       4        2.85       700     1000      520     2100   
                                         GEOM     BASIS   MCVARS     RHF  

 PROGRAMS   *        TOTAL   CCSD(T)        HF       INT
 CPU TIMES  *         2.03      1.17      0.21      0.55
 REAL TIME  *         2.79 SEC
 DISK USED  *        75.59 MB      
 **********************************************************************************************************************************

 CCSD(T)/cc-pVTZ-DK energy=   -130.290847542357

        CCSD(T)         HF-SCF  
   -130.29084754   -129.83246544
 **********************************************************************************************************************************
 Molpro calculation terminated
 Variable memory released
