
 Primary working directories    : /tmp/r2666/282511.maple
 Secondary working directories  : /tmp/r2666/282511.maple
 Wavefunction directory         : /ddn/home4/r2666/wfu/
 Main file repository           : /tmp/r2666/282511.maple/

 SHA1      : d5ffa45e93fdbca01ffc919aa182cfdae0147319
 NAME      : 2015.1.35
 ARCHNAME  : linux/x86_64
 FC        : /opt/intel/composer_xe_2015.1.133/bin/intel64/ifort
 BLASLIB   : -Wl,-_start-group /opt/intel/mkl/lib/intel64/libmkl_intel_ilp64.a /opt/intel/mkl/lib/intel64/libmkl_intel_thread.a /opt/intel/mkl/lib/intel64/libmkl_core.a -Wl,-_end-group
 id        : olemiss

 Nodes     nprocs
 cn094        1

 Using customized tuning parameters: mindgm=1; mindgv=20; mindgc=4; mindgr=1; noblas=0; minvec=7
 default implementation of scratch files=df  

 ***,hno CCSD(T)/TZ-F12 QFF
 memory, 995, m;
 gthresh,energy=1.d-12,zero=1.d-22,oneint=1.d-22,twoint=1.d-22;
 gthresh,optgrad=1.d-8,optstep=1.d-8;
 nocompress;
 geomtyp=xyz
 bohr
 geometry={
 3
         21        21
 H        0.0000000000        1.6598764139       -1.9190992889
 N        0.0000000000       -0.1582280031       -1.1384682572
 O        0.0000000000        0.0401193792        1.1069779552
 }
 
 basis=vtz-dk
 dkroll=0
   {hf,maxit=500;accu,20;}
 {ccsd(t),nocheck,maxit=250;orbital,IGNORE_ERROR;}

 Variables initialized (889), CPU time= 0.00 sec
 Commands  initialized (702), CPU time= 0.01 sec, 572 directives.
 Default parameters read. Elapsed time= 0.04 sec

 Checking input...
 Passed
1


                                         ***  PROGRAM SYSTEM MOLPRO  ***
                                       Copyright, TTI GmbH Stuttgart, 2015
                                    Version 2015.1 linked Jul  9 2018 13:16:40


 **********************************************************************************************************************************
 LABEL *   hno CCSD(T)/TZ-F12 QFF                                                        
  64 bit serial version                                                                  DATE: 04-Mar-20          TIME: 13:50:47  
 **********************************************************************************************************************************

 SHA1:             d5ffa45e93fdbca01ffc919aa182cfdae0147319
 **********************************************************************************************************************************

 THRESHOLDS:

 ZERO    =  1.00D-22  ONEINT  =  1.00D-22  TWOINT  =  1.00D-22  PREFAC  =  1.00D-14  LOCALI  =  1.00D-09  EORDER  =  1.00D-04
 ENERGY  =  1.00D-12  ETEST   =  0.00D+00  EDENS   =  0.00D+00  THRDEDEF=  1.00D-06  GRADIENT=  1.00D-02  STEP    =  1.00D-03
 ORBITAL =  1.00D-05  CIVEC   =  1.00D-05  COEFF   =  1.00D-04  PRINTCI =  5.00D-02  PUNCHCI =  9.90D+01  OPTGRAD =  3.00D-04
 OPTENERG=  1.00D-06  OPTSTEP =  3.00D-04  THRGRAD =  1.00D-10  COMPRESS=  1.00D-11  VARMIN  =  1.00D-07  VARMAX  =  1.00D-03
 THRDOUB =  0.00D+00  THRDIV  =  1.00D-05  THRRED  =  1.00D-07  THRPSP  =  1.00D+00  THRDC   =  1.00D-10  THRCS   =  1.00D-10
 THRNRM  =  1.00D-08  THREQ   =  0.00D+00  THRDE   =  1.00D+00  THRREF  =  1.00D-05  SPARFAC =  1.00D+00  THRDLP  =  1.00D-07
 THRDIA  =  1.00D-10  THRDLS  =  1.00D-07  THRGPS  =  0.00D+00  THRKEX  =  0.00D+00  THRDIS  =  2.00D-01  THRVAR  =  1.00D-10
 THRLOC  =  1.00D-06  THRGAP  =  1.00D-06  THRLOCT = -1.00D+00  THRGAPT = -1.00D+00  THRORB  =  1.00D-06  THRMLTP =  0.00D+00
 THRCPQCI=  1.00D-10  KEXTA   =  0.00D+00  THRCOARS=  0.00D+00  SYMTOL  =  1.00D-06  GRADTOL =  1.00D-06  THROVL  =  1.00D-08
 THRORTH =  1.00D-08  GRID    =  1.00D-06  GRIDMAX =  1.00D-03  DTMAX   =  0.00D+00  THROCCDE=  1.00D-01  THROCCDE=  1.00D-01



 THRESHOLDS:

 ZERO    =  1.00D-22  ONEINT  =  1.00D-22  TWOINT  =  1.00D-22  PREFAC  =  1.00D-14  LOCALI  =  1.00D-09  EORDER  =  1.00D-04
 ENERGY  =  1.00D-12  ETEST   =  0.00D+00  EDENS   =  0.00D+00  THRDEDEF=  1.00D-06  GRADIENT=  1.00D-02  STEP    =  1.00D-03
 ORBITAL =  1.00D-05  CIVEC   =  1.00D-05  COEFF   =  1.00D-04  PRINTCI =  5.00D-02  PUNCHCI =  9.90D+01  OPTGRAD =  1.00D-08
 OPTENERG=  1.00D-06  OPTSTEP =  1.00D-08  THRGRAD =  1.00D-10  COMPRESS=  1.00D-11  VARMIN  =  1.00D-07  VARMAX  =  1.00D-03
 THRDOUB =  0.00D+00  THRDIV  =  1.00D-05  THRRED  =  1.00D-07  THRPSP  =  1.00D+00  THRDC   =  1.00D-10  THRCS   =  1.00D-10
 THRNRM  =  1.00D-08  THREQ   =  0.00D+00  THRDE   =  1.00D+00  THRREF  =  1.00D-05  SPARFAC =  1.00D+00  THRDLP  =  1.00D-07
 THRDIA  =  1.00D-10  THRDLS  =  1.00D-07  THRGPS  =  0.00D+00  THRKEX  =  0.00D+00  THRDIS  =  2.00D-01  THRVAR  =  1.00D-10
 THRLOC  =  1.00D-06  THRGAP  =  1.00D-06  THRLOCT = -1.00D+00  THRGAPT = -1.00D+00  THRORB  =  1.00D-06  THRMLTP =  0.00D+00
 THRCPQCI=  1.00D-10  KEXTA   =  0.00D+00  THRCOARS=  0.00D+00  SYMTOL  =  1.00D-06  GRADTOL =  1.00D-06  THROVL  =  1.00D-08
 THRORTH =  1.00D-08  GRID    =  1.00D-06  GRIDMAX =  1.00D-03  DTMAX   =  0.00D+00  THROCCDE=  1.00D-01  THROCCDE=  1.00D-01



 Input parameters for SORTINT:

 COMPRESS =    0.000000
 C_FINAL  =    1.000000
 DEBUG    =   -1.000000
 C_SORT1  =    0.000000
 C_SEWARD =    0.000000
 THRESH   =    0.000000
 IO       =  molpro                                                          
 SPRI     =    0.000000
 SETTING GEOMTYP        =    XYZ
 ZUNIT=BOHR
 

 Variable memory set to  995000000 words,  buffer space   230000 words

 SETTING BASIS          =    VTZ-DK
 SETTING DKROLL         =     0.00000000D+00                                  


 Recomputing integrals since basis changed


 Using spherical harmonics

 Library entry H      S cc-pVTZ-DK           selected for orbital group  1
 Library entry H      P cc-pVTZ-DK           selected for orbital group  1
 Library entry H      D cc-pVTZ-DK           selected for orbital group  1
 Library entry N      S cc-pVTZ-DK           selected for orbital group  2
 Library entry N      P cc-pVTZ-DK           selected for orbital group  2
 Library entry N      D cc-pVTZ-DK           selected for orbital group  2
 Library entry N      F cc-pVTZ-DK           selected for orbital group  2
 Library entry O      S cc-pVTZ-DK           selected for orbital group  3
 Library entry O      P cc-pVTZ-DK           selected for orbital group  3
 Library entry O      D cc-pVTZ-DK           selected for orbital group  3
 Library entry O      F cc-pVTZ-DK           selected for orbital group  3


 PROGRAM * SEWARD (Integral evaluation for generally contracted gaussian basis sets)     Author: Roland Lindh, 1990

 Geometry written to block  1 of record 700


 Point group  Cs  



 ATOMIC COORDINATES

 NR  ATOM    CHARGE       X              Y              Z

   1  H       1.00    0.000000000    1.659876414   -1.919099289
   2  N       7.00    0.000000000   -0.158228003   -1.138468257
   3  O       8.00    0.000000000    0.040119379    1.106977955

 Bond lengths in Bohr (Angstrom)

 1-2  1.978607712  2-3  2.254189517
     ( 1.047034111)     ( 1.192865721)

 Bond angles

  1-2-3  108.18899349

 NUCLEAR CHARGE:                   16
 NUMBER OF PRIMITIVE AOS:         111
 NUMBER OF SYMMETRY AOS:          100
 NUMBER OF CONTRACTIONS:           74   (  50A'  +  24A"  )
 NUMBER OF CORE ORBITALS:           2   (   2A'  +   0A"  )
 NUMBER OF VALENCE ORBITALS:        9   (   7A'  +   2A"  )


 NUCLEAR REPULSION ENERGY   30.71126435

 Eigenvalues of metric

         1 0.238E-02 0.385E-02 0.398E-02 0.818E-02 0.128E-01 0.316E-01 0.416E-01 0.462E-01
         2 0.335E-01 0.463E-01 0.996E-01 0.109E+00 0.228E+00 0.338E+00 0.390E+00 0.444E+00


 Contracted 2-electron integrals neglected if value below      1.0D-22

        1874283. INTEGRALS WRITTEN OUT IN     458 BLOCKS ON RECORD 1290 OF FILE 1


 NUMBER OF SORTED TWO-ELECTRON INTEGRALS:    2006100.     BUFFER LENGTH:  32768
 NUMBER OF SEGMENTS:   1  SEGMENT LENGTH:    2006100      RECORD LENGTH: 524288

 Memory used in sort:       2.56 MW

 SORT1 READ     1874283. AND WROTE     1914195. INTEGRALS IN      6 RECORDS. CPU TIME:     0.03 SEC, REAL TIME:     0.04 SEC
 SORT2 READ     1914195. AND WROTE     2006100. INTEGRALS IN      1 RECORDS. CPU TIME:     0.06 SEC, REAL TIME:     0.06 SEC

 FILE SIZES:   FILE 1:    50.1 MBYTE,  FILE 4:    25.2 MBYTE,   TOTAL:     75.3 MBYTE

 OPERATOR DM      FOR CENTER  0  COORDINATES:    0.000000    0.000000    0.000000


 **********************************************************************************************************************************
 DATASETS  * FILE   NREC   LENGTH (MB)   RECORD NAMES
              1      19       35.89       500      610      700      900      950      970     1000      129      960     1100   
                                          VAR    BASINP    GEOM    SYMINP    ZMAT    AOBASIS   BASIS     P2S    ABASIS      S 
                                         1400     1410     1200     1210     1080     1600     1650     1300     1700   
                                           T        V       H0       H01     AOSYM     SMH    MOLCAS    ERIS     OPER   

 PROGRAMS   *        TOTAL       INT
 CPU TIMES  *         0.58      0.49
 REAL TIME  *         1.06 SEC
 DISK USED  *        75.59 MB      
 **********************************************************************************************************************************


 PROGRAM * RHF-SCF (CLOSED SHELL)       Authors: W. Meyer, H.-J. Werner


 NUMBER OF ELECTRONS:       8+    8-
 CONVERGENCE THRESHOLDS:    1.00E-10 (Density)    1.00E-13 (Energy)
 MAX. NUMBER OF ITERATIONS:      500
 INTERPOLATION TYPE:            DIIS
 INTERPOLATION STEPS:              2 (START)      1 (STEP)
 LEVEL SHIFTS:                  0.00 (CLOSED)  0.00 (OPEN) 



 Orbital guess generated from atomic densities. Full valence occupancy:    9   2

 Molecular orbital dump at record        2100.2

 Initial occupancy:   7   1

 ITERATION    DDIFF          GRAD             ENERGY        2-EL.EN.            DIPOLE MOMENTS         DIIS   ORB.
    1      0.000D+00      0.000D+00      -129.78448412    154.751907    0.00000    0.58667   -0.99024    0    start
    2      0.000D+00      0.133D-01      -129.81173506    155.923229    0.00000    0.60605   -0.23308    1    diag
    3      0.180D-01      0.976D-02      -129.83133013    156.013026    0.00000    0.55803   -0.58089    2    diag
    4      0.858D-02      0.154D-02      -129.83204046    155.757208    0.00000    0.56681   -0.52366    3    diag
    5      0.164D-02      0.503D-03      -129.83214914    155.841354    0.00000    0.57214   -0.52512    4    diag
    6      0.702D-03      0.149D-03      -129.83216684    155.826893    0.00000    0.57275   -0.52124    5    diag
    7      0.271D-03      0.734D-04      -129.83217181    155.829299    0.00000    0.57400   -0.51894    6    diag
    8      0.184D-03      0.224D-04      -129.83217222    155.828675    0.00000    0.57402   -0.51823    7    diag
    9      0.575D-04      0.403D-05      -129.83217224    155.828573    0.00000    0.57398   -0.51809    8    diag
   10      0.110D-04      0.921D-06      -129.83217224    155.828556    0.00000    0.57395   -0.51807    9    orth
   11      0.265D-05      0.182D-06      -129.83217224    155.828552    0.00000    0.57394   -0.51807    9    diag
   12      0.492D-06      0.368D-07      -129.83217224    155.828551    0.00000    0.57394   -0.51806    9    diag
   13      0.105D-06      0.888D-08      -129.83217224    155.828551    0.00000    0.57394   -0.51806    9    diag
   14      0.256D-07      0.167D-08      -129.83217224    155.828551    0.00000    0.57394   -0.51806    9    diag
   15      0.445D-08      0.456D-09      -129.83217224    155.828551    0.00000    0.57394   -0.51806    9    diag
   16      0.107D-08      0.126D-09      -129.83217224    155.828551    0.00000    0.57394   -0.51806    9    diag
   17      0.229D-09      0.375D-10      -129.83217224    155.828551    0.00000    0.57394   -0.51806    9    diag
   18      0.770D-10      0.118D-10      -129.83217224    155.828551    0.00000    0.57394   -0.51806    9    diag
   19      0.275D-10      0.261D-11      -129.83217224    155.828551    0.00000    0.57394   -0.51806    9    fixocc
   20      0.638D-11      0.412D-12      -129.83217224    155.828551    0.00000    0.57394   -0.51806    9    orth
   21      0.748D-12      0.123D-12      -129.83217224    155.828551    0.00000    0.57394   -0.51806    9    diag
   22      0.301D-12      0.345D-13      -129.83217224    155.828551    0.00000    0.57394   -0.51806    0    orth

 Final occupancy:   7   1

 !RHF STATE 1.1 Energy               -129.832172240543
 Nuclear energy                        30.71126435
 One-electron energy                 -238.45771186
 Two-electron energy                   77.91427527
 Virial quotient                       -0.99916255
 !RHF STATE 1.1 Dipole moment           0.00000000     0.57393726    -0.51806297
 Dipole moment /Debye                   0.00000000     1.45870747    -1.31669848

 Orbital energies:

         1.1          2.1          3.1          4.1          5.1          6.1          7.1          8.1          9.1
    -20.646345   -15.704515    -1.538485    -0.988720    -0.748392    -0.666317    -0.422494     0.145276     0.371879

         1.2          2.2          3.2
     -0.599311     0.091969     0.611291

 HOMO      7.1    -0.422494 =     -11.4966eV
 LUMO      2.2     0.091969 =       2.5026eV
 LUMO-HOMO         0.514463 =      13.9992eV


 **********************************************************************************************************************************
 DATASETS  * FILE   NREC   LENGTH (MB)   RECORD NAMES
              1      19       35.89       500      610      700      900      950      970     1000      129      960     1100   
                                          VAR    BASINP    GEOM    SYMINP    ZMAT    AOBASIS   BASIS     P2S    ABASIS      S 
                                         1400     1410     1200     1210     1080     1600     1650     1300     1700   
                                           T        V       H0       H01     AOSYM     SMH    MOLCAS    ERIS     OPER   

              2       4        2.85       700     1000      520     2100   
                                         GEOM     BASIS   MCVARS     RHF  

 PROGRAMS   *        TOTAL        HF       INT
 CPU TIMES  *         0.82      0.25      0.49
 REAL TIME  *         1.37 SEC
 DISK USED  *        75.59 MB      
 **********************************************************************************************************************************


 PROGRAM * CCSD (Closed-shell coupled cluster)     Authors: C. Hampel, H.-J. Werner, 1991, M. Deegan, P.J. Knowles, 1992


 Convergence thresholds:  THRVAR = 1.00D-08  THRDEN = 1.00D-12

 CCSD(T)     terms to be evaluated (factor= 1.000)


 Number of core orbitals:           2 (   2   0 )
 Number of closed-shell orbitals:   6 (   5   1 )
 Number of external orbitals:      66 (  43  23 )

 Molecular orbitals read from record     2100.2  Type=RHF/CANONICAL (state 1.1)

 Number of N-1 electron functions:               6
 Number of N-2 electron functions:              21
 Number of singly external CSFs:               238
 Number of doubly external CSFs:             41002
 Total number of CSFs:                       41241

 Length of J-op  integral file:               0.00 MB
 Length of K-op  integral file:               0.25 MB
 Length of 3-ext integral record:             0.00 MB

 Memory could be reduced to 1.65 Mwords without degradation in triples

 Integral transformation finished. Total CPU:   0.02 sec, npass=  1  Memory used:   0.55 MW

 Reference energy:                   -129.83217224

 MP2 singlet pair energy:              -0.27186941
 MP2 triplet pair energy:              -0.16132568
 MP2 correlation energy:               -0.43319509
 MP2 total energy:                   -130.26536733

 SCS-MP2 correlation energy:           -0.42662372   (PS=  1.200000  PT=  0.333333)
 SCS-MP2 total energy:               -130.25879596

 ITER.      SQ.NORM     CORR.ENERGY   TOTAL ENERGY   ENERGY CHANGE        DEN1      VAR(S)    VAR(P)  DIIS     TIME  TIME/IT
   1      1.11662018    -0.43890433  -130.27107657    -0.00570924     0.00939939  0.27D-02  0.28D-02  1  1     0.06     0.05
   2      1.12705991    -0.43927543  -130.27144767    -0.00037110    -0.01188541  0.80D-04  0.48D-03  2  2     0.10     0.05
   3      1.13299238    -0.43963450  -130.27180674    -0.00035907    -0.00286125  0.43D-04  0.47D-04  3  3     0.14     0.04
   4      1.13560969    -0.43966013  -130.27183237    -0.00002563    -0.00090612  0.35D-05  0.83D-05  4  4     0.17     0.04
   5      1.13651371    -0.43968662  -130.27185886    -0.00002649    -0.00018699  0.13D-05  0.16D-05  5  5     0.20     0.04
   6      1.13684969    -0.43967196  -130.27184420     0.00001466    -0.00003763  0.91D-07  0.41D-06  6  6     0.23     0.04
   7      1.13693456    -0.43967382  -130.27184606    -0.00000186    -0.00000256  0.11D-07  0.81D-07  6  1     0.27     0.04
   8      1.13696409    -0.43967397  -130.27184621    -0.00000015     0.00000196  0.43D-08  0.88D-08  6  2     0.31     0.04
   9      1.13697107    -0.43967382  -130.27184606     0.00000015    -0.00000220  0.23D-08  0.97D-09  6  3     0.34     0.04
  10      1.13696985    -0.43967428  -130.27184652    -0.00000046     0.00000061  0.45D-09  0.17D-09  6  4     0.37     0.04
  11      1.13696820    -0.43967434  -130.27184658    -0.00000005     0.00000018  0.13D-09  0.20D-10  6  5     0.41     0.04
  12      1.13696690    -0.43967450  -130.27184674    -0.00000016     0.00000040  0.14D-10  0.67D-11  6  6     0.45     0.04
  13      1.13696635    -0.43967450  -130.27184674    -0.00000001     0.00000011  0.61D-11  0.11D-11  6  1     0.48     0.04
  14      1.13696600    -0.43967452  -130.27184676    -0.00000002     0.00000007  0.83D-12  0.38D-12  6  2     0.51     0.04
  15      1.13696588    -0.43967452  -130.27184676    -0.00000000     0.00000001  0.20D-12  0.13D-12  6  3     0.55     0.04
  16      1.13696580    -0.43967452  -130.27184676    -0.00000000     0.00000001  0.23D-13  0.14D-13  6  5     0.58     0.04
  17      1.13696577    -0.43967453  -130.27184677    -0.00000000     0.00000000  0.84D-15  0.23D-14  6  4     0.61     0.04
  18      1.13696577    -0.43967452  -130.27184677     0.00000000    -0.00000000  0.51D-15  0.33D-15  6  1     0.65     0.04
  19      1.13696577    -0.43967453  -130.27184677    -0.00000000     0.00000000  0.40D-16  0.56D-16  6  6     0.69     0.04
  20      1.13696576    -0.43967453  -130.27184677    -0.00000000     0.00000000  0.81D-17  0.13D-16  6  2     0.72     0.04
  21      1.13696576    -0.43967453  -130.27184677    -0.00000000     0.00000000  0.17D-17  0.92D-18  6  5     0.76     0.04
  22      1.13696576    -0.43967453  -130.27184677     0.00000000     0.00000000  0.11D-18  0.71D-19  6  3     0.80     0.04
  23      1.13696576    -0.43967453  -130.27184677     0.00000000    -0.00000000  0.32D-19  0.16D-19  6  4     0.83     0.04
  24      1.13696576    -0.43967453  -130.27184677     0.00000000    -0.00000000  0.46D-20  0.45D-20  6  1     0.86     0.04
  25      1.13696576    -0.43967453  -130.27184677     0.00000000    -0.00000000  0.44D-21  0.79D-21  6  6     0.89     0.04

 Norm of t1 vector:      0.07242675      S-energy:     0.00000000      T1 diagnostic:  0.01478405
                                                                       D1 diagnostic:  0.04051217

 Doubles amplitudes (print threshold =  0.500E-01):

         I         J         SYM. A    SYM. B    A         B      T(IJ, AB)

         6         6         2         2         1         1     -0.13961883


 Total CPU time for triples:      0.24 sec


 RESULTS
 =======

  Reference energy                   -129.832172240543
  CCSD singlet pair energy             -0.301079927895
  CCSD triplet pair energy             -0.138594597283
  CCSD correlation energy              -0.439674525178

  Triples (T) contribution             -0.019286311172
  Total correlation energy             -0.458960836350

  CCSD total energy                  -130.271846765721
  CCSD[T] energy                     -130.292082988927
  CCSD-T energy                      -130.290753569153
 !CCSD(T) total energy               -130.291133076892

 Timing summary (sec):

 STEP                 CPU(USER)    SYS     CPU(TOT)    WALL
 Transformation          0.02      0.01      0.03      0.05
 CCSD iterations         0.88      0.16      1.04      1.03
 Triples                 0.24      0.01      0.25      0.25

 Program statistics:

 Available memory in ccsd:               994999756
 Min. memory needed in ccsd:                154850
 Max. memory used in ccsd:                  184802
 Max. memory used in cckext:                238416 (25 integral passes)



 **********************************************************************************************************************************
 DATASETS  * FILE   NREC   LENGTH (MB)   RECORD NAMES
              1      20       40.28       500      610      700      900      950      970     1000      129      960     1100   
                                          VAR    BASINP    GEOM    SYMINP    ZMAT    AOBASIS   BASIS     P2S    ABASIS      S 
                                         1400     1410     1200     1210     1080     1600     1650     1300     1700     1380   
                                           T        V       H0       H01     AOSYM     SMH    MOLCAS    ERIS     OPER     JKOP   

              2       4        2.85       700     1000      520     2100   
                                         GEOM     BASIS   MCVARS     RHF  

 PROGRAMS   *        TOTAL   CCSD(T)        HF       INT
 CPU TIMES  *         1.99      1.16      0.25      0.49
 REAL TIME  *         2.74 SEC
 DISK USED  *        75.59 MB      
 **********************************************************************************************************************************

 CCSD(T)/cc-pVTZ-DK energy=   -130.291133076892

        CCSD(T)         HF-SCF  
   -130.29113308   -129.83217224
 **********************************************************************************************************************************
 Molpro calculation terminated
 Variable memory released
