
 Primary working directories    : /tmp/r2666/282566.maple
 Secondary working directories  : /tmp/r2666/282566.maple
 Wavefunction directory         : /ddn/home4/r2666/wfu/
 Main file repository           : /tmp/r2666/282566.maple/

 SHA1      : d5ffa45e93fdbca01ffc919aa182cfdae0147319
 NAME      : 2015.1.35
 ARCHNAME  : linux/x86_64
 FC        : /opt/intel/composer_xe_2015.1.133/bin/intel64/ifort
 BLASLIB   : -Wl,-_start-group /opt/intel/mkl/lib/intel64/libmkl_intel_ilp64.a /opt/intel/mkl/lib/intel64/libmkl_intel_thread.a /opt/intel/mkl/lib/intel64/libmkl_core.a -Wl,-_end-group
 id        : olemiss

 Nodes     nprocs
 cn091        1

 Using customized tuning parameters: mindgm=1; mindgv=20; mindgc=4; mindgr=1; noblas=0; minvec=7
 default implementation of scratch files=df  

 ***,hno CCSD(T)/TZ-F12 QFF
 memory, 995, m;
 gthresh,energy=1.d-12,zero=1.d-22,oneint=1.d-22,twoint=1.d-22;
 gthresh,optgrad=1.d-8,optstep=1.d-8;
 nocompress;
 geomtyp=xyz
 bohr
 geometry={
 3
         76        76
 H        0.0000000000        1.6682628629       -1.9419929251
 N        0.0000000000       -0.1537935056       -1.1467076875
 O        0.0000000000        0.0272984327        1.1381110215
 }
 
 basis=vtz-dk
 dkroll=0
   {hf,maxit=500;accu,20;}
 {ccsd(t),nocheck,maxit=250;orbital,IGNORE_ERROR;}

 Variables initialized (889), CPU time= 0.00 sec
 Commands  initialized (702), CPU time= 0.01 sec, 572 directives.
 Default parameters read. Elapsed time= 0.05 sec

 Checking input...
 Passed
1


                                         ***  PROGRAM SYSTEM MOLPRO  ***
                                       Copyright, TTI GmbH Stuttgart, 2015
                                    Version 2015.1 linked Jul  9 2018 13:16:40


 **********************************************************************************************************************************
 LABEL *   hno CCSD(T)/TZ-F12 QFF                                                        
  64 bit serial version                                                                  DATE: 04-Mar-20          TIME: 13:50:57  
 **********************************************************************************************************************************

 SHA1:             d5ffa45e93fdbca01ffc919aa182cfdae0147319
 **********************************************************************************************************************************

 THRESHOLDS:

 ZERO    =  1.00D-22  ONEINT  =  1.00D-22  TWOINT  =  1.00D-22  PREFAC  =  1.00D-14  LOCALI  =  1.00D-09  EORDER  =  1.00D-04
 ENERGY  =  1.00D-12  ETEST   =  0.00D+00  EDENS   =  0.00D+00  THRDEDEF=  1.00D-06  GRADIENT=  1.00D-02  STEP    =  1.00D-03
 ORBITAL =  1.00D-05  CIVEC   =  1.00D-05  COEFF   =  1.00D-04  PRINTCI =  5.00D-02  PUNCHCI =  9.90D+01  OPTGRAD =  3.00D-04
 OPTENERG=  1.00D-06  OPTSTEP =  3.00D-04  THRGRAD =  1.00D-10  COMPRESS=  1.00D-11  VARMIN  =  1.00D-07  VARMAX  =  1.00D-03
 THRDOUB =  0.00D+00  THRDIV  =  1.00D-05  THRRED  =  1.00D-07  THRPSP  =  1.00D+00  THRDC   =  1.00D-10  THRCS   =  1.00D-10
 THRNRM  =  1.00D-08  THREQ   =  0.00D+00  THRDE   =  1.00D+00  THRREF  =  1.00D-05  SPARFAC =  1.00D+00  THRDLP  =  1.00D-07
 THRDIA  =  1.00D-10  THRDLS  =  1.00D-07  THRGPS  =  0.00D+00  THRKEX  =  0.00D+00  THRDIS  =  2.00D-01  THRVAR  =  1.00D-10
 THRLOC  =  1.00D-06  THRGAP  =  1.00D-06  THRLOCT = -1.00D+00  THRGAPT = -1.00D+00  THRORB  =  1.00D-06  THRMLTP =  0.00D+00
 THRCPQCI=  1.00D-10  KEXTA   =  0.00D+00  THRCOARS=  0.00D+00  SYMTOL  =  1.00D-06  GRADTOL =  1.00D-06  THROVL  =  1.00D-08
 THRORTH =  1.00D-08  GRID    =  1.00D-06  GRIDMAX =  1.00D-03  DTMAX   =  0.00D+00  THROCCDE=  1.00D-01  THROCCDE=  1.00D-01



 THRESHOLDS:

 ZERO    =  1.00D-22  ONEINT  =  1.00D-22  TWOINT  =  1.00D-22  PREFAC  =  1.00D-14  LOCALI  =  1.00D-09  EORDER  =  1.00D-04
 ENERGY  =  1.00D-12  ETEST   =  0.00D+00  EDENS   =  0.00D+00  THRDEDEF=  1.00D-06  GRADIENT=  1.00D-02  STEP    =  1.00D-03
 ORBITAL =  1.00D-05  CIVEC   =  1.00D-05  COEFF   =  1.00D-04  PRINTCI =  5.00D-02  PUNCHCI =  9.90D+01  OPTGRAD =  1.00D-08
 OPTENERG=  1.00D-06  OPTSTEP =  1.00D-08  THRGRAD =  1.00D-10  COMPRESS=  1.00D-11  VARMIN  =  1.00D-07  VARMAX  =  1.00D-03
 THRDOUB =  0.00D+00  THRDIV  =  1.00D-05  THRRED  =  1.00D-07  THRPSP  =  1.00D+00  THRDC   =  1.00D-10  THRCS   =  1.00D-10
 THRNRM  =  1.00D-08  THREQ   =  0.00D+00  THRDE   =  1.00D+00  THRREF  =  1.00D-05  SPARFAC =  1.00D+00  THRDLP  =  1.00D-07
 THRDIA  =  1.00D-10  THRDLS  =  1.00D-07  THRGPS  =  0.00D+00  THRKEX  =  0.00D+00  THRDIS  =  2.00D-01  THRVAR  =  1.00D-10
 THRLOC  =  1.00D-06  THRGAP  =  1.00D-06  THRLOCT = -1.00D+00  THRGAPT = -1.00D+00  THRORB  =  1.00D-06  THRMLTP =  0.00D+00
 THRCPQCI=  1.00D-10  KEXTA   =  0.00D+00  THRCOARS=  0.00D+00  SYMTOL  =  1.00D-06  GRADTOL =  1.00D-06  THROVL  =  1.00D-08
 THRORTH =  1.00D-08  GRID    =  1.00D-06  GRIDMAX =  1.00D-03  DTMAX   =  0.00D+00  THROCCDE=  1.00D-01  THROCCDE=  1.00D-01



 Input parameters for SORTINT:

 COMPRESS =    0.000000
 C_FINAL  =    1.000000
 DEBUG    =   -1.000000
 C_SORT1  =    0.000000
 C_SEWARD =    0.000000
 THRESH   =    0.000000
 IO       =  molpro                                                          
 SPRI     =    0.000000
 SETTING GEOMTYP        =    XYZ
 ZUNIT=BOHR
 

 Variable memory set to  995000000 words,  buffer space   230000 words

 SETTING BASIS          =    VTZ-DK
 SETTING DKROLL         =     0.00000000D+00                                  


 Recomputing integrals since basis changed


 Using spherical harmonics

 Library entry H      S cc-pVTZ-DK           selected for orbital group  1
 Library entry H      P cc-pVTZ-DK           selected for orbital group  1
 Library entry H      D cc-pVTZ-DK           selected for orbital group  1
 Library entry N      S cc-pVTZ-DK           selected for orbital group  2
 Library entry N      P cc-pVTZ-DK           selected for orbital group  2
 Library entry N      D cc-pVTZ-DK           selected for orbital group  2
 Library entry N      F cc-pVTZ-DK           selected for orbital group  2
 Library entry O      S cc-pVTZ-DK           selected for orbital group  3
 Library entry O      P cc-pVTZ-DK           selected for orbital group  3
 Library entry O      D cc-pVTZ-DK           selected for orbital group  3
 Library entry O      F cc-pVTZ-DK           selected for orbital group  3


 PROGRAM * SEWARD (Integral evaluation for generally contracted gaussian basis sets)     Author: Roland Lindh, 1990

 Geometry written to block  1 of record 700


 Point group  Cs  



 ATOMIC COORDINATES

 NR  ATOM    CHARGE       X              Y              Z

   1  H       1.00    0.000000000    1.668262863   -1.941992925
   2  N       7.00    0.000000000   -0.153793506   -1.146707687
   3  O       8.00    0.000000000    0.027298433    1.138111022

 Bond lengths in Bohr (Angstrom)

 1-2  1.988056342  2-3  2.291984036
     ( 1.052034110)     ( 1.212865720)

 Bond angles

  1-2-3  109.04843018

 NUCLEAR CHARGE:                   16
 NUMBER OF PRIMITIVE AOS:         111
 NUMBER OF SYMMETRY AOS:          100
 NUMBER OF CONTRACTIONS:           74   (  50A'  +  24A"  )
 NUMBER OF CORE ORBITALS:           2   (   2A'  +   0A"  )
 NUMBER OF VALENCE ORBITALS:        9   (   7A'  +   2A"  )


 NUCLEAR REPULSION ENERGY   30.24629833

 Eigenvalues of metric

         1 0.246E-02 0.399E-02 0.422E-02 0.841E-02 0.130E-01 0.330E-01 0.429E-01 0.463E-01
         2 0.346E-01 0.465E-01 0.102E+00 0.112E+00 0.236E+00 0.343E+00 0.396E+00 0.451E+00


 Contracted 2-electron integrals neglected if value below      1.0D-22

        1874283. INTEGRALS WRITTEN OUT IN     458 BLOCKS ON RECORD 1290 OF FILE 1


 NUMBER OF SORTED TWO-ELECTRON INTEGRALS:    2006100.     BUFFER LENGTH:  32768
 NUMBER OF SEGMENTS:   1  SEGMENT LENGTH:    2006100      RECORD LENGTH: 524288

 Memory used in sort:       2.56 MW

 SORT1 READ     1874283. AND WROTE     1914195. INTEGRALS IN      6 RECORDS. CPU TIME:     0.04 SEC, REAL TIME:     0.06 SEC
 SORT2 READ     1914195. AND WROTE     2006100. INTEGRALS IN      1 RECORDS. CPU TIME:     0.05 SEC, REAL TIME:     0.07 SEC

 FILE SIZES:   FILE 1:    50.1 MBYTE,  FILE 4:    25.2 MBYTE,   TOTAL:     75.3 MBYTE

 OPERATOR DM      FOR CENTER  0  COORDINATES:    0.000000    0.000000    0.000000


 **********************************************************************************************************************************
 DATASETS  * FILE   NREC   LENGTH (MB)   RECORD NAMES
              1      19       35.89       500      610      700      900      950      970     1000      129      960     1100   
                                          VAR    BASINP    GEOM    SYMINP    ZMAT    AOBASIS   BASIS     P2S    ABASIS      S 
                                         1400     1410     1200     1210     1080     1600     1650     1300     1700   
                                           T        V       H0       H01     AOSYM     SMH    MOLCAS    ERIS     OPER   

 PROGRAMS   *        TOTAL       INT
 CPU TIMES  *         0.82      0.73
 REAL TIME  *         1.52 SEC
 DISK USED  *        75.59 MB      
 **********************************************************************************************************************************


 PROGRAM * RHF-SCF (CLOSED SHELL)       Authors: W. Meyer, H.-J. Werner


 NUMBER OF ELECTRONS:       8+    8-
 CONVERGENCE THRESHOLDS:    1.00E-10 (Density)    1.00E-13 (Energy)
 MAX. NUMBER OF ITERATIONS:      500
 INTERPOLATION TYPE:            DIIS
 INTERPOLATION STEPS:              2 (START)      1 (STEP)
 LEVEL SHIFTS:                  0.00 (CLOSED)  0.00 (OPEN) 



 Orbital guess generated from atomic densities. Full valence occupancy:    9   2

 Molecular orbital dump at record        2100.2

 Initial occupancy:   7   1

 ITERATION    DDIFF          GRAD             ENERGY        2-EL.EN.            DIPOLE MOMENTS         DIIS   ORB.
    1      0.000D+00      0.000D+00      -129.77888793    153.910858    0.00000    0.60044   -1.05580    0    start
    2      0.000D+00      0.136D-01      -129.80563010    155.056944    0.00000    0.61836   -0.22553    1    diag
    3      0.187D-01      0.105D-01      -129.82847857    155.185713    0.00000    0.56962   -0.61237    2    diag
    4      0.911D-02      0.158D-02      -129.82923014    154.914765    0.00000    0.57757   -0.55164    3    diag
    5      0.168D-02      0.519D-03      -129.82934661    155.001182    0.00000    0.58303   -0.55279    4    diag
    6      0.725D-03      0.154D-03      -129.82936576    154.986389    0.00000    0.58357   -0.54852    5    diag
    7      0.280D-03      0.775D-04      -129.82937145    154.988610    0.00000    0.58479   -0.54597    6    diag
    8      0.194D-03      0.253D-04      -129.82937202    154.987907    0.00000    0.58481   -0.54512    7    diag
    9      0.676D-04      0.464D-05      -129.82937204    154.987784    0.00000    0.58475   -0.54495    8    diag
   10      0.133D-04      0.102D-05      -129.82937204    154.987766    0.00000    0.58472   -0.54493    9    orth
   11      0.290D-05      0.199D-06      -129.82937204    154.987761    0.00000    0.58471   -0.54493    9    diag
   12      0.522D-06      0.417D-07      -129.82937204    154.987760    0.00000    0.58471   -0.54493    9    diag
   13      0.113D-06      0.105D-07      -129.82937204    154.987760    0.00000    0.58471   -0.54492    9    diag
   14      0.287D-07      0.191D-08      -129.82937204    154.987760    0.00000    0.58471   -0.54492    9    diag
   15      0.439D-08      0.483D-09      -129.82937204    154.987760    0.00000    0.58471   -0.54492    9    diag
   16      0.107D-08      0.115D-09      -129.82937204    154.987760    0.00000    0.58471   -0.54492    9    diag
   17      0.170D-09      0.308D-10      -129.82937204    154.987760    0.00000    0.58471   -0.54492    9    diag
   18      0.478D-10      0.998D-11      -129.82937204    154.987760    0.00000    0.58471   -0.54492    0    orth

 Final occupancy:   7   1

 !RHF STATE 1.1 Energy               -129.829372041987
 Nuclear energy                        30.24629833
 One-electron energy                 -237.56955019
 Two-electron energy                   77.49387982
 Virial quotient                       -0.99983547
 !RHF STATE 1.1 Dipole moment           0.00000000     0.58470899    -0.54492468
 Dipole moment /Debye                   0.00000000     1.48608467    -1.38496967

 Orbital energies:

         1.1          2.1          3.1          4.1          5.1          6.1          7.1          8.1          9.1
    -20.648560   -15.708450    -1.521462    -0.992636    -0.741641    -0.660690    -0.427759     0.143592     0.369383

         1.2          2.2          3.2
     -0.589697     0.084409     0.613591

 HOMO      7.1    -0.427759 =     -11.6399eV
 LUMO      2.2     0.084409 =       2.2969eV
 LUMO-HOMO         0.512168 =      13.9368eV


 **********************************************************************************************************************************
 DATASETS  * FILE   NREC   LENGTH (MB)   RECORD NAMES
              1      19       35.89       500      610      700      900      950      970     1000      129      960     1100   
                                          VAR    BASINP    GEOM    SYMINP    ZMAT    AOBASIS   BASIS     P2S    ABASIS      S 
                                         1400     1410     1200     1210     1080     1600     1650     1300     1700   
                                           T        V       H0       H01     AOSYM     SMH    MOLCAS    ERIS     OPER   

              2       4        2.85       700     1000      520     2100   
                                         GEOM     BASIS   MCVARS     RHF  

 PROGRAMS   *        TOTAL        HF       INT
 CPU TIMES  *         1.08      0.26      0.73
 REAL TIME  *         1.86 SEC
 DISK USED  *        75.59 MB      
 **********************************************************************************************************************************


 PROGRAM * CCSD (Closed-shell coupled cluster)     Authors: C. Hampel, H.-J. Werner, 1991, M. Deegan, P.J. Knowles, 1992


 Convergence thresholds:  THRVAR = 1.00D-08  THRDEN = 1.00D-12

 CCSD(T)     terms to be evaluated (factor= 1.000)


 Number of core orbitals:           2 (   2   0 )
 Number of closed-shell orbitals:   6 (   5   1 )
 Number of external orbitals:      66 (  43  23 )

 Molecular orbitals read from record     2100.2  Type=RHF/CANONICAL (state 1.1)

 Number of N-1 electron functions:               6
 Number of N-2 electron functions:              21
 Number of singly external CSFs:               238
 Number of doubly external CSFs:             41002
 Total number of CSFs:                       41241

 Length of J-op  integral file:               0.00 MB
 Length of K-op  integral file:               0.25 MB
 Length of 3-ext integral record:             0.00 MB

 Memory could be reduced to 1.65 Mwords without degradation in triples

 Integral transformation finished. Total CPU:   0.04 sec, npass=  1  Memory used:   0.55 MW

 Reference energy:                   -129.82937204

 MP2 singlet pair energy:              -0.27408224
 MP2 triplet pair energy:              -0.16275936
 MP2 correlation energy:               -0.43684160
 MP2 total energy:                   -130.26621364

 SCS-MP2 correlation energy:           -0.43017118   (PS=  1.200000  PT=  0.333333)
 SCS-MP2 total energy:               -130.25954322

 ITER.      SQ.NORM     CORR.ENERGY   TOTAL ENERGY   ENERGY CHANGE        DEN1      VAR(S)    VAR(P)  DIIS     TIME  TIME/IT
   1      1.11896794    -0.44179961  -130.27117165    -0.00495801     0.01102305  0.30D-02  0.31D-02  1  1     0.09     0.05
   2      1.12993999    -0.44202010  -130.27139214    -0.00022049    -0.01239283  0.91D-04  0.51D-03  2  2     0.14     0.05
   3      1.13633798    -0.44241569  -130.27178773    -0.00039559    -0.00301278  0.49D-04  0.52D-04  3  3     0.18     0.05
   4      1.13921181    -0.44244185  -130.27181389    -0.00002616    -0.00097634  0.42D-05  0.92D-05  4  4     0.23     0.05
   5      1.14024756    -0.44247237  -130.27184441    -0.00003052    -0.00021428  0.14D-05  0.17D-05  5  5     0.27     0.05
   6      1.14061821    -0.44245515  -130.27182720     0.00001721    -0.00004215  0.97D-07  0.42D-06  6  6     0.32     0.05
   7      1.14070544    -0.44245727  -130.27182931    -0.00000212    -0.00000202  0.11D-07  0.92D-07  6  1     0.37     0.05
   8      1.14073654    -0.44245726  -130.27182930     0.00000001     0.00000193  0.47D-08  0.11D-07  6  2     0.41     0.05
   9      1.14074476    -0.44245703  -130.27182907     0.00000023    -0.00000233  0.27D-08  0.13D-08  6  3     0.46     0.05
  10      1.14074347    -0.44245756  -130.27182960    -0.00000053     0.00000062  0.52D-09  0.22D-09  6  4     0.51     0.05
  11      1.14074169    -0.44245762  -130.27182966    -0.00000006     0.00000019  0.16D-09  0.25D-10  6  5     0.56     0.05
  12      1.14074024    -0.44245781  -130.27182985    -0.00000019     0.00000045  0.16D-10  0.81D-11  6  6     0.61     0.05
  13      1.14073960    -0.44245782  -130.27182986    -0.00000001     0.00000013  0.69D-11  0.13D-11  6  1     0.66     0.05
  14      1.14073919    -0.44245784  -130.27182988    -0.00000002     0.00000008  0.97D-12  0.46D-12  6  2     0.71     0.05
  15      1.14073903    -0.44245784  -130.27182988    -0.00000000     0.00000001  0.25D-12  0.15D-12  6  3     0.76     0.05
  16      1.14073893    -0.44245784  -130.27182988    -0.00000000     0.00000001  0.27D-13  0.17D-13  6  5     0.80     0.05
  17      1.14073889    -0.44245784  -130.27182989    -0.00000000     0.00000000  0.71D-15  0.21D-14  6  4     0.86     0.05
  18      1.14073889    -0.44245784  -130.27182989     0.00000000    -0.00000000  0.48D-15  0.29D-15  6  1     0.91     0.05
  19      1.14073889    -0.44245784  -130.27182989    -0.00000000     0.00000000  0.52D-16  0.53D-16  6  6     0.96     0.05
  20      1.14073889    -0.44245784  -130.27182989    -0.00000000     0.00000000  0.12D-16  0.14D-16  6  2     1.01     0.05
  21      1.14073889    -0.44245784  -130.27182989    -0.00000000     0.00000000  0.19D-17  0.12D-17  6  5     1.06     0.05
  22      1.14073889    -0.44245784  -130.27182989    -0.00000000     0.00000000  0.10D-18  0.85D-19  6  3     1.11     0.05
  23      1.14073889    -0.44245784  -130.27182989     0.00000000     0.00000000  0.28D-19  0.18D-19  6  4     1.15     0.05
  24      1.14073889    -0.44245784  -130.27182989     0.00000000    -0.00000000  0.42D-20  0.48D-20  6  1     1.21     0.05
  25      1.14073889    -0.44245784  -130.27182989     0.00000000    -0.00000000  0.60D-21  0.82D-21  6  6     1.25     0.05

 Norm of t1 vector:      0.07604312      S-energy:     0.00000000      T1 diagnostic:  0.01552224
                                                                       D1 diagnostic:  0.04316692

 Doubles amplitudes (print threshold =  0.500E-01):

         I         J         SYM. A    SYM. B    A         B      T(IJ, AB)

         6         6         2         2         1         1     -0.14517293


 Total CPU time for triples:      0.41 sec


 RESULTS
 =======

  Reference energy                   -129.829372041987
  CCSD singlet pair energy             -0.303504687011
  CCSD triplet pair energy             -0.138953157598
  CCSD correlation energy              -0.442457844607

  Triples (T) contribution             -0.019921852330
  Total correlation energy             -0.462379696936

  CCSD total energy                  -130.271829886594
  CCSD[T] energy                     -130.292794591389
  CCSD-T energy                      -130.291347957910
 !CCSD(T) total energy               -130.291751738923

 Timing summary (sec):

 STEP                 CPU(USER)    SYS     CPU(TOT)    WALL
 Transformation          0.04      0.01      0.05      0.06
 CCSD iterations         1.21      0.16      1.37      1.37
 Triples                 0.41      0.01      0.42      0.42

 Program statistics:

 Available memory in ccsd:               994999756
 Min. memory needed in ccsd:                154850
 Max. memory used in ccsd:                  184802
 Max. memory used in cckext:                238416 (25 integral passes)



 **********************************************************************************************************************************
 DATASETS  * FILE   NREC   LENGTH (MB)   RECORD NAMES
              1      20       40.28       500      610      700      900      950      970     1000      129      960     1100   
                                          VAR    BASINP    GEOM    SYMINP    ZMAT    AOBASIS   BASIS     P2S    ABASIS      S 
                                         1400     1410     1200     1210     1080     1600     1650     1300     1700     1380   
                                           T        V       H0       H01     AOSYM     SMH    MOLCAS    ERIS     OPER     JKOP   

              2       4        2.85       700     1000      520     2100   
                                         GEOM     BASIS   MCVARS     RHF  

 PROGRAMS   *        TOTAL   CCSD(T)        HF       INT
 CPU TIMES  *         2.78      1.70      0.26      0.73
 REAL TIME  *         3.79 SEC
 DISK USED  *        75.59 MB      
 **********************************************************************************************************************************

 CCSD(T)/cc-pVTZ-DK energy=   -130.291751738923

        CCSD(T)         HF-SCF  
   -130.29175174   -129.82937204
 **********************************************************************************************************************************
 Molpro calculation terminated
 Variable memory released
