
 Primary working directories    : /tmp/r2666/282584.maple
 Secondary working directories  : /tmp/r2666/282584.maple
 Wavefunction directory         : /ddn/home4/r2666/wfu/
 Main file repository           : /tmp/r2666/282584.maple/

 SHA1      : d5ffa45e93fdbca01ffc919aa182cfdae0147319
 NAME      : 2015.1.35
 ARCHNAME  : linux/x86_64
 FC        : /opt/intel/composer_xe_2015.1.133/bin/intel64/ifort
 BLASLIB   : -Wl,-_start-group /opt/intel/mkl/lib/intel64/libmkl_intel_ilp64.a /opt/intel/mkl/lib/intel64/libmkl_intel_thread.a /opt/intel/mkl/lib/intel64/libmkl_core.a -Wl,-_end-group
 id        : olemiss

 Nodes     nprocs
 cn095        1

 Using customized tuning parameters: mindgm=1; mindgv=20; mindgc=4; mindgr=1; noblas=0; minvec=7
 default implementation of scratch files=df  

 ***,hno CCSD(T)/TZ-F12 QFF
 memory, 995, m;
 gthresh,energy=1.d-12,zero=1.d-22,oneint=1.d-22,twoint=1.d-22;
 gthresh,optgrad=1.d-8,optstep=1.d-8;
 nocompress;
 geomtyp=xyz
 bohr
 geometry={
 3
         94        94
 H        0.0000000000        1.6709964600       -1.9377101618
 N        0.0000000000       -0.1598676587       -1.1389844941
 O        0.0000000000        0.0306389887        1.1261050650
 }
 
 basis=vtz-dk
 dkroll=0
   {hf,maxit=500;accu,20;}
 {ccsd(t),nocheck,maxit=250;orbital,IGNORE_ERROR;}

 Variables initialized (889), CPU time= 0.01 sec
 Commands  initialized (702), CPU time= 0.01 sec, 572 directives.
 Default parameters read. Elapsed time= 0.04 sec

 Checking input...
 Passed
1


                                         ***  PROGRAM SYSTEM MOLPRO  ***
                                       Copyright, TTI GmbH Stuttgart, 2015
                                    Version 2015.1 linked Jul  9 2018 13:16:40


 **********************************************************************************************************************************
 LABEL *   hno CCSD(T)/TZ-F12 QFF                                                        
  64 bit serial version                                                                  DATE: 04-Mar-20          TIME: 13:51:00  
 **********************************************************************************************************************************

 SHA1:             d5ffa45e93fdbca01ffc919aa182cfdae0147319
 **********************************************************************************************************************************

 THRESHOLDS:

 ZERO    =  1.00D-22  ONEINT  =  1.00D-22  TWOINT  =  1.00D-22  PREFAC  =  1.00D-14  LOCALI  =  1.00D-09  EORDER  =  1.00D-04
 ENERGY  =  1.00D-12  ETEST   =  0.00D+00  EDENS   =  0.00D+00  THRDEDEF=  1.00D-06  GRADIENT=  1.00D-02  STEP    =  1.00D-03
 ORBITAL =  1.00D-05  CIVEC   =  1.00D-05  COEFF   =  1.00D-04  PRINTCI =  5.00D-02  PUNCHCI =  9.90D+01  OPTGRAD =  3.00D-04
 OPTENERG=  1.00D-06  OPTSTEP =  3.00D-04  THRGRAD =  1.00D-10  COMPRESS=  1.00D-11  VARMIN  =  1.00D-07  VARMAX  =  1.00D-03
 THRDOUB =  0.00D+00  THRDIV  =  1.00D-05  THRRED  =  1.00D-07  THRPSP  =  1.00D+00  THRDC   =  1.00D-10  THRCS   =  1.00D-10
 THRNRM  =  1.00D-08  THREQ   =  0.00D+00  THRDE   =  1.00D+00  THRREF  =  1.00D-05  SPARFAC =  1.00D+00  THRDLP  =  1.00D-07
 THRDIA  =  1.00D-10  THRDLS  =  1.00D-07  THRGPS  =  0.00D+00  THRKEX  =  0.00D+00  THRDIS  =  2.00D-01  THRVAR  =  1.00D-10
 THRLOC  =  1.00D-06  THRGAP  =  1.00D-06  THRLOCT = -1.00D+00  THRGAPT = -1.00D+00  THRORB  =  1.00D-06  THRMLTP =  0.00D+00
 THRCPQCI=  1.00D-10  KEXTA   =  0.00D+00  THRCOARS=  0.00D+00  SYMTOL  =  1.00D-06  GRADTOL =  1.00D-06  THROVL  =  1.00D-08
 THRORTH =  1.00D-08  GRID    =  1.00D-06  GRIDMAX =  1.00D-03  DTMAX   =  0.00D+00  THROCCDE=  1.00D-01  THROCCDE=  1.00D-01



 THRESHOLDS:

 ZERO    =  1.00D-22  ONEINT  =  1.00D-22  TWOINT  =  1.00D-22  PREFAC  =  1.00D-14  LOCALI  =  1.00D-09  EORDER  =  1.00D-04
 ENERGY  =  1.00D-12  ETEST   =  0.00D+00  EDENS   =  0.00D+00  THRDEDEF=  1.00D-06  GRADIENT=  1.00D-02  STEP    =  1.00D-03
 ORBITAL =  1.00D-05  CIVEC   =  1.00D-05  COEFF   =  1.00D-04  PRINTCI =  5.00D-02  PUNCHCI =  9.90D+01  OPTGRAD =  1.00D-08
 OPTENERG=  1.00D-06  OPTSTEP =  1.00D-08  THRGRAD =  1.00D-10  COMPRESS=  1.00D-11  VARMIN  =  1.00D-07  VARMAX  =  1.00D-03
 THRDOUB =  0.00D+00  THRDIV  =  1.00D-05  THRRED  =  1.00D-07  THRPSP  =  1.00D+00  THRDC   =  1.00D-10  THRCS   =  1.00D-10
 THRNRM  =  1.00D-08  THREQ   =  0.00D+00  THRDE   =  1.00D+00  THRREF  =  1.00D-05  SPARFAC =  1.00D+00  THRDLP  =  1.00D-07
 THRDIA  =  1.00D-10  THRDLS  =  1.00D-07  THRGPS  =  0.00D+00  THRKEX  =  0.00D+00  THRDIS  =  2.00D-01  THRVAR  =  1.00D-10
 THRLOC  =  1.00D-06  THRGAP  =  1.00D-06  THRLOCT = -1.00D+00  THRGAPT = -1.00D+00  THRORB  =  1.00D-06  THRMLTP =  0.00D+00
 THRCPQCI=  1.00D-10  KEXTA   =  0.00D+00  THRCOARS=  0.00D+00  SYMTOL  =  1.00D-06  GRADTOL =  1.00D-06  THROVL  =  1.00D-08
 THRORTH =  1.00D-08  GRID    =  1.00D-06  GRIDMAX =  1.00D-03  DTMAX   =  0.00D+00  THROCCDE=  1.00D-01  THROCCDE=  1.00D-01



 Input parameters for SORTINT:

 COMPRESS =    0.000000
 C_FINAL  =    1.000000
 DEBUG    =   -1.000000
 C_SORT1  =    0.000000
 C_SEWARD =    0.000000
 THRESH   =    0.000000
 IO       =  molpro                                                          
 SPRI     =    0.000000
 SETTING GEOMTYP        =    XYZ
 ZUNIT=BOHR
 

 Variable memory set to  995000000 words,  buffer space   230000 words

 SETTING BASIS          =    VTZ-DK
 SETTING DKROLL         =     0.00000000D+00                                  


 Recomputing integrals since basis changed


 Using spherical harmonics

 Library entry H      S cc-pVTZ-DK           selected for orbital group  1
 Library entry H      P cc-pVTZ-DK           selected for orbital group  1
 Library entry H      D cc-pVTZ-DK           selected for orbital group  1
 Library entry N      S cc-pVTZ-DK           selected for orbital group  2
 Library entry N      P cc-pVTZ-DK           selected for orbital group  2
 Library entry N      D cc-pVTZ-DK           selected for orbital group  2
 Library entry N      F cc-pVTZ-DK           selected for orbital group  2
 Library entry O      S cc-pVTZ-DK           selected for orbital group  3
 Library entry O      P cc-pVTZ-DK           selected for orbital group  3
 Library entry O      D cc-pVTZ-DK           selected for orbital group  3
 Library entry O      F cc-pVTZ-DK           selected for orbital group  3


 PROGRAM * SEWARD (Integral evaluation for generally contracted gaussian basis sets)     Author: Roland Lindh, 1990

 Geometry written to block  1 of record 700


 Point group  Cs  



 ATOMIC COORDINATES

 NR  ATOM    CHARGE       X              Y              Z

   1  H       1.00    0.000000000    1.670996460   -1.937710162
   2  N       7.00    0.000000000   -0.159867659   -1.138984494
   3  O       8.00    0.000000000    0.030638989    1.126105065

 Bond lengths in Bohr (Angstrom)

 1-2  1.997504972  2-3  2.273086776
     ( 1.057034110)     ( 1.202865721)

 Bond angles

  1-2-3  108.76195129

 NUCLEAR CHARGE:                   16
 NUMBER OF PRIMITIVE AOS:         111
 NUMBER OF SYMMETRY AOS:          100
 NUMBER OF CONTRACTIONS:           74   (  50A'  +  24A"  )
 NUMBER OF CORE ORBITALS:           2   (   2A'  +   0A"  )
 NUMBER OF VALENCE ORBITALS:        9   (   7A'  +   2A"  )


 NUCLEAR REPULSION ENERGY   30.44243181

 Eigenvalues of metric

         1 0.244E-02 0.397E-02 0.408E-02 0.843E-02 0.131E-01 0.325E-01 0.423E-01 0.463E-01
         2 0.341E-01 0.465E-01 0.101E+00 0.112E+00 0.233E+00 0.344E+00 0.394E+00 0.449E+00


 Contracted 2-electron integrals neglected if value below      1.0D-22

        1874283. INTEGRALS WRITTEN OUT IN     458 BLOCKS ON RECORD 1290 OF FILE 1


 NUMBER OF SORTED TWO-ELECTRON INTEGRALS:    2006100.     BUFFER LENGTH:  32768
 NUMBER OF SEGMENTS:   1  SEGMENT LENGTH:    2006100      RECORD LENGTH: 524288

 Memory used in sort:       2.56 MW

 SORT1 READ     1874283. AND WROTE     1914195. INTEGRALS IN      6 RECORDS. CPU TIME:     0.03 SEC, REAL TIME:     0.05 SEC
 SORT2 READ     1914195. AND WROTE     2006100. INTEGRALS IN      1 RECORDS. CPU TIME:     0.07 SEC, REAL TIME:     0.06 SEC

 FILE SIZES:   FILE 1:    50.1 MBYTE,  FILE 4:    25.2 MBYTE,   TOTAL:     75.3 MBYTE

 OPERATOR DM      FOR CENTER  0  COORDINATES:    0.000000    0.000000    0.000000


 **********************************************************************************************************************************
 DATASETS  * FILE   NREC   LENGTH (MB)   RECORD NAMES
              1      19       35.89       500      610      700      900      950      970     1000      129      960     1100   
                                          VAR    BASINP    GEOM    SYMINP    ZMAT    AOBASIS   BASIS     P2S    ABASIS      S 
                                         1400     1410     1200     1210     1080     1600     1650     1300     1700   
                                           T        V       H0       H01     AOSYM     SMH    MOLCAS    ERIS     OPER   

 PROGRAMS   *        TOTAL       INT
 CPU TIMES  *         0.69      0.61
 REAL TIME  *         1.30 SEC
 DISK USED  *        75.59 MB      
 **********************************************************************************************************************************


 PROGRAM * RHF-SCF (CLOSED SHELL)       Authors: W. Meyer, H.-J. Werner


 NUMBER OF ELECTRONS:       8+    8-
 CONVERGENCE THRESHOLDS:    1.00E-10 (Density)    1.00E-13 (Energy)
 MAX. NUMBER OF ITERATIONS:      500
 INTERPOLATION TYPE:            DIIS
 INTERPOLATION STEPS:              2 (START)      1 (STEP)
 LEVEL SHIFTS:                  0.00 (CLOSED)  0.00 (OPEN) 



 Orbital guess generated from atomic densities. Full valence occupancy:    9   2

 Molecular orbital dump at record        2100.2

 Initial occupancy:   7   1

 ITERATION    DDIFF          GRAD             ENERGY        2-EL.EN.            DIPOLE MOMENTS         DIIS   ORB.
    1      0.000D+00      0.000D+00      -129.78130559    154.259278    0.00000    0.58990   -1.02400    0    start
    2      0.000D+00      0.135D-01      -129.80834032    155.428485    0.00000    0.61119   -0.22747    1    diag
    3      0.184D-01      0.102D-01      -129.82979980    155.535173    0.00000    0.56153   -0.59642    2    diag
    4      0.889D-02      0.156D-02      -129.83053307    155.270594    0.00000    0.56977   -0.53737    3    diag
    5      0.166D-02      0.513D-03      -129.83064706    155.356470    0.00000    0.57527   -0.53871    4    diag
    6      0.717D-03      0.152D-03      -129.83066581    155.341741    0.00000    0.57585   -0.53461    5    diag
    7      0.278D-03      0.759D-04      -129.83067121    155.344087    0.00000    0.57710   -0.53218    6    diag
    8      0.190D-03      0.240D-04      -129.83067170    155.343421    0.00000    0.57712   -0.53140    7    diag
    9      0.628D-04      0.438D-05      -129.83067172    155.343307    0.00000    0.57708   -0.53125    8    diag
   10      0.122D-04      0.982D-06      -129.83067172    155.343289    0.00000    0.57704   -0.53122    9    orth
   11      0.279D-05      0.193D-06      -129.83067172    155.343284    0.00000    0.57703   -0.53122    9    diag
   12      0.512D-06      0.396D-07      -129.83067172    155.343283    0.00000    0.57703   -0.53122    9    diag
   13      0.111D-06      0.978D-08      -129.83067172    155.343282    0.00000    0.57703   -0.53122    9    diag
   14      0.277D-07      0.179D-08      -129.83067172    155.343282    0.00000    0.57703   -0.53122    9    diag
   15      0.452D-08      0.468D-09      -129.83067172    155.343282    0.00000    0.57703   -0.53122    9    diag
   16      0.108D-08      0.118D-09      -129.83067172    155.343282    0.00000    0.57703   -0.53122    9    diag
   17      0.203D-09      0.343D-10      -129.83067172    155.343282    0.00000    0.57703   -0.53122    9    diag
   18      0.650D-10      0.115D-10      -129.83067172    155.343282    0.00000    0.57703   -0.53122    9    diag
   19      0.275D-10      0.255D-11      -129.83067172    155.343282    0.00000    0.57703   -0.53122    0    orth

 Final occupancy:   7   1

 !RHF STATE 1.1 Energy               -129.830671723608
 Nuclear energy                        30.44243181
 One-electron energy                 -237.94474466
 Two-electron energy                   77.67164113
 Virial quotient                       -0.99959663
 !RHF STATE 1.1 Dipole moment           0.00000000     0.57703090    -0.53121781
 Dipole moment /Debye                   0.00000000     1.46657019    -1.35013257

 Orbital energies:

         1.1          2.1          3.1          4.1          5.1          6.1          7.1          8.1          9.1
    -20.647674   -15.707492    -1.529759    -0.988886    -0.744173    -0.663549    -0.424636     0.143928     0.370747

         1.2          2.2          3.2
     -0.594562     0.088135     0.612439

 HOMO      7.1    -0.424636 =     -11.5549eV
 LUMO      2.2     0.088135 =       2.3983eV
 LUMO-HOMO         0.512771 =      13.9532eV


 **********************************************************************************************************************************
 DATASETS  * FILE   NREC   LENGTH (MB)   RECORD NAMES
              1      19       35.89       500      610      700      900      950      970     1000      129      960     1100   
                                          VAR    BASINP    GEOM    SYMINP    ZMAT    AOBASIS   BASIS     P2S    ABASIS      S 
                                         1400     1410     1200     1210     1080     1600     1650     1300     1700   
                                           T        V       H0       H01     AOSYM     SMH    MOLCAS    ERIS     OPER   

              2       4        2.85       700     1000      520     2100   
                                         GEOM     BASIS   MCVARS     RHF  

 PROGRAMS   *        TOTAL        HF       INT
 CPU TIMES  *         0.94      0.25      0.61
 REAL TIME  *         1.62 SEC
 DISK USED  *        75.59 MB      
 **********************************************************************************************************************************


 PROGRAM * CCSD (Closed-shell coupled cluster)     Authors: C. Hampel, H.-J. Werner, 1991, M. Deegan, P.J. Knowles, 1992


 Convergence thresholds:  THRVAR = 1.00D-08  THRDEN = 1.00D-12

 CCSD(T)     terms to be evaluated (factor= 1.000)


 Number of core orbitals:           2 (   2   0 )
 Number of closed-shell orbitals:   6 (   5   1 )
 Number of external orbitals:      66 (  43  23 )

 Molecular orbitals read from record     2100.2  Type=RHF/CANONICAL (state 1.1)

 Number of N-1 electron functions:               6
 Number of N-2 electron functions:              21
 Number of singly external CSFs:               238
 Number of doubly external CSFs:             41002
 Total number of CSFs:                       41241

 Length of J-op  integral file:               0.00 MB
 Length of K-op  integral file:               0.25 MB
 Length of 3-ext integral record:             0.00 MB

 Memory could be reduced to 1.65 Mwords without degradation in triples

 Integral transformation finished. Total CPU:   0.03 sec, npass=  1  Memory used:   0.55 MW

 Reference energy:                   -129.83067172

 MP2 singlet pair energy:              -0.27314558
 MP2 triplet pair energy:              -0.16213806
 MP2 correlation energy:               -0.43528364
 MP2 total energy:                   -130.26595536

 SCS-MP2 correlation energy:           -0.42866060   (PS=  1.200000  PT=  0.333333)
 SCS-MP2 total energy:               -130.25933233

 ITER.      SQ.NORM     CORR.ENERGY   TOTAL ENERGY   ENERGY CHANGE        DEN1      VAR(S)    VAR(P)  DIIS     TIME  TIME/IT
   1      1.11804672    -0.44060584  -130.27127756    -0.00532220     0.01028348  0.29D-02  0.30D-02  1  1     0.08     0.05
   2      1.12880153    -0.44090047  -130.27157219    -0.00029463    -0.01217725  0.86D-04  0.50D-03  2  2     0.13     0.05
   3      1.13501492    -0.44128329  -130.27195502    -0.00038283    -0.00295456  0.47D-04  0.50D-04  3  3     0.17     0.05
   4      1.13777587    -0.44130812  -130.27197985    -0.00002483    -0.00094647  0.40D-05  0.88D-05  4  4     0.21     0.05
   5      1.13875815    -0.44133710  -130.27200883    -0.00002898    -0.00020332  0.14D-05  0.17D-05  5  5     0.25     0.05
   6      1.13911607    -0.44132103  -130.27199276     0.00001607    -0.00004033  0.10D-06  0.41D-06  6  6     0.29     0.05
   7      1.13920387    -0.44132286  -130.27199459    -0.00000183    -0.00000244  0.12D-07  0.86D-07  6  1     0.33     0.05
   8      1.13923483    -0.44132293  -130.27199466    -0.00000007     0.00000182  0.43D-08  0.10D-07  6  2     0.37     0.05
   9      1.13924271    -0.44132270  -130.27199443     0.00000023    -0.00000224  0.25D-08  0.11D-08  6  3     0.41     0.05
  10      1.13924149    -0.44132322  -130.27199494    -0.00000051     0.00000058  0.49D-09  0.20D-09  6  4     0.46     0.05
  11      1.13923972    -0.44132327  -130.27199500    -0.00000006     0.00000021  0.15D-09  0.23D-10  6  5     0.50     0.05
  12      1.13923831    -0.44132345  -130.27199517    -0.00000018     0.00000043  0.16D-10  0.78D-11  6  6     0.54     0.05
  13      1.13923768    -0.44132346  -130.27199518    -0.00000001     0.00000013  0.69D-11  0.12D-11  6  1     0.58     0.05
  14      1.13923729    -0.44132348  -130.27199520    -0.00000002     0.00000008  0.96D-12  0.43D-12  6  2     0.62     0.05
  15      1.13923715    -0.44132348  -130.27199520    -0.00000000     0.00000001  0.24D-12  0.14D-12  6  3     0.66     0.05
  16      1.13923705    -0.44132348  -130.27199520    -0.00000000     0.00000001  0.27D-13  0.16D-13  6  5     0.71     0.05
  17      1.13923702    -0.44132348  -130.27199521    -0.00000000     0.00000000  0.77D-15  0.22D-14  6  4     0.73     0.05
  18      1.13923702    -0.44132348  -130.27199521     0.00000000    -0.00000000  0.50D-15  0.32D-15  6  1     0.78     0.05
  19      1.13923701    -0.44132348  -130.27199521    -0.00000000     0.00000000  0.46D-16  0.57D-16  6  6     0.82     0.05
  20      1.13923701    -0.44132348  -130.27199521    -0.00000000     0.00000000  0.98D-17  0.14D-16  6  2     0.86     0.05
  21      1.13923701    -0.44132348  -130.27199521    -0.00000000     0.00000000  0.19D-17  0.11D-17  6  5     0.90     0.05
  22      1.13923701    -0.44132348  -130.27199521     0.00000000     0.00000000  0.11D-18  0.79D-19  6  3     0.93     0.05
  23      1.13923701    -0.44132348  -130.27199521     0.00000000    -0.00000000  0.30D-19  0.17D-19  6  4     0.98     0.05
  24      1.13923701    -0.44132348  -130.27199521     0.00000000    -0.00000000  0.44D-20  0.46D-20  6  1     1.02     0.05
  25      1.13923701    -0.44132348  -130.27199521     0.00000000    -0.00000000  0.54D-21  0.81D-21  6  6     1.06     0.05

 Norm of t1 vector:      0.07466511      S-energy:     0.00000000      T1 diagnostic:  0.01524095
                                                                       D1 diagnostic:  0.04185020

 Doubles amplitudes (print threshold =  0.500E-01):

         I         J         SYM. A    SYM. B    A         B      T(IJ, AB)

         6         6         2         2         1         1     -0.14230492


 Total CPU time for triples:      0.28 sec


 RESULTS
 =======

  Reference energy                   -129.830671723607
  CCSD singlet pair energy             -0.302512267511
  CCSD triplet pair energy             -0.138811215228
  CCSD correlation energy              -0.441323482738

  Triples (T) contribution             -0.019650698285
  Total correlation energy             -0.460974181023

  CCSD total energy                  -130.271995206346
  CCSD[T] energy                     -130.292650284575
  CCSD-T energy                      -130.291250917184
 !CCSD(T) total energy               -130.291645904631

 Timing summary (sec):

 STEP                 CPU(USER)    SYS     CPU(TOT)    WALL
 Transformation          0.03      0.02      0.05      0.05
 CCSD iterations         1.03      0.20      1.23      1.23
 Triples                 0.28      0.01      0.29      0.30

 Program statistics:

 Available memory in ccsd:               994999756
 Min. memory needed in ccsd:                154850
 Max. memory used in ccsd:                  184802
 Max. memory used in cckext:                238416 (25 integral passes)



 **********************************************************************************************************************************
 DATASETS  * FILE   NREC   LENGTH (MB)   RECORD NAMES
              1      20       40.28       500      610      700      900      950      970     1000      129      960     1100   
                                          VAR    BASINP    GEOM    SYMINP    ZMAT    AOBASIS   BASIS     P2S    ABASIS      S 
                                         1400     1410     1200     1210     1080     1600     1650     1300     1700     1380   
                                           T        V       H0       H01     AOSYM     SMH    MOLCAS    ERIS     OPER     JKOP   

              2       4        2.85       700     1000      520     2100   
                                         GEOM     BASIS   MCVARS     RHF  

 PROGRAMS   *        TOTAL   CCSD(T)        HF       INT
 CPU TIMES  *         2.30      1.35      0.25      0.61
 REAL TIME  *         3.24 SEC
 DISK USED  *        75.59 MB      
 **********************************************************************************************************************************

 CCSD(T)/cc-pVTZ-DK energy=   -130.291645904631

        CCSD(T)         HF-SCF  
   -130.29164590   -129.83067172
 **********************************************************************************************************************************
 Molpro calculation terminated
 Variable memory released
