
 Primary working directories    : /tmp/r2666/282531.maple
 Secondary working directories  : /tmp/r2666/282531.maple
 Wavefunction directory         : /ddn/home4/r2666/wfu/
 Main file repository           : /tmp/r2666/282531.maple/

 SHA1      : d5ffa45e93fdbca01ffc919aa182cfdae0147319
 NAME      : 2015.1.35
 ARCHNAME  : linux/x86_64
 FC        : /opt/intel/composer_xe_2015.1.133/bin/intel64/ifort
 BLASLIB   : -Wl,-_start-group /opt/intel/mkl/lib/intel64/libmkl_intel_ilp64.a /opt/intel/mkl/lib/intel64/libmkl_intel_thread.a /opt/intel/mkl/lib/intel64/libmkl_core.a -Wl,-_end-group
 id        : olemiss

 Nodes     nprocs
 cn094        1

 Using customized tuning parameters: mindgm=1; mindgv=20; mindgc=4; mindgr=1; noblas=0; minvec=7
 default implementation of scratch files=df  

 ***,hno CCSD(T)/TZ-F12 QFF
 memory, 995, m;
 gthresh,energy=1.d-12,zero=1.d-22,oneint=1.d-22,twoint=1.d-22;
 gthresh,optgrad=1.d-8,optstep=1.d-8;
 nocompress;
 geomtyp=xyz
 bohr
 geometry={
 3
         41        41
 H        0.0000000000        1.6635181624       -1.9348507922
 N        0.0000000000       -0.1528400951       -1.1501654037
 O        0.0000000000        0.0310897227        1.1344266048
 }
 
 basis=vtz-dk
 dkroll=0
   {hf,maxit=500;accu,20;}
 {ccsd(t),nocheck,maxit=250;orbital,IGNORE_ERROR;}

 Variables initialized (889), CPU time= 0.01 sec
 Commands  initialized (702), CPU time= 0.01 sec, 572 directives.
 Default parameters read. Elapsed time= 0.07 sec

 Checking input...
 Passed
1


                                         ***  PROGRAM SYSTEM MOLPRO  ***
                                       Copyright, TTI GmbH Stuttgart, 2015
                                    Version 2015.1 linked Jul  9 2018 13:16:40


 **********************************************************************************************************************************
 LABEL *   hno CCSD(T)/TZ-F12 QFF                                                        
  64 bit serial version                                                                  DATE: 04-Mar-20          TIME: 13:50:52  
 **********************************************************************************************************************************

 SHA1:             d5ffa45e93fdbca01ffc919aa182cfdae0147319
 **********************************************************************************************************************************

 THRESHOLDS:

 ZERO    =  1.00D-22  ONEINT  =  1.00D-22  TWOINT  =  1.00D-22  PREFAC  =  1.00D-14  LOCALI  =  1.00D-09  EORDER  =  1.00D-04
 ENERGY  =  1.00D-12  ETEST   =  0.00D+00  EDENS   =  0.00D+00  THRDEDEF=  1.00D-06  GRADIENT=  1.00D-02  STEP    =  1.00D-03
 ORBITAL =  1.00D-05  CIVEC   =  1.00D-05  COEFF   =  1.00D-04  PRINTCI =  5.00D-02  PUNCHCI =  9.90D+01  OPTGRAD =  3.00D-04
 OPTENERG=  1.00D-06  OPTSTEP =  3.00D-04  THRGRAD =  1.00D-10  COMPRESS=  1.00D-11  VARMIN  =  1.00D-07  VARMAX  =  1.00D-03
 THRDOUB =  0.00D+00  THRDIV  =  1.00D-05  THRRED  =  1.00D-07  THRPSP  =  1.00D+00  THRDC   =  1.00D-10  THRCS   =  1.00D-10
 THRNRM  =  1.00D-08  THREQ   =  0.00D+00  THRDE   =  1.00D+00  THRREF  =  1.00D-05  SPARFAC =  1.00D+00  THRDLP  =  1.00D-07
 THRDIA  =  1.00D-10  THRDLS  =  1.00D-07  THRGPS  =  0.00D+00  THRKEX  =  0.00D+00  THRDIS  =  2.00D-01  THRVAR  =  1.00D-10
 THRLOC  =  1.00D-06  THRGAP  =  1.00D-06  THRLOCT = -1.00D+00  THRGAPT = -1.00D+00  THRORB  =  1.00D-06  THRMLTP =  0.00D+00
 THRCPQCI=  1.00D-10  KEXTA   =  0.00D+00  THRCOARS=  0.00D+00  SYMTOL  =  1.00D-06  GRADTOL =  1.00D-06  THROVL  =  1.00D-08
 THRORTH =  1.00D-08  GRID    =  1.00D-06  GRIDMAX =  1.00D-03  DTMAX   =  0.00D+00  THROCCDE=  1.00D-01  THROCCDE=  1.00D-01



 THRESHOLDS:

 ZERO    =  1.00D-22  ONEINT  =  1.00D-22  TWOINT  =  1.00D-22  PREFAC  =  1.00D-14  LOCALI  =  1.00D-09  EORDER  =  1.00D-04
 ENERGY  =  1.00D-12  ETEST   =  0.00D+00  EDENS   =  0.00D+00  THRDEDEF=  1.00D-06  GRADIENT=  1.00D-02  STEP    =  1.00D-03
 ORBITAL =  1.00D-05  CIVEC   =  1.00D-05  COEFF   =  1.00D-04  PRINTCI =  5.00D-02  PUNCHCI =  9.90D+01  OPTGRAD =  1.00D-08
 OPTENERG=  1.00D-06  OPTSTEP =  1.00D-08  THRGRAD =  1.00D-10  COMPRESS=  1.00D-11  VARMIN  =  1.00D-07  VARMAX  =  1.00D-03
 THRDOUB =  0.00D+00  THRDIV  =  1.00D-05  THRRED  =  1.00D-07  THRPSP  =  1.00D+00  THRDC   =  1.00D-10  THRCS   =  1.00D-10
 THRNRM  =  1.00D-08  THREQ   =  0.00D+00  THRDE   =  1.00D+00  THRREF  =  1.00D-05  SPARFAC =  1.00D+00  THRDLP  =  1.00D-07
 THRDIA  =  1.00D-10  THRDLS  =  1.00D-07  THRGPS  =  0.00D+00  THRKEX  =  0.00D+00  THRDIS  =  2.00D-01  THRVAR  =  1.00D-10
 THRLOC  =  1.00D-06  THRGAP  =  1.00D-06  THRLOCT = -1.00D+00  THRGAPT = -1.00D+00  THRORB  =  1.00D-06  THRMLTP =  0.00D+00
 THRCPQCI=  1.00D-10  KEXTA   =  0.00D+00  THRCOARS=  0.00D+00  SYMTOL  =  1.00D-06  GRADTOL =  1.00D-06  THROVL  =  1.00D-08
 THRORTH =  1.00D-08  GRID    =  1.00D-06  GRIDMAX =  1.00D-03  DTMAX   =  0.00D+00  THROCCDE=  1.00D-01  THROCCDE=  1.00D-01



 Input parameters for SORTINT:

 COMPRESS =    0.000000
 C_FINAL  =    1.000000
 DEBUG    =   -1.000000
 C_SORT1  =    0.000000
 C_SEWARD =    0.000000
 THRESH   =    0.000000
 IO       =  molpro                                                          
 SPRI     =    0.000000
 SETTING GEOMTYP        =    XYZ
 ZUNIT=BOHR
 

 Variable memory set to  995000000 words,  buffer space   230000 words

 SETTING BASIS          =    VTZ-DK
 SETTING DKROLL         =     0.00000000D+00                                  


 Recomputing integrals since basis changed


 Using spherical harmonics

 Library entry H      S cc-pVTZ-DK           selected for orbital group  1
 Library entry H      P cc-pVTZ-DK           selected for orbital group  1
 Library entry H      D cc-pVTZ-DK           selected for orbital group  1
 Library entry N      S cc-pVTZ-DK           selected for orbital group  2
 Library entry N      P cc-pVTZ-DK           selected for orbital group  2
 Library entry N      D cc-pVTZ-DK           selected for orbital group  2
 Library entry N      F cc-pVTZ-DK           selected for orbital group  2
 Library entry O      S cc-pVTZ-DK           selected for orbital group  3
 Library entry O      P cc-pVTZ-DK           selected for orbital group  3
 Library entry O      D cc-pVTZ-DK           selected for orbital group  3
 Library entry O      F cc-pVTZ-DK           selected for orbital group  3


 PROGRAM * SEWARD (Integral evaluation for generally contracted gaussian basis sets)     Author: Roland Lindh, 1990

 Geometry written to block  1 of record 700


 Point group  Cs  



 ATOMIC COORDINATES

 NR  ATOM    CHARGE       X              Y              Z

   1  H       1.00    0.000000000    1.663518162   -1.934850792
   2  N       7.00    0.000000000   -0.152840095   -1.150165404
   3  O       8.00    0.000000000    0.031089723    1.134426605

 Bond lengths in Bohr (Angstrom)

 1-2  1.978607712  2-3  2.291984036
     ( 1.047034111)     ( 1.212865720)

 Bond angles

  1-2-3  108.76195128

 NUCLEAR CHARGE:                   16
 NUMBER OF PRIMITIVE AOS:         111
 NUMBER OF SYMMETRY AOS:          100
 NUMBER OF CONTRACTIONS:           74   (  50A'  +  24A"  )
 NUMBER OF CORE ORBITALS:           2   (   2A'  +   0A"  )
 NUMBER OF VALENCE ORBITALS:        9   (   7A'  +   2A"  )


 NUCLEAR REPULSION ENERGY   30.27205909

 Eigenvalues of metric

         1 0.245E-02 0.396E-02 0.422E-02 0.830E-02 0.129E-01 0.329E-01 0.428E-01 0.463E-01
         2 0.345E-01 0.465E-01 0.102E+00 0.111E+00 0.235E+00 0.341E+00 0.395E+00 0.451E+00


 Contracted 2-electron integrals neglected if value below      1.0D-22

        1874283. INTEGRALS WRITTEN OUT IN     458 BLOCKS ON RECORD 1290 OF FILE 1


 NUMBER OF SORTED TWO-ELECTRON INTEGRALS:    2006100.     BUFFER LENGTH:  32768
 NUMBER OF SEGMENTS:   1  SEGMENT LENGTH:    2006100      RECORD LENGTH: 524288

 Memory used in sort:       2.56 MW

 SORT1 READ     1874283. AND WROTE     1914195. INTEGRALS IN      6 RECORDS. CPU TIME:     0.03 SEC, REAL TIME:     0.04 SEC
 SORT2 READ     1914195. AND WROTE     2006100. INTEGRALS IN      1 RECORDS. CPU TIME:     0.04 SEC, REAL TIME:     0.06 SEC

 FILE SIZES:   FILE 1:    50.1 MBYTE,  FILE 4:    25.2 MBYTE,   TOTAL:     75.3 MBYTE

 OPERATOR DM      FOR CENTER  0  COORDINATES:    0.000000    0.000000    0.000000


 **********************************************************************************************************************************
 DATASETS  * FILE   NREC   LENGTH (MB)   RECORD NAMES
              1      19       35.89       500      610      700      900      950      970     1000      129      960     1100   
                                          VAR    BASINP    GEOM    SYMINP    ZMAT    AOBASIS   BASIS     P2S    ABASIS      S 
                                         1400     1410     1200     1210     1080     1600     1650     1300     1700   
                                           T        V       H0       H01     AOSYM     SMH    MOLCAS    ERIS     OPER   

 PROGRAMS   *        TOTAL       INT
 CPU TIMES  *         0.65      0.54
 REAL TIME  *         1.15 SEC
 DISK USED  *        75.59 MB      
 **********************************************************************************************************************************


 PROGRAM * RHF-SCF (CLOSED SHELL)       Authors: W. Meyer, H.-J. Werner


 NUMBER OF ELECTRONS:       8+    8-
 CONVERGENCE THRESHOLDS:    1.00E-10 (Density)    1.00E-13 (Energy)
 MAX. NUMBER OF ITERATIONS:      500
 INTERPOLATION TYPE:            DIIS
 INTERPOLATION STEPS:              2 (START)      1 (STEP)
 LEVEL SHIFTS:                  0.00 (CLOSED)  0.00 (OPEN) 



 Orbital guess generated from atomic densities. Full valence occupancy:    9   2

 Molecular orbital dump at record        2100.2

 Initial occupancy:   7   1

 ITERATION    DDIFF          GRAD             ENERGY        2-EL.EN.            DIPOLE MOMENTS         DIIS   ORB.
    1      0.000D+00      0.000D+00      -129.77928124    153.961259    0.00000    0.60097   -1.05427    0    start
    2      0.000D+00      0.136D-01      -129.80603618    155.101066    0.00000    0.61903   -0.22626    1    diag
    3      0.187D-01      0.104D-01      -129.82868383    155.231244    0.00000    0.57026   -0.61165    2    diag
    4      0.908D-02      0.157D-02      -129.82943378    154.961097    0.00000    0.57840   -0.55098    3    diag
    5      0.168D-02      0.518D-03      -129.82954940    155.047060    0.00000    0.58378   -0.55210    4    diag
    6      0.723D-03      0.153D-03      -129.82956837    155.032331    0.00000    0.58432   -0.54785    5    diag
    7      0.279D-03      0.772D-04      -129.82957402    155.034530    0.00000    0.58553   -0.54529    6    diag
    8      0.193D-03      0.252D-04      -129.82957458    155.033828    0.00000    0.58554   -0.54444    7    diag
    9      0.674D-04      0.460D-05      -129.82957461    155.033707    0.00000    0.58548   -0.54428    8    diag
   10      0.132D-04      0.101D-05      -129.82957461    155.033690    0.00000    0.58545   -0.54426    9    orth
   11      0.287D-05      0.196D-06      -129.82957461    155.033685    0.00000    0.58544   -0.54425    9    diag
   12      0.516D-06      0.413D-07      -129.82957461    155.033684    0.00000    0.58544   -0.54425    9    diag
   13      0.111D-06      0.104D-07      -129.82957461    155.033684    0.00000    0.58544   -0.54425    9    diag
   14      0.281D-07      0.188D-08      -129.82957461    155.033684    0.00000    0.58544   -0.54425    9    diag
   15      0.430D-08      0.477D-09      -129.82957461    155.033684    0.00000    0.58544   -0.54425    9    diag
   16      0.105D-08      0.114D-09      -129.82957461    155.033684    0.00000    0.58544   -0.54425    9    diag
   17      0.167D-09      0.307D-10      -129.82957461    155.033684    0.00000    0.58544   -0.54425    9    diag
   18      0.472D-10      0.100D-10      -129.82957461    155.033684    0.00000    0.58544   -0.54425    9    diag
   19      0.191D-10      0.205D-11      -129.82957461    155.033684    0.00000    0.58544   -0.54425    9    fixocc
   20      0.477D-11      0.350D-12      -129.82957461    155.033684    0.00000    0.58544   -0.54425    9    orth
   21      0.984D-12      0.121D-12      -129.82957461    155.033684    0.00000    0.58544   -0.54425    9    diag
   22      0.357D-12      0.290D-13      -129.82957461    155.033684    0.00000    0.58544   -0.54425    9    diag
   23      0.608D-13      0.188D-13      -129.82957461    155.033684    0.00000    0.58544   -0.54425    9    diag
   24      0.535D-13      0.143D-13      -129.82957461    155.033684    0.00000    0.58544   -0.54425    9    diag
   25      0.301D-13      0.159D-13      -129.82957461    155.033684    0.00000    0.58544   -0.54425    9    diag
   26      0.272D-13      0.146D-13      -129.82957461    155.033684    0.00000    0.58544   -0.54425    9    diag
   27      0.222D-13      0.156D-13      -129.82957461    155.033684    0.00000    0.58544   -0.54425    9    diag
   28      0.272D-14      0.159D-13      -129.82957461    155.033684    0.00000    0.58544   -0.54425    0    orth

 Final occupancy:   7   1

 !RHF STATE 1.1 Energy               -129.829574608866
 Nuclear energy                        30.27205909
 One-electron energy                 -237.61847558
 Two-electron energy                   77.51684189
 Virial quotient                       -0.99977032
 !RHF STATE 1.1 Dipole moment           0.00000000     0.58544142    -0.54425105
 Dipole moment /Debye                   0.00000000     1.48794621    -1.38325758

 Orbital energies:

         1.1          2.1          3.1          4.1          5.1          6.1          7.1          8.1          9.1
    -20.648396   -15.707835    -1.521667    -0.993741    -0.742200    -0.660642    -0.428252     0.143979     0.369349

         1.2          2.2          3.2
     -0.589663     0.084436     0.613585

 HOMO      7.1    -0.428252 =     -11.6533eV
 LUMO      2.2     0.084436 =       2.2976eV
 LUMO-HOMO         0.512688 =      13.9509eV


 **********************************************************************************************************************************
 DATASETS  * FILE   NREC   LENGTH (MB)   RECORD NAMES
              1      19       35.89       500      610      700      900      950      970     1000      129      960     1100   
                                          VAR    BASINP    GEOM    SYMINP    ZMAT    AOBASIS   BASIS     P2S    ABASIS      S 
                                         1400     1410     1200     1210     1080     1600     1650     1300     1700   
                                           T        V       H0       H01     AOSYM     SMH    MOLCAS    ERIS     OPER   

              2       4        2.85       700     1000      520     2100   
                                         GEOM     BASIS   MCVARS     RHF  

 PROGRAMS   *        TOTAL        HF       INT
 CPU TIMES  *         0.97      0.32      0.54
 REAL TIME  *         1.53 SEC
 DISK USED  *        75.59 MB      
 **********************************************************************************************************************************


 PROGRAM * CCSD (Closed-shell coupled cluster)     Authors: C. Hampel, H.-J. Werner, 1991, M. Deegan, P.J. Knowles, 1992


 Convergence thresholds:  THRVAR = 1.00D-08  THRDEN = 1.00D-12

 CCSD(T)     terms to be evaluated (factor= 1.000)


 Number of core orbitals:           2 (   2   0 )
 Number of closed-shell orbitals:   6 (   5   1 )
 Number of external orbitals:      66 (  43  23 )

 Molecular orbitals read from record     2100.2  Type=RHF/CANONICAL (state 1.1)

 Number of N-1 electron functions:               6
 Number of N-2 electron functions:              21
 Number of singly external CSFs:               238
 Number of doubly external CSFs:             41002
 Total number of CSFs:                       41241

 Length of J-op  integral file:               0.00 MB
 Length of K-op  integral file:               0.25 MB
 Length of 3-ext integral record:             0.00 MB

 Memory could be reduced to 1.65 Mwords without degradation in triples

 Integral transformation finished. Total CPU:   0.01 sec, npass=  1  Memory used:   0.55 MW

 Reference energy:                   -129.82957461

 MP2 singlet pair energy:              -0.27396568
 MP2 triplet pair energy:              -0.16269171
 MP2 correlation energy:               -0.43665739
 MP2 total energy:                   -130.26623200

 SCS-MP2 correlation energy:           -0.42998922   (PS=  1.200000  PT=  0.333333)
 SCS-MP2 total energy:               -130.25956383

 ITER.      SQ.NORM     CORR.ENERGY   TOTAL ENERGY   ENERGY CHANGE        DEN1      VAR(S)    VAR(P)  DIIS     TIME  TIME/IT
   1      1.11879236    -0.44162558  -130.27120019    -0.00496819     0.01096276  0.30D-02  0.30D-02  1  1     0.06     0.04
   2      1.12972640    -0.44184960  -130.27142421    -0.00022402    -0.01236281  0.90D-04  0.51D-03  2  2     0.10     0.04
   3      1.13608560    -0.44224064  -130.27181525    -0.00039104    -0.00300022  0.48D-04  0.52D-04  3  3     0.13     0.04
   4      1.13894433    -0.44226763  -130.27184223    -0.00002699    -0.00097183  0.40D-05  0.91D-05  4  4     0.17     0.04
   5      1.13996665    -0.44229768  -130.27187229    -0.00003005    -0.00021151  0.13D-05  0.17D-05  5  5     0.20     0.04
   6      1.14033230    -0.44228061  -130.27185522     0.00001707    -0.00004167  0.92D-07  0.42D-06  6  6     0.23     0.04
   7      1.14041787    -0.44228283  -130.27185744    -0.00000222    -0.00000190  0.11D-07  0.92D-07  6  1     0.27     0.04
   8      1.14044845    -0.44228282  -130.27185742     0.00000001     0.00000202  0.48D-08  0.11D-07  6  2     0.30     0.04
   9      1.14045642    -0.44228262  -130.27185722     0.00000020    -0.00000235  0.27D-08  0.12D-08  6  3     0.33     0.04
  10      1.14045511    -0.44228314  -130.27185775    -0.00000052     0.00000065  0.51D-09  0.22D-09  6  4     0.37     0.04
  11      1.14045337    -0.44228320  -130.27185780    -0.00000006     0.00000017  0.15D-09  0.24D-10  6  5     0.41     0.04
  12      1.14045196    -0.44228338  -130.27185799    -0.00000018     0.00000044  0.15D-10  0.76D-11  6  6     0.44     0.04
  13      1.14045135    -0.44228339  -130.27185800    -0.00000001     0.00000012  0.66D-11  0.13D-11  6  1     0.47     0.04
  14      1.14045095    -0.44228341  -130.27185802    -0.00000002     0.00000008  0.92D-12  0.45D-12  6  2     0.51     0.04
  15      1.14045080    -0.44228341  -130.27185802    -0.00000000     0.00000001  0.24D-12  0.14D-12  6  3     0.55     0.04
  16      1.14045070    -0.44228341  -130.27185802    -0.00000000     0.00000001  0.26D-13  0.17D-13  6  5     0.58     0.04
  17      1.14045067    -0.44228341  -130.27185802    -0.00000000     0.00000000  0.70D-15  0.20D-14  6  4     0.62     0.04
  18      1.14045067    -0.44228341  -130.27185802     0.00000000    -0.00000000  0.47D-15  0.28D-15  6  1     0.65     0.04
  19      1.14045066    -0.44228341  -130.27185802    -0.00000000     0.00000000  0.51D-16  0.52D-16  6  6     0.68     0.04
  20      1.14045066    -0.44228341  -130.27185802    -0.00000000     0.00000000  0.12D-16  0.14D-16  6  2     0.72     0.04
  21      1.14045066    -0.44228341  -130.27185802    -0.00000000     0.00000000  0.18D-17  0.11D-17  6  5     0.75     0.04
  22      1.14045066    -0.44228341  -130.27185802    -0.00000000     0.00000000  0.10D-18  0.83D-19  6  3     0.79     0.04
  23      1.14045066    -0.44228341  -130.27185802     0.00000000     0.00000000  0.28D-19  0.17D-19  6  4     0.81     0.04
  24      1.14045066    -0.44228341  -130.27185802     0.00000000    -0.00000000  0.41D-20  0.47D-20  6  1     0.86     0.04
  25      1.14045066    -0.44228341  -130.27185802     0.00000000    -0.00000000  0.58D-21  0.81D-21  6  6     0.89     0.04

 Norm of t1 vector:      0.07567838      S-energy:     0.00000000      T1 diagnostic:  0.01544779
                                                                       D1 diagnostic:  0.04312162

 Doubles amplitudes (print threshold =  0.500E-01):

         I         J         SYM. A    SYM. B    A         B      T(IJ, AB)

         6         6         2         2         1         1     -0.14522400


 Total CPU time for triples:      0.23 sec


 RESULTS
 =======

  Reference energy                   -129.829574608866
  CCSD singlet pair energy             -0.303354563910
  CCSD triplet pair energy             -0.138928848801
  CCSD correlation energy              -0.442283412711

  Triples (T) contribution             -0.019887094557
  Total correlation energy             -0.462170507268

  CCSD total energy                  -130.271858021576
  CCSD[T] energy                     -130.292780654159
  CCSD-T energy                      -130.291343848870
 !CCSD(T) total energy               -130.291745116133

 Timing summary (sec):

 STEP                 CPU(USER)    SYS     CPU(TOT)    WALL
 Transformation          0.02      0.02      0.04      0.04
 CCSD iterations         0.87      0.12      0.99      0.99
 Triples                 0.23      0.01      0.24      0.24

 Program statistics:

 Available memory in ccsd:               994999756
 Min. memory needed in ccsd:                154850
 Max. memory used in ccsd:                  184802
 Max. memory used in cckext:                238416 (25 integral passes)



 **********************************************************************************************************************************
 DATASETS  * FILE   NREC   LENGTH (MB)   RECORD NAMES
              1      20       40.28       500      610      700      900      950      970     1000      129      960     1100   
                                          VAR    BASINP    GEOM    SYMINP    ZMAT    AOBASIS   BASIS     P2S    ABASIS      S 
                                         1400     1410     1200     1210     1080     1600     1650     1300     1700     1380   
                                           T        V       H0       H01     AOSYM     SMH    MOLCAS    ERIS     OPER     JKOP   

              2       4        2.85       700     1000      520     2100   
                                         GEOM     BASIS   MCVARS     RHF  

 PROGRAMS   *        TOTAL   CCSD(T)        HF       INT
 CPU TIMES  *         2.12      1.14      0.32      0.54
 REAL TIME  *         2.84 SEC
 DISK USED  *        75.59 MB      
 **********************************************************************************************************************************

 CCSD(T)/cc-pVTZ-DK energy=   -130.291745116133

        CCSD(T)         HF-SCF  
   -130.29174512   -129.82957461
 **********************************************************************************************************************************
 Molpro calculation terminated
 Variable memory released
