
 Primary working directories    : /tmp/r2666/282605.maple
 Secondary working directories  : /tmp/r2666/282605.maple
 Wavefunction directory         : /ddn/home4/r2666/wfu/
 Main file repository           : /tmp/r2666/282605.maple/

 SHA1      : d5ffa45e93fdbca01ffc919aa182cfdae0147319
 NAME      : 2015.1.35
 ARCHNAME  : linux/x86_64
 FC        : /opt/intel/composer_xe_2015.1.133/bin/intel64/ifort
 BLASLIB   : -Wl,-_start-group /opt/intel/mkl/lib/intel64/libmkl_intel_ilp64.a /opt/intel/mkl/lib/intel64/libmkl_intel_thread.a /opt/intel/mkl/lib/intel64/libmkl_core.a -Wl,-_end-group
 id        : olemiss

 Nodes     nprocs
 cn084        1

 Using customized tuning parameters: mindgm=1; mindgv=20; mindgc=4; mindgr=1; noblas=0; minvec=7
 default implementation of scratch files=df  

 ***,hno CCSD(T)/TZ-F12 QFF
 memory, 995, m;
 gthresh,energy=1.d-12,zero=1.d-22,oneint=1.d-22,twoint=1.d-22;
 gthresh,optgrad=1.d-8,optstep=1.d-8;
 nocompress;
 geomtyp=xyz
 bohr
 geometry={
 3
        115       115
 H        0.0000000000        1.6755207386       -1.9292183510
 N        0.0000000000       -0.1727349890       -1.1470332540
 O        0.0000000000        0.0389820404        1.1256620140
 }
 
 basis=vtz-dk
 dkroll=0
   {hf,maxit=500;accu,20;}
 {ccsd(t),nocheck,maxit=250;orbital,IGNORE_ERROR;}

 Variables initialized (889), CPU time= 0.00 sec
 Commands  initialized (702), CPU time= 0.02 sec, 572 directives.
 Default parameters read. Elapsed time= 0.08 sec

 Checking input...
 Passed
1


                                         ***  PROGRAM SYSTEM MOLPRO  ***
                                       Copyright, TTI GmbH Stuttgart, 2015
                                    Version 2015.1 linked Jul  9 2018 13:16:40


 **********************************************************************************************************************************
 LABEL *   hno CCSD(T)/TZ-F12 QFF                                                        
  64 bit serial version                                                                  DATE: 04-Mar-20          TIME: 13:51:03  
 **********************************************************************************************************************************

 SHA1:             d5ffa45e93fdbca01ffc919aa182cfdae0147319
 **********************************************************************************************************************************

 THRESHOLDS:

 ZERO    =  1.00D-22  ONEINT  =  1.00D-22  TWOINT  =  1.00D-22  PREFAC  =  1.00D-14  LOCALI  =  1.00D-09  EORDER  =  1.00D-04
 ENERGY  =  1.00D-12  ETEST   =  0.00D+00  EDENS   =  0.00D+00  THRDEDEF=  1.00D-06  GRADIENT=  1.00D-02  STEP    =  1.00D-03
 ORBITAL =  1.00D-05  CIVEC   =  1.00D-05  COEFF   =  1.00D-04  PRINTCI =  5.00D-02  PUNCHCI =  9.90D+01  OPTGRAD =  3.00D-04
 OPTENERG=  1.00D-06  OPTSTEP =  3.00D-04  THRGRAD =  1.00D-10  COMPRESS=  1.00D-11  VARMIN  =  1.00D-07  VARMAX  =  1.00D-03
 THRDOUB =  0.00D+00  THRDIV  =  1.00D-05  THRRED  =  1.00D-07  THRPSP  =  1.00D+00  THRDC   =  1.00D-10  THRCS   =  1.00D-10
 THRNRM  =  1.00D-08  THREQ   =  0.00D+00  THRDE   =  1.00D+00  THRREF  =  1.00D-05  SPARFAC =  1.00D+00  THRDLP  =  1.00D-07
 THRDIA  =  1.00D-10  THRDLS  =  1.00D-07  THRGPS  =  0.00D+00  THRKEX  =  0.00D+00  THRDIS  =  2.00D-01  THRVAR  =  1.00D-10
 THRLOC  =  1.00D-06  THRGAP  =  1.00D-06  THRLOCT = -1.00D+00  THRGAPT = -1.00D+00  THRORB  =  1.00D-06  THRMLTP =  0.00D+00
 THRCPQCI=  1.00D-10  KEXTA   =  0.00D+00  THRCOARS=  0.00D+00  SYMTOL  =  1.00D-06  GRADTOL =  1.00D-06  THROVL  =  1.00D-08
 THRORTH =  1.00D-08  GRID    =  1.00D-06  GRIDMAX =  1.00D-03  DTMAX   =  0.00D+00  THROCCDE=  1.00D-01  THROCCDE=  1.00D-01



 THRESHOLDS:

 ZERO    =  1.00D-22  ONEINT  =  1.00D-22  TWOINT  =  1.00D-22  PREFAC  =  1.00D-14  LOCALI  =  1.00D-09  EORDER  =  1.00D-04
 ENERGY  =  1.00D-12  ETEST   =  0.00D+00  EDENS   =  0.00D+00  THRDEDEF=  1.00D-06  GRADIENT=  1.00D-02  STEP    =  1.00D-03
 ORBITAL =  1.00D-05  CIVEC   =  1.00D-05  COEFF   =  1.00D-04  PRINTCI =  5.00D-02  PUNCHCI =  9.90D+01  OPTGRAD =  1.00D-08
 OPTENERG=  1.00D-06  OPTSTEP =  1.00D-08  THRGRAD =  1.00D-10  COMPRESS=  1.00D-11  VARMIN  =  1.00D-07  VARMAX  =  1.00D-03
 THRDOUB =  0.00D+00  THRDIV  =  1.00D-05  THRRED  =  1.00D-07  THRPSP  =  1.00D+00  THRDC   =  1.00D-10  THRCS   =  1.00D-10
 THRNRM  =  1.00D-08  THREQ   =  0.00D+00  THRDE   =  1.00D+00  THRREF  =  1.00D-05  SPARFAC =  1.00D+00  THRDLP  =  1.00D-07
 THRDIA  =  1.00D-10  THRDLS  =  1.00D-07  THRGPS  =  0.00D+00  THRKEX  =  0.00D+00  THRDIS  =  2.00D-01  THRVAR  =  1.00D-10
 THRLOC  =  1.00D-06  THRGAP  =  1.00D-06  THRLOCT = -1.00D+00  THRGAPT = -1.00D+00  THRORB  =  1.00D-06  THRMLTP =  0.00D+00
 THRCPQCI=  1.00D-10  KEXTA   =  0.00D+00  THRCOARS=  0.00D+00  SYMTOL  =  1.00D-06  GRADTOL =  1.00D-06  THROVL  =  1.00D-08
 THRORTH =  1.00D-08  GRID    =  1.00D-06  GRIDMAX =  1.00D-03  DTMAX   =  0.00D+00  THROCCDE=  1.00D-01  THROCCDE=  1.00D-01



 Input parameters for SORTINT:

 COMPRESS =    0.000000
 C_FINAL  =    1.000000
 DEBUG    =   -1.000000
 C_SORT1  =    0.000000
 C_SEWARD =    0.000000
 THRESH   =    0.000000
 IO       =  molpro                                                          
 SPRI     =    0.000000
 SETTING GEOMTYP        =    XYZ
 ZUNIT=BOHR
 

 Variable memory set to  995000000 words,  buffer space   230000 words

 SETTING BASIS          =    VTZ-DK
 SETTING DKROLL         =     0.00000000D+00                                  


 Recomputing integrals since basis changed


 Using spherical harmonics

 Library entry H      S cc-pVTZ-DK           selected for orbital group  1
 Library entry H      P cc-pVTZ-DK           selected for orbital group  1
 Library entry H      D cc-pVTZ-DK           selected for orbital group  1
 Library entry N      S cc-pVTZ-DK           selected for orbital group  2
 Library entry N      P cc-pVTZ-DK           selected for orbital group  2
 Library entry N      D cc-pVTZ-DK           selected for orbital group  2
 Library entry N      F cc-pVTZ-DK           selected for orbital group  2
 Library entry O      S cc-pVTZ-DK           selected for orbital group  3
 Library entry O      P cc-pVTZ-DK           selected for orbital group  3
 Library entry O      D cc-pVTZ-DK           selected for orbital group  3
 Library entry O      F cc-pVTZ-DK           selected for orbital group  3


 PROGRAM * SEWARD (Integral evaluation for generally contracted gaussian basis sets)     Author: Roland Lindh, 1990

 Geometry written to block  1 of record 700


 Point group  Cs  



 ATOMIC COORDINATES

 NR  ATOM    CHARGE       X              Y              Z

   1  H       1.00    0.000000000    1.675520739   -1.929218351
   2  N       7.00    0.000000000   -0.172734989   -1.147033254
   3  O       8.00    0.000000000    0.038982040    1.125662014

 Bond lengths in Bohr (Angstrom)

 1-2  2.006953602  2-3  2.282535406
     ( 1.062034110)     ( 1.207865720)

 Bond angles

  1-2-3  107.61603569

 NUCLEAR CHARGE:                   16
 NUMBER OF PRIMITIVE AOS:         111
 NUMBER OF SYMMETRY AOS:          100
 NUMBER OF CONTRACTIONS:           74   (  50A'  +  24A"  )
 NUMBER OF CORE ORBITALS:           2   (   2A'  +   0A"  )
 NUMBER OF VALENCE ORBITALS:        9   (   7A'  +   2A"  )


 NUCLEAR REPULSION ENERGY   30.33038071

 Eigenvalues of metric

         1 0.248E-02 0.401E-02 0.416E-02 0.853E-02 0.132E-01 0.329E-01 0.426E-01 0.465E-01
         2 0.344E-01 0.466E-01 0.102E+00 0.114E+00 0.236E+00 0.345E+00 0.397E+00 0.451E+00


 Contracted 2-electron integrals neglected if value below      1.0D-22

        1874283. INTEGRALS WRITTEN OUT IN     458 BLOCKS ON RECORD 1290 OF FILE 1


 NUMBER OF SORTED TWO-ELECTRON INTEGRALS:    2006100.     BUFFER LENGTH:  32768
 NUMBER OF SEGMENTS:   1  SEGMENT LENGTH:    2006100      RECORD LENGTH: 524288

 Memory used in sort:       2.56 MW

 SORT1 READ     1874283. AND WROTE     1914195. INTEGRALS IN      6 RECORDS. CPU TIME:     0.03 SEC, REAL TIME:     0.04 SEC
 SORT2 READ     1914195. AND WROTE     2006100. INTEGRALS IN      1 RECORDS. CPU TIME:     0.05 SEC, REAL TIME:     0.07 SEC

 FILE SIZES:   FILE 1:    50.1 MBYTE,  FILE 4:    25.2 MBYTE,   TOTAL:     75.3 MBYTE

 OPERATOR DM      FOR CENTER  0  COORDINATES:    0.000000    0.000000    0.000000


 **********************************************************************************************************************************
 DATASETS  * FILE   NREC   LENGTH (MB)   RECORD NAMES
              1      19       35.89       500      610      700      900      950      970     1000      129      960     1100   
                                          VAR    BASINP    GEOM    SYMINP    ZMAT    AOBASIS   BASIS     P2S    ABASIS      S 
                                         1400     1410     1200     1210     1080     1600     1650     1300     1700   
                                           T        V       H0       H01     AOSYM     SMH    MOLCAS    ERIS     OPER   

 PROGRAMS   *        TOTAL       INT
 CPU TIMES  *         0.65      0.53
 REAL TIME  *         1.22 SEC
 DISK USED  *        75.59 MB      
 **********************************************************************************************************************************


 PROGRAM * RHF-SCF (CLOSED SHELL)       Authors: W. Meyer, H.-J. Werner


 NUMBER OF ELECTRONS:       8+    8-
 CONVERGENCE THRESHOLDS:    1.00E-10 (Density)    1.00E-13 (Energy)
 MAX. NUMBER OF ITERATIONS:      500
 INTERPOLATION TYPE:            DIIS
 INTERPOLATION STEPS:              2 (START)      1 (STEP)
 LEVEL SHIFTS:                  0.00 (CLOSED)  0.00 (OPEN) 



 Orbital guess generated from atomic densities. Full valence occupancy:    9   2

 Molecular orbital dump at record        2100.2

 Initial occupancy:   7   1

 ITERATION    DDIFF          GRAD             ENERGY        2-EL.EN.            DIPOLE MOMENTS         DIIS   ORB.
    1      0.000D+00      0.000D+00      -129.77937024    154.058840    0.00000    0.57881   -1.03792    0    start
    2      0.000D+00      0.136D-01      -129.80628674    155.220355    0.00000    0.61471   -0.21808    1    diag
    3      0.187D-01      0.104D-01      -129.82888665    155.336479    0.00000    0.55782   -0.59845    2    diag
    4      0.907D-02      0.156D-02      -129.82962773    155.068270    0.00000    0.56646   -0.53889    3    diag
    5      0.166D-02      0.519D-03      -129.82974488    155.154595    0.00000    0.57193   -0.54003    4    diag
    6      0.725D-03      0.155D-03      -129.82976431    155.139662    0.00000    0.57246   -0.53580    5    diag
    7      0.282D-03      0.775D-04      -129.82976998    155.141967    0.00000    0.57372   -0.53328    6    diag
    8      0.194D-03      0.249D-04      -129.82977052    155.141264    0.00000    0.57373   -0.53246    7    diag
    9      0.659D-04      0.455D-05      -129.82977055    155.141145    0.00000    0.57368   -0.53230    8    diag
   10      0.128D-04      0.998D-06      -129.82977055    155.141127    0.00000    0.57364   -0.53228    9    orth
   11      0.282D-05      0.196D-06      -129.82977055    155.141123    0.00000    0.57364   -0.53228    9    diag
   12      0.517D-06      0.412D-07      -129.82977055    155.141121    0.00000    0.57364   -0.53228    9    diag
   13      0.115D-06      0.103D-07      -129.82977055    155.141121    0.00000    0.57364   -0.53227    9    diag
   14      0.288D-07      0.186D-08      -129.82977055    155.141121    0.00000    0.57364   -0.53227    9    diag
   15      0.457D-08      0.478D-09      -129.82977055    155.141121    0.00000    0.57364   -0.53227    9    diag
   16      0.109D-08      0.117D-09      -129.82977055    155.141121    0.00000    0.57364   -0.53227    9    diag
   17      0.194D-09      0.338D-10      -129.82977055    155.141121    0.00000    0.57364   -0.53227    9    diag
   18      0.603D-10      0.114D-10      -129.82977055    155.141121    0.00000    0.57364   -0.53227    0    orth

 Final occupancy:   7   1

 !RHF STATE 1.1 Energy               -129.829770547118
 Nuclear energy                        30.33038071
 One-electron energy                 -237.73071181
 Two-electron energy                   77.57056056
 Virial quotient                       -0.99976509
 !RHF STATE 1.1 Dipole moment           0.00000000     0.57363509    -0.53227443
 Dipole moment /Debye                   0.00000000     1.45793948    -1.35281805

 Orbital energies:

         1.1          2.1          3.1          4.1          5.1          6.1          7.1          8.1          9.1
    -20.647984   -15.709284    -1.526200    -0.988161    -0.742173    -0.661911    -0.426652     0.143537     0.370026

         1.2          2.2          3.2
     -0.592430     0.086373     0.612881

 HOMO      7.1    -0.426652 =     -11.6098eV
 LUMO      2.2     0.086373 =       2.3503eV
 LUMO-HOMO         0.513025 =      13.9601eV


 **********************************************************************************************************************************
 DATASETS  * FILE   NREC   LENGTH (MB)   RECORD NAMES
              1      19       35.89       500      610      700      900      950      970     1000      129      960     1100   
                                          VAR    BASINP    GEOM    SYMINP    ZMAT    AOBASIS   BASIS     P2S    ABASIS      S 
                                         1400     1410     1200     1210     1080     1600     1650     1300     1700   
                                           T        V       H0       H01     AOSYM     SMH    MOLCAS    ERIS     OPER   

              2       4        2.85       700     1000      520     2100   
                                         GEOM     BASIS   MCVARS     RHF  

 PROGRAMS   *        TOTAL        HF       INT
 CPU TIMES  *         0.84      0.19      0.53
 REAL TIME  *         1.45 SEC
 DISK USED  *        75.59 MB      
 **********************************************************************************************************************************


 PROGRAM * CCSD (Closed-shell coupled cluster)     Authors: C. Hampel, H.-J. Werner, 1991, M. Deegan, P.J. Knowles, 1992


 Convergence thresholds:  THRVAR = 1.00D-08  THRDEN = 1.00D-12

 CCSD(T)     terms to be evaluated (factor= 1.000)


 Number of core orbitals:           2 (   2   0 )
 Number of closed-shell orbitals:   6 (   5   1 )
 Number of external orbitals:      66 (  43  23 )

 Molecular orbitals read from record     2100.2  Type=RHF/CANONICAL (state 1.1)

 Number of N-1 electron functions:               6
 Number of N-2 electron functions:              21
 Number of singly external CSFs:               238
 Number of doubly external CSFs:             41002
 Total number of CSFs:                       41241

 Length of J-op  integral file:               0.00 MB
 Length of K-op  integral file:               0.25 MB
 Length of 3-ext integral record:             0.00 MB

 Memory could be reduced to 1.65 Mwords without degradation in triples

 Integral transformation finished. Total CPU:   0.03 sec, npass=  1  Memory used:   0.55 MW

 Reference energy:                   -129.82977055

 MP2 singlet pair energy:              -0.27379339
 MP2 triplet pair energy:              -0.16254826
 MP2 correlation energy:               -0.43634166
 MP2 total energy:                   -130.26611220

 SCS-MP2 correlation energy:           -0.42969321   (PS=  1.200000  PT=  0.333333)
 SCS-MP2 total energy:               -130.25946376

 ITER.      SQ.NORM     CORR.ENERGY   TOTAL ENERGY   ENERGY CHANGE        DEN1      VAR(S)    VAR(P)  DIIS     TIME  TIME/IT
   1      1.11873058    -0.44146207  -130.27123262    -0.00512042     0.01071028  0.29D-02  0.30D-02  1  1     0.07     0.04
   2      1.12962343    -0.44172179  -130.27149233    -0.00025971    -0.01231176  0.89D-04  0.51D-03  2  2     0.11     0.04
   3      1.13595180    -0.44211304  -130.27188358    -0.00039125    -0.00299801  0.48D-04  0.51D-04  3  3     0.15     0.04
   4      1.13876780    -0.44213857  -130.27190912    -0.00002553    -0.00096286  0.41D-05  0.89D-05  4  4     0.17     0.04
   5      1.13977098    -0.44216850  -130.27193905    -0.00002994    -0.00020801  0.14D-05  0.16D-05  5  5     0.21     0.04
   6      1.14013140    -0.44215184  -130.27192238     0.00001667    -0.00004101  0.10D-06  0.40D-06  6  6     0.24     0.04
   7      1.14021731    -0.44215368  -130.27192423    -0.00000184    -0.00000214  0.13D-07  0.85D-07  6  1     0.28     0.04
   8      1.14024822    -0.44215363  -130.27192418     0.00000005     0.00000178  0.41D-08  0.10D-07  6  2     0.32     0.04
   9      1.14025615    -0.44215340  -130.27192395     0.00000023    -0.00000223  0.24D-08  0.12D-08  6  3     0.35     0.04
  10      1.14025498    -0.44215391  -130.27192446    -0.00000051     0.00000059  0.48D-09  0.21D-09  6  4     0.38     0.04
  11      1.14025325    -0.44215397  -130.27192451    -0.00000006     0.00000019  0.15D-09  0.23D-10  6  5     0.42     0.04
  12      1.14025185    -0.44215415  -130.27192469    -0.00000018     0.00000043  0.15D-10  0.76D-11  6  6     0.45     0.04
  13      1.14025123    -0.44215415  -130.27192470    -0.00000001     0.00000012  0.67D-11  0.12D-11  6  1     0.49     0.04
  14      1.14025083    -0.44215417  -130.27192472    -0.00000002     0.00000008  0.96D-12  0.42D-12  6  2     0.53     0.04
  15      1.14025069    -0.44215417  -130.27192472    -0.00000000     0.00000001  0.25D-12  0.14D-12  6  3     0.55     0.04
  16      1.14025057    -0.44215418  -130.27192472    -0.00000000     0.00000002  0.72D-14  0.35D-13  6  1     0.59     0.04
  17      1.14025056    -0.44215418  -130.27192472     0.00000000    -0.00000000  0.30D-14  0.25D-14  6  4     0.62     0.04
  18      1.14025055    -0.44215418  -130.27192472    -0.00000000     0.00000000  0.69D-15  0.44D-15  6  5     0.65     0.04
  19      1.14025055    -0.44215418  -130.27192472     0.00000000    -0.00000000  0.13D-15  0.81D-16  6  6     0.69     0.04
  20      1.14025055    -0.44215418  -130.27192472    -0.00000000     0.00000000  0.18D-16  0.19D-16  6  2     0.72     0.04
  21      1.14025055    -0.44215418  -130.27192472    -0.00000000     0.00000000  0.27D-17  0.24D-17  6  3     0.76     0.04
  22      1.14025055    -0.44215418  -130.27192472    -0.00000000     0.00000000  0.29D-18  0.37D-18  6  4     0.79     0.04
  23      1.14025055    -0.44215418  -130.27192472    -0.00000000     0.00000000  0.11D-18  0.31D-19  6  1     0.82     0.04
  24      1.14025055    -0.44215418  -130.27192472     0.00000000    -0.00000000  0.16D-19  0.11D-19  6  6     0.85     0.04
  25      1.14025055    -0.44215418  -130.27192472     0.00000000    -0.00000000  0.36D-20  0.71D-21  6  5     0.89     0.04
  26      1.14025055    -0.44215418  -130.27192472     0.00000000    -0.00000000  0.73D-21  0.28D-21  6  2     0.93     0.04
  27      1.14025055    -0.44215418  -130.27192472     0.00000000    -0.00000000  0.24D-22  0.16D-22  6  3     0.96     0.04

 Norm of t1 vector:      0.07535158      S-energy:     0.00000000      T1 diagnostic:  0.01538108
                                                                       D1 diagnostic:  0.04240418

 Doubles amplitudes (print threshold =  0.500E-01):

         I         J         SYM. A    SYM. B    A         B      T(IJ, AB)

         6         6         2         2         1         1     -0.14361443


 Total CPU time for triples:      0.24 sec


 RESULTS
 =======

  Reference energy                   -129.829770547118
  CCSD singlet pair energy             -0.303234214638
  CCSD triplet pair energy             -0.138919962827
  CCSD correlation energy              -0.442154177464

  Triples (T) contribution             -0.019821605730
  Total correlation energy             -0.461975783194

  CCSD total energy                  -130.271924724581
  CCSD[T] energy                     -130.292770308581
  CCSD-T energy                      -130.291345747210
 !CCSD(T) total energy               -130.291746330311

 Timing summary (sec):

 STEP                 CPU(USER)    SYS     CPU(TOT)    WALL
 Transformation          0.03      0.01      0.04      0.04
 CCSD iterations         0.94      0.15      1.09      1.09
 Triples                 0.24      0.00      0.24      0.24

 Program statistics:

 Available memory in ccsd:               994999756
 Min. memory needed in ccsd:                154850
 Max. memory used in ccsd:                  184802
 Max. memory used in cckext:                238416 (27 integral passes)



 **********************************************************************************************************************************
 DATASETS  * FILE   NREC   LENGTH (MB)   RECORD NAMES
              1      20       40.28       500      610      700      900      950      970     1000      129      960     1100   
                                          VAR    BASINP    GEOM    SYMINP    ZMAT    AOBASIS   BASIS     P2S    ABASIS      S 
                                         1400     1410     1200     1210     1080     1600     1650     1300     1700     1380   
                                           T        V       H0       H01     AOSYM     SMH    MOLCAS    ERIS     OPER     JKOP   

              2       4        2.85       700     1000      520     2100   
                                         GEOM     BASIS   MCVARS     RHF  

 PROGRAMS   *        TOTAL   CCSD(T)        HF       INT
 CPU TIMES  *         2.08      1.24      0.19      0.53
 REAL TIME  *         2.95 SEC
 DISK USED  *        75.59 MB      
 **********************************************************************************************************************************

 CCSD(T)/cc-pVTZ-DK energy=   -130.291746330311

        CCSD(T)         HF-SCF  
   -130.29174633   -129.82977055
 **********************************************************************************************************************************
 Molpro calculation terminated
 Variable memory released
