
 Primary working directories    : /tmp/r2666/282579.maple
 Secondary working directories  : /tmp/r2666/282579.maple
 Wavefunction directory         : /ddn/home4/r2666/wfu/
 Main file repository           : /tmp/r2666/282579.maple/

 SHA1      : d5ffa45e93fdbca01ffc919aa182cfdae0147319
 NAME      : 2015.1.35
 ARCHNAME  : linux/x86_64
 FC        : /opt/intel/composer_xe_2015.1.133/bin/intel64/ifort
 BLASLIB   : -Wl,-_start-group /opt/intel/mkl/lib/intel64/libmkl_intel_ilp64.a /opt/intel/mkl/lib/intel64/libmkl_intel_thread.a /opt/intel/mkl/lib/intel64/libmkl_core.a -Wl,-_end-group
 id        : olemiss

 Nodes     nprocs
 cn075        1

 Using customized tuning parameters: mindgm=1; mindgv=20; mindgc=4; mindgr=1; noblas=0; minvec=7
 default implementation of scratch files=df  

 ***,hno CCSD(T)/TZ-F12 QFF
 memory, 995, m;
 gthresh,energy=1.d-12,zero=1.d-22,oneint=1.d-22,twoint=1.d-22;
 gthresh,optgrad=1.d-8,optstep=1.d-8;
 nocompress;
 geomtyp=xyz
 bohr
 geometry={
 3
         89        89
 H        0.0000000000        1.6699902840       -1.9320060870
 N        0.0000000000       -0.1624196859       -1.1368332659
 O        0.0000000000        0.0341971920        1.1182497618
 }
 
 basis=vtz-dk
 dkroll=0
   {hf,maxit=500;accu,20;}
 {ccsd(t),nocheck,maxit=250;orbital,IGNORE_ERROR;}

 Variables initialized (889), CPU time= 0.00 sec
 Commands  initialized (702), CPU time= 0.01 sec, 572 directives.
 Default parameters read. Elapsed time= 0.09 sec

 Checking input...
 Passed
1


                                         ***  PROGRAM SYSTEM MOLPRO  ***
                                       Copyright, TTI GmbH Stuttgart, 2015
                                    Version 2015.1 linked Jul  9 2018 13:16:40


 **********************************************************************************************************************************
 LABEL *   hno CCSD(T)/TZ-F12 QFF                                                        
  64 bit serial version                                                                  DATE: 04-Mar-20          TIME: 13:50:59  
 **********************************************************************************************************************************

 SHA1:             d5ffa45e93fdbca01ffc919aa182cfdae0147319
 **********************************************************************************************************************************

 THRESHOLDS:

 ZERO    =  1.00D-22  ONEINT  =  1.00D-22  TWOINT  =  1.00D-22  PREFAC  =  1.00D-14  LOCALI  =  1.00D-09  EORDER  =  1.00D-04
 ENERGY  =  1.00D-12  ETEST   =  0.00D+00  EDENS   =  0.00D+00  THRDEDEF=  1.00D-06  GRADIENT=  1.00D-02  STEP    =  1.00D-03
 ORBITAL =  1.00D-05  CIVEC   =  1.00D-05  COEFF   =  1.00D-04  PRINTCI =  5.00D-02  PUNCHCI =  9.90D+01  OPTGRAD =  3.00D-04
 OPTENERG=  1.00D-06  OPTSTEP =  3.00D-04  THRGRAD =  1.00D-10  COMPRESS=  1.00D-11  VARMIN  =  1.00D-07  VARMAX  =  1.00D-03
 THRDOUB =  0.00D+00  THRDIV  =  1.00D-05  THRRED  =  1.00D-07  THRPSP  =  1.00D+00  THRDC   =  1.00D-10  THRCS   =  1.00D-10
 THRNRM  =  1.00D-08  THREQ   =  0.00D+00  THRDE   =  1.00D+00  THRREF  =  1.00D-05  SPARFAC =  1.00D+00  THRDLP  =  1.00D-07
 THRDIA  =  1.00D-10  THRDLS  =  1.00D-07  THRGPS  =  0.00D+00  THRKEX  =  0.00D+00  THRDIS  =  2.00D-01  THRVAR  =  1.00D-10
 THRLOC  =  1.00D-06  THRGAP  =  1.00D-06  THRLOCT = -1.00D+00  THRGAPT = -1.00D+00  THRORB  =  1.00D-06  THRMLTP =  0.00D+00
 THRCPQCI=  1.00D-10  KEXTA   =  0.00D+00  THRCOARS=  0.00D+00  SYMTOL  =  1.00D-06  GRADTOL =  1.00D-06  THROVL  =  1.00D-08
 THRORTH =  1.00D-08  GRID    =  1.00D-06  GRIDMAX =  1.00D-03  DTMAX   =  0.00D+00  THROCCDE=  1.00D-01  THROCCDE=  1.00D-01



 THRESHOLDS:

 ZERO    =  1.00D-22  ONEINT  =  1.00D-22  TWOINT  =  1.00D-22  PREFAC  =  1.00D-14  LOCALI  =  1.00D-09  EORDER  =  1.00D-04
 ENERGY  =  1.00D-12  ETEST   =  0.00D+00  EDENS   =  0.00D+00  THRDEDEF=  1.00D-06  GRADIENT=  1.00D-02  STEP    =  1.00D-03
 ORBITAL =  1.00D-05  CIVEC   =  1.00D-05  COEFF   =  1.00D-04  PRINTCI =  5.00D-02  PUNCHCI =  9.90D+01  OPTGRAD =  1.00D-08
 OPTENERG=  1.00D-06  OPTSTEP =  1.00D-08  THRGRAD =  1.00D-10  COMPRESS=  1.00D-11  VARMIN  =  1.00D-07  VARMAX  =  1.00D-03
 THRDOUB =  0.00D+00  THRDIV  =  1.00D-05  THRRED  =  1.00D-07  THRPSP  =  1.00D+00  THRDC   =  1.00D-10  THRCS   =  1.00D-10
 THRNRM  =  1.00D-08  THREQ   =  0.00D+00  THRDE   =  1.00D+00  THRREF  =  1.00D-05  SPARFAC =  1.00D+00  THRDLP  =  1.00D-07
 THRDIA  =  1.00D-10  THRDLS  =  1.00D-07  THRGPS  =  0.00D+00  THRKEX  =  0.00D+00  THRDIS  =  2.00D-01  THRVAR  =  1.00D-10
 THRLOC  =  1.00D-06  THRGAP  =  1.00D-06  THRLOCT = -1.00D+00  THRGAPT = -1.00D+00  THRORB  =  1.00D-06  THRMLTP =  0.00D+00
 THRCPQCI=  1.00D-10  KEXTA   =  0.00D+00  THRCOARS=  0.00D+00  SYMTOL  =  1.00D-06  GRADTOL =  1.00D-06  THROVL  =  1.00D-08
 THRORTH =  1.00D-08  GRID    =  1.00D-06  GRIDMAX =  1.00D-03  DTMAX   =  0.00D+00  THROCCDE=  1.00D-01  THROCCDE=  1.00D-01



 Input parameters for SORTINT:

 COMPRESS =    0.000000
 C_FINAL  =    1.000000
 DEBUG    =   -1.000000
 C_SORT1  =    0.000000
 C_SEWARD =    0.000000
 THRESH   =    0.000000
 IO       =  molpro                                                          
 SPRI     =    0.000000
 SETTING GEOMTYP        =    XYZ
 ZUNIT=BOHR
 

 Variable memory set to  995000000 words,  buffer space   230000 words

 SETTING BASIS          =    VTZ-DK
 SETTING DKROLL         =     0.00000000D+00                                  


 Recomputing integrals since basis changed


 Using spherical harmonics

 Library entry H      S cc-pVTZ-DK           selected for orbital group  1
 Library entry H      P cc-pVTZ-DK           selected for orbital group  1
 Library entry H      D cc-pVTZ-DK           selected for orbital group  1
 Library entry N      S cc-pVTZ-DK           selected for orbital group  2
 Library entry N      P cc-pVTZ-DK           selected for orbital group  2
 Library entry N      D cc-pVTZ-DK           selected for orbital group  2
 Library entry N      F cc-pVTZ-DK           selected for orbital group  2
 Library entry O      S cc-pVTZ-DK           selected for orbital group  3
 Library entry O      P cc-pVTZ-DK           selected for orbital group  3
 Library entry O      D cc-pVTZ-DK           selected for orbital group  3
 Library entry O      F cc-pVTZ-DK           selected for orbital group  3


 PROGRAM * SEWARD (Integral evaluation for generally contracted gaussian basis sets)     Author: Roland Lindh, 1990

 Geometry written to block  1 of record 700


 Point group  Cs  



 ATOMIC COORDINATES

 NR  ATOM    CHARGE       X              Y              Z

   1  H       1.00    0.000000000    1.669990284   -1.932006087
   2  N       7.00    0.000000000   -0.162419686   -1.136833266
   3  O       8.00    0.000000000    0.034197192    1.118249762

 Bond lengths in Bohr (Angstrom)

 1-2  1.997504972  2-3  2.263638147
     ( 1.057034110)     ( 1.197865721)

 Bond angles

  1-2-3  108.47547239

 NUCLEAR CHARGE:                   16
 NUMBER OF PRIMITIVE AOS:         111
 NUMBER OF SYMMETRY AOS:          100
 NUMBER OF CONTRACTIONS:           74   (  50A'  +  24A"  )
 NUMBER OF CORE ORBITALS:           2   (   2A'  +   0A"  )
 NUMBER OF VALENCE ORBITALS:        9   (   7A'  +   2A"  )


 NUCLEAR REPULSION ENERGY   30.55464767

 Eigenvalues of metric

         1 0.243E-02 0.393E-02 0.404E-02 0.840E-02 0.131E-01 0.321E-01 0.420E-01 0.463E-01
         2 0.339E-01 0.464E-01 0.100E+00 0.112E+00 0.232E+00 0.343E+00 0.393E+00 0.447E+00


 Contracted 2-electron integrals neglected if value below      1.0D-22

        1874283. INTEGRALS WRITTEN OUT IN     458 BLOCKS ON RECORD 1290 OF FILE 1


 NUMBER OF SORTED TWO-ELECTRON INTEGRALS:    2006100.     BUFFER LENGTH:  32768
 NUMBER OF SEGMENTS:   1  SEGMENT LENGTH:    2006100      RECORD LENGTH: 524288

 Memory used in sort:       2.56 MW

 SORT1 READ     1874283. AND WROTE     1914195. INTEGRALS IN      6 RECORDS. CPU TIME:     0.03 SEC, REAL TIME:     0.05 SEC
 SORT2 READ     1914195. AND WROTE     2006100. INTEGRALS IN      1 RECORDS. CPU TIME:     0.05 SEC, REAL TIME:     0.07 SEC

 FILE SIZES:   FILE 1:    50.1 MBYTE,  FILE 4:    25.2 MBYTE,   TOTAL:     75.3 MBYTE

 OPERATOR DM      FOR CENTER  0  COORDINATES:    0.000000    0.000000    0.000000


 **********************************************************************************************************************************
 DATASETS  * FILE   NREC   LENGTH (MB)   RECORD NAMES
              1      19       35.89       500      610      700      900      950      970     1000      129      960     1100   
                                          VAR    BASINP    GEOM    SYMINP    ZMAT    AOBASIS   BASIS     P2S    ABASIS      S 
                                         1400     1410     1200     1210     1080     1600     1650     1300     1700   
                                           T        V       H0       H01     AOSYM     SMH    MOLCAS    ERIS     OPER   

 PROGRAMS   *        TOTAL       INT
 CPU TIMES  *         0.66      0.54
 REAL TIME  *         1.37 SEC
 DISK USED  *        75.59 MB      
 **********************************************************************************************************************************


 PROGRAM * RHF-SCF (CLOSED SHELL)       Authors: W. Meyer, H.-J. Werner


 NUMBER OF ELECTRONS:       8+    8-
 CONVERGENCE THRESHOLDS:    1.00E-10 (Density)    1.00E-13 (Energy)
 MAX. NUMBER OF ITERATIONS:      500
 INTERPOLATION TYPE:            DIIS
 INTERPOLATION STEPS:              2 (START)      1 (STEP)
 LEVEL SHIFTS:                  0.00 (CLOSED)  0.00 (OPEN) 



 Orbital guess generated from atomic densities. Full valence occupancy:    9   2

 Molecular orbital dump at record        2100.2

 Initial occupancy:   7   1

 ITERATION    DDIFF          GRAD             ENERGY        2-EL.EN.            DIPOLE MOMENTS         DIIS   ORB.
    1      0.000D+00      0.000D+00      -129.78257534    154.461232    0.00000    0.58493   -1.00748    0    start
    2      0.000D+00      0.134D-01      -129.80973308    155.637890    0.00000    0.60786   -0.22834    1    diag
    3      0.182D-01      0.100D-01      -129.83044353    155.734552    0.00000    0.55779   -0.58799    2    diag
    4      0.877D-02      0.155D-02      -129.83116654    155.473638    0.00000    0.56625   -0.52984    3    diag
    5      0.165D-02      0.509D-03      -129.83127881    155.559019    0.00000    0.57173   -0.53126    4    diag
    6      0.711D-03      0.151D-03      -129.83129725    155.544355    0.00000    0.57233   -0.52724    5    diag
    7      0.276D-03      0.749D-04      -129.83130248    155.546753    0.00000    0.57360   -0.52488    6    diag
    8      0.188D-03      0.233D-04      -129.83130294    155.546104    0.00000    0.57362   -0.52413    7    diag
    9      0.604D-04      0.424D-05      -129.83130295    155.545996    0.00000    0.57357   -0.52399    8    diag
   10      0.116D-04      0.958D-06      -129.83130296    155.545978    0.00000    0.57354   -0.52396    9    orth
   11      0.273D-05      0.189D-06      -129.83130296    155.545973    0.00000    0.57353   -0.52396    9    diag
   12      0.506D-06      0.386D-07      -129.83130296    155.545972    0.00000    0.57353   -0.52396    9    diag
   13      0.110D-06      0.944D-08      -129.83130296    155.545972    0.00000    0.57353   -0.52396    9    diag
   14      0.271D-07      0.176D-08      -129.83130296    155.545971    0.00000    0.57353   -0.52396    9    diag
   15      0.458D-08      0.471D-09      -129.83130296    155.545971    0.00000    0.57353   -0.52396    9    diag
   16      0.110D-08      0.126D-09      -129.83130296    155.545971    0.00000    0.57353   -0.52396    9    diag
   17      0.225D-09      0.378D-10      -129.83130296    155.545971    0.00000    0.57353   -0.52396    9    diag
   18      0.758D-10      0.123D-10      -129.83130296    155.545971    0.00000    0.57353   -0.52396    0    orth

 Final occupancy:   7   1

 !RHF STATE 1.1 Energy               -129.831302955462
 Nuclear energy                        30.55464767
 One-electron energy                 -238.15893637
 Two-electron energy                   77.77298574
 Virial quotient                       -0.99943912
 !RHF STATE 1.1 Dipole moment           0.00000000     0.57352671    -0.52395682
 Dipole moment /Debye                   0.00000000     1.45766403    -1.33167819

 Orbital energies:

         1.1          2.1          3.1          4.1          5.1          6.1          7.1          8.1          9.1
    -20.647140   -15.706706    -1.534070    -0.987553    -0.745751    -0.664954    -0.423291     0.144293     0.371348

         1.2          2.2          3.2
     -0.597018     0.090030     0.611847

 HOMO      7.1    -0.423291 =     -11.5183eV
 LUMO      2.2     0.090030 =       2.4499eV
 LUMO-HOMO         0.513321 =      13.9682eV


 **********************************************************************************************************************************
 DATASETS  * FILE   NREC   LENGTH (MB)   RECORD NAMES
              1      19       35.89       500      610      700      900      950      970     1000      129      960     1100   
                                          VAR    BASINP    GEOM    SYMINP    ZMAT    AOBASIS   BASIS     P2S    ABASIS      S 
                                         1400     1410     1200     1210     1080     1600     1650     1300     1700   
                                           T        V       H0       H01     AOSYM     SMH    MOLCAS    ERIS     OPER   

              2       4        2.85       700     1000      520     2100   
                                         GEOM     BASIS   MCVARS     RHF  

 PROGRAMS   *        TOTAL        HF       INT
 CPU TIMES  *         0.84      0.18      0.54
 REAL TIME  *         1.60 SEC
 DISK USED  *        75.59 MB      
 **********************************************************************************************************************************


 PROGRAM * CCSD (Closed-shell coupled cluster)     Authors: C. Hampel, H.-J. Werner, 1991, M. Deegan, P.J. Knowles, 1992


 Convergence thresholds:  THRVAR = 1.00D-08  THRDEN = 1.00D-12

 CCSD(T)     terms to be evaluated (factor= 1.000)


 Number of core orbitals:           2 (   2   0 )
 Number of closed-shell orbitals:   6 (   5   1 )
 Number of external orbitals:      66 (  43  23 )

 Molecular orbitals read from record     2100.2  Type=RHF/CANONICAL (state 1.1)

 Number of N-1 electron functions:               6
 Number of N-2 electron functions:              21
 Number of singly external CSFs:               238
 Number of doubly external CSFs:             41002
 Total number of CSFs:                       41241

 Length of J-op  integral file:               0.00 MB
 Length of K-op  integral file:               0.25 MB
 Length of 3-ext integral record:             0.00 MB

 Memory could be reduced to 1.65 Mwords without degradation in triples

 Integral transformation finished. Total CPU:   0.03 sec, npass=  1  Memory used:   0.55 MW

 Reference energy:                   -129.83130296

 MP2 singlet pair energy:              -0.27262404
 MP2 triplet pair energy:              -0.16179800
 MP2 correlation energy:               -0.43442203
 MP2 total energy:                   -130.26572499

 SCS-MP2 correlation energy:           -0.42782315   (PS=  1.200000  PT=  0.333333)
 SCS-MP2 total energy:               -130.25912611

 ITER.      SQ.NORM     CORR.ENERGY   TOTAL ENERGY   ENERGY CHANGE        DEN1      VAR(S)    VAR(P)  DIIS     TIME  TIME/IT
   1      1.11750321    -0.43992782  -130.27123078    -0.00550579     0.00989298  0.28D-02  0.29D-02  1  1     0.08     0.05
   2      1.12813362    -0.44025946  -130.27156242    -0.00033164    -0.01205743  0.83D-04  0.49D-03  2  2     0.12     0.05
   3      1.13423842    -0.44063393  -130.27193688    -0.00037447    -0.00291960  0.45D-04  0.49D-04  3  3     0.15     0.04
   4      1.13693794    -0.44065854  -130.27196150    -0.00002462    -0.00092976  0.38D-05  0.86D-05  4  4     0.19     0.04
   5      1.13788906    -0.44068660  -130.27198956    -0.00002806    -0.00019688  0.14D-05  0.16D-05  5  5     0.22     0.04
   6      1.13823884    -0.44067114  -130.27197410     0.00001546    -0.00003927  0.10D-06  0.41D-06  6  6     0.26     0.04
   7      1.13832615    -0.44067288  -130.27197584    -0.00000174    -0.00000258  0.12D-07  0.83D-07  6  1     0.30     0.04
   8      1.13835679    -0.44067298  -130.27197594    -0.00000010     0.00000181  0.42D-08  0.96D-08  6  2     0.34     0.04
   9      1.13836437    -0.44067277  -130.27197573     0.00000021    -0.00000220  0.24D-08  0.11D-08  6  3     0.38     0.04
  10      1.13836317    -0.44067327  -130.27197622    -0.00000049     0.00000058  0.47D-09  0.19D-09  6  4     0.42     0.04
  11      1.13836144    -0.44067332  -130.27197628    -0.00000006     0.00000020  0.15D-09  0.22D-10  6  5     0.46     0.04
  12      1.13836006    -0.44067349  -130.27197645    -0.00000017     0.00000042  0.16D-10  0.74D-11  6  6     0.49     0.04
  13      1.13835946    -0.44067350  -130.27197646    -0.00000001     0.00000012  0.67D-11  0.12D-11  6  1     0.53     0.04
  14      1.13835908    -0.44067352  -130.27197648    -0.00000002     0.00000007  0.93D-12  0.41D-12  6  2     0.57     0.04
  15      1.13835895    -0.44067352  -130.27197648    -0.00000000     0.00000001  0.23D-12  0.14D-12  6  3     0.60     0.04
  16      1.13835885    -0.44067352  -130.27197648    -0.00000000     0.00000001  0.25D-13  0.15D-13  6  5     0.64     0.04
  17      1.13835882    -0.44067352  -130.27197648    -0.00000000     0.00000000  0.79D-15  0.23D-14  6  4     0.68     0.04
  18      1.13835882    -0.44067352  -130.27197648     0.00000000    -0.00000000  0.50D-15  0.32D-15  6  1     0.71     0.04
  19      1.13835882    -0.44067352  -130.27197648    -0.00000000     0.00000000  0.43D-16  0.57D-16  6  6     0.74     0.04
  20      1.13835882    -0.44067352  -130.27197648    -0.00000000     0.00000000  0.87D-17  0.13D-16  6  2     0.78     0.04
  21      1.13835882    -0.44067352  -130.27197648    -0.00000000     0.00000000  0.18D-17  0.10D-17  6  5     0.82     0.04
  22      1.13835882    -0.44067352  -130.27197648     0.00000000     0.00000000  0.11D-18  0.74D-19  6  3     0.84     0.04
  23      1.13835882    -0.44067352  -130.27197648     0.00000000    -0.00000000  0.30D-19  0.16D-19  6  4     0.87     0.04
  24      1.13835882    -0.44067352  -130.27197648     0.00000000    -0.00000000  0.45D-20  0.45D-20  6  1     0.91     0.04
  25      1.13835882    -0.44067352  -130.27197648     0.00000000    -0.00000000  0.50D-21  0.79D-21  6  6     0.95     0.04

 Norm of t1 vector:      0.07382030      S-energy:     0.00000000      T1 diagnostic:  0.01506850
                                                                       D1 diagnostic:  0.04118761

 Doubles amplitudes (print threshold =  0.500E-01):

         I         J         SYM. A    SYM. B    A         B      T(IJ, AB)

         6         6         2         2         1         1     -0.14090324


 Total CPU time for triples:      0.24 sec


 RESULTS
 =======

  Reference energy                   -129.831302955462
  CCSD singlet pair energy             -0.301945569980
  CCSD triplet pair energy             -0.138727954376
  CCSD correlation energy              -0.440673524355

  Triples (T) contribution             -0.019500160657
  Total correlation energy             -0.460173685011

  CCSD total energy                  -130.271976479817
  CCSD[T] energy                     -130.292458964153
  CCSD-T energy                      -130.291087298154
 !CCSD(T) total energy               -130.291476640474

 Timing summary (sec):

 STEP                 CPU(USER)    SYS     CPU(TOT)    WALL
 Transformation          0.03      0.01      0.04      0.10
 CCSD iterations         0.92      0.09      1.01      1.03
 Triples                 0.24      0.01      0.25      0.24

 Program statistics:

 Available memory in ccsd:               994999756
 Min. memory needed in ccsd:                154850
 Max. memory used in ccsd:                  184802
 Max. memory used in cckext:                238416 (25 integral passes)



 **********************************************************************************************************************************
 DATASETS  * FILE   NREC   LENGTH (MB)   RECORD NAMES
              1      20       40.28       500      610      700      900      950      970     1000      129      960     1100   
                                          VAR    BASINP    GEOM    SYMINP    ZMAT    AOBASIS   BASIS     P2S    ABASIS      S 
                                         1400     1410     1200     1210     1080     1600     1650     1300     1700     1380   
                                           T        V       H0       H01     AOSYM     SMH    MOLCAS    ERIS     OPER     JKOP   

              2       4        2.85       700     1000      520     2100   
                                         GEOM     BASIS   MCVARS     RHF  

 PROGRAMS   *        TOTAL   CCSD(T)        HF       INT
 CPU TIMES  *         2.05      1.21      0.18      0.54
 REAL TIME  *         3.04 SEC
 DISK USED  *        75.59 MB      
 **********************************************************************************************************************************

 CCSD(T)/cc-pVTZ-DK energy=   -130.291476640474

        CCSD(T)         HF-SCF  
   -130.29147664   -129.83130296
 **********************************************************************************************************************************
 Molpro calculation terminated
 Variable memory released
