
 Primary working directories    : /tmp/r2666/282613.maple
 Secondary working directories  : /tmp/r2666/282613.maple
 Wavefunction directory         : /ddn/home4/r2666/wfu/
 Main file repository           : /tmp/r2666/282613.maple/

 SHA1      : d5ffa45e93fdbca01ffc919aa182cfdae0147319
 NAME      : 2015.1.35
 ARCHNAME  : linux/x86_64
 FC        : /opt/intel/composer_xe_2015.1.133/bin/intel64/ifort
 BLASLIB   : -Wl,-_start-group /opt/intel/mkl/lib/intel64/libmkl_intel_ilp64.a /opt/intel/mkl/lib/intel64/libmkl_intel_thread.a /opt/intel/mkl/lib/intel64/libmkl_core.a -Wl,-_end-group
 id        : olemiss

 Nodes     nprocs
 cn091        1

 Using customized tuning parameters: mindgm=1; mindgv=20; mindgc=4; mindgr=1; noblas=0; minvec=7
 default implementation of scratch files=df  

 ***,hno CCSD(T)/TZ-F12 QFF
 memory, 995, m;
 gthresh,energy=1.d-12,zero=1.d-22,oneint=1.d-22,twoint=1.d-22;
 gthresh,optgrad=1.d-8,optstep=1.d-8;
 nocompress;
 geomtyp=xyz
 bohr
 geometry={
 3
        123       123
 H        0.0000000000        1.6775706023       -1.9406967482
 N        0.0000000000       -0.1676306373       -1.1513329879
 O        0.0000000000        0.0318278250        1.1414401451
 }
 
 basis=vtz-dk
 dkroll=0
   {hf,maxit=500;accu,20;}
 {ccsd(t),nocheck,maxit=250;orbital,IGNORE_ERROR;}

 Variables initialized (889), CPU time= 0.01 sec
 Commands  initialized (702), CPU time= 0.01 sec, 572 directives.
 Default parameters read. Elapsed time= 0.08 sec

 Checking input...
 Passed
1


                                         ***  PROGRAM SYSTEM MOLPRO  ***
                                       Copyright, TTI GmbH Stuttgart, 2015
                                    Version 2015.1 linked Jul  9 2018 13:16:40


 **********************************************************************************************************************************
 LABEL *   hno CCSD(T)/TZ-F12 QFF                                                        
  64 bit serial version                                                                  DATE: 04-Mar-20          TIME: 13:51:04  
 **********************************************************************************************************************************

 SHA1:             d5ffa45e93fdbca01ffc919aa182cfdae0147319
 **********************************************************************************************************************************

 THRESHOLDS:

 ZERO    =  1.00D-22  ONEINT  =  1.00D-22  TWOINT  =  1.00D-22  PREFAC  =  1.00D-14  LOCALI  =  1.00D-09  EORDER  =  1.00D-04
 ENERGY  =  1.00D-12  ETEST   =  0.00D+00  EDENS   =  0.00D+00  THRDEDEF=  1.00D-06  GRADIENT=  1.00D-02  STEP    =  1.00D-03
 ORBITAL =  1.00D-05  CIVEC   =  1.00D-05  COEFF   =  1.00D-04  PRINTCI =  5.00D-02  PUNCHCI =  9.90D+01  OPTGRAD =  3.00D-04
 OPTENERG=  1.00D-06  OPTSTEP =  3.00D-04  THRGRAD =  1.00D-10  COMPRESS=  1.00D-11  VARMIN  =  1.00D-07  VARMAX  =  1.00D-03
 THRDOUB =  0.00D+00  THRDIV  =  1.00D-05  THRRED  =  1.00D-07  THRPSP  =  1.00D+00  THRDC   =  1.00D-10  THRCS   =  1.00D-10
 THRNRM  =  1.00D-08  THREQ   =  0.00D+00  THRDE   =  1.00D+00  THRREF  =  1.00D-05  SPARFAC =  1.00D+00  THRDLP  =  1.00D-07
 THRDIA  =  1.00D-10  THRDLS  =  1.00D-07  THRGPS  =  0.00D+00  THRKEX  =  0.00D+00  THRDIS  =  2.00D-01  THRVAR  =  1.00D-10
 THRLOC  =  1.00D-06  THRGAP  =  1.00D-06  THRLOCT = -1.00D+00  THRGAPT = -1.00D+00  THRORB  =  1.00D-06  THRMLTP =  0.00D+00
 THRCPQCI=  1.00D-10  KEXTA   =  0.00D+00  THRCOARS=  0.00D+00  SYMTOL  =  1.00D-06  GRADTOL =  1.00D-06  THROVL  =  1.00D-08
 THRORTH =  1.00D-08  GRID    =  1.00D-06  GRIDMAX =  1.00D-03  DTMAX   =  0.00D+00  THROCCDE=  1.00D-01  THROCCDE=  1.00D-01



 THRESHOLDS:

 ZERO    =  1.00D-22  ONEINT  =  1.00D-22  TWOINT  =  1.00D-22  PREFAC  =  1.00D-14  LOCALI  =  1.00D-09  EORDER  =  1.00D-04
 ENERGY  =  1.00D-12  ETEST   =  0.00D+00  EDENS   =  0.00D+00  THRDEDEF=  1.00D-06  GRADIENT=  1.00D-02  STEP    =  1.00D-03
 ORBITAL =  1.00D-05  CIVEC   =  1.00D-05  COEFF   =  1.00D-04  PRINTCI =  5.00D-02  PUNCHCI =  9.90D+01  OPTGRAD =  1.00D-08
 OPTENERG=  1.00D-06  OPTSTEP =  1.00D-08  THRGRAD =  1.00D-10  COMPRESS=  1.00D-11  VARMIN  =  1.00D-07  VARMAX  =  1.00D-03
 THRDOUB =  0.00D+00  THRDIV  =  1.00D-05  THRRED  =  1.00D-07  THRPSP  =  1.00D+00  THRDC   =  1.00D-10  THRCS   =  1.00D-10
 THRNRM  =  1.00D-08  THREQ   =  0.00D+00  THRDE   =  1.00D+00  THRREF  =  1.00D-05  SPARFAC =  1.00D+00  THRDLP  =  1.00D-07
 THRDIA  =  1.00D-10  THRDLS  =  1.00D-07  THRGPS  =  0.00D+00  THRKEX  =  0.00D+00  THRDIS  =  2.00D-01  THRVAR  =  1.00D-10
 THRLOC  =  1.00D-06  THRGAP  =  1.00D-06  THRLOCT = -1.00D+00  THRGAPT = -1.00D+00  THRORB  =  1.00D-06  THRMLTP =  0.00D+00
 THRCPQCI=  1.00D-10  KEXTA   =  0.00D+00  THRCOARS=  0.00D+00  SYMTOL  =  1.00D-06  GRADTOL =  1.00D-06  THROVL  =  1.00D-08
 THRORTH =  1.00D-08  GRID    =  1.00D-06  GRIDMAX =  1.00D-03  DTMAX   =  0.00D+00  THROCCDE=  1.00D-01  THROCCDE=  1.00D-01



 Input parameters for SORTINT:

 COMPRESS =    0.000000
 C_FINAL  =    1.000000
 DEBUG    =   -1.000000
 C_SORT1  =    0.000000
 C_SEWARD =    0.000000
 THRESH   =    0.000000
 IO       =  molpro                                                          
 SPRI     =    0.000000
 SETTING GEOMTYP        =    XYZ
 ZUNIT=BOHR
 

 Variable memory set to  995000000 words,  buffer space   230000 words

 SETTING BASIS          =    VTZ-DK
 SETTING DKROLL         =     0.00000000D+00                                  


 Recomputing integrals since basis changed


 Using spherical harmonics

 Library entry H      S cc-pVTZ-DK           selected for orbital group  1
 Library entry H      P cc-pVTZ-DK           selected for orbital group  1
 Library entry H      D cc-pVTZ-DK           selected for orbital group  1
 Library entry N      S cc-pVTZ-DK           selected for orbital group  2
 Library entry N      P cc-pVTZ-DK           selected for orbital group  2
 Library entry N      D cc-pVTZ-DK           selected for orbital group  2
 Library entry N      F cc-pVTZ-DK           selected for orbital group  2
 Library entry O      S cc-pVTZ-DK           selected for orbital group  3
 Library entry O      P cc-pVTZ-DK           selected for orbital group  3
 Library entry O      D cc-pVTZ-DK           selected for orbital group  3
 Library entry O      F cc-pVTZ-DK           selected for orbital group  3


 PROGRAM * SEWARD (Integral evaluation for generally contracted gaussian basis sets)     Author: Roland Lindh, 1990

 Geometry written to block  1 of record 700


 Point group  Cs  



 ATOMIC COORDINATES

 NR  ATOM    CHARGE       X              Y              Z

   1  H       1.00    0.000000000    1.677570602   -1.940696748
   2  N       7.00    0.000000000   -0.167630637   -1.151332988
   3  O       8.00    0.000000000    0.031827825    1.141440145

 Bond lengths in Bohr (Angstrom)

 1-2  2.006953602  2-3  2.301432666
     ( 1.062034110)     ( 1.217865719)

 Bond angles

  1-2-3  108.18899349

 NUCLEAR CHARGE:                   16
 NUMBER OF PRIMITIVE AOS:         111
 NUMBER OF SYMMETRY AOS:          100
 NUMBER OF CONTRACTIONS:           74   (  50A'  +  24A"  )
 NUMBER OF CORE ORBITALS:           2   (   2A'  +   0A"  )
 NUMBER OF VALENCE ORBITALS:        9   (   7A'  +   2A"  )


 NUCLEAR REPULSION ENERGY   30.11018194

 Eigenvalues of metric

         1 0.251E-02 0.405E-02 0.431E-02 0.860E-02 0.132E-01 0.335E-01 0.432E-01 0.465E-01
         2 0.348E-01 0.467E-01 0.103E+00 0.115E+00 0.239E+00 0.347E+00 0.399E+00 0.454E+00


 Contracted 2-electron integrals neglected if value below      1.0D-22

        1874283. INTEGRALS WRITTEN OUT IN     458 BLOCKS ON RECORD 1290 OF FILE 1


 NUMBER OF SORTED TWO-ELECTRON INTEGRALS:    2006100.     BUFFER LENGTH:  32768
 NUMBER OF SEGMENTS:   1  SEGMENT LENGTH:    2006100      RECORD LENGTH: 524288

 Memory used in sort:       2.56 MW

 SORT1 READ     1874283. AND WROTE     1914195. INTEGRALS IN      6 RECORDS. CPU TIME:     0.04 SEC, REAL TIME:     0.06 SEC
 SORT2 READ     1914195. AND WROTE     2006100. INTEGRALS IN      1 RECORDS. CPU TIME:     0.06 SEC, REAL TIME:     0.08 SEC

 FILE SIZES:   FILE 1:    50.1 MBYTE,  FILE 4:    25.2 MBYTE,   TOTAL:     75.3 MBYTE

 OPERATOR DM      FOR CENTER  0  COORDINATES:    0.000000    0.000000    0.000000


 **********************************************************************************************************************************
 DATASETS  * FILE   NREC   LENGTH (MB)   RECORD NAMES
              1      19       35.89       500      610      700      900      950      970     1000      129      960     1100   
                                          VAR    BASINP    GEOM    SYMINP    ZMAT    AOBASIS   BASIS     P2S    ABASIS      S 
                                         1400     1410     1200     1210     1080     1600     1650     1300     1700   
                                           T        V       H0       H01     AOSYM     SMH    MOLCAS    ERIS     OPER   

 PROGRAMS   *        TOTAL       INT
 CPU TIMES  *         0.81      0.70
 REAL TIME  *         1.53 SEC
 DISK USED  *        75.59 MB      
 **********************************************************************************************************************************


 PROGRAM * RHF-SCF (CLOSED SHELL)       Authors: W. Meyer, H.-J. Werner


 NUMBER OF ELECTRONS:       8+    8-
 CONVERGENCE THRESHOLDS:    1.00E-10 (Density)    1.00E-13 (Energy)
 MAX. NUMBER OF ITERATIONS:      500
 INTERPOLATION TYPE:            DIIS
 INTERPOLATION STEPS:              2 (START)      1 (STEP)
 LEVEL SHIFTS:                  0.00 (CLOSED)  0.00 (OPEN) 



 Orbital guess generated from atomic densities. Full valence occupancy:    9   2

 Molecular orbital dump at record        2100.2

 Initial occupancy:   7   1

 ITERATION    DDIFF          GRAD             ENERGY        2-EL.EN.            DIPOLE MOMENTS         DIIS   ORB.
    1      0.000D+00      0.000D+00      -129.77643219    153.663183    0.00000    0.58857   -1.07147    0    start
    2      0.000D+00      0.138D-01      -129.80298593    154.806634    0.00000    0.62124   -0.21469    1    diag
    3      0.190D-01      0.108D-01      -129.82725999    154.943793    0.00000    0.56515   -0.61500    2    diag
    4      0.933D-02      0.158D-02      -129.82802057    154.668506    0.00000    0.57332   -0.55371    3    diag
    5      0.168D-02      0.526D-03      -129.82814110    154.755837    0.00000    0.57884   -0.55472    4    diag
    6      0.735D-03      0.157D-03      -129.82816113    154.740777    0.00000    0.57934   -0.55031    5    diag
    7      0.286D-03      0.793D-04      -129.82816715    154.742977    0.00000    0.58056   -0.54766    6    diag
    8      0.199D-03      0.264D-04      -129.82816778    154.742234    0.00000    0.58058   -0.54677    7    diag
    9      0.712D-04      0.486D-05      -129.82816781    154.742104    0.00000    0.58052   -0.54660    8    diag
   10      0.140D-04      0.105D-05      -129.82816781    154.742086    0.00000    0.58049   -0.54657    9    orth
   11      0.294D-05      0.205D-06      -129.82816781    154.742081    0.00000    0.58048   -0.54657    9    diag
   12      0.534D-06      0.440D-07      -129.82816781    154.742080    0.00000    0.58048   -0.54657    9    diag
   13      0.119D-06      0.113D-07      -129.82816781    154.742079    0.00000    0.58048   -0.54657    9    diag
   14      0.305D-07      0.203D-08      -129.82816781    154.742079    0.00000    0.58048   -0.54657    9    diag
   15      0.458D-08      0.511D-09      -129.82816781    154.742079    0.00000    0.58048   -0.54657    9    diag
   16      0.112D-08      0.121D-09      -129.82816781    154.742079    0.00000    0.58048   -0.54657    9    diag
   17      0.175D-09      0.336D-10      -129.82816781    154.742079    0.00000    0.58048   -0.54657    9    diag
   18      0.510D-10      0.112D-10      -129.82816781    154.742079    0.00000    0.58048   -0.54657    9    diag
   19      0.216D-10      0.233D-11      -129.82816781    154.742079    0.00000    0.58048   -0.54657    9    fixocc
   20      0.562D-11      0.435D-12      -129.82816781    154.742079    0.00000    0.58048   -0.54657    9    orth
   21      0.123D-11      0.148D-12      -129.82816781    154.742079    0.00000    0.58048   -0.54657    0    orth

 Final occupancy:   7   1

 !RHF STATE 1.1 Energy               -129.828167809650
 Nuclear energy                        30.11018194
 One-electron energy                 -237.30938939
 Two-electron energy                   77.37103964
 Virial quotient                       -1.00006180
 !RHF STATE 1.1 Dipole moment           0.00000000     0.58047726    -0.54656553
 Dipole moment /Debye                   0.00000000     1.47532939    -1.38914001

 Orbital energies:

         1.1          2.1          3.1          4.1          5.1          6.1          7.1          8.1          9.1
    -20.649034   -15.710858    -1.517781    -0.990832    -0.739075    -0.659139    -0.429285     0.142819     0.368613

         1.2          2.2          3.2
     -0.587651     0.082641     0.614011

 HOMO      7.1    -0.429285 =     -11.6814eV
 LUMO      2.2     0.082641 =       2.2488eV
 LUMO-HOMO         0.511926 =      13.9302eV


 **********************************************************************************************************************************
 DATASETS  * FILE   NREC   LENGTH (MB)   RECORD NAMES
              1      19       35.89       500      610      700      900      950      970     1000      129      960     1100   
                                          VAR    BASINP    GEOM    SYMINP    ZMAT    AOBASIS   BASIS     P2S    ABASIS      S 
                                         1400     1410     1200     1210     1080     1600     1650     1300     1700   
                                           T        V       H0       H01     AOSYM     SMH    MOLCAS    ERIS     OPER   

              2       4        2.85       700     1000      520     2100   
                                         GEOM     BASIS   MCVARS     RHF  

 PROGRAMS   *        TOTAL        HF       INT
 CPU TIMES  *         1.09      0.28      0.70
 REAL TIME  *         1.92 SEC
 DISK USED  *        75.59 MB      
 **********************************************************************************************************************************


 PROGRAM * CCSD (Closed-shell coupled cluster)     Authors: C. Hampel, H.-J. Werner, 1991, M. Deegan, P.J. Knowles, 1992


 Convergence thresholds:  THRVAR = 1.00D-08  THRDEN = 1.00D-12

 CCSD(T)     terms to be evaluated (factor= 1.000)


 Number of core orbitals:           2 (   2   0 )
 Number of closed-shell orbitals:   6 (   5   1 )
 Number of external orbitals:      66 (  43  23 )

 Molecular orbitals read from record     2100.2  Type=RHF/CANONICAL (state 1.1)

 Number of N-1 electron functions:               6
 Number of N-2 electron functions:              21
 Number of singly external CSFs:               238
 Number of doubly external CSFs:             41002
 Total number of CSFs:                       41241

 Length of J-op  integral file:               0.00 MB
 Length of K-op  integral file:               0.25 MB
 Length of 3-ext integral record:             0.00 MB

 Memory could be reduced to 1.65 Mwords without degradation in triples

 Integral transformation finished. Total CPU:   0.04 sec, npass=  1  Memory used:   0.55 MW

 Reference energy:                   -129.82816781

 MP2 singlet pair energy:              -0.27485492
 MP2 triplet pair energy:              -0.16324526
 MP2 correlation energy:               -0.43810018
 MP2 total energy:                   -130.26626799

 SCS-MP2 correlation energy:           -0.43140074   (PS=  1.200000  PT=  0.333333)
 SCS-MP2 total energy:               -130.25956855

 ITER.      SQ.NORM     CORR.ENERGY   TOTAL ENERGY   ENERGY CHANGE        DEN1      VAR(S)    VAR(P)  DIIS     TIME  TIME/IT
   1      1.11983460    -0.44283934  -130.27100715    -0.00473915     0.01152686  0.31D-02  0.31D-02  1  1     0.09     0.05
   2      1.13098729    -0.44301800  -130.27118581    -0.00017867    -0.01256232  0.94D-04  0.52D-03  2  2     0.15     0.05
   3      1.13754321    -0.44342696  -130.27159477    -0.00040895    -0.00306937  0.51D-04  0.53D-04  3  3     0.20     0.05
   4      1.14049017    -0.44345296  -130.27162077    -0.00002601    -0.00099784  0.44D-05  0.94D-05  4  4     0.25     0.05
   5      1.14156327    -0.44348502  -130.27165283    -0.00003206    -0.00022235  0.15D-05  0.17D-05  5  5     0.30     0.05
   6      1.14194231    -0.44346701  -130.27163482     0.00001801    -0.00004342  0.11D-06  0.41D-06  6  6     0.35     0.05
   7      1.14202937    -0.44346904  -130.27163685    -0.00000203    -0.00000185  0.12D-07  0.91D-07  6  1     0.40     0.05
   8      1.14206087    -0.44346891  -130.27163672     0.00000013     0.00000179  0.43D-08  0.12D-07  6  2     0.45     0.05
   9      1.14206939    -0.44346864  -130.27163645     0.00000027    -0.00000228  0.27D-08  0.13D-08  6  3     0.50     0.06
  10      1.14206817    -0.44346918  -130.27163699    -0.00000054     0.00000060  0.51D-09  0.23D-09  6  4     0.55     0.06
  11      1.14206637    -0.44346924  -130.27163705    -0.00000006     0.00000020  0.16D-09  0.25D-10  6  5     0.59     0.05
  12      1.14206490    -0.44346944  -130.27163725    -0.00000019     0.00000046  0.16D-10  0.83D-11  6  6     0.65     0.05
  13      1.14206424    -0.44346944  -130.27163725    -0.00000001     0.00000013  0.71D-11  0.14D-11  6  1     0.70     0.05
  14      1.14206381    -0.44346947  -130.27163728    -0.00000002     0.00000009  0.10D-11  0.47D-12  6  2     0.74     0.05
  15      1.14206364    -0.44346947  -130.27163728    -0.00000000     0.00000002  0.27D-12  0.15D-12  6  3     0.79     0.05
  16      1.14206352    -0.44346947  -130.27163728    -0.00000000     0.00000002  0.84D-14  0.38D-13  6  1     0.85     0.05
  17      1.14206351    -0.44346947  -130.27163728     0.00000000    -0.00000000  0.29D-14  0.25D-14  6  4     0.90     0.05
  18      1.14206350    -0.44346947  -130.27163728    -0.00000000     0.00000000  0.72D-15  0.43D-15  6  5     0.95     0.05
  19      1.14206350    -0.44346947  -130.27163728     0.00000000    -0.00000000  0.14D-15  0.85D-16  6  6     0.99     0.05
  20      1.14206350    -0.44346947  -130.27163728    -0.00000000     0.00000000  0.24D-16  0.22D-16  6  2     1.03     0.05
  21      1.14206350    -0.44346947  -130.27163728    -0.00000000     0.00000000  0.63D-18  0.16D-17  6  4     1.08     0.05
  22      1.14206350    -0.44346947  -130.27163728    -0.00000000     0.00000000  0.97D-19  0.16D-18  6  3     1.13     0.05
  23      1.14206350    -0.44346947  -130.27163728    -0.00000000     0.00000000  0.87D-20  0.16D-19  6  1     1.18     0.05
  24      1.14206350    -0.44346947  -130.27163728     0.00000000     0.00000000  0.47D-20  0.21D-20  6  6     1.23     0.05
  25      1.14206350    -0.44346947  -130.27163728    -0.00000000    -0.00000000  0.29D-21  0.51D-21  6  4     1.28     0.05

 Norm of t1 vector:      0.07712888      S-energy:    -0.00000000      T1 diagnostic:  0.01574387
                                                                       D1 diagnostic:  0.04378005

 Doubles amplitudes (print threshold =  0.500E-01):

         I         J         SYM. A    SYM. B    A         B      T(IJ, AB)

         6         6         2         2         1         1     -0.14643873


 Total CPU time for triples:      0.34 sec


 RESULTS
 =======

  Reference energy                   -129.828167809651
  CCSD singlet pair energy             -0.304383138372
  CCSD triplet pair energy             -0.139086334763
  CCSD correlation energy              -0.443469473135

  Triples (T) contribution             -0.020131330122
  Total correlation energy             -0.463600803257

  CCSD total energy                  -130.271637282785
  CCSD[T] energy                     -130.292839660822
  CCSD-T energy                      -130.291356579040
 !CCSD(T) total energy               -130.291768612907

 Timing summary (sec):

 STEP                 CPU(USER)    SYS     CPU(TOT)    WALL
 Transformation          0.04      0.01      0.05      0.05
 CCSD iterations         1.24      0.14      1.38      1.38
 Triples                 0.34      0.03      0.37      0.37

 Program statistics:

 Available memory in ccsd:               994999756
 Min. memory needed in ccsd:                154850
 Max. memory used in ccsd:                  184802
 Max. memory used in cckext:                238416 (25 integral passes)



 **********************************************************************************************************************************
 DATASETS  * FILE   NREC   LENGTH (MB)   RECORD NAMES
              1      20       40.28       500      610      700      900      950      970     1000      129      960     1100   
                                          VAR    BASINP    GEOM    SYMINP    ZMAT    AOBASIS   BASIS     P2S    ABASIS      S 
                                         1400     1410     1200     1210     1080     1600     1650     1300     1700     1380   
                                           T        V       H0       H01     AOSYM     SMH    MOLCAS    ERIS     OPER     JKOP   

              2       4        2.85       700     1000      520     2100   
                                         GEOM     BASIS   MCVARS     RHF  

 PROGRAMS   *        TOTAL   CCSD(T)        HF       INT
 CPU TIMES  *         2.74      1.64      0.28      0.70
 REAL TIME  *         3.74 SEC
 DISK USED  *        75.59 MB      
 **********************************************************************************************************************************

 CCSD(T)/cc-pVTZ-DK energy=   -130.291768612907

        CCSD(T)         HF-SCF  
   -130.29176861   -129.82816781
 **********************************************************************************************************************************
 Molpro calculation terminated
 Variable memory released
