
 Primary working directories    : /tmp/r2666/282547.maple
 Secondary working directories  : /tmp/r2666/282547.maple
 Wavefunction directory         : /ddn/home4/r2666/wfu/
 Main file repository           : /tmp/r2666/282547.maple/

 SHA1      : d5ffa45e93fdbca01ffc919aa182cfdae0147319
 NAME      : 2015.1.35
 ARCHNAME  : linux/x86_64
 FC        : /opt/intel/composer_xe_2015.1.133/bin/intel64/ifort
 BLASLIB   : -Wl,-_start-group /opt/intel/mkl/lib/intel64/libmkl_intel_ilp64.a /opt/intel/mkl/lib/intel64/libmkl_intel_thread.a /opt/intel/mkl/lib/intel64/libmkl_core.a -Wl,-_end-group
 id        : olemiss

 Nodes     nprocs
 cn006        1

 Using customized tuning parameters: mindgm=1; mindgv=20; mindgc=4; mindgr=1; noblas=0; minvec=7
 default implementation of scratch files=df  

 ***,hno CCSD(T)/TZ-F12 QFF
 memory, 995, m;
 gthresh,energy=1.d-12,zero=1.d-22,oneint=1.d-22,twoint=1.d-22;
 gthresh,optgrad=1.d-8,optstep=1.d-8;
 nocompress;
 geomtyp=xyz
 bohr
 geometry={
 3
         57        57
 H        0.0000000000        1.6658293541       -1.9234668749
 N        0.0000000000       -0.1637086659       -1.1455474363
 O        0.0000000000        0.0396471018        1.1184247202
 }
 
 basis=vtz-dk
 dkroll=0
   {hf,maxit=500;accu,20;}
 {ccsd(t),nocheck,maxit=250;orbital,IGNORE_ERROR;}

 Variables initialized (889), CPU time= 0.00 sec
 Commands  initialized (702), CPU time= 0.01 sec, 572 directives.
 Default parameters read. Elapsed time= 0.06 sec

 Checking input...
 Passed
1


                                         ***  PROGRAM SYSTEM MOLPRO  ***
                                       Copyright, TTI GmbH Stuttgart, 2015
                                    Version 2015.1 linked Jul  9 2018 13:16:40


 **********************************************************************************************************************************
 LABEL *   hno CCSD(T)/TZ-F12 QFF                                                        
  64 bit serial version                                                                  DATE: 04-Mar-20          TIME: 13:50:54  
 **********************************************************************************************************************************

 SHA1:             d5ffa45e93fdbca01ffc919aa182cfdae0147319
 **********************************************************************************************************************************

 THRESHOLDS:

 ZERO    =  1.00D-22  ONEINT  =  1.00D-22  TWOINT  =  1.00D-22  PREFAC  =  1.00D-14  LOCALI  =  1.00D-09  EORDER  =  1.00D-04
 ENERGY  =  1.00D-12  ETEST   =  0.00D+00  EDENS   =  0.00D+00  THRDEDEF=  1.00D-06  GRADIENT=  1.00D-02  STEP    =  1.00D-03
 ORBITAL =  1.00D-05  CIVEC   =  1.00D-05  COEFF   =  1.00D-04  PRINTCI =  5.00D-02  PUNCHCI =  9.90D+01  OPTGRAD =  3.00D-04
 OPTENERG=  1.00D-06  OPTSTEP =  3.00D-04  THRGRAD =  1.00D-10  COMPRESS=  1.00D-11  VARMIN  =  1.00D-07  VARMAX  =  1.00D-03
 THRDOUB =  0.00D+00  THRDIV  =  1.00D-05  THRRED  =  1.00D-07  THRPSP  =  1.00D+00  THRDC   =  1.00D-10  THRCS   =  1.00D-10
 THRNRM  =  1.00D-08  THREQ   =  0.00D+00  THRDE   =  1.00D+00  THRREF  =  1.00D-05  SPARFAC =  1.00D+00  THRDLP  =  1.00D-07
 THRDIA  =  1.00D-10  THRDLS  =  1.00D-07  THRGPS  =  0.00D+00  THRKEX  =  0.00D+00  THRDIS  =  2.00D-01  THRVAR  =  1.00D-10
 THRLOC  =  1.00D-06  THRGAP  =  1.00D-06  THRLOCT = -1.00D+00  THRGAPT = -1.00D+00  THRORB  =  1.00D-06  THRMLTP =  0.00D+00
 THRCPQCI=  1.00D-10  KEXTA   =  0.00D+00  THRCOARS=  0.00D+00  SYMTOL  =  1.00D-06  GRADTOL =  1.00D-06  THROVL  =  1.00D-08
 THRORTH =  1.00D-08  GRID    =  1.00D-06  GRIDMAX =  1.00D-03  DTMAX   =  0.00D+00  THROCCDE=  1.00D-01  THROCCDE=  1.00D-01



 THRESHOLDS:

 ZERO    =  1.00D-22  ONEINT  =  1.00D-22  TWOINT  =  1.00D-22  PREFAC  =  1.00D-14  LOCALI  =  1.00D-09  EORDER  =  1.00D-04
 ENERGY  =  1.00D-12  ETEST   =  0.00D+00  EDENS   =  0.00D+00  THRDEDEF=  1.00D-06  GRADIENT=  1.00D-02  STEP    =  1.00D-03
 ORBITAL =  1.00D-05  CIVEC   =  1.00D-05  COEFF   =  1.00D-04  PRINTCI =  5.00D-02  PUNCHCI =  9.90D+01  OPTGRAD =  1.00D-08
 OPTENERG=  1.00D-06  OPTSTEP =  1.00D-08  THRGRAD =  1.00D-10  COMPRESS=  1.00D-11  VARMIN  =  1.00D-07  VARMAX  =  1.00D-03
 THRDOUB =  0.00D+00  THRDIV  =  1.00D-05  THRRED  =  1.00D-07  THRPSP  =  1.00D+00  THRDC   =  1.00D-10  THRCS   =  1.00D-10
 THRNRM  =  1.00D-08  THREQ   =  0.00D+00  THRDE   =  1.00D+00  THRREF  =  1.00D-05  SPARFAC =  1.00D+00  THRDLP  =  1.00D-07
 THRDIA  =  1.00D-10  THRDLS  =  1.00D-07  THRGPS  =  0.00D+00  THRKEX  =  0.00D+00  THRDIS  =  2.00D-01  THRVAR  =  1.00D-10
 THRLOC  =  1.00D-06  THRGAP  =  1.00D-06  THRLOCT = -1.00D+00  THRGAPT = -1.00D+00  THRORB  =  1.00D-06  THRMLTP =  0.00D+00
 THRCPQCI=  1.00D-10  KEXTA   =  0.00D+00  THRCOARS=  0.00D+00  SYMTOL  =  1.00D-06  GRADTOL =  1.00D-06  THROVL  =  1.00D-08
 THRORTH =  1.00D-08  GRID    =  1.00D-06  GRIDMAX =  1.00D-03  DTMAX   =  0.00D+00  THROCCDE=  1.00D-01  THROCCDE=  1.00D-01



 Input parameters for SORTINT:

 COMPRESS =    0.000000
 C_FINAL  =    1.000000
 DEBUG    =   -1.000000
 C_SORT1  =    0.000000
 C_SEWARD =    0.000000
 THRESH   =    0.000000
 IO       =  molpro                                                          
 SPRI     =    0.000000
 SETTING GEOMTYP        =    XYZ
 ZUNIT=BOHR
 

 Variable memory set to  995000000 words,  buffer space   230000 words

 SETTING BASIS          =    VTZ-DK
 SETTING DKROLL         =     0.00000000D+00                                  


 Recomputing integrals since basis changed


 Using spherical harmonics

 Library entry H      S cc-pVTZ-DK           selected for orbital group  1
 Library entry H      P cc-pVTZ-DK           selected for orbital group  1
 Library entry H      D cc-pVTZ-DK           selected for orbital group  1
 Library entry N      S cc-pVTZ-DK           selected for orbital group  2
 Library entry N      P cc-pVTZ-DK           selected for orbital group  2
 Library entry N      D cc-pVTZ-DK           selected for orbital group  2
 Library entry N      F cc-pVTZ-DK           selected for orbital group  2
 Library entry O      S cc-pVTZ-DK           selected for orbital group  3
 Library entry O      P cc-pVTZ-DK           selected for orbital group  3
 Library entry O      D cc-pVTZ-DK           selected for orbital group  3
 Library entry O      F cc-pVTZ-DK           selected for orbital group  3


 PROGRAM * SEWARD (Integral evaluation for generally contracted gaussian basis sets)     Author: Roland Lindh, 1990

 Geometry written to block  1 of record 700


 Point group  Cs  



 ATOMIC COORDINATES

 NR  ATOM    CHARGE       X              Y              Z

   1  H       1.00    0.000000000    1.665829354   -1.923466875
   2  N       7.00    0.000000000   -0.163708666   -1.145547436
   3  O       8.00    0.000000000    0.039647102    1.118424720

 Bond lengths in Bohr (Angstrom)

 1-2  1.988056342  2-3  2.273086777
     ( 1.052034110)     ( 1.202865721)

 Bond angles

  1-2-3  107.90251459

 NUCLEAR CHARGE:                   16
 NUMBER OF PRIMITIVE AOS:         111
 NUMBER OF SYMMETRY AOS:          100
 NUMBER OF CONTRACTIONS:           74   (  50A'  +  24A"  )
 NUMBER OF CORE ORBITALS:           2   (   2A'  +   0A"  )
 NUMBER OF VALENCE ORBITALS:        9   (   7A'  +   2A"  )


 NUCLEAR REPULSION ENERGY   30.47645064

 Eigenvalues of metric

         1 0.243E-02 0.395E-02 0.409E-02 0.832E-02 0.130E-01 0.324E-01 0.423E-01 0.463E-01
         2 0.340E-01 0.464E-01 0.101E+00 0.111E+00 0.232E+00 0.341E+00 0.394E+00 0.448E+00


 Contracted 2-electron integrals neglected if value below      1.0D-22

        1874254. INTEGRALS WRITTEN OUT IN     458 BLOCKS ON RECORD 1290 OF FILE 1


 NUMBER OF SORTED TWO-ELECTRON INTEGRALS:    2006100.     BUFFER LENGTH:  32768
 NUMBER OF SEGMENTS:   1  SEGMENT LENGTH:    2006100      RECORD LENGTH: 524288

 Memory used in sort:       2.56 MW

 SORT1 READ     1874254. AND WROTE     1914161. INTEGRALS IN      6 RECORDS. CPU TIME:     0.04 SEC, REAL TIME:     0.05 SEC
 SORT2 READ     1914161. AND WROTE     2006100. INTEGRALS IN      1 RECORDS. CPU TIME:     0.05 SEC, REAL TIME:     0.06 SEC

 FILE SIZES:   FILE 1:    50.1 MBYTE,  FILE 4:    25.2 MBYTE,   TOTAL:     75.3 MBYTE

 OPERATOR DM      FOR CENTER  0  COORDINATES:    0.000000    0.000000    0.000000


 **********************************************************************************************************************************
 DATASETS  * FILE   NREC   LENGTH (MB)   RECORD NAMES
              1      19       35.89       500      610      700      900      950      970     1000      129      960     1100   
                                          VAR    BASINP    GEOM    SYMINP    ZMAT    AOBASIS   BASIS     P2S    ABASIS      S 
                                         1400     1410     1200     1210     1080     1600     1650     1300     1700   
                                           T        V       H0       H01     AOSYM     SMH    MOLCAS    ERIS     OPER   

 PROGRAMS   *        TOTAL       INT
 CPU TIMES  *         0.70      0.59
 REAL TIME  *         1.43 SEC
 DISK USED  *        75.59 MB      
 **********************************************************************************************************************************


 PROGRAM * RHF-SCF (CLOSED SHELL)       Authors: W. Meyer, H.-J. Werner


 NUMBER OF ELECTRONS:       8+    8-
 CONVERGENCE THRESHOLDS:    1.00E-10 (Density)    1.00E-13 (Energy)
 MAX. NUMBER OF ITERATIONS:      500
 INTERPOLATION TYPE:            DIIS
 INTERPOLATION STEPS:              2 (START)      1 (STEP)
 LEVEL SHIFTS:                  0.00 (CLOSED)  0.00 (OPEN) 



 Orbital guess generated from atomic densities. Full valence occupancy:    9   2

 Molecular orbital dump at record        2100.2

 Initial occupancy:   7   1

 ITERATION    DDIFF          GRAD             ENERGY        2-EL.EN.            DIPOLE MOMENTS         DIIS   ORB.
    1      0.000D+00      0.000D+00      -129.78162748    154.327437    0.00000    0.58563   -1.02151    0    start
    2      0.000D+00      0.135D-01      -129.80868430    155.487607    0.00000    0.61230   -0.22585    1    diag
    3      0.184D-01      0.102D-01      -129.83001374    155.596186    0.00000    0.56014   -0.59360    2    diag
    4      0.887D-02      0.155D-02      -129.83074392    155.332685    0.00000    0.56884   -0.53478    3    diag
    5      0.166D-02      0.513D-03      -129.83085725    155.417939    0.00000    0.57421   -0.53602    4    diag
    6      0.715D-03      0.152D-03      -129.83087587    155.403246    0.00000    0.57477   -0.53193    5    diag
    7      0.277D-03      0.758D-04      -129.83088125    155.405566    0.00000    0.57601   -0.52949    6    diag
    8      0.190D-03      0.239D-04      -129.83088174    155.404895    0.00000    0.57602   -0.52871    7    diag
    9      0.626D-04      0.434D-05      -129.83088176    155.404783    0.00000    0.57598   -0.52856    8    diag
   10      0.121D-04      0.965D-06      -129.83088176    155.404766    0.00000    0.57594   -0.52853    9    orth
   11      0.275D-05      0.190D-06      -129.83088176    155.404762    0.00000    0.57594   -0.52853    9    diag
   12      0.504D-06      0.392D-07      -129.83088176    155.404761    0.00000    0.57593   -0.52853    9    diag
   13      0.110D-06      0.963D-08      -129.83088176    155.404760    0.00000    0.57593   -0.52853    9    diag
   14      0.271D-07      0.175D-08      -129.83088176    155.404760    0.00000    0.57593   -0.52853    9    diag
   15      0.442D-08      0.459D-09      -129.83088176    155.404760    0.00000    0.57593   -0.52853    9    diag
   16      0.106D-08      0.116D-09      -129.83088176    155.404760    0.00000    0.57593   -0.52853    9    diag
   17      0.198D-09      0.337D-10      -129.83088176    155.404760    0.00000    0.57593   -0.52853    9    diag
   18      0.632D-10      0.113D-10      -129.83088176    155.404760    0.00000    0.57593   -0.52853    0    orth

 Final occupancy:   7   1

 !RHF STATE 1.1 Energy               -129.830881759755
 Nuclear energy                        30.47645064
 One-electron energy                 -238.00971255
 Two-electron energy                   77.70238016
 Virial quotient                       -0.99951540
 !RHF STATE 1.1 Dipole moment           0.00000000     0.57593307    -0.52852873
 Dipole moment /Debye                   0.00000000     1.46377996    -1.34329805

 Orbital energies:

         1.1          2.1          3.1          4.1          5.1          6.1          7.1          8.1          9.1
    -20.647354   -15.706992    -1.530251    -0.989618    -0.744773    -0.663374    -0.425515     0.144432     0.370683

         1.2          2.2          3.2
     -0.594600     0.088226     0.612396

 HOMO      7.1    -0.425515 =     -11.5788eV
 LUMO      2.2     0.088226 =       2.4008eV
 LUMO-HOMO         0.513741 =      13.9796eV


 **********************************************************************************************************************************
 DATASETS  * FILE   NREC   LENGTH (MB)   RECORD NAMES
              1      19       35.89       500      610      700      900      950      970     1000      129      960     1100   
                                          VAR    BASINP    GEOM    SYMINP    ZMAT    AOBASIS   BASIS     P2S    ABASIS      S 
                                         1400     1410     1200     1210     1080     1600     1650     1300     1700   
                                           T        V       H0       H01     AOSYM     SMH    MOLCAS    ERIS     OPER   

              2       4        2.85       700     1000      520     2100   
                                         GEOM     BASIS   MCVARS     RHF  

 PROGRAMS   *        TOTAL        HF       INT
 CPU TIMES  *         0.94      0.24      0.59
 REAL TIME  *         1.70 SEC
 DISK USED  *        75.59 MB      
 **********************************************************************************************************************************


 PROGRAM * CCSD (Closed-shell coupled cluster)     Authors: C. Hampel, H.-J. Werner, 1991, M. Deegan, P.J. Knowles, 1992


 Convergence thresholds:  THRVAR = 1.00D-08  THRDEN = 1.00D-12

 CCSD(T)     terms to be evaluated (factor= 1.000)


 Number of core orbitals:           2 (   2   0 )
 Number of closed-shell orbitals:   6 (   5   1 )
 Number of external orbitals:      66 (  43  23 )

 Molecular orbitals read from record     2100.2  Type=RHF/CANONICAL (state 1.1)

 Number of N-1 electron functions:               6
 Number of N-2 electron functions:              21
 Number of singly external CSFs:               238
 Number of doubly external CSFs:             41002
 Total number of CSFs:                       41241

 Length of J-op  integral file:               0.00 MB
 Length of K-op  integral file:               0.25 MB
 Length of 3-ext integral record:             0.00 MB

 Memory could be reduced to 1.65 Mwords without degradation in triples

 Integral transformation finished. Total CPU:   0.03 sec, npass=  1  Memory used:   0.55 MW

 Reference energy:                   -129.83088176

 MP2 singlet pair energy:              -0.27302843
 MP2 triplet pair energy:              -0.16206869
 MP2 correlation energy:               -0.43509712
 MP2 total energy:                   -130.26597888

 SCS-MP2 correlation energy:           -0.42847686   (PS=  1.200000  PT=  0.333333)
 SCS-MP2 total energy:               -130.25935862

 ITER.      SQ.NORM     CORR.ENERGY   TOTAL ENERGY   ENERGY CHANGE        DEN1      VAR(S)    VAR(P)  DIIS     TIME  TIME/IT
   1      1.11785358    -0.44042830  -130.27131006    -0.00533118     0.01021188  0.29D-02  0.29D-02  1  1     0.08     0.06
   2      1.12856016    -0.44072836  -130.27161012    -0.00030006    -0.01214087  0.85D-04  0.49D-03  2  2     0.14     0.06
   3      1.13472247    -0.44110510  -130.27198686    -0.00037673    -0.00294027  0.45D-04  0.49D-04  3  3     0.19     0.06
   4      1.13746019    -0.44113117  -130.27201293    -0.00002608    -0.00094014  0.38D-05  0.86D-05  4  4     0.25     0.06
   5      1.13842101    -0.44115954  -130.27204130    -0.00002837    -0.00019902  0.13D-05  0.16D-05  5  5     0.30     0.06
   6      1.13877024    -0.44114367  -130.27202543     0.00001587    -0.00003955  0.95D-07  0.41D-06  6  6     0.35     0.06
   7      1.13885496    -0.44114561  -130.27202737    -0.00000194    -0.00000221  0.11D-07  0.85D-07  6  1     0.40     0.06
   8      1.13888508    -0.44114565  -130.27202741    -0.00000003     0.00000192  0.43D-08  0.98D-08  6  2     0.46     0.06
   9      1.13889255    -0.44114547  -130.27202723     0.00000018    -0.00000225  0.24D-08  0.11D-08  6  3     0.51     0.06
  10      1.13889132    -0.44114596  -130.27202772    -0.00000049     0.00000061  0.47D-09  0.19D-09  6  4     0.57     0.06
  11      1.13888964    -0.44114601  -130.27202777    -0.00000006     0.00000018  0.14D-09  0.22D-10  6  5     0.63     0.06
  12      1.13888829    -0.44114618  -130.27202794    -0.00000017     0.00000042  0.15D-10  0.71D-11  6  6     0.69     0.06
  13      1.13888770    -0.44114619  -130.27202795    -0.00000001     0.00000012  0.64D-11  0.11D-11  6  1     0.74     0.06
  14      1.13888733    -0.44114621  -130.27202797    -0.00000002     0.00000007  0.89D-12  0.40D-12  6  2     0.80     0.06
  15      1.13888720    -0.44114621  -130.27202797    -0.00000000     0.00000001  0.22D-12  0.13D-12  6  3     0.85     0.06
  16      1.13888711    -0.44114621  -130.27202797    -0.00000000     0.00000001  0.24D-13  0.15D-13  6  5     0.91     0.06
  17      1.13888708    -0.44114621  -130.27202797    -0.00000000     0.00000000  0.70D-15  0.21D-14  6  4     0.96     0.06
  18      1.13888708    -0.44114621  -130.27202797     0.00000000    -0.00000000  0.47D-15  0.30D-15  6  1     1.01     0.06
  19      1.13888707    -0.44114621  -130.27202797    -0.00000000     0.00000000  0.43D-16  0.53D-16  6  6     1.07     0.06
  20      1.13888707    -0.44114621  -130.27202797    -0.00000000     0.00000000  0.92D-17  0.13D-16  6  2     1.12     0.06
  21      1.13888707    -0.44114621  -130.27202797    -0.00000000     0.00000000  0.17D-17  0.98D-18  6  5     1.18     0.06
  22      1.13888707    -0.44114621  -130.27202797     0.00000000     0.00000000  0.10D-18  0.74D-19  6  3     1.23     0.06
  23      1.13888707    -0.44114621  -130.27202797     0.00000000    -0.00000000  0.29D-19  0.16D-19  6  4     1.28     0.06
  24      1.13888707    -0.44114621  -130.27202797     0.00000000    -0.00000000  0.42D-20  0.44D-20  6  1     1.34     0.06
  25      1.13888707    -0.44114621  -130.27202797     0.00000000    -0.00000000  0.51D-21  0.76D-21  6  6     1.40     0.06

 Norm of t1 vector:      0.07411244      S-energy:     0.00000000      T1 diagnostic:  0.01512814
                                                                       D1 diagnostic:  0.04175756

 Doubles amplitudes (print threshold =  0.500E-01):

         I         J         SYM. A    SYM. B    A         B      T(IJ, AB)

         6         6         2         2         1         1     -0.14233809


 Total CPU time for triples:      0.37 sec


 RESULTS
 =======

  Reference energy                   -129.830881759755
  CCSD singlet pair energy             -0.302359649056
  CCSD triplet pair energy             -0.138786563145
  CCSD correlation energy              -0.441146212200

  Triples (T) contribution             -0.019609633816
  Total correlation energy             -0.460755846016

  CCSD total energy                  -130.272027971955
  CCSD[T] energy                     -130.292631310096
  CCSD-T energy                      -130.291246054425
 !CCSD(T) total energy               -130.291637605771

 Timing summary (sec):

 STEP                 CPU(USER)    SYS     CPU(TOT)    WALL
 Transformation          0.03      0.02      0.05      0.05
 CCSD iterations         1.37      0.12      1.49      1.50
 Triples                 0.37      0.01      0.38      0.37

 Program statistics:

 Available memory in ccsd:               994999756
 Min. memory needed in ccsd:                154850
 Max. memory used in ccsd:                  184802
 Max. memory used in cckext:                238416 (25 integral passes)



 **********************************************************************************************************************************
 DATASETS  * FILE   NREC   LENGTH (MB)   RECORD NAMES
              1      20       40.28       500      610      700      900      950      970     1000      129      960     1100   
                                          VAR    BASINP    GEOM    SYMINP    ZMAT    AOBASIS   BASIS     P2S    ABASIS      S 
                                         1400     1410     1200     1210     1080     1600     1650     1300     1700     1380   
                                           T        V       H0       H01     AOSYM     SMH    MOLCAS    ERIS     OPER     JKOP   

              2       4        2.85       700     1000      520     2100   
                                         GEOM     BASIS   MCVARS     RHF  

 PROGRAMS   *        TOTAL   CCSD(T)        HF       INT
 CPU TIMES  *         2.74      1.80      0.24      0.59
 REAL TIME  *         3.66 SEC
 DISK USED  *        75.59 MB      
 **********************************************************************************************************************************

 CCSD(T)/cc-pVTZ-DK energy=   -130.291637605771

        CCSD(T)         HF-SCF  
   -130.29163761   -129.83088176
 **********************************************************************************************************************************
 Molpro calculation terminated
 Variable memory released
