
 Primary working directories    : /tmp/r2666/282592.maple
 Secondary working directories  : /tmp/r2666/282592.maple
 Wavefunction directory         : /ddn/home4/r2666/wfu/
 Main file repository           : /tmp/r2666/282592.maple/

 SHA1      : d5ffa45e93fdbca01ffc919aa182cfdae0147319
 NAME      : 2015.1.35
 ARCHNAME  : linux/x86_64
 FC        : /opt/intel/composer_xe_2015.1.133/bin/intel64/ifort
 BLASLIB   : -Wl,-_start-group /opt/intel/mkl/lib/intel64/libmkl_intel_ilp64.a /opt/intel/mkl/lib/intel64/libmkl_intel_thread.a /opt/intel/mkl/lib/intel64/libmkl_core.a -Wl,-_end-group
 id        : olemiss

 Nodes     nprocs
 cn005        1

 Using customized tuning parameters: mindgm=1; mindgv=20; mindgc=4; mindgr=1; noblas=0; minvec=7
 default implementation of scratch files=df  

 ***,hno CCSD(T)/TZ-F12 QFF
 memory, 995, m;
 gthresh,energy=1.d-12,zero=1.d-22,oneint=1.d-22,twoint=1.d-22;
 gthresh,optgrad=1.d-8,optstep=1.d-8;
 nocompress;
 geomtyp=xyz
 bohr
 geometry={
 3
        102       102
 H        0.0000000000        1.6717674218       -1.9277827079
 N        0.0000000000       -0.1692083303       -1.1526476272
 O        0.0000000000        0.0392086985        1.1298407441
 }
 
 basis=vtz-dk
 dkroll=0
   {hf,maxit=500;accu,20;}
 {ccsd(t),nocheck,maxit=250;orbital,IGNORE_ERROR;}

 Variables initialized (889), CPU time= 0.00 sec
 Commands  initialized (702), CPU time= 0.01 sec, 572 directives.
 Default parameters read. Elapsed time= 0.06 sec

 Checking input...
 Passed
1


                                         ***  PROGRAM SYSTEM MOLPRO  ***
                                       Copyright, TTI GmbH Stuttgart, 2015
                                    Version 2015.1 linked Jul  9 2018 13:16:40


 **********************************************************************************************************************************
 LABEL *   hno CCSD(T)/TZ-F12 QFF                                                        
  64 bit serial version                                                                  DATE: 04-Mar-20          TIME: 13:51:00  
 **********************************************************************************************************************************

 SHA1:             d5ffa45e93fdbca01ffc919aa182cfdae0147319
 **********************************************************************************************************************************

 THRESHOLDS:

 ZERO    =  1.00D-22  ONEINT  =  1.00D-22  TWOINT  =  1.00D-22  PREFAC  =  1.00D-14  LOCALI  =  1.00D-09  EORDER  =  1.00D-04
 ENERGY  =  1.00D-12  ETEST   =  0.00D+00  EDENS   =  0.00D+00  THRDEDEF=  1.00D-06  GRADIENT=  1.00D-02  STEP    =  1.00D-03
 ORBITAL =  1.00D-05  CIVEC   =  1.00D-05  COEFF   =  1.00D-04  PRINTCI =  5.00D-02  PUNCHCI =  9.90D+01  OPTGRAD =  3.00D-04
 OPTENERG=  1.00D-06  OPTSTEP =  3.00D-04  THRGRAD =  1.00D-10  COMPRESS=  1.00D-11  VARMIN  =  1.00D-07  VARMAX  =  1.00D-03
 THRDOUB =  0.00D+00  THRDIV  =  1.00D-05  THRRED  =  1.00D-07  THRPSP  =  1.00D+00  THRDC   =  1.00D-10  THRCS   =  1.00D-10
 THRNRM  =  1.00D-08  THREQ   =  0.00D+00  THRDE   =  1.00D+00  THRREF  =  1.00D-05  SPARFAC =  1.00D+00  THRDLP  =  1.00D-07
 THRDIA  =  1.00D-10  THRDLS  =  1.00D-07  THRGPS  =  0.00D+00  THRKEX  =  0.00D+00  THRDIS  =  2.00D-01  THRVAR  =  1.00D-10
 THRLOC  =  1.00D-06  THRGAP  =  1.00D-06  THRLOCT = -1.00D+00  THRGAPT = -1.00D+00  THRORB  =  1.00D-06  THRMLTP =  0.00D+00
 THRCPQCI=  1.00D-10  KEXTA   =  0.00D+00  THRCOARS=  0.00D+00  SYMTOL  =  1.00D-06  GRADTOL =  1.00D-06  THROVL  =  1.00D-08
 THRORTH =  1.00D-08  GRID    =  1.00D-06  GRIDMAX =  1.00D-03  DTMAX   =  0.00D+00  THROCCDE=  1.00D-01  THROCCDE=  1.00D-01



 THRESHOLDS:

 ZERO    =  1.00D-22  ONEINT  =  1.00D-22  TWOINT  =  1.00D-22  PREFAC  =  1.00D-14  LOCALI  =  1.00D-09  EORDER  =  1.00D-04
 ENERGY  =  1.00D-12  ETEST   =  0.00D+00  EDENS   =  0.00D+00  THRDEDEF=  1.00D-06  GRADIENT=  1.00D-02  STEP    =  1.00D-03
 ORBITAL =  1.00D-05  CIVEC   =  1.00D-05  COEFF   =  1.00D-04  PRINTCI =  5.00D-02  PUNCHCI =  9.90D+01  OPTGRAD =  1.00D-08
 OPTENERG=  1.00D-06  OPTSTEP =  1.00D-08  THRGRAD =  1.00D-10  COMPRESS=  1.00D-11  VARMIN  =  1.00D-07  VARMAX  =  1.00D-03
 THRDOUB =  0.00D+00  THRDIV  =  1.00D-05  THRRED  =  1.00D-07  THRPSP  =  1.00D+00  THRDC   =  1.00D-10  THRCS   =  1.00D-10
 THRNRM  =  1.00D-08  THREQ   =  0.00D+00  THRDE   =  1.00D+00  THRREF  =  1.00D-05  SPARFAC =  1.00D+00  THRDLP  =  1.00D-07
 THRDIA  =  1.00D-10  THRDLS  =  1.00D-07  THRGPS  =  0.00D+00  THRKEX  =  0.00D+00  THRDIS  =  2.00D-01  THRVAR  =  1.00D-10
 THRLOC  =  1.00D-06  THRGAP  =  1.00D-06  THRLOCT = -1.00D+00  THRGAPT = -1.00D+00  THRORB  =  1.00D-06  THRMLTP =  0.00D+00
 THRCPQCI=  1.00D-10  KEXTA   =  0.00D+00  THRCOARS=  0.00D+00  SYMTOL  =  1.00D-06  GRADTOL =  1.00D-06  THROVL  =  1.00D-08
 THRORTH =  1.00D-08  GRID    =  1.00D-06  GRIDMAX =  1.00D-03  DTMAX   =  0.00D+00  THROCCDE=  1.00D-01  THROCCDE=  1.00D-01



 Input parameters for SORTINT:

 COMPRESS =    0.000000
 C_FINAL  =    1.000000
 DEBUG    =   -1.000000
 C_SORT1  =    0.000000
 C_SEWARD =    0.000000
 THRESH   =    0.000000
 IO       =  molpro                                                          
 SPRI     =    0.000000
 SETTING GEOMTYP        =    XYZ
 ZUNIT=BOHR
 

 Variable memory set to  995000000 words,  buffer space   230000 words

 SETTING BASIS          =    VTZ-DK
 SETTING DKROLL         =     0.00000000D+00                                  


 Recomputing integrals since basis changed


 Using spherical harmonics

 Library entry H      S cc-pVTZ-DK           selected for orbital group  1
 Library entry H      P cc-pVTZ-DK           selected for orbital group  1
 Library entry H      D cc-pVTZ-DK           selected for orbital group  1
 Library entry N      S cc-pVTZ-DK           selected for orbital group  2
 Library entry N      P cc-pVTZ-DK           selected for orbital group  2
 Library entry N      D cc-pVTZ-DK           selected for orbital group  2
 Library entry N      F cc-pVTZ-DK           selected for orbital group  2
 Library entry O      S cc-pVTZ-DK           selected for orbital group  3
 Library entry O      P cc-pVTZ-DK           selected for orbital group  3
 Library entry O      D cc-pVTZ-DK           selected for orbital group  3
 Library entry O      F cc-pVTZ-DK           selected for orbital group  3


 PROGRAM * SEWARD (Integral evaluation for generally contracted gaussian basis sets)     Author: Roland Lindh, 1990

 Geometry written to block  1 of record 700


 Point group  Cs  



 ATOMIC COORDINATES

 NR  ATOM    CHARGE       X              Y              Z

   1  H       1.00    0.000000000    1.671767422   -1.927782708
   2  N       7.00    0.000000000   -0.169208330   -1.152647627
   3  O       8.00    0.000000000    0.039208698    1.129840744

 Bond lengths in Bohr (Angstrom)

 1-2  1.997504972  2-3  2.291984036
     ( 1.057034110)     ( 1.212865720)

 Bond angles

  1-2-3  107.61603570

 NUCLEAR CHARGE:                   16
 NUMBER OF PRIMITIVE AOS:         111
 NUMBER OF SYMMETRY AOS:          100
 NUMBER OF CONTRACTIONS:           74   (  50A'  +  24A"  )
 NUMBER OF CORE ORBITALS:           2   (   2A'  +   0A"  )
 NUMBER OF VALENCE ORBITALS:        9   (   7A'  +   2A"  )


 NUCLEAR REPULSION ENERGY   30.24537711

 Eigenvalues of metric

         1 0.248E-02 0.401E-02 0.423E-02 0.846E-02 0.131E-01 0.331E-01 0.429E-01 0.465E-01
         2 0.345E-01 0.466E-01 0.102E+00 0.114E+00 0.237E+00 0.344E+00 0.398E+00 0.452E+00


 Contracted 2-electron integrals neglected if value below      1.0D-22

        1874254. INTEGRALS WRITTEN OUT IN     458 BLOCKS ON RECORD 1290 OF FILE 1


 NUMBER OF SORTED TWO-ELECTRON INTEGRALS:    2006100.     BUFFER LENGTH:  32768
 NUMBER OF SEGMENTS:   1  SEGMENT LENGTH:    2006100      RECORD LENGTH: 524288

 Memory used in sort:       2.56 MW

 SORT1 READ     1874254. AND WROTE     1914161. INTEGRALS IN      6 RECORDS. CPU TIME:     0.04 SEC, REAL TIME:     0.06 SEC
 SORT2 READ     1914161. AND WROTE     2006100. INTEGRALS IN      1 RECORDS. CPU TIME:     0.05 SEC, REAL TIME:     0.06 SEC

 FILE SIZES:   FILE 1:    50.1 MBYTE,  FILE 4:    25.2 MBYTE,   TOTAL:     75.3 MBYTE

 OPERATOR DM      FOR CENTER  0  COORDINATES:    0.000000    0.000000    0.000000


 **********************************************************************************************************************************
 DATASETS  * FILE   NREC   LENGTH (MB)   RECORD NAMES
              1      19       35.89       500      610      700      900      950      970     1000      129      960     1100   
                                          VAR    BASINP    GEOM    SYMINP    ZMAT    AOBASIS   BASIS     P2S    ABASIS      S 
                                         1400     1410     1200     1210     1080     1600     1650     1300     1700   
                                           T        V       H0       H01     AOSYM     SMH    MOLCAS    ERIS     OPER   

 PROGRAMS   *        TOTAL       INT
 CPU TIMES  *         0.74      0.61
 REAL TIME  *         1.43 SEC
 DISK USED  *        75.59 MB      
 **********************************************************************************************************************************


 PROGRAM * RHF-SCF (CLOSED SHELL)       Authors: W. Meyer, H.-J. Werner


 NUMBER OF ELECTRONS:       8+    8-
 CONVERGENCE THRESHOLDS:    1.00E-10 (Density)    1.00E-13 (Energy)
 MAX. NUMBER OF ITERATIONS:      500
 INTERPOLATION TYPE:            DIIS
 INTERPOLATION STEPS:              2 (START)      1 (STEP)
 LEVEL SHIFTS:                  0.00 (CLOSED)  0.00 (OPEN) 



 Orbital guess generated from atomic densities. Full valence occupancy:    9   2

 Molecular orbital dump at record        2100.2

 Initial occupancy:   7   1

 ITERATION    DDIFF          GRAD             ENERGY        2-EL.EN.            DIPOLE MOMENTS         DIIS   ORB.
    1      0.000D+00      0.000D+00      -129.77836530    153.910798    0.00000    0.58438   -1.05333    0    start
    2      0.000D+00      0.137D-01      -129.80512799    155.056894    0.00000    0.61872   -0.21735    1    diag
    3      0.188D-01      0.106D-01      -129.82834982    155.185026    0.00000    0.56221   -0.60613    2    diag
    4      0.917D-02      0.157D-02      -129.82909897    154.914072    0.00000    0.57081   -0.54578    3    diag
    5      0.167D-02      0.522D-03      -129.82921695    155.000438    0.00000    0.57623   -0.54681    4    diag
    6      0.728D-03      0.155D-03      -129.82923650    154.985505    0.00000    0.57674   -0.54250    5    diag
    7      0.283D-03      0.782D-04      -129.82924231    154.987735    0.00000    0.57796   -0.53992    6    diag
    8      0.196D-03      0.255D-04      -129.82924289    154.987014    0.00000    0.57797   -0.53907    7    diag
    9      0.682D-04      0.466D-05      -129.82924291    154.986891    0.00000    0.57792   -0.53890    8    diag
   10      0.133D-04      0.101D-05      -129.82924291    154.986874    0.00000    0.57788   -0.53888    9    orth
   11      0.285D-05      0.198D-06      -129.82924291    154.986870    0.00000    0.57788   -0.53887    9    diag
   12      0.519D-06      0.420D-07      -129.82924291    154.986868    0.00000    0.57788   -0.53887    9    diag
   13      0.115D-06      0.106D-07      -129.82924291    154.986868    0.00000    0.57788   -0.53887    9    diag
   14      0.290D-07      0.190D-08      -129.82924291    154.986868    0.00000    0.57788   -0.53887    9    diag
   15      0.445D-08      0.480D-09      -129.82924291    154.986868    0.00000    0.57788   -0.53887    9    diag
   16      0.107D-08      0.112D-09      -129.82924291    154.986868    0.00000    0.57788   -0.53887    9    diag
   17      0.171D-09      0.305D-10      -129.82924291    154.986868    0.00000    0.57788   -0.53887    9    diag
   18      0.486D-10      0.978D-11      -129.82924291    154.986868    0.00000    0.57788   -0.53887    9    diag
   19      0.201D-10      0.182D-11      -129.82924291    154.986868    0.00000    0.57788   -0.53887    9    fixocc
   20      0.424D-11      0.240D-12      -129.82924291    154.986868    0.00000    0.57788   -0.53887    0    orth

 Final occupancy:   7   1

 !RHF STATE 1.1 Energy               -129.829242911771
 Nuclear energy                        30.24537711
 One-electron energy                 -237.56805392
 Two-electron energy                   77.49343390
 Virial quotient                       -0.99985178
 !RHF STATE 1.1 Dipole moment           0.00000000     0.57787526    -0.53887150
 Dipole moment /Debye                   0.00000000     1.46871619    -1.36958502

 Orbital energies:

         1.1          2.1          3.1          4.1          5.1          6.1          7.1          8.1          9.1
    -20.648336   -15.709451    -1.522167    -0.990548    -0.741179    -0.660466    -0.428460     0.143579     0.369297

         1.2          2.2          3.2
     -0.589986     0.084535     0.613459

 HOMO      7.1    -0.428460 =     -11.6590eV
 LUMO      2.2     0.084535 =       2.3003eV
 LUMO-HOMO         0.512995 =      13.9593eV


 **********************************************************************************************************************************
 DATASETS  * FILE   NREC   LENGTH (MB)   RECORD NAMES
              1      19       35.89       500      610      700      900      950      970     1000      129      960     1100   
                                          VAR    BASINP    GEOM    SYMINP    ZMAT    AOBASIS   BASIS     P2S    ABASIS      S 
                                         1400     1410     1200     1210     1080     1600     1650     1300     1700   
                                           T        V       H0       H01     AOSYM     SMH    MOLCAS    ERIS     OPER   

              2       4        2.85       700     1000      520     2100   
                                         GEOM     BASIS   MCVARS     RHF  

 PROGRAMS   *        TOTAL        HF       INT
 CPU TIMES  *         1.01      0.27      0.61
 REAL TIME  *         1.73 SEC
 DISK USED  *        75.59 MB      
 **********************************************************************************************************************************


 PROGRAM * CCSD (Closed-shell coupled cluster)     Authors: C. Hampel, H.-J. Werner, 1991, M. Deegan, P.J. Knowles, 1992


 Convergence thresholds:  THRVAR = 1.00D-08  THRDEN = 1.00D-12

 CCSD(T)     terms to be evaluated (factor= 1.000)


 Number of core orbitals:           2 (   2   0 )
 Number of closed-shell orbitals:   6 (   5   1 )
 Number of external orbitals:      66 (  43  23 )

 Molecular orbitals read from record     2100.2  Type=RHF/CANONICAL (state 1.1)

 Number of N-1 electron functions:               6
 Number of N-2 electron functions:              21
 Number of singly external CSFs:               238
 Number of doubly external CSFs:             41002
 Total number of CSFs:                       41241

 Length of J-op  integral file:               0.00 MB
 Length of K-op  integral file:               0.25 MB
 Length of 3-ext integral record:             0.00 MB

 Memory could be reduced to 1.65 Mwords without degradation in triples

 Integral transformation finished. Total CPU:   0.04 sec, npass=  1  Memory used:   0.55 MW

 Reference energy:                   -129.82924291

 MP2 singlet pair energy:              -0.27420403
 MP2 triplet pair energy:              -0.16282752
 MP2 correlation energy:               -0.43703155
 MP2 total energy:                   -130.26627446

 SCS-MP2 correlation energy:           -0.43035973   (PS=  1.200000  PT=  0.333333)
 SCS-MP2 total energy:               -130.25960265

 ITER.      SQ.NORM     CORR.ENERGY   TOTAL ENERGY   ENERGY CHANGE        DEN1      VAR(S)    VAR(P)  DIIS     TIME  TIME/IT
   1      1.11910155    -0.44197231  -130.27121523    -0.00494077     0.01105426  0.30D-02  0.31D-02  1  1     0.10     0.06
   2      1.13008380    -0.44219560  -130.27143852    -0.00022329    -0.01240525  0.91D-04  0.51D-03  2  2     0.16     0.06
   3      1.13648451    -0.44259089  -130.27183380    -0.00039528    -0.00302059  0.48D-04  0.52D-04  3  3     0.21     0.06
   4      1.13934916    -0.44261748  -130.27186040    -0.00002660    -0.00097547  0.41D-05  0.90D-05  4  4     0.27     0.06
   5      1.14037275    -0.44264798  -130.27189089    -0.00003049    -0.00021221  0.14D-05  0.17D-05  5  5     0.33     0.06
   6      1.14073712    -0.44263080  -130.27187371     0.00001718    -0.00004170  0.10D-06  0.40D-06  6  6     0.38     0.06
   7      1.14082189    -0.44263284  -130.27187575    -0.00000204    -0.00000187  0.12D-07  0.88D-07  6  1     0.44     0.06
   8      1.14085256    -0.44263274  -130.27187565     0.00000010     0.00000188  0.43D-08  0.11D-07  6  2     0.49     0.06
   9      1.14086051    -0.44263253  -130.27187544     0.00000021    -0.00000228  0.25D-08  0.12D-08  6  3     0.55     0.06
  10      1.14085928    -0.44263304  -130.27187595    -0.00000051     0.00000062  0.48D-09  0.21D-09  6  4     0.61     0.06
  11      1.14085756    -0.44263310  -130.27187601    -0.00000006     0.00000017  0.15D-09  0.23D-10  6  5     0.66     0.06
  12      1.14085616    -0.44263328  -130.27187619    -0.00000018     0.00000044  0.15D-10  0.76D-11  6  6     0.72     0.06
  13      1.14085554    -0.44263329  -130.27187620    -0.00000001     0.00000012  0.66D-11  0.12D-11  6  1     0.78     0.06
  14      1.14085515    -0.44263331  -130.27187622    -0.00000002     0.00000008  0.94D-12  0.43D-12  6  2     0.84     0.06
  15      1.14085500    -0.44263331  -130.27187622    -0.00000000     0.00000001  0.25D-12  0.14D-12  6  3     0.89     0.06
  16      1.14085489    -0.44263331  -130.27187623    -0.00000000     0.00000002  0.74D-14  0.35D-13  6  1     0.94     0.06
  17      1.14085488    -0.44263331  -130.27187622     0.00000000    -0.00000000  0.28D-14  0.24D-14  6  4     0.99     0.06
  18      1.14085487    -0.44263331  -130.27187623    -0.00000000     0.00000000  0.69D-15  0.42D-15  6  5     1.05     0.06
  19      1.14085487    -0.44263331  -130.27187623     0.00000000    -0.00000000  0.13D-15  0.79D-16  6  6     1.11     0.06
  20      1.14085487    -0.44263331  -130.27187623    -0.00000000     0.00000000  0.19D-16  0.19D-16  6  2     1.16     0.06
  21      1.14085487    -0.44263331  -130.27187623    -0.00000000     0.00000000  0.54D-18  0.14D-17  6  4     1.22     0.06
  22      1.14085487    -0.44263331  -130.27187623    -0.00000000     0.00000000  0.84D-19  0.14D-18  6  3     1.27     0.06
  23      1.14085487    -0.44263331  -130.27187623    -0.00000000     0.00000000  0.77D-20  0.15D-19  6  1     1.33     0.06
  24      1.14085487    -0.44263331  -130.27187623     0.00000000     0.00000000  0.41D-20  0.19D-20  6  6     1.39     0.06
  25      1.14085487    -0.44263331  -130.27187623     0.00000000    -0.00000000  0.25D-21  0.42D-21  6  4     1.44     0.06

 Norm of t1 vector:      0.07585853      S-energy:    -0.00000000      T1 diagnostic:  0.01548456
                                                                       D1 diagnostic:  0.04304228

 Doubles amplitudes (print threshold =  0.500E-01):

         I         J         SYM. A    SYM. B    A         B      T(IJ, AB)

         6         6         2         2         1         1     -0.14507245


 Total CPU time for triples:      0.37 sec


 RESULTS
 =======

  Reference energy                   -129.829242911771
  CCSD singlet pair energy             -0.303653958404
  CCSD triplet pair energy             -0.138979355114
  CCSD correlation energy              -0.442633313518

  Triples (T) contribution             -0.019940173703
  Total correlation energy             -0.462573487221

  CCSD total energy                  -130.271876225289
  CCSD[T] energy                     -130.292856160324
  CCSD-T energy                      -130.291412678736
 !CCSD(T) total energy               -130.291816398992

 Timing summary (sec):

 STEP                 CPU(USER)    SYS     CPU(TOT)    WALL
 Transformation          0.05      0.00      0.05      0.05
 CCSD iterations         1.40      0.09      1.49      1.49
 Triples                 0.37      0.01      0.38      0.38

 Program statistics:

 Available memory in ccsd:               994999756
 Min. memory needed in ccsd:                154850
 Max. memory used in ccsd:                  184802
 Max. memory used in cckext:                238416 (25 integral passes)



 **********************************************************************************************************************************
 DATASETS  * FILE   NREC   LENGTH (MB)   RECORD NAMES
              1      20       40.28       500      610      700      900      950      970     1000      129      960     1100   
                                          VAR    BASINP    GEOM    SYMINP    ZMAT    AOBASIS   BASIS     P2S    ABASIS      S 
                                         1400     1410     1200     1210     1080     1600     1650     1300     1700     1380   
                                           T        V       H0       H01     AOSYM     SMH    MOLCAS    ERIS     OPER     JKOP   

              2       4        2.85       700     1000      520     2100   
                                         GEOM     BASIS   MCVARS     RHF  

 PROGRAMS   *        TOTAL   CCSD(T)        HF       INT
 CPU TIMES  *         2.86      1.85      0.27      0.61
 REAL TIME  *         3.70 SEC
 DISK USED  *        75.59 MB      
 **********************************************************************************************************************************

 CCSD(T)/cc-pVTZ-DK energy=   -130.291816398992

        CCSD(T)         HF-SCF  
   -130.29181640   -129.82924291
 **********************************************************************************************************************************
 Molpro calculation terminated
 Variable memory released
