
 Primary working directories    : /tmp/r2666/282548.maple
 Secondary working directories  : /tmp/r2666/282548.maple
 Wavefunction directory         : /ddn/home4/r2666/wfu/
 Main file repository           : /tmp/r2666/282548.maple/

 SHA1      : d5ffa45e93fdbca01ffc919aa182cfdae0147319
 NAME      : 2015.1.35
 ARCHNAME  : linux/x86_64
 FC        : /opt/intel/composer_xe_2015.1.133/bin/intel64/ifort
 BLASLIB   : -Wl,-_start-group /opt/intel/mkl/lib/intel64/libmkl_intel_ilp64.a /opt/intel/mkl/lib/intel64/libmkl_intel_thread.a /opt/intel/mkl/lib/intel64/libmkl_core.a -Wl,-_end-group
 id        : olemiss

 Nodes     nprocs
 cn056        1

 Using customized tuning parameters: mindgm=1; mindgv=20; mindgc=4; mindgr=1; noblas=0; minvec=7
 default implementation of scratch files=df  

 ***,hno CCSD(T)/TZ-F12 QFF
 memory, 995, m;
 gthresh,energy=1.d-12,zero=1.d-22,oneint=1.d-22,twoint=1.d-22;
 gthresh,optgrad=1.d-8,optstep=1.d-8;
 nocompress;
 geomtyp=xyz
 bohr
 geometry={
 3
         58        58
 H        0.0000000000        1.6660436853       -1.9270175150
 N        0.0000000000       -0.1613156255       -1.1439939083
 O        0.0000000000        0.0370397302        1.1204218323
 }
 
 basis=vtz-dk
 dkroll=0
   {hf,maxit=500;accu,20;}
 {ccsd(t),nocheck,maxit=250;orbital,IGNORE_ERROR;}

 Variables initialized (889), CPU time= 0.01 sec
 Commands  initialized (702), CPU time= 0.00 sec, 572 directives.
 Default parameters read. Elapsed time= 0.06 sec

 Checking input...
 Passed
1


                                         ***  PROGRAM SYSTEM MOLPRO  ***
                                       Copyright, TTI GmbH Stuttgart, 2015
                                    Version 2015.1 linked Jul  9 2018 13:16:40


 **********************************************************************************************************************************
 LABEL *   hno CCSD(T)/TZ-F12 QFF                                                        
  64 bit serial version                                                                  DATE: 04-Mar-20          TIME: 13:50:54  
 **********************************************************************************************************************************

 SHA1:             d5ffa45e93fdbca01ffc919aa182cfdae0147319
 **********************************************************************************************************************************

 THRESHOLDS:

 ZERO    =  1.00D-22  ONEINT  =  1.00D-22  TWOINT  =  1.00D-22  PREFAC  =  1.00D-14  LOCALI  =  1.00D-09  EORDER  =  1.00D-04
 ENERGY  =  1.00D-12  ETEST   =  0.00D+00  EDENS   =  0.00D+00  THRDEDEF=  1.00D-06  GRADIENT=  1.00D-02  STEP    =  1.00D-03
 ORBITAL =  1.00D-05  CIVEC   =  1.00D-05  COEFF   =  1.00D-04  PRINTCI =  5.00D-02  PUNCHCI =  9.90D+01  OPTGRAD =  3.00D-04
 OPTENERG=  1.00D-06  OPTSTEP =  3.00D-04  THRGRAD =  1.00D-10  COMPRESS=  1.00D-11  VARMIN  =  1.00D-07  VARMAX  =  1.00D-03
 THRDOUB =  0.00D+00  THRDIV  =  1.00D-05  THRRED  =  1.00D-07  THRPSP  =  1.00D+00  THRDC   =  1.00D-10  THRCS   =  1.00D-10
 THRNRM  =  1.00D-08  THREQ   =  0.00D+00  THRDE   =  1.00D+00  THRREF  =  1.00D-05  SPARFAC =  1.00D+00  THRDLP  =  1.00D-07
 THRDIA  =  1.00D-10  THRDLS  =  1.00D-07  THRGPS  =  0.00D+00  THRKEX  =  0.00D+00  THRDIS  =  2.00D-01  THRVAR  =  1.00D-10
 THRLOC  =  1.00D-06  THRGAP  =  1.00D-06  THRLOCT = -1.00D+00  THRGAPT = -1.00D+00  THRORB  =  1.00D-06  THRMLTP =  0.00D+00
 THRCPQCI=  1.00D-10  KEXTA   =  0.00D+00  THRCOARS=  0.00D+00  SYMTOL  =  1.00D-06  GRADTOL =  1.00D-06  THROVL  =  1.00D-08
 THRORTH =  1.00D-08  GRID    =  1.00D-06  GRIDMAX =  1.00D-03  DTMAX   =  0.00D+00  THROCCDE=  1.00D-01  THROCCDE=  1.00D-01



 THRESHOLDS:

 ZERO    =  1.00D-22  ONEINT  =  1.00D-22  TWOINT  =  1.00D-22  PREFAC  =  1.00D-14  LOCALI  =  1.00D-09  EORDER  =  1.00D-04
 ENERGY  =  1.00D-12  ETEST   =  0.00D+00  EDENS   =  0.00D+00  THRDEDEF=  1.00D-06  GRADIENT=  1.00D-02  STEP    =  1.00D-03
 ORBITAL =  1.00D-05  CIVEC   =  1.00D-05  COEFF   =  1.00D-04  PRINTCI =  5.00D-02  PUNCHCI =  9.90D+01  OPTGRAD =  1.00D-08
 OPTENERG=  1.00D-06  OPTSTEP =  1.00D-08  THRGRAD =  1.00D-10  COMPRESS=  1.00D-11  VARMIN  =  1.00D-07  VARMAX  =  1.00D-03
 THRDOUB =  0.00D+00  THRDIV  =  1.00D-05  THRRED  =  1.00D-07  THRPSP  =  1.00D+00  THRDC   =  1.00D-10  THRCS   =  1.00D-10
 THRNRM  =  1.00D-08  THREQ   =  0.00D+00  THRDE   =  1.00D+00  THRREF  =  1.00D-05  SPARFAC =  1.00D+00  THRDLP  =  1.00D-07
 THRDIA  =  1.00D-10  THRDLS  =  1.00D-07  THRGPS  =  0.00D+00  THRKEX  =  0.00D+00  THRDIS  =  2.00D-01  THRVAR  =  1.00D-10
 THRLOC  =  1.00D-06  THRGAP  =  1.00D-06  THRLOCT = -1.00D+00  THRGAPT = -1.00D+00  THRORB  =  1.00D-06  THRMLTP =  0.00D+00
 THRCPQCI=  1.00D-10  KEXTA   =  0.00D+00  THRCOARS=  0.00D+00  SYMTOL  =  1.00D-06  GRADTOL =  1.00D-06  THROVL  =  1.00D-08
 THRORTH =  1.00D-08  GRID    =  1.00D-06  GRIDMAX =  1.00D-03  DTMAX   =  0.00D+00  THROCCDE=  1.00D-01  THROCCDE=  1.00D-01



 Input parameters for SORTINT:

 COMPRESS =    0.000000
 C_FINAL  =    1.000000
 DEBUG    =   -1.000000
 C_SORT1  =    0.000000
 C_SEWARD =    0.000000
 THRESH   =    0.000000
 IO       =  molpro                                                          
 SPRI     =    0.000000
 SETTING GEOMTYP        =    XYZ
 ZUNIT=BOHR
 

 Variable memory set to  995000000 words,  buffer space   230000 words

 SETTING BASIS          =    VTZ-DK
 SETTING DKROLL         =     0.00000000D+00                                  


 Recomputing integrals since basis changed


 Using spherical harmonics

 Library entry H      S cc-pVTZ-DK           selected for orbital group  1
 Library entry H      P cc-pVTZ-DK           selected for orbital group  1
 Library entry H      D cc-pVTZ-DK           selected for orbital group  1
 Library entry N      S cc-pVTZ-DK           selected for orbital group  2
 Library entry N      P cc-pVTZ-DK           selected for orbital group  2
 Library entry N      D cc-pVTZ-DK           selected for orbital group  2
 Library entry N      F cc-pVTZ-DK           selected for orbital group  2
 Library entry O      S cc-pVTZ-DK           selected for orbital group  3
 Library entry O      P cc-pVTZ-DK           selected for orbital group  3
 Library entry O      D cc-pVTZ-DK           selected for orbital group  3
 Library entry O      F cc-pVTZ-DK           selected for orbital group  3


 PROGRAM * SEWARD (Integral evaluation for generally contracted gaussian basis sets)     Author: Roland Lindh, 1990

 Geometry written to block  1 of record 700


 Point group  Cs  



 ATOMIC COORDINATES

 NR  ATOM    CHARGE       X              Y              Z

   1  H       1.00    0.000000000    1.666043685   -1.927017515
   2  N       7.00    0.000000000   -0.161315626   -1.143993908
   3  O       8.00    0.000000000    0.037039730    1.120421832

 Bond lengths in Bohr (Angstrom)

 1-2  1.988056342  2-3  2.273086776
     ( 1.052034110)     ( 1.202865721)

 Bond angles

  1-2-3  108.18899349

 NUCLEAR CHARGE:                   16
 NUMBER OF PRIMITIVE AOS:         111
 NUMBER OF SYMMETRY AOS:          100
 NUMBER OF CONTRACTIONS:           74   (  50A'  +  24A"  )
 NUMBER OF CORE ORBITALS:           2   (   2A'  +   0A"  )
 NUMBER OF VALENCE ORBITALS:        9   (   7A'  +   2A"  )


 NUCLEAR REPULSION ENERGY   30.47227392

 Eigenvalues of metric

         1 0.243E-02 0.395E-02 0.408E-02 0.833E-02 0.130E-01 0.324E-01 0.423E-01 0.463E-01
         2 0.340E-01 0.464E-01 0.101E+00 0.111E+00 0.232E+00 0.341E+00 0.394E+00 0.448E+00


 Contracted 2-electron integrals neglected if value below      1.0D-22

        1874283. INTEGRALS WRITTEN OUT IN     458 BLOCKS ON RECORD 1290 OF FILE 1


 NUMBER OF SORTED TWO-ELECTRON INTEGRALS:    2006100.     BUFFER LENGTH:  32768
 NUMBER OF SEGMENTS:   1  SEGMENT LENGTH:    2006100      RECORD LENGTH: 524288

 Memory used in sort:       2.56 MW

 SORT1 READ     1874283. AND WROTE     1914195. INTEGRALS IN      6 RECORDS. CPU TIME:     0.06 SEC, REAL TIME:     0.08 SEC
 SORT2 READ     1914195. AND WROTE     2006100. INTEGRALS IN      1 RECORDS. CPU TIME:     0.06 SEC, REAL TIME:     0.07 SEC

 FILE SIZES:   FILE 1:    50.1 MBYTE,  FILE 4:    25.2 MBYTE,   TOTAL:     75.3 MBYTE

 OPERATOR DM      FOR CENTER  0  COORDINATES:    0.000000    0.000000    0.000000


 **********************************************************************************************************************************
 DATASETS  * FILE   NREC   LENGTH (MB)   RECORD NAMES
              1      19       35.89       500      610      700      900      950      970     1000      129      960     1100   
                                          VAR    BASINP    GEOM    SYMINP    ZMAT    AOBASIS   BASIS     P2S    ABASIS      S 
                                         1400     1410     1200     1210     1080     1600     1650     1300     1700   
                                           T        V       H0       H01     AOSYM     SMH    MOLCAS    ERIS     OPER   

 PROGRAMS   *        TOTAL       INT
 CPU TIMES  *         0.80      0.68
 REAL TIME  *         1.48 SEC
 DISK USED  *        75.59 MB      
 **********************************************************************************************************************************


 PROGRAM * RHF-SCF (CLOSED SHELL)       Authors: W. Meyer, H.-J. Werner


 NUMBER OF ELECTRONS:       8+    8-
 CONVERGENCE THRESHOLDS:    1.00E-10 (Density)    1.00E-13 (Energy)
 MAX. NUMBER OF ITERATIONS:      500
 INTERPOLATION TYPE:            DIIS
 INTERPOLATION STEPS:              2 (START)      1 (STEP)
 LEVEL SHIFTS:                  0.00 (CLOSED)  0.00 (OPEN) 



 Orbital guess generated from atomic densities. Full valence occupancy:    9   2

 Molecular orbital dump at record        2100.2

 Initial occupancy:   7   1

 ITERATION    DDIFF          GRAD             ENERGY        2-EL.EN.            DIPOLE MOMENTS         DIIS   ORB.
    1      0.000D+00      0.000D+00      -129.78166325    154.318899    0.00000    0.58814   -1.02216    0    start
    2      0.000D+00      0.135D-01      -129.80871341    155.480167    0.00000    0.61216   -0.22707    1    diag
    3      0.184D-01      0.102D-01      -129.83001597    155.588590    0.00000    0.56124   -0.59474    2    diag
    4      0.887D-02      0.155D-02      -129.83074681    155.324960    0.00000    0.56980   -0.53584    3    diag
    5      0.166D-02      0.512D-03      -129.83086005    155.410297    0.00000    0.57520   -0.53711    4    diag
    6      0.715D-03      0.152D-03      -129.83087865    155.395616    0.00000    0.57577   -0.53302    5    diag
    7      0.277D-03      0.757D-04      -129.83088401    155.397938    0.00000    0.57701   -0.53058    6    diag
    8      0.190D-03      0.239D-04      -129.83088450    155.397269    0.00000    0.57702   -0.52980    7    diag
    9      0.626D-04      0.434D-05      -129.83088452    155.397157    0.00000    0.57697   -0.52965    8    diag
   10      0.121D-04      0.968D-06      -129.83088452    155.397140    0.00000    0.57694   -0.52963    9    orth
   11      0.276D-05      0.190D-06      -129.83088452    155.397136    0.00000    0.57693   -0.52963    9    diag
   12      0.505D-06      0.392D-07      -129.83088452    155.397134    0.00000    0.57693   -0.52963    9    diag
   13      0.110D-06      0.963D-08      -129.83088452    155.397134    0.00000    0.57693   -0.52962    9    diag
   14      0.271D-07      0.175D-08      -129.83088452    155.397134    0.00000    0.57693   -0.52962    9    diag
   15      0.442D-08      0.459D-09      -129.83088452    155.397134    0.00000    0.57693   -0.52962    9    diag
   16      0.106D-08      0.116D-09      -129.83088452    155.397134    0.00000    0.57693   -0.52962    9    diag
   17      0.197D-09      0.334D-10      -129.83088452    155.397134    0.00000    0.57693   -0.52962    9    diag
   18      0.624D-10      0.112D-10      -129.83088452    155.397134    0.00000    0.57693   -0.52962    0    orth

 Final occupancy:   7   1

 !RHF STATE 1.1 Energy               -129.830884522737
 Nuclear energy                        30.47227392
 One-electron energy                 -238.00172550
 Two-electron energy                   77.69856706
 Virial quotient                       -0.99952375
 !RHF STATE 1.1 Dipole moment           0.00000000     0.57693032    -0.52962458
 Dipole moment /Debye                   0.00000000     1.46631456    -1.34608324

 Orbital energies:

         1.1          2.1          3.1          4.1          5.1          6.1          7.1          8.1          9.1
    -20.647421   -15.706929    -1.530098    -0.989791    -0.744749    -0.663429    -0.425321     0.144372     0.370702

         1.2          2.2          3.2
     -0.594557     0.088199     0.612419

 HOMO      7.1    -0.425321 =     -11.5736eV
 LUMO      2.2     0.088199 =       2.4000eV
 LUMO-HOMO         0.513519 =      13.9736eV


 **********************************************************************************************************************************
 DATASETS  * FILE   NREC   LENGTH (MB)   RECORD NAMES
              1      19       35.89       500      610      700      900      950      970     1000      129      960     1100   
                                          VAR    BASINP    GEOM    SYMINP    ZMAT    AOBASIS   BASIS     P2S    ABASIS      S 
                                         1400     1410     1200     1210     1080     1600     1650     1300     1700   
                                           T        V       H0       H01     AOSYM     SMH    MOLCAS    ERIS     OPER   

              2       4        2.85       700     1000      520     2100   
                                         GEOM     BASIS   MCVARS     RHF  

 PROGRAMS   *        TOTAL        HF       INT
 CPU TIMES  *         1.05      0.25      0.68
 REAL TIME  *         1.80 SEC
 DISK USED  *        75.59 MB      
 **********************************************************************************************************************************


 PROGRAM * CCSD (Closed-shell coupled cluster)     Authors: C. Hampel, H.-J. Werner, 1991, M. Deegan, P.J. Knowles, 1992


 Convergence thresholds:  THRVAR = 1.00D-08  THRDEN = 1.00D-12

 CCSD(T)     terms to be evaluated (factor= 1.000)


 Number of core orbitals:           2 (   2   0 )
 Number of closed-shell orbitals:   6 (   5   1 )
 Number of external orbitals:      66 (  43  23 )

 Molecular orbitals read from record     2100.2  Type=RHF/CANONICAL (state 1.1)

 Number of N-1 electron functions:               6
 Number of N-2 electron functions:              21
 Number of singly external CSFs:               238
 Number of doubly external CSFs:             41002
 Total number of CSFs:                       41241

 Length of J-op  integral file:               0.00 MB
 Length of K-op  integral file:               0.25 MB
 Length of 3-ext integral record:             0.00 MB

 Memory could be reduced to 1.65 Mwords without degradation in triples

 Integral transformation finished. Total CPU:   0.05 sec, npass=  1  Memory used:   0.55 MW

 Reference energy:                   -129.83088452

 MP2 singlet pair energy:              -0.27302772
 MP2 triplet pair energy:              -0.16206875
 MP2 correlation energy:               -0.43509647
 MP2 total energy:                   -130.26598099

 SCS-MP2 correlation energy:           -0.42847604   (PS=  1.200000  PT=  0.333333)
 SCS-MP2 total energy:               -130.25936057

 ITER.      SQ.NORM     CORR.ENERGY   TOTAL ENERGY   ENERGY CHANGE        DEN1      VAR(S)    VAR(P)  DIIS     TIME  TIME/IT
   1      1.11786062    -0.44042850  -130.27131302    -0.00533203     0.01021705  0.29D-02  0.29D-02  1  1     0.12     0.06
   2      1.12857181    -0.44072749  -130.27161201    -0.00029899    -0.01214383  0.85D-04  0.49D-03  2  2     0.18     0.06
   3      1.13473995    -0.44110500  -130.27198952    -0.00037751    -0.00294104  0.46D-04  0.50D-04  3  3     0.25     0.06
   4      1.13748157    -0.44113087  -130.27201539    -0.00002587    -0.00094101  0.38D-05  0.87D-05  4  4     0.30     0.06
   5      1.13844644    -0.44115932  -130.27204384    -0.00002845    -0.00019979  0.13D-05  0.17D-05  5  5     0.36     0.06
   6      1.13879750    -0.44114342  -130.27202794     0.00001590    -0.00003970  0.95D-07  0.41D-06  6  6     0.42     0.07
   7      1.13888290    -0.44114535  -130.27202988    -0.00000194    -0.00000226  0.12D-07  0.85D-07  6  1     0.48     0.07
   8      1.13891317    -0.44114540  -130.27202993    -0.00000005     0.00000192  0.44D-08  0.99D-08  6  2     0.55     0.07
   9      1.13892072    -0.44114521  -130.27202974     0.00000019    -0.00000225  0.24D-08  0.11D-08  6  3     0.61     0.07
  10      1.13891948    -0.44114571  -130.27203023    -0.00000049     0.00000061  0.47D-09  0.20D-09  6  4     0.68     0.07
  11      1.13891778    -0.44114577  -130.27203029    -0.00000006     0.00000018  0.14D-09  0.22D-10  6  5     0.74     0.07
  12      1.13891642    -0.44114594  -130.27203046    -0.00000017     0.00000042  0.15D-10  0.73D-11  6  6     0.80     0.07
  13      1.13891582    -0.44114594  -130.27203047    -0.00000001     0.00000012  0.65D-11  0.12D-11  6  1     0.85     0.07
  14      1.13891545    -0.44114596  -130.27203049    -0.00000002     0.00000007  0.90D-12  0.41D-12  6  2     0.91     0.07
  15      1.13891531    -0.44114596  -130.27203049    -0.00000000     0.00000001  0.23D-12  0.14D-12  6  3     0.96     0.07
  16      1.13891522    -0.44114597  -130.27203049    -0.00000000     0.00000001  0.24D-13  0.15D-13  6  5     1.02     0.07
  17      1.13891519    -0.44114597  -130.27203049    -0.00000000     0.00000000  0.73D-15  0.21D-14  6  4     1.08     0.07
  18      1.13891519    -0.44114597  -130.27203049     0.00000000    -0.00000000  0.48D-15  0.30D-15  6  1     1.14     0.07
  19      1.13891519    -0.44114597  -130.27203049    -0.00000000     0.00000000  0.44D-16  0.54D-16  6  6     1.19     0.07
  20      1.13891519    -0.44114597  -130.27203049    -0.00000000     0.00000000  0.94D-17  0.13D-16  6  2     1.25     0.07
  21      1.13891518    -0.44114597  -130.27203049    -0.00000000     0.00000000  0.18D-17  0.10D-17  6  5     1.31     0.07
  22      1.13891518    -0.44114597  -130.27203049     0.00000000     0.00000000  0.10D-18  0.76D-19  6  3     1.37     0.07
  23      1.13891518    -0.44114597  -130.27203049     0.00000000    -0.00000000  0.29D-19  0.16D-19  6  4     1.42     0.07
  24      1.13891518    -0.44114597  -130.27203049     0.00000000    -0.00000000  0.43D-20  0.45D-20  6  1     1.49     0.07
  25      1.13891518    -0.44114597  -130.27203049     0.00000000    -0.00000000  0.52D-21  0.78D-21  6  6     1.55     0.07

 Norm of t1 vector:      0.07420180      S-energy:     0.00000000      T1 diagnostic:  0.01514638
                                                                       D1 diagnostic:  0.04178337

 Doubles amplitudes (print threshold =  0.500E-01):

         I         J         SYM. A    SYM. B    A         B      T(IJ, AB)

         6         6         2         2         1         1     -0.14234692


 Total CPU time for triples:      0.44 sec


 RESULTS
 =======

  Reference energy                   -129.830884522737
  CCSD singlet pair energy             -0.302359788622
  CCSD triplet pair energy             -0.138786178889
  CCSD correlation energy              -0.441145967510

  Triples (T) contribution             -0.019612380655
  Total correlation energy             -0.460758348165

  CCSD total energy                  -130.272030490247
  CCSD[T] energy                     -130.292638251613
  CCSD-T energy                      -130.291250885336
 !CCSD(T) total energy               -130.291642870902

 Timing summary (sec):

 STEP                 CPU(USER)    SYS     CPU(TOT)    WALL
 Transformation          0.05      0.01      0.06      0.06
 CCSD iterations         1.50      0.16      1.66      1.66
 Triples                 0.44      0.02      0.46      0.45

 Program statistics:

 Available memory in ccsd:               994999756
 Min. memory needed in ccsd:                154850
 Max. memory used in ccsd:                  184802
 Max. memory used in cckext:                238416 (25 integral passes)



 **********************************************************************************************************************************
 DATASETS  * FILE   NREC   LENGTH (MB)   RECORD NAMES
              1      20       40.28       500      610      700      900      950      970     1000      129      960     1100   
                                          VAR    BASINP    GEOM    SYMINP    ZMAT    AOBASIS   BASIS     P2S    ABASIS      S 
                                         1400     1410     1200     1210     1080     1600     1650     1300     1700     1380   
                                           T        V       H0       H01     AOSYM     SMH    MOLCAS    ERIS     OPER     JKOP   

              2       4        2.85       700     1000      520     2100   
                                         GEOM     BASIS   MCVARS     RHF  

 PROGRAMS   *        TOTAL   CCSD(T)        HF       INT
 CPU TIMES  *         3.08      2.02      0.25      0.68
 REAL TIME  *         4.02 SEC
 DISK USED  *        75.59 MB      
 **********************************************************************************************************************************

 CCSD(T)/cc-pVTZ-DK energy=   -130.291642870902

        CCSD(T)         HF-SCF  
   -130.29164287   -129.83088452
 **********************************************************************************************************************************
 Molpro calculation terminated
 Variable memory released
