
 Primary working directories    : /tmp/r2666/282499.maple
 Secondary working directories  : /tmp/r2666/282499.maple
 Wavefunction directory         : /ddn/home4/r2666/wfu/
 Main file repository           : /tmp/r2666/282499.maple/

 SHA1      : d5ffa45e93fdbca01ffc919aa182cfdae0147319
 NAME      : 2015.1.35
 ARCHNAME  : linux/x86_64
 FC        : /opt/intel/composer_xe_2015.1.133/bin/intel64/ifort
 BLASLIB   : -Wl,-_start-group /opt/intel/mkl/lib/intel64/libmkl_intel_ilp64.a /opt/intel/mkl/lib/intel64/libmkl_intel_thread.a /opt/intel/mkl/lib/intel64/libmkl_core.a -Wl,-_end-group
 id        : olemiss

 Nodes     nprocs
 cn093        1

 Using customized tuning parameters: mindgm=1; mindgv=20; mindgc=4; mindgr=1; noblas=0; minvec=7
 default implementation of scratch files=df  

 ***,hno CCSD(T)/TZ-F12 QFF
 memory, 995, m;
 gthresh,energy=1.d-12,zero=1.d-22,oneint=1.d-22,twoint=1.d-22;
 gthresh,optgrad=1.d-8,optstep=1.d-8;
 nocompress;
 geomtyp=xyz
 bohr
 geometry={
 3
          9         9
 H        0.0000000000        1.6567190063       -1.9163002116
 N        0.0000000000       -0.1569350077       -1.1493278468
 O        0.0000000000        0.0419837913        1.1150384674
 }
 
 basis=vtz-dk
 dkroll=0
   {hf,maxit=500;accu,20;}
 {ccsd(t),nocheck,maxit=250;orbital,IGNORE_ERROR;}

 Variables initialized (889), CPU time= 0.01 sec
 Commands  initialized (702), CPU time= 0.02 sec, 572 directives.
 Default parameters read. Elapsed time= 0.06 sec

 Checking input...
 Passed
1


                                         ***  PROGRAM SYSTEM MOLPRO  ***
                                       Copyright, TTI GmbH Stuttgart, 2015
                                    Version 2015.1 linked Jul  9 2018 13:16:40


 **********************************************************************************************************************************
 LABEL *   hno CCSD(T)/TZ-F12 QFF                                                        
  64 bit serial version                                                                  DATE: 04-Mar-20          TIME: 13:50:45  
 **********************************************************************************************************************************

 SHA1:             d5ffa45e93fdbca01ffc919aa182cfdae0147319
 **********************************************************************************************************************************

 THRESHOLDS:

 ZERO    =  1.00D-22  ONEINT  =  1.00D-22  TWOINT  =  1.00D-22  PREFAC  =  1.00D-14  LOCALI  =  1.00D-09  EORDER  =  1.00D-04
 ENERGY  =  1.00D-12  ETEST   =  0.00D+00  EDENS   =  0.00D+00  THRDEDEF=  1.00D-06  GRADIENT=  1.00D-02  STEP    =  1.00D-03
 ORBITAL =  1.00D-05  CIVEC   =  1.00D-05  COEFF   =  1.00D-04  PRINTCI =  5.00D-02  PUNCHCI =  9.90D+01  OPTGRAD =  3.00D-04
 OPTENERG=  1.00D-06  OPTSTEP =  3.00D-04  THRGRAD =  1.00D-10  COMPRESS=  1.00D-11  VARMIN  =  1.00D-07  VARMAX  =  1.00D-03
 THRDOUB =  0.00D+00  THRDIV  =  1.00D-05  THRRED  =  1.00D-07  THRPSP  =  1.00D+00  THRDC   =  1.00D-10  THRCS   =  1.00D-10
 THRNRM  =  1.00D-08  THREQ   =  0.00D+00  THRDE   =  1.00D+00  THRREF  =  1.00D-05  SPARFAC =  1.00D+00  THRDLP  =  1.00D-07
 THRDIA  =  1.00D-10  THRDLS  =  1.00D-07  THRGPS  =  0.00D+00  THRKEX  =  0.00D+00  THRDIS  =  2.00D-01  THRVAR  =  1.00D-10
 THRLOC  =  1.00D-06  THRGAP  =  1.00D-06  THRLOCT = -1.00D+00  THRGAPT = -1.00D+00  THRORB  =  1.00D-06  THRMLTP =  0.00D+00
 THRCPQCI=  1.00D-10  KEXTA   =  0.00D+00  THRCOARS=  0.00D+00  SYMTOL  =  1.00D-06  GRADTOL =  1.00D-06  THROVL  =  1.00D-08
 THRORTH =  1.00D-08  GRID    =  1.00D-06  GRIDMAX =  1.00D-03  DTMAX   =  0.00D+00  THROCCDE=  1.00D-01  THROCCDE=  1.00D-01



 THRESHOLDS:

 ZERO    =  1.00D-22  ONEINT  =  1.00D-22  TWOINT  =  1.00D-22  PREFAC  =  1.00D-14  LOCALI  =  1.00D-09  EORDER  =  1.00D-04
 ENERGY  =  1.00D-12  ETEST   =  0.00D+00  EDENS   =  0.00D+00  THRDEDEF=  1.00D-06  GRADIENT=  1.00D-02  STEP    =  1.00D-03
 ORBITAL =  1.00D-05  CIVEC   =  1.00D-05  COEFF   =  1.00D-04  PRINTCI =  5.00D-02  PUNCHCI =  9.90D+01  OPTGRAD =  1.00D-08
 OPTENERG=  1.00D-06  OPTSTEP =  1.00D-08  THRGRAD =  1.00D-10  COMPRESS=  1.00D-11  VARMIN  =  1.00D-07  VARMAX  =  1.00D-03
 THRDOUB =  0.00D+00  THRDIV  =  1.00D-05  THRRED  =  1.00D-07  THRPSP  =  1.00D+00  THRDC   =  1.00D-10  THRCS   =  1.00D-10
 THRNRM  =  1.00D-08  THREQ   =  0.00D+00  THRDE   =  1.00D+00  THRREF  =  1.00D-05  SPARFAC =  1.00D+00  THRDLP  =  1.00D-07
 THRDIA  =  1.00D-10  THRDLS  =  1.00D-07  THRGPS  =  0.00D+00  THRKEX  =  0.00D+00  THRDIS  =  2.00D-01  THRVAR  =  1.00D-10
 THRLOC  =  1.00D-06  THRGAP  =  1.00D-06  THRLOCT = -1.00D+00  THRGAPT = -1.00D+00  THRORB  =  1.00D-06  THRMLTP =  0.00D+00
 THRCPQCI=  1.00D-10  KEXTA   =  0.00D+00  THRCOARS=  0.00D+00  SYMTOL  =  1.00D-06  GRADTOL =  1.00D-06  THROVL  =  1.00D-08
 THRORTH =  1.00D-08  GRID    =  1.00D-06  GRIDMAX =  1.00D-03  DTMAX   =  0.00D+00  THROCCDE=  1.00D-01  THROCCDE=  1.00D-01



 Input parameters for SORTINT:

 COMPRESS =    0.000000
 C_FINAL  =    1.000000
 DEBUG    =   -1.000000
 C_SORT1  =    0.000000
 C_SEWARD =    0.000000
 THRESH   =    0.000000
 IO       =  molpro                                                          
 SPRI     =    0.000000
 SETTING GEOMTYP        =    XYZ
 ZUNIT=BOHR
 

 Variable memory set to  995000000 words,  buffer space   230000 words

 SETTING BASIS          =    VTZ-DK
 SETTING DKROLL         =     0.00000000D+00                                  


 Recomputing integrals since basis changed


 Using spherical harmonics

 Library entry H      S cc-pVTZ-DK           selected for orbital group  1
 Library entry H      P cc-pVTZ-DK           selected for orbital group  1
 Library entry H      D cc-pVTZ-DK           selected for orbital group  1
 Library entry N      S cc-pVTZ-DK           selected for orbital group  2
 Library entry N      P cc-pVTZ-DK           selected for orbital group  2
 Library entry N      D cc-pVTZ-DK           selected for orbital group  2
 Library entry N      F cc-pVTZ-DK           selected for orbital group  2
 Library entry O      S cc-pVTZ-DK           selected for orbital group  3
 Library entry O      P cc-pVTZ-DK           selected for orbital group  3
 Library entry O      D cc-pVTZ-DK           selected for orbital group  3
 Library entry O      F cc-pVTZ-DK           selected for orbital group  3


 PROGRAM * SEWARD (Integral evaluation for generally contracted gaussian basis sets)     Author: Roland Lindh, 1990

 Geometry written to block  1 of record 700


 Point group  Cs  



 ATOMIC COORDINATES

 NR  ATOM    CHARGE       X              Y              Z

   1  H       1.00    0.000000000    1.656719006   -1.916300212
   2  N       7.00    0.000000000   -0.156935008   -1.149327847
   3  O       8.00    0.000000000    0.041983791    1.115038467

 Bond lengths in Bohr (Angstrom)

 1-2  1.969159082  2-3  2.273086776
     ( 1.042034111)     ( 1.202865721)

 Bond angles

  1-2-3  107.90251459

 NUCLEAR CHARGE:                   16
 NUMBER OF PRIMITIVE AOS:         111
 NUMBER OF SYMMETRY AOS:          100
 NUMBER OF CONTRACTIONS:           74   (  50A'  +  24A"  )
 NUMBER OF CORE ORBITALS:           2   (   2A'  +   0A"  )
 NUMBER OF VALENCE ORBITALS:        9   (   7A'  +   2A"  )


 NUCLEAR REPULSION ENERGY   30.52016688

 Eigenvalues of metric

         1 0.240E-02 0.391E-02 0.408E-02 0.813E-02 0.128E-01 0.322E-01 0.422E-01 0.463E-01
         2 0.339E-01 0.463E-01 0.101E+00 0.109E+00 0.231E+00 0.337E+00 0.392E+00 0.447E+00


 Contracted 2-electron integrals neglected if value below      1.0D-22

        1874283. INTEGRALS WRITTEN OUT IN     458 BLOCKS ON RECORD 1290 OF FILE 1


 NUMBER OF SORTED TWO-ELECTRON INTEGRALS:    2006100.     BUFFER LENGTH:  32768
 NUMBER OF SEGMENTS:   1  SEGMENT LENGTH:    2006100      RECORD LENGTH: 524288

 Memory used in sort:       2.56 MW

 SORT1 READ     1874283. AND WROTE     1914195. INTEGRALS IN      6 RECORDS. CPU TIME:     0.04 SEC, REAL TIME:     0.05 SEC
 SORT2 READ     1914195. AND WROTE     2006100. INTEGRALS IN      1 RECORDS. CPU TIME:     0.05 SEC, REAL TIME:     0.06 SEC

 FILE SIZES:   FILE 1:    50.1 MBYTE,  FILE 4:    25.2 MBYTE,   TOTAL:     75.3 MBYTE

 OPERATOR DM      FOR CENTER  0  COORDINATES:    0.000000    0.000000    0.000000


 **********************************************************************************************************************************
 DATASETS  * FILE   NREC   LENGTH (MB)   RECORD NAMES
              1      19       35.89       500      610      700      900      950      970     1000      129      960     1100   
                                          VAR    BASINP    GEOM    SYMINP    ZMAT    AOBASIS   BASIS     P2S    ABASIS      S 
                                         1400     1410     1200     1210     1080     1600     1650     1300     1700   
                                           T        V       H0       H01     AOSYM     SMH    MOLCAS    ERIS     OPER   

 PROGRAMS   *        TOTAL       INT
 CPU TIMES  *         0.66      0.55
 REAL TIME  *         1.37 SEC
 DISK USED  *        75.59 MB      
 **********************************************************************************************************************************


 PROGRAM * RHF-SCF (CLOSED SHELL)       Authors: W. Meyer, H.-J. Werner


 NUMBER OF ELECTRONS:       8+    8-
 CONVERGENCE THRESHOLDS:    1.00E-10 (Density)    1.00E-13 (Energy)
 MAX. NUMBER OF ITERATIONS:      500
 INTERPOLATION TYPE:            DIIS
 INTERPOLATION STEPS:              2 (START)      1 (STEP)
 LEVEL SHIFTS:                  0.00 (CLOSED)  0.00 (OPEN) 



 Orbital guess generated from atomic densities. Full valence occupancy:    9   2

 Molecular orbital dump at record        2100.2

 Initial occupancy:   7   1

 ITERATION    DDIFF          GRAD             ENERGY        2-EL.EN.            DIPOLE MOMENTS         DIIS   ORB.
    1      0.000D+00      0.000D+00      -129.78235775    154.413090    0.00000    0.59200   -1.02006    0    start
    2      0.000D+00      0.134D-01      -129.80941191    155.562215    0.00000    0.61349   -0.22989    1    diag
    3      0.183D-01      0.101D-01      -129.83031080    155.673447    0.00000    0.56383   -0.59469    2    diag
    4      0.880D-02      0.155D-02      -129.83103905    155.411281    0.00000    0.57262   -0.53586    3    diag
    5      0.166D-02      0.510D-03      -129.83115052    155.495805    0.00000    0.57787   -0.53708    4    diag
    6      0.711D-03      0.151D-03      -129.83116872    155.481257    0.00000    0.57844   -0.53302    5    diag
    7      0.274D-03      0.752D-04      -129.83117399    155.483536    0.00000    0.57965   -0.53058    6    diag
    8      0.188D-03      0.237D-04      -129.83117447    155.482873    0.00000    0.57966   -0.52981    7    diag
    9      0.620D-04      0.427D-05      -129.83117449    155.482764    0.00000    0.57961   -0.52966    8    diag
   10      0.119D-04      0.951D-06      -129.83117450    155.482748    0.00000    0.57958   -0.52964    9    orth
   11      0.273D-05      0.186D-06      -129.83117450    155.482744    0.00000    0.57957   -0.52963    9    diag
   12      0.496D-06      0.383D-07      -129.83117450    155.482743    0.00000    0.57957   -0.52963    9    diag
   13      0.107D-06      0.937D-08      -129.83117450    155.482742    0.00000    0.57957   -0.52963    9    diag
   14      0.261D-07      0.170D-08      -129.83117450    155.482742    0.00000    0.57957   -0.52963    9    diag
   15      0.423D-08      0.440D-09      -129.83117450    155.482742    0.00000    0.57957   -0.52963    9    diag
   16      0.101D-08      0.109D-09      -129.83117450    155.482742    0.00000    0.57957   -0.52963    9    diag
   17      0.183D-09      0.306D-10      -129.83117450    155.482742    0.00000    0.57957   -0.52963    9    diag
   18      0.557D-10      0.102D-10      -129.83117450    155.482742    0.00000    0.57957   -0.52963    0    orth

 Final occupancy:   7   1

 !RHF STATE 1.1 Energy               -129.831174495125
 Nuclear energy                        30.52016688
 One-electron energy                 -238.09271250
 Two-electron energy                   77.74137112
 Virial quotient                       -0.99939890
 !RHF STATE 1.1 Dipole moment           0.00000000     0.57956733    -0.52963003
 Dipole moment /Debye                   0.00000000     1.47301673    -1.34609709

 Orbital energies:

         1.1          2.1          3.1          4.1          5.1          6.1          7.1          8.1          9.1
    -20.647136   -15.705610    -1.530355    -0.992163    -0.745836    -0.663355    -0.426092     0.145057     0.370650

         1.2          2.2          3.2
     -0.594437     0.088237     0.612421

 HOMO      7.1    -0.426092 =     -11.5946eV
 LUMO      2.2     0.088237 =       2.4011eV
 LUMO-HOMO         0.514330 =      13.9956eV


 **********************************************************************************************************************************
 DATASETS  * FILE   NREC   LENGTH (MB)   RECORD NAMES
              1      19       35.89       500      610      700      900      950      970     1000      129      960     1100   
                                          VAR    BASINP    GEOM    SYMINP    ZMAT    AOBASIS   BASIS     P2S    ABASIS      S 
                                         1400     1410     1200     1210     1080     1600     1650     1300     1700   
                                           T        V       H0       H01     AOSYM     SMH    MOLCAS    ERIS     OPER   

              2       4        2.85       700     1000      520     2100   
                                         GEOM     BASIS   MCVARS     RHF  

 PROGRAMS   *        TOTAL        HF       INT
 CPU TIMES  *         0.86      0.20      0.55
 REAL TIME  *         1.70 SEC
 DISK USED  *        75.59 MB      
 **********************************************************************************************************************************


 PROGRAM * CCSD (Closed-shell coupled cluster)     Authors: C. Hampel, H.-J. Werner, 1991, M. Deegan, P.J. Knowles, 1992


 Convergence thresholds:  THRVAR = 1.00D-08  THRDEN = 1.00D-12

 CCSD(T)     terms to be evaluated (factor= 1.000)


 Number of core orbitals:           2 (   2   0 )
 Number of closed-shell orbitals:   6 (   5   1 )
 Number of external orbitals:      66 (  43  23 )

 Molecular orbitals read from record     2100.2  Type=RHF/CANONICAL (state 1.1)

 Number of N-1 electron functions:               6
 Number of N-2 electron functions:              21
 Number of singly external CSFs:               238
 Number of doubly external CSFs:             41002
 Total number of CSFs:                       41241

 Length of J-op  integral file:               0.00 MB
 Length of K-op  integral file:               0.25 MB
 Length of 3-ext integral record:             0.00 MB

 Memory could be reduced to 1.65 Mwords without degradation in triples

 Integral transformation finished. Total CPU:   0.03 sec, npass=  1  Memory used:   0.55 MW

 Reference energy:                   -129.83117450

 MP2 singlet pair energy:              -0.27279508
 MP2 triplet pair energy:              -0.16193546
 MP2 correlation energy:               -0.43473054
 MP2 total energy:                   -130.26590504

 SCS-MP2 correlation energy:           -0.42811394   (PS=  1.200000  PT=  0.333333)
 SCS-MP2 total energy:               -130.25928843

 ITER.      SQ.NORM     CORR.ENERGY   TOTAL ENERGY   ENERGY CHANGE        DEN1      VAR(S)    VAR(P)  DIIS     TIME  TIME/IT
   1      1.11751713    -0.44008388  -130.27125838    -0.00535334     0.01010361  0.28D-02  0.29D-02  1  1     0.08     0.05
   2      1.12815732    -0.44038805  -130.27156255    -0.00030417    -0.01208751  0.84D-04  0.49D-03  2  2     0.12     0.05
   3      1.13425538    -0.44075759  -130.27193209    -0.00036954    -0.00291697  0.44D-04  0.49D-04  3  3     0.15     0.04
   4      1.13697155    -0.44078486  -130.27195935    -0.00002727    -0.00093311  0.36D-05  0.86D-05  4  4     0.18     0.04
   5      1.13791517    -0.44081250  -130.27198699    -0.00002764    -0.00019533  0.12D-05  0.17D-05  5  5     0.22     0.04
   6      1.13825842    -0.44079686  -130.27197135     0.00001564    -0.00003893  0.86D-07  0.41D-06  6  6     0.26     0.04
   7      1.13834127    -0.44079899  -130.27197349    -0.00000214    -0.00000206  0.10D-07  0.86D-07  6  1     0.30     0.04
   8      1.13837068    -0.44079904  -130.27197354    -0.00000005     0.00000208  0.46D-08  0.95D-08  6  2     0.34     0.04
   9      1.13837783    -0.44079891  -130.27197340     0.00000014    -0.00000229  0.24D-08  0.11D-08  6  3     0.37     0.04
  10      1.13837655    -0.44079938  -130.27197388    -0.00000048     0.00000065  0.46D-09  0.19D-09  6  4     0.40     0.04
  11      1.13837492    -0.44079944  -130.27197393    -0.00000006     0.00000015  0.14D-09  0.21D-10  6  5     0.44     0.04
  12      1.13837362    -0.44079960  -130.27197410    -0.00000017     0.00000041  0.14D-10  0.67D-11  6  6     0.47     0.04
  13      1.13837307    -0.44079961  -130.27197411    -0.00000001     0.00000011  0.59D-11  0.11D-11  6  1     0.51     0.04
  14      1.13837272    -0.44079963  -130.27197412    -0.00000002     0.00000007  0.83D-12  0.39D-12  6  2     0.54     0.04
  15      1.13837260    -0.44079963  -130.27197412    -0.00000000     0.00000001  0.21D-12  0.13D-12  6  3     0.58     0.04
  16      1.13837251    -0.44079963  -130.27197413    -0.00000000     0.00000001  0.22D-13  0.15D-13  6  5     0.61     0.04
  17      1.13837248    -0.44079963  -130.27197413    -0.00000000     0.00000000  0.74D-15  0.21D-14  6  4     0.65     0.04
  18      1.13837248    -0.44079963  -130.27197413     0.00000000    -0.00000000  0.48D-15  0.30D-15  6  1     0.68     0.04
  19      1.13837247    -0.44079963  -130.27197413    -0.00000000     0.00000000  0.44D-16  0.53D-16  6  6     0.71     0.04
  20      1.13837247    -0.44079963  -130.27197413    -0.00000000     0.00000000  0.94D-17  0.13D-16  6  2     0.76     0.04
  21      1.13837247    -0.44079963  -130.27197413    -0.00000000     0.00000000  0.16D-17  0.95D-18  6  5     0.78     0.04
  22      1.13837247    -0.44079963  -130.27197413    -0.00000000     0.00000000  0.99D-19  0.74D-19  6  3     0.82     0.04
  23      1.13837247    -0.44079963  -130.27197413     0.00000000    -0.00000000  0.29D-19  0.16D-19  6  4     0.86     0.04
  24      1.13837247    -0.44079963  -130.27197413     0.00000000    -0.00000000  0.43D-20  0.45D-20  6  1     0.90     0.04
  25      1.13837247    -0.44079963  -130.27197413     0.00000000    -0.00000000  0.48D-21  0.77D-21  6  6     0.93     0.04

 Norm of t1 vector:      0.07356910      S-energy:     0.00000000      T1 diagnostic:  0.01501723
                                                                       D1 diagnostic:  0.04172884

 Doubles amplitudes (print threshold =  0.500E-01):

         I         J         SYM. A    SYM. B    A         B      T(IJ, AB)

         6         6         2         2         1         1     -0.14245137


 Total CPU time for triples:      0.23 sec


 RESULTS
 =======

  Reference energy                   -129.831174495125
  CCSD singlet pair energy             -0.302061410559
  CCSD triplet pair energy             -0.138738221951
  CCSD correlation energy              -0.440799632509

  Triples (T) contribution             -0.019546177064
  Total correlation energy             -0.460345809573

  CCSD total energy                  -130.271974127634
  CCSD[T] energy                     -130.292503248433
  CCSD-T energy                      -130.291132856460
 !CCSD(T) total energy               -130.291520304698

 Timing summary (sec):

 STEP                 CPU(USER)    SYS     CPU(TOT)    WALL
 Transformation          0.03      0.01      0.04      0.23
 CCSD iterations         0.90      0.14      1.04      1.04
 Triples                 0.23      0.01      0.24      0.24

 Program statistics:

 Available memory in ccsd:               994999756
 Min. memory needed in ccsd:                154850
 Max. memory used in ccsd:                  184802
 Max. memory used in cckext:                238416 (25 integral passes)



 **********************************************************************************************************************************
 DATASETS  * FILE   NREC   LENGTH (MB)   RECORD NAMES
              1      20       40.28       500      610      700      900      950      970     1000      129      960     1100   
                                          VAR    BASINP    GEOM    SYMINP    ZMAT    AOBASIS   BASIS     P2S    ABASIS      S 
                                         1400     1410     1200     1210     1080     1600     1650     1300     1700     1380   
                                           T        V       H0       H01     AOSYM     SMH    MOLCAS    ERIS     OPER     JKOP   

              2       4        2.85       700     1000      520     2100   
                                         GEOM     BASIS   MCVARS     RHF  

 PROGRAMS   *        TOTAL   CCSD(T)        HF       INT
 CPU TIMES  *         2.08      1.22      0.20      0.55
 REAL TIME  *         3.79 SEC
 DISK USED  *        75.59 MB      
 **********************************************************************************************************************************

 CCSD(T)/cc-pVTZ-DK energy=   -130.291520304698

        CCSD(T)         HF-SCF  
   -130.29152030   -129.83117450
 **********************************************************************************************************************************
 Molpro calculation terminated
 Variable memory released
