
 Primary working directories    : /tmp/r2666/282497.maple
 Secondary working directories  : /tmp/r2666/282497.maple
 Wavefunction directory         : /ddn/home4/r2666/wfu/
 Main file repository           : /tmp/r2666/282497.maple/

 SHA1      : d5ffa45e93fdbca01ffc919aa182cfdae0147319
 NAME      : 2015.1.35
 ARCHNAME  : linux/x86_64
 FC        : /opt/intel/composer_xe_2015.1.133/bin/intel64/ifort
 BLASLIB   : -Wl,-_start-group /opt/intel/mkl/lib/intel64/libmkl_intel_ilp64.a /opt/intel/mkl/lib/intel64/libmkl_intel_thread.a /opt/intel/mkl/lib/intel64/libmkl_core.a -Wl,-_end-group
 id        : olemiss

 Nodes     nprocs
 cn053        1

 Using customized tuning parameters: mindgm=1; mindgv=20; mindgc=4; mindgr=1; noblas=0; minvec=7
 default implementation of scratch files=df  

 ***,hno CCSD(T)/TZ-F12 QFF
 memory, 995, m;
 gthresh,energy=1.d-12,zero=1.d-22,oneint=1.d-22,twoint=1.d-22;
 gthresh,optgrad=1.d-8,optstep=1.d-8;
 nocompress;
 geomtyp=xyz
 bohr
 geometry={
 3
          7         7
 H        0.0000000000        1.6539914510       -1.9206087434
 N        0.0000000000       -0.1508514330       -1.1570596483
 O        0.0000000000        0.0386277721        1.1270788007
 }
 
 basis=vtz-dk
 dkroll=0
   {hf,maxit=500;accu,20;}
 {ccsd(t),nocheck,maxit=250;orbital,IGNORE_ERROR;}

 Variables initialized (889), CPU time= 0.00 sec
 Commands  initialized (702), CPU time= 0.01 sec, 572 directives.
 Default parameters read. Elapsed time= 0.06 sec

 Checking input...
 Passed
1


                                         ***  PROGRAM SYSTEM MOLPRO  ***
                                       Copyright, TTI GmbH Stuttgart, 2015
                                    Version 2015.1 linked Jul  9 2018 13:16:40


 **********************************************************************************************************************************
 LABEL *   hno CCSD(T)/TZ-F12 QFF                                                        
  64 bit serial version                                                                  DATE: 04-Mar-20          TIME: 13:50:44  
 **********************************************************************************************************************************

 SHA1:             d5ffa45e93fdbca01ffc919aa182cfdae0147319
 **********************************************************************************************************************************

 THRESHOLDS:

 ZERO    =  1.00D-22  ONEINT  =  1.00D-22  TWOINT  =  1.00D-22  PREFAC  =  1.00D-14  LOCALI  =  1.00D-09  EORDER  =  1.00D-04
 ENERGY  =  1.00D-12  ETEST   =  0.00D+00  EDENS   =  0.00D+00  THRDEDEF=  1.00D-06  GRADIENT=  1.00D-02  STEP    =  1.00D-03
 ORBITAL =  1.00D-05  CIVEC   =  1.00D-05  COEFF   =  1.00D-04  PRINTCI =  5.00D-02  PUNCHCI =  9.90D+01  OPTGRAD =  3.00D-04
 OPTENERG=  1.00D-06  OPTSTEP =  3.00D-04  THRGRAD =  1.00D-10  COMPRESS=  1.00D-11  VARMIN  =  1.00D-07  VARMAX  =  1.00D-03
 THRDOUB =  0.00D+00  THRDIV  =  1.00D-05  THRRED  =  1.00D-07  THRPSP  =  1.00D+00  THRDC   =  1.00D-10  THRCS   =  1.00D-10
 THRNRM  =  1.00D-08  THREQ   =  0.00D+00  THRDE   =  1.00D+00  THRREF  =  1.00D-05  SPARFAC =  1.00D+00  THRDLP  =  1.00D-07
 THRDIA  =  1.00D-10  THRDLS  =  1.00D-07  THRGPS  =  0.00D+00  THRKEX  =  0.00D+00  THRDIS  =  2.00D-01  THRVAR  =  1.00D-10
 THRLOC  =  1.00D-06  THRGAP  =  1.00D-06  THRLOCT = -1.00D+00  THRGAPT = -1.00D+00  THRORB  =  1.00D-06  THRMLTP =  0.00D+00
 THRCPQCI=  1.00D-10  KEXTA   =  0.00D+00  THRCOARS=  0.00D+00  SYMTOL  =  1.00D-06  GRADTOL =  1.00D-06  THROVL  =  1.00D-08
 THRORTH =  1.00D-08  GRID    =  1.00D-06  GRIDMAX =  1.00D-03  DTMAX   =  0.00D+00  THROCCDE=  1.00D-01  THROCCDE=  1.00D-01



 THRESHOLDS:

 ZERO    =  1.00D-22  ONEINT  =  1.00D-22  TWOINT  =  1.00D-22  PREFAC  =  1.00D-14  LOCALI  =  1.00D-09  EORDER  =  1.00D-04
 ENERGY  =  1.00D-12  ETEST   =  0.00D+00  EDENS   =  0.00D+00  THRDEDEF=  1.00D-06  GRADIENT=  1.00D-02  STEP    =  1.00D-03
 ORBITAL =  1.00D-05  CIVEC   =  1.00D-05  COEFF   =  1.00D-04  PRINTCI =  5.00D-02  PUNCHCI =  9.90D+01  OPTGRAD =  1.00D-08
 OPTENERG=  1.00D-06  OPTSTEP =  1.00D-08  THRGRAD =  1.00D-10  COMPRESS=  1.00D-11  VARMIN  =  1.00D-07  VARMAX  =  1.00D-03
 THRDOUB =  0.00D+00  THRDIV  =  1.00D-05  THRRED  =  1.00D-07  THRPSP  =  1.00D+00  THRDC   =  1.00D-10  THRCS   =  1.00D-10
 THRNRM  =  1.00D-08  THREQ   =  0.00D+00  THRDE   =  1.00D+00  THRREF  =  1.00D-05  SPARFAC =  1.00D+00  THRDLP  =  1.00D-07
 THRDIA  =  1.00D-10  THRDLS  =  1.00D-07  THRGPS  =  0.00D+00  THRKEX  =  0.00D+00  THRDIS  =  2.00D-01  THRVAR  =  1.00D-10
 THRLOC  =  1.00D-06  THRGAP  =  1.00D-06  THRLOCT = -1.00D+00  THRGAPT = -1.00D+00  THRORB  =  1.00D-06  THRMLTP =  0.00D+00
 THRCPQCI=  1.00D-10  KEXTA   =  0.00D+00  THRCOARS=  0.00D+00  SYMTOL  =  1.00D-06  GRADTOL =  1.00D-06  THROVL  =  1.00D-08
 THRORTH =  1.00D-08  GRID    =  1.00D-06  GRIDMAX =  1.00D-03  DTMAX   =  0.00D+00  THROCCDE=  1.00D-01  THROCCDE=  1.00D-01



 Input parameters for SORTINT:

 COMPRESS =    0.000000
 C_FINAL  =    1.000000
 DEBUG    =   -1.000000
 C_SORT1  =    0.000000
 C_SEWARD =    0.000000
 THRESH   =    0.000000
 IO       =  molpro                                                          
 SPRI     =    0.000000
 SETTING GEOMTYP        =    XYZ
 ZUNIT=BOHR
 

 Variable memory set to  995000000 words,  buffer space   230000 words

 SETTING BASIS          =    VTZ-DK
 SETTING DKROLL         =     0.00000000D+00                                  


 Recomputing integrals since basis changed


 Using spherical harmonics

 Library entry H      S cc-pVTZ-DK           selected for orbital group  1
 Library entry H      P cc-pVTZ-DK           selected for orbital group  1
 Library entry H      D cc-pVTZ-DK           selected for orbital group  1
 Library entry N      S cc-pVTZ-DK           selected for orbital group  2
 Library entry N      P cc-pVTZ-DK           selected for orbital group  2
 Library entry N      D cc-pVTZ-DK           selected for orbital group  2
 Library entry N      F cc-pVTZ-DK           selected for orbital group  2
 Library entry O      S cc-pVTZ-DK           selected for orbital group  3
 Library entry O      P cc-pVTZ-DK           selected for orbital group  3
 Library entry O      D cc-pVTZ-DK           selected for orbital group  3
 Library entry O      F cc-pVTZ-DK           selected for orbital group  3


 PROGRAM * SEWARD (Integral evaluation for generally contracted gaussian basis sets)     Author: Roland Lindh, 1990

 Geometry written to block  1 of record 700


 Point group  Cs  



 ATOMIC COORDINATES

 NR  ATOM    CHARGE       X              Y              Z

   1  H       1.00    0.000000000    1.653991451   -1.920608743
   2  N       7.00    0.000000000   -0.150851433   -1.157059648
   3  O       8.00    0.000000000    0.038627772    1.127078801

 Bond lengths in Bohr (Angstrom)

 1-2  1.959710452  2-3  2.291984036
     ( 1.037034111)     ( 1.212865720)

 Bond angles

  1-2-3  108.18899349

 NUCLEAR CHARGE:                   16
 NUMBER OF PRIMITIVE AOS:         111
 NUMBER OF SYMMETRY AOS:          100
 NUMBER OF CONTRACTIONS:           74   (  50A'  +  24A"  )
 NUMBER OF CORE ORBITALS:           2   (   2A'  +   0A"  )
 NUMBER OF VALENCE ORBITALS:        9   (   7A'  +   2A"  )


 NUCLEAR REPULSION ENERGY   30.32423482

 Eigenvalues of metric

         1 0.241E-02 0.392E-02 0.423E-02 0.810E-02 0.127E-01 0.327E-01 0.427E-01 0.463E-01
         2 0.343E-01 0.464E-01 0.102E+00 0.109E+00 0.233E+00 0.336E+00 0.394E+00 0.449E+00


 Contracted 2-electron integrals neglected if value below      1.0D-22

        1874283. INTEGRALS WRITTEN OUT IN     458 BLOCKS ON RECORD 1290 OF FILE 1


 NUMBER OF SORTED TWO-ELECTRON INTEGRALS:    2006100.     BUFFER LENGTH:  32768
 NUMBER OF SEGMENTS:   1  SEGMENT LENGTH:    2006100      RECORD LENGTH: 524288

 Memory used in sort:       2.56 MW

 SORT1 READ     1874283. AND WROTE     1914195. INTEGRALS IN      6 RECORDS. CPU TIME:     0.06 SEC, REAL TIME:     0.08 SEC
 SORT2 READ     1914195. AND WROTE     2006100. INTEGRALS IN      1 RECORDS. CPU TIME:     0.06 SEC, REAL TIME:     0.08 SEC

 FILE SIZES:   FILE 1:    50.1 MBYTE,  FILE 4:    25.2 MBYTE,   TOTAL:     75.3 MBYTE

 OPERATOR DM      FOR CENTER  0  COORDINATES:    0.000000    0.000000    0.000000


 **********************************************************************************************************************************
 DATASETS  * FILE   NREC   LENGTH (MB)   RECORD NAMES
              1      19       35.89       500      610      700      900      950      970     1000      129      960     1100   
                                          VAR    BASINP    GEOM    SYMINP    ZMAT    AOBASIS   BASIS     P2S    ABASIS      S 
                                         1400     1410     1200     1210     1080     1600     1650     1300     1700   
                                           T        V       H0       H01     AOSYM     SMH    MOLCAS    ERIS     OPER   

 PROGRAMS   *        TOTAL       INT
 CPU TIMES  *         0.70      0.59
 REAL TIME  *         3.43 SEC
 DISK USED  *        75.59 MB      
 **********************************************************************************************************************************


 PROGRAM * RHF-SCF (CLOSED SHELL)       Authors: W. Meyer, H.-J. Werner


 NUMBER OF ELECTRONS:       8+    8-
 CONVERGENCE THRESHOLDS:    1.00E-10 (Density)    1.00E-13 (Energy)
 MAX. NUMBER OF ITERATIONS:      500
 INTERPOLATION TYPE:            DIIS
 INTERPOLATION STEPS:              2 (START)      1 (STEP)
 LEVEL SHIFTS:                  0.00 (CLOSED)  0.00 (OPEN) 



 Orbital guess generated from atomic densities. Full valence occupancy:    9   2

 Molecular orbital dump at record        2100.2

 Initial occupancy:   7   1

 ITERATION    DDIFF          GRAD             ENERGY        2-EL.EN.            DIPOLE MOMENTS         DIIS   ORB.
    1      0.000D+00      0.000D+00      -129.77996273    154.062410    0.00000    0.60187   -1.05088    0    start
    2      0.000D+00      0.135D-01      -129.80673633    155.190130    0.00000    0.62018   -0.22770    1    diag
    3      0.186D-01      0.104D-01      -129.82897303    155.322939    0.00000    0.57140   -0.61013    2    diag
    4      0.902D-02      0.157D-02      -129.82972004    155.054342    0.00000    0.57992   -0.54958    3    diag
    5      0.168D-02      0.516D-03      -129.82983400    155.139417    0.00000    0.58514   -0.55062    4    diag
    6      0.719D-03      0.152D-03      -129.82985261    155.124814    0.00000    0.58567   -0.54641    5    diag
    7      0.276D-03      0.768D-04      -129.82985818    155.126971    0.00000    0.58685   -0.54384    6    diag
    8      0.192D-03      0.249D-04      -129.82985874    155.126272    0.00000    0.58685   -0.54300    7    diag
    9      0.668D-04      0.452D-05      -129.82985876    155.126154    0.00000    0.58680   -0.54284    8    diag
   10      0.130D-04      0.987D-06      -129.82985876    155.126139    0.00000    0.58677   -0.54282    9    orth
   11      0.282D-05      0.192D-06      -129.82985876    155.126135    0.00000    0.58676   -0.54281    9    diag
   12      0.504D-06      0.404D-07      -129.82985876    155.126134    0.00000    0.58676   -0.54281    9    diag
   13      0.108D-06      0.102D-07      -129.82985876    155.126133    0.00000    0.58676   -0.54281    9    diag
   14      0.271D-07      0.183D-08      -129.82985876    155.126133    0.00000    0.58676   -0.54281    9    diag
   15      0.412D-08      0.467D-09      -129.82985876    155.126133    0.00000    0.58676   -0.54281    9    diag
   16      0.102D-08      0.113D-09      -129.82985876    155.126133    0.00000    0.58676   -0.54281    9    diag
   17      0.164D-09      0.308D-10      -129.82985876    155.126133    0.00000    0.58676   -0.54281    9    diag
   18      0.472D-10      0.102D-10      -129.82985876    155.126133    0.00000    0.58676   -0.54281    9    diag
   19      0.195D-10      0.219D-11      -129.82985876    155.126133    0.00000    0.58676   -0.54281    9    fixocc
   20      0.539D-11      0.419D-12      -129.82985876    155.126133    0.00000    0.58676   -0.54281    0    orth

 Final occupancy:   7   1

 !RHF STATE 1.1 Energy               -129.829858762161
 Nuclear energy                        30.32423482
 One-electron energy                 -237.71716023
 Two-electron energy                   77.56306665
 Virial quotient                       -0.99963622
 !RHF STATE 1.1 Dipole moment           0.00000000     0.58675865    -0.54281162
 Dipole moment /Debye                   0.00000000     1.49129406    -1.37959915

 Orbital energies:

         1.1          2.1          3.1          4.1          5.1          6.1          7.1          8.1          9.1
    -20.648086   -15.706602    -1.522114    -0.995996    -0.743317    -0.660554    -0.429235     0.144735     0.369272

         1.2          2.2          3.2
     -0.589609     0.084480     0.613545

 HOMO      7.1    -0.429235 =     -11.6801eV
 LUMO      2.2     0.084480 =       2.2988eV
 LUMO-HOMO         0.513716 =      13.9789eV


 **********************************************************************************************************************************
 DATASETS  * FILE   NREC   LENGTH (MB)   RECORD NAMES
              1      19       35.89       500      610      700      900      950      970     1000      129      960     1100   
                                          VAR    BASINP    GEOM    SYMINP    ZMAT    AOBASIS   BASIS     P2S    ABASIS      S 
                                         1400     1410     1200     1210     1080     1600     1650     1300     1700   
                                           T        V       H0       H01     AOSYM     SMH    MOLCAS    ERIS     OPER   

              2       4        2.85       700     1000      520     2100   
                                         GEOM     BASIS   MCVARS     RHF  

 PROGRAMS   *        TOTAL        HF       INT
 CPU TIMES  *         1.00      0.30      0.59
 REAL TIME  *         3.95 SEC
 DISK USED  *        75.59 MB      
 **********************************************************************************************************************************


 PROGRAM * CCSD (Closed-shell coupled cluster)     Authors: C. Hampel, H.-J. Werner, 1991, M. Deegan, P.J. Knowles, 1992


 Convergence thresholds:  THRVAR = 1.00D-08  THRDEN = 1.00D-12

 CCSD(T)     terms to be evaluated (factor= 1.000)


 Number of core orbitals:           2 (   2   0 )
 Number of closed-shell orbitals:   6 (   5   1 )
 Number of external orbitals:      66 (  43  23 )

 Molecular orbitals read from record     2100.2  Type=RHF/CANONICAL (state 1.1)

 Number of N-1 electron functions:               6
 Number of N-2 electron functions:              21
 Number of singly external CSFs:               238
 Number of doubly external CSFs:             41002
 Total number of CSFs:                       41241

 Length of J-op  integral file:               0.00 MB
 Length of K-op  integral file:               0.25 MB
 Length of 3-ext integral record:             0.00 MB

 Memory could be reduced to 1.65 Mwords without degradation in triples

 Integral transformation finished. Total CPU:   0.05 sec, npass=  1  Memory used:   0.55 MW

 Reference energy:                   -129.82985876

 MP2 singlet pair energy:              -0.27373717
 MP2 triplet pair energy:              -0.16256062
 MP2 correlation energy:               -0.43629779
 MP2 total energy:                   -130.26615655

 SCS-MP2 correlation energy:           -0.42963343   (PS=  1.200000  PT=  0.333333)
 SCS-MP2 total energy:               -130.25949219

 ITER.      SQ.NORM     CORR.ENERGY   TOTAL ENERGY   ENERGY CHANGE        DEN1      VAR(S)    VAR(P)  DIIS     TIME  TIME/IT
   1      1.11844817    -0.44128570  -130.27114446    -0.00498791     0.01084576  0.29D-02  0.30D-02  1  1     0.09     0.06
   2      1.12930849    -0.44151642  -130.27137519    -0.00023073    -0.01230435  0.89D-04  0.50D-03  2  2     0.16     0.06
   3      1.13559291    -0.44189868  -130.27175744    -0.00038226    -0.00297572  0.46D-04  0.51D-04  3  3     0.22     0.06
   4      1.13842284    -0.44192727  -130.27178603    -0.00002859    -0.00096320  0.38D-05  0.90D-05  4  4     0.28     0.06
   5      1.13941957    -0.44195640  -130.27181516    -0.00002913    -0.00020621  0.13D-05  0.17D-05  5  5     0.33     0.06
   6      1.13977563    -0.44193962  -130.27179839     0.00001677    -0.00004074  0.83D-07  0.42D-06  6  6     0.39     0.07
   7      1.13985806    -0.44194204  -130.27180080    -0.00000242    -0.00000166  0.96D-08  0.91D-07  6  1     0.45     0.07
   8      1.13988767    -0.44194201  -130.27180077     0.00000003     0.00000219  0.50D-08  0.11D-07  6  2     0.51     0.07
   9      1.13989515    -0.44194187  -130.27180064     0.00000014    -0.00000238  0.26D-08  0.12D-08  6  3     0.57     0.07
  10      1.13989380    -0.44194237  -130.27180113    -0.00000049     0.00000070  0.48D-09  0.20D-09  6  4     0.63     0.07
  11      1.13989216    -0.44194243  -130.27180119    -0.00000006     0.00000013  0.14D-09  0.22D-10  6  5     0.68     0.07
  12      1.13989084    -0.44194260  -130.27180136    -0.00000017     0.00000042  0.14D-10  0.68D-11  6  6     0.73     0.07
  13      1.13989027    -0.44194261  -130.27180137    -0.00000001     0.00000012  0.59D-11  0.11D-11  6  1     0.79     0.07
  14      1.13988991    -0.44194263  -130.27180139    -0.00000002     0.00000007  0.83D-12  0.41D-12  6  2     0.85     0.07
  15      1.13988977    -0.44194263  -130.27180139    -0.00000000     0.00000001  0.21D-12  0.13D-12  6  3     0.90     0.07
  16      1.13988968    -0.44194263  -130.27180139    -0.00000000     0.00000001  0.22D-13  0.16D-13  6  5     0.95     0.07
  17      1.13988965    -0.44194263  -130.27180139    -0.00000000     0.00000000  0.66D-15  0.19D-14  6  4     1.01     0.07
  18      1.13988965    -0.44194263  -130.27180139     0.00000000    -0.00000000  0.45D-15  0.26D-15  6  1     1.07     0.07
  19      1.13988965    -0.44194263  -130.27180139    -0.00000000     0.00000000  0.48D-16  0.49D-16  6  6     1.13     0.07
  20      1.13988965    -0.44194263  -130.27180139    -0.00000000     0.00000000  0.11D-16  0.13D-16  6  2     1.19     0.07
  21      1.13988964    -0.44194263  -130.27180139    -0.00000000     0.00000000  0.16D-17  0.99D-18  6  5     1.25     0.07
  22      1.13988964    -0.44194263  -130.27180139    -0.00000000     0.00000000  0.93D-19  0.78D-19  6  3     1.31     0.07
  23      1.13988964    -0.44194263  -130.27180139     0.00000000     0.00000000  0.27D-19  0.16D-19  6  4     1.36     0.07
  24      1.13988964    -0.44194263  -130.27180139     0.00000000    -0.00000000  0.40D-20  0.45D-20  6  1     1.42     0.07
  25      1.13988964    -0.44194263  -130.27180139     0.00000000    -0.00000000  0.53D-21  0.76D-21  6  6     1.47     0.07

 Norm of t1 vector:      0.07497406      S-energy:     0.00000000      T1 diagnostic:  0.01530402
                                                                       D1 diagnostic:  0.04303177

 Doubles amplitudes (print threshold =  0.500E-01):

         I         J         SYM. A    SYM. B    A         B      T(IJ, AB)

         6         6         2         2         1         1     -0.14532149


 Total CPU time for triples:      0.43 sec


 RESULTS
 =======

  Reference energy                   -129.829858762161
  CCSD singlet pair energy             -0.303059835075
  CCSD triplet pair energy             -0.138882796410
  CCSD correlation energy              -0.441942631485

  Triples (T) contribution             -0.019819538659
  Total correlation energy             -0.461762170144

  CCSD total energy                  -130.271801393646
  CCSD[T] energy                     -130.292642366869
  CCSD-T energy                      -130.291224520926
 !CCSD(T) total energy               -130.291620932305

 Timing summary (sec):

 STEP                 CPU(USER)    SYS     CPU(TOT)    WALL
 Transformation          0.05      0.01      0.06      0.14
 CCSD iterations         1.43      0.22      1.65      1.64
 Triples                 0.43      0.01      0.44      0.44

 Program statistics:

 Available memory in ccsd:               994999756
 Min. memory needed in ccsd:                154850
 Max. memory used in ccsd:                  184802
 Max. memory used in cckext:                238416 (25 integral passes)



 **********************************************************************************************************************************
 DATASETS  * FILE   NREC   LENGTH (MB)   RECORD NAMES
              1      20       40.28       500      610      700      900      950      970     1000      129      960     1100   
                                          VAR    BASINP    GEOM    SYMINP    ZMAT    AOBASIS   BASIS     P2S    ABASIS      S 
                                         1400     1410     1200     1210     1080     1600     1650     1300     1700     1380   
                                           T        V       H0       H01     AOSYM     SMH    MOLCAS    ERIS     OPER     JKOP   

              2       4        2.85       700     1000      520     2100   
                                         GEOM     BASIS   MCVARS     RHF  

 PROGRAMS   *        TOTAL   CCSD(T)        HF       INT
 CPU TIMES  *         2.94      1.94      0.30      0.59
 REAL TIME  *         6.57 SEC
 DISK USED  *        75.59 MB      
 **********************************************************************************************************************************

 CCSD(T)/cc-pVTZ-DK energy=   -130.291620932305

        CCSD(T)         HF-SCF  
   -130.29162093   -129.82985876
 **********************************************************************************************************************************
 Molpro calculation terminated
 Variable memory released
