
 Primary working directories    : /tmp/r2666/282493.maple
 Secondary working directories  : /tmp/r2666/282493.maple
 Wavefunction directory         : /ddn/home4/r2666/wfu/
 Main file repository           : /tmp/r2666/282493.maple/

 SHA1      : d5ffa45e93fdbca01ffc919aa182cfdae0147319
 NAME      : 2015.1.35
 ARCHNAME  : linux/x86_64
 FC        : /opt/intel/composer_xe_2015.1.133/bin/intel64/ifort
 BLASLIB   : -Wl,-_start-group /opt/intel/mkl/lib/intel64/libmkl_intel_ilp64.a /opt/intel/mkl/lib/intel64/libmkl_intel_thread.a /opt/intel/mkl/lib/intel64/libmkl_core.a -Wl,-_end-group
 id        : olemiss

 Nodes     nprocs
 cn086        1

 Using customized tuning parameters: mindgm=1; mindgv=20; mindgc=4; mindgr=1; noblas=0; minvec=7
 default implementation of scratch files=df  

 ***,hno CCSD(T)/TZ-F12 QFF
 memory, 995, m;
 gthresh,energy=1.d-12,zero=1.d-22,oneint=1.d-22,twoint=1.d-22;
 gthresh,optgrad=1.d-8,optstep=1.d-8;
 nocompress;
 geomtyp=xyz
 bohr
 geometry={
 3
          3         3
 H        0.0000000000        1.6523820087       -1.9162499726
 N        0.0000000000       -0.1511726387       -1.1496629322
 O        0.0000000000        0.0405584200        1.1153233138
 }
 
 basis=vtz-dk
 dkroll=0
   {hf,maxit=500;accu,20;}
 {ccsd(t),nocheck,maxit=250;orbital,IGNORE_ERROR;}

 Variables initialized (889), CPU time= 0.01 sec
 Commands  initialized (702), CPU time= 0.01 sec, 572 directives.
 Default parameters read. Elapsed time= 0.04 sec

 Checking input...
 Passed
1


                                         ***  PROGRAM SYSTEM MOLPRO  ***
                                       Copyright, TTI GmbH Stuttgart, 2015
                                    Version 2015.1 linked Jul  9 2018 13:16:40


 **********************************************************************************************************************************
 LABEL *   hno CCSD(T)/TZ-F12 QFF                                                        
  64 bit serial version                                                                  DATE: 04-Mar-20          TIME: 13:50:41  
 **********************************************************************************************************************************

 SHA1:             d5ffa45e93fdbca01ffc919aa182cfdae0147319
 **********************************************************************************************************************************

 THRESHOLDS:

 ZERO    =  1.00D-22  ONEINT  =  1.00D-22  TWOINT  =  1.00D-22  PREFAC  =  1.00D-14  LOCALI  =  1.00D-09  EORDER  =  1.00D-04
 ENERGY  =  1.00D-12  ETEST   =  0.00D+00  EDENS   =  0.00D+00  THRDEDEF=  1.00D-06  GRADIENT=  1.00D-02  STEP    =  1.00D-03
 ORBITAL =  1.00D-05  CIVEC   =  1.00D-05  COEFF   =  1.00D-04  PRINTCI =  5.00D-02  PUNCHCI =  9.90D+01  OPTGRAD =  3.00D-04
 OPTENERG=  1.00D-06  OPTSTEP =  3.00D-04  THRGRAD =  1.00D-10  COMPRESS=  1.00D-11  VARMIN  =  1.00D-07  VARMAX  =  1.00D-03
 THRDOUB =  0.00D+00  THRDIV  =  1.00D-05  THRRED  =  1.00D-07  THRPSP  =  1.00D+00  THRDC   =  1.00D-10  THRCS   =  1.00D-10
 THRNRM  =  1.00D-08  THREQ   =  0.00D+00  THRDE   =  1.00D+00  THRREF  =  1.00D-05  SPARFAC =  1.00D+00  THRDLP  =  1.00D-07
 THRDIA  =  1.00D-10  THRDLS  =  1.00D-07  THRGPS  =  0.00D+00  THRKEX  =  0.00D+00  THRDIS  =  2.00D-01  THRVAR  =  1.00D-10
 THRLOC  =  1.00D-06  THRGAP  =  1.00D-06  THRLOCT = -1.00D+00  THRGAPT = -1.00D+00  THRORB  =  1.00D-06  THRMLTP =  0.00D+00
 THRCPQCI=  1.00D-10  KEXTA   =  0.00D+00  THRCOARS=  0.00D+00  SYMTOL  =  1.00D-06  GRADTOL =  1.00D-06  THROVL  =  1.00D-08
 THRORTH =  1.00D-08  GRID    =  1.00D-06  GRIDMAX =  1.00D-03  DTMAX   =  0.00D+00  THROCCDE=  1.00D-01  THROCCDE=  1.00D-01



 THRESHOLDS:

 ZERO    =  1.00D-22  ONEINT  =  1.00D-22  TWOINT  =  1.00D-22  PREFAC  =  1.00D-14  LOCALI  =  1.00D-09  EORDER  =  1.00D-04
 ENERGY  =  1.00D-12  ETEST   =  0.00D+00  EDENS   =  0.00D+00  THRDEDEF=  1.00D-06  GRADIENT=  1.00D-02  STEP    =  1.00D-03
 ORBITAL =  1.00D-05  CIVEC   =  1.00D-05  COEFF   =  1.00D-04  PRINTCI =  5.00D-02  PUNCHCI =  9.90D+01  OPTGRAD =  1.00D-08
 OPTENERG=  1.00D-06  OPTSTEP =  1.00D-08  THRGRAD =  1.00D-10  COMPRESS=  1.00D-11  VARMIN  =  1.00D-07  VARMAX  =  1.00D-03
 THRDOUB =  0.00D+00  THRDIV  =  1.00D-05  THRRED  =  1.00D-07  THRPSP  =  1.00D+00  THRDC   =  1.00D-10  THRCS   =  1.00D-10
 THRNRM  =  1.00D-08  THREQ   =  0.00D+00  THRDE   =  1.00D+00  THRREF  =  1.00D-05  SPARFAC =  1.00D+00  THRDLP  =  1.00D-07
 THRDIA  =  1.00D-10  THRDLS  =  1.00D-07  THRGPS  =  0.00D+00  THRKEX  =  0.00D+00  THRDIS  =  2.00D-01  THRVAR  =  1.00D-10
 THRLOC  =  1.00D-06  THRGAP  =  1.00D-06  THRLOCT = -1.00D+00  THRGAPT = -1.00D+00  THRORB  =  1.00D-06  THRMLTP =  0.00D+00
 THRCPQCI=  1.00D-10  KEXTA   =  0.00D+00  THRCOARS=  0.00D+00  SYMTOL  =  1.00D-06  GRADTOL =  1.00D-06  THROVL  =  1.00D-08
 THRORTH =  1.00D-08  GRID    =  1.00D-06  GRIDMAX =  1.00D-03  DTMAX   =  0.00D+00  THROCCDE=  1.00D-01  THROCCDE=  1.00D-01



 Input parameters for SORTINT:

 COMPRESS =    0.000000
 C_FINAL  =    1.000000
 DEBUG    =   -1.000000
 C_SORT1  =    0.000000
 C_SEWARD =    0.000000
 THRESH   =    0.000000
 IO       =  molpro                                                          
 SPRI     =    0.000000
 SETTING GEOMTYP        =    XYZ
 ZUNIT=BOHR
 

 Variable memory set to  995000000 words,  buffer space   230000 words

 SETTING BASIS          =    VTZ-DK
 SETTING DKROLL         =     0.00000000D+00                                  


 Recomputing integrals since basis changed


 Using spherical harmonics

 Library entry H      S cc-pVTZ-DK           selected for orbital group  1
 Library entry H      P cc-pVTZ-DK           selected for orbital group  1
 Library entry H      D cc-pVTZ-DK           selected for orbital group  1
 Library entry N      S cc-pVTZ-DK           selected for orbital group  2
 Library entry N      P cc-pVTZ-DK           selected for orbital group  2
 Library entry N      D cc-pVTZ-DK           selected for orbital group  2
 Library entry N      F cc-pVTZ-DK           selected for orbital group  2
 Library entry O      S cc-pVTZ-DK           selected for orbital group  3
 Library entry O      P cc-pVTZ-DK           selected for orbital group  3
 Library entry O      D cc-pVTZ-DK           selected for orbital group  3
 Library entry O      F cc-pVTZ-DK           selected for orbital group  3


 PROGRAM * SEWARD (Integral evaluation for generally contracted gaussian basis sets)     Author: Roland Lindh, 1990

 Geometry written to block  1 of record 700


 Point group  Cs  



 ATOMIC COORDINATES

 NR  ATOM    CHARGE       X              Y              Z

   1  H       1.00    0.000000000    1.652382009   -1.916249973
   2  N       7.00    0.000000000   -0.151172639   -1.149662932
   3  O       8.00    0.000000000    0.040558420    1.115323314

 Bond lengths in Bohr (Angstrom)

 1-2  1.959710452  2-3  2.273086776
     ( 1.037034111)     ( 1.202865721)

 Bond angles

  1-2-3  108.18899349

 NUCLEAR CHARGE:                   16
 NUMBER OF PRIMITIVE AOS:         111
 NUMBER OF SYMMETRY AOS:          100
 NUMBER OF CONTRACTIONS:           74   (  50A'  +  24A"  )
 NUMBER OF CORE ORBITALS:           2   (   2A'  +   0A"  )
 NUMBER OF VALENCE ORBITALS:        9   (   7A'  +   2A"  )


 NUCLEAR REPULSION ENERGY   30.53809369

 Eigenvalues of metric

         1 0.238E-02 0.389E-02 0.407E-02 0.804E-02 0.127E-01 0.321E-01 0.422E-01 0.462E-01
         2 0.339E-01 0.463E-01 0.101E+00 0.108E+00 0.230E+00 0.335E+00 0.391E+00 0.446E+00


 Contracted 2-electron integrals neglected if value below      1.0D-22

        1874283. INTEGRALS WRITTEN OUT IN     458 BLOCKS ON RECORD 1290 OF FILE 1


 NUMBER OF SORTED TWO-ELECTRON INTEGRALS:    2006100.     BUFFER LENGTH:  32768
 NUMBER OF SEGMENTS:   1  SEGMENT LENGTH:    2006100      RECORD LENGTH: 524288

 Memory used in sort:       2.56 MW

 SORT1 READ     1874283. AND WROTE     1914195. INTEGRALS IN      6 RECORDS. CPU TIME:     0.03 SEC, REAL TIME:     0.04 SEC
 SORT2 READ     1914195. AND WROTE     2006100. INTEGRALS IN      1 RECORDS. CPU TIME:     0.05 SEC, REAL TIME:     0.06 SEC

 FILE SIZES:   FILE 1:    50.1 MBYTE,  FILE 4:    25.2 MBYTE,   TOTAL:     75.3 MBYTE

 OPERATOR DM      FOR CENTER  0  COORDINATES:    0.000000    0.000000    0.000000


 **********************************************************************************************************************************
 DATASETS  * FILE   NREC   LENGTH (MB)   RECORD NAMES
              1      19       35.89       500      610      700      900      950      970     1000      129      960     1100   
                                          VAR    BASINP    GEOM    SYMINP    ZMAT    AOBASIS   BASIS     P2S    ABASIS      S 
                                         1400     1410     1200     1210     1080     1600     1650     1300     1700   
                                           T        V       H0       H01     AOSYM     SMH    MOLCAS    ERIS     OPER   

 PROGRAMS   *        TOTAL       INT
 CPU TIMES  *         0.61      0.53
 REAL TIME  *         1.20 SEC
 DISK USED  *        75.59 MB      
 **********************************************************************************************************************************


 PROGRAM * RHF-SCF (CLOSED SHELL)       Authors: W. Meyer, H.-J. Werner


 NUMBER OF ELECTRONS:       8+    8-
 CONVERGENCE THRESHOLDS:    1.00E-10 (Density)    1.00E-13 (Energy)
 MAX. NUMBER OF ITERATIONS:      500
 INTERPOLATION TYPE:            DIIS
 INTERPOLATION STEPS:              2 (START)      1 (STEP)
 LEVEL SHIFTS:                  0.00 (CLOSED)  0.00 (OPEN) 



 Orbital guess generated from atomic densities. Full valence occupancy:    9   2

 Molecular orbital dump at record        2100.2

 Initial occupancy:   7   1

 ITERATION    DDIFF          GRAD             ENERGY        2-EL.EN.            DIPOLE MOMENTS         DIIS   ORB.
    1      0.000D+00      0.000D+00      -129.78271326    154.447447    0.00000    0.59757   -1.01984    0    start
    2      0.000D+00      0.134D-01      -129.80975683    155.592401    0.00000    0.61394   -0.23307    1    diag
    3      0.183D-01      0.100D-01      -129.83041300    155.704654    0.00000    0.56673   -0.59629    2    diag
    4      0.876D-02      0.156D-02      -129.83114104    155.443027    0.00000    0.57543   -0.53738    3    diag
    5      0.166D-02      0.509D-03      -129.83125150    155.527271    0.00000    0.58065   -0.53861    4    diag
    6      0.708D-03      0.150D-03      -129.83126946    155.512806    0.00000    0.58122   -0.53458    5    diag
    7      0.272D-03      0.748D-04      -129.83127467    155.515066    0.00000    0.58241   -0.53214    6    diag
    8      0.187D-03      0.235D-04      -129.83127515    155.514409    0.00000    0.58242   -0.53137    7    diag
    9      0.617D-04      0.424D-05      -129.83127517    155.514301    0.00000    0.58238   -0.53122    8    diag
   10      0.119D-04      0.947D-06      -129.83127517    155.514285    0.00000    0.58234   -0.53120    9    orth
   11      0.273D-05      0.185D-06      -129.83127517    155.514282    0.00000    0.58234   -0.53120    9    diag
   12      0.493D-06      0.379D-07      -129.83127517    155.514280    0.00000    0.58234   -0.53120    9    diag
   13      0.105D-06      0.924D-08      -129.83127517    155.514280    0.00000    0.58234   -0.53120    9    diag
   14      0.256D-07      0.167D-08      -129.83127517    155.514280    0.00000    0.58234   -0.53120    9    diag
   15      0.413D-08      0.433D-09      -129.83127517    155.514280    0.00000    0.58234   -0.53120    9    diag
   16      0.990D-09      0.107D-09      -129.83127517    155.514280    0.00000    0.58234   -0.53120    9    diag
   17      0.176D-09      0.290D-10      -129.83127517    155.514280    0.00000    0.58234   -0.53120    9    diag
   18      0.518D-10      0.955D-11      -129.83127517    155.514280    0.00000    0.58234   -0.53120    0    orth

 Final occupancy:   7   1

 !RHF STATE 1.1 Energy               -129.831275170362
 Nuclear energy                        30.53809369
 One-electron energy                 -238.12650891
 Two-electron energy                   77.75714005
 Virial quotient                       -0.99934744
 !RHF STATE 1.1 Dipole moment           0.00000000     0.58233517    -0.53119650
 Dipole moment /Debye                   0.00000000     1.48005143    -1.35007840

 Orbital energies:

         1.1          2.1          3.1          4.1          5.1          6.1          7.1          8.1          9.1
    -20.647102   -15.704857    -1.530259    -0.993650    -0.746342    -0.663406    -0.426181     0.145297     0.370651

         1.2          2.2          3.2
     -0.594317     0.088211     0.612447

 HOMO      7.1    -0.426181 =     -11.5970eV
 LUMO      2.2     0.088211 =       2.4003eV
 LUMO-HOMO         0.514392 =      13.9973eV


 **********************************************************************************************************************************
 DATASETS  * FILE   NREC   LENGTH (MB)   RECORD NAMES
              1      19       35.89       500      610      700      900      950      970     1000      129      960     1100   
                                          VAR    BASINP    GEOM    SYMINP    ZMAT    AOBASIS   BASIS     P2S    ABASIS      S 
                                         1400     1410     1200     1210     1080     1600     1650     1300     1700   
                                           T        V       H0       H01     AOSYM     SMH    MOLCAS    ERIS     OPER   

              2       4        2.85       700     1000      520     2100   
                                         GEOM     BASIS   MCVARS     RHF  

 PROGRAMS   *        TOTAL        HF       INT
 CPU TIMES  *         0.80      0.19      0.53
 REAL TIME  *         1.43 SEC
 DISK USED  *        75.59 MB      
 **********************************************************************************************************************************


 PROGRAM * CCSD (Closed-shell coupled cluster)     Authors: C. Hampel, H.-J. Werner, 1991, M. Deegan, P.J. Knowles, 1992


 Convergence thresholds:  THRVAR = 1.00D-08  THRDEN = 1.00D-12

 CCSD(T)     terms to be evaluated (factor= 1.000)


 Number of core orbitals:           2 (   2   0 )
 Number of closed-shell orbitals:   6 (   5   1 )
 Number of external orbitals:      66 (  43  23 )

 Molecular orbitals read from record     2100.2  Type=RHF/CANONICAL (state 1.1)

 Number of N-1 electron functions:               6
 Number of N-2 electron functions:              21
 Number of singly external CSFs:               238
 Number of doubly external CSFs:             41002
 Total number of CSFs:                       41241

 Length of J-op  integral file:               0.00 MB
 Length of K-op  integral file:               0.25 MB
 Length of 3-ext integral record:             0.00 MB

 Memory could be reduced to 1.65 Mwords without degradation in triples

 Integral transformation finished. Total CPU:   0.03 sec, npass=  1  Memory used:   0.55 MW

 Reference energy:                   -129.83127517

 MP2 singlet pair energy:              -0.27267937
 MP2 triplet pair energy:              -0.16186945
 MP2 correlation energy:               -0.43454882
 MP2 total energy:                   -130.26582399

 SCS-MP2 correlation energy:           -0.42793401   (PS=  1.200000  PT=  0.333333)
 SCS-MP2 total energy:               -130.25920918

 ITER.      SQ.NORM     CORR.ENERGY   TOTAL ENERGY   ENERGY CHANGE        DEN1      VAR(S)    VAR(P)  DIIS     TIME  TIME/IT
   1      1.11735891    -0.43991430  -130.27118947    -0.00536548     0.01005511  0.28D-02  0.29D-02  1  1     0.06     0.04
   2      1.12797152    -0.44021960  -130.27149478    -0.00030530    -0.01206424  0.83D-04  0.49D-03  2  2     0.10     0.04
   3      1.13404438    -0.44058645  -130.27186162    -0.00036684    -0.00290641  0.43D-04  0.49D-04  3  3     0.14     0.04
   4      1.13675434    -0.44061412  -130.27188929    -0.00002767    -0.00093064  0.36D-05  0.86D-05  4  4     0.17     0.04
   5      1.13769361    -0.44064148  -130.27191665    -0.00002736    -0.00019428  0.12D-05  0.17D-05  5  5     0.19     0.04
   6      1.13803580    -0.44062593  -130.27190110     0.00001555    -0.00003878  0.82D-07  0.42D-06  6  6     0.23     0.04
   7      1.13811843    -0.44062816  -130.27190333    -0.00000223    -0.00000203  0.99D-08  0.87D-07  6  1     0.27     0.04
   8      1.13814767    -0.44062823  -130.27190340    -0.00000007     0.00000215  0.48D-08  0.95D-08  6  2     0.30     0.04
   9      1.13815475    -0.44062811  -130.27190328     0.00000012    -0.00000232  0.24D-08  0.10D-08  6  3     0.34     0.04
  10      1.13815345    -0.44062858  -130.27190375    -0.00000047     0.00000067  0.46D-09  0.19D-09  6  4     0.38     0.04
  11      1.13815184    -0.44062864  -130.27190381    -0.00000006     0.00000014  0.13D-09  0.20D-10  6  5     0.41     0.04
  12      1.13815055    -0.44062880  -130.27190397    -0.00000016     0.00000041  0.14D-10  0.65D-11  6  6     0.45     0.04
  13      1.13815000    -0.44062881  -130.27190398    -0.00000001     0.00000011  0.58D-11  0.11D-11  6  1     0.48     0.04
  14      1.13814966    -0.44062883  -130.27190400    -0.00000002     0.00000007  0.81D-12  0.39D-12  6  2     0.51     0.04
  15      1.13814953    -0.44062883  -130.27190400    -0.00000000     0.00000001  0.20D-12  0.13D-12  6  3     0.55     0.04
  16      1.13814945    -0.44062883  -130.27190400    -0.00000000     0.00000001  0.22D-13  0.15D-13  6  5     0.59     0.04
  17      1.13814942    -0.44062883  -130.27190400    -0.00000000     0.00000000  0.78D-15  0.21D-14  6  4     0.62     0.04
  18      1.13814942    -0.44062883  -130.27190400     0.00000000    -0.00000000  0.49D-15  0.30D-15  6  1     0.66     0.04
  19      1.13814941    -0.44062883  -130.27190400    -0.00000000     0.00000000  0.46D-16  0.54D-16  6  6     0.69     0.04
  20      1.13814941    -0.44062883  -130.27190400    -0.00000000     0.00000000  0.98D-17  0.13D-16  6  2     0.73     0.04
  21      1.13814941    -0.44062883  -130.27190400    -0.00000000     0.00000000  0.16D-17  0.95D-18  6  5     0.76     0.04
  22      1.13814941    -0.44062883  -130.27190400    -0.00000000     0.00000000  0.10D-18  0.76D-19  6  3     0.80     0.04
  23      1.13814941    -0.44062883  -130.27190400     0.00000000    -0.00000000  0.30D-19  0.16D-19  6  4     0.83     0.04
  24      1.13814941    -0.44062883  -130.27190400     0.00000000    -0.00000000  0.44D-20  0.47D-20  6  1     0.87     0.04
  25      1.13814941    -0.44062883  -130.27190400     0.00000000    -0.00000000  0.47D-21  0.79D-21  6  6     0.90     0.04

 Norm of t1 vector:      0.07339086      S-energy:     0.00000000      T1 diagnostic:  0.01498085
                                                                       D1 diagnostic:  0.04173998

 Doubles amplitudes (print threshold =  0.500E-01):

         I         J         SYM. A    SYM. B    A         B      T(IJ, AB)

         6         6         2         2         1         1     -0.14251869


 Total CPU time for triples:      0.23 sec


 RESULTS
 =======

  Reference energy                   -129.831275170362
  CCSD singlet pair energy             -0.301915139562
  CCSD triplet pair energy             -0.138713690360
  CCSD correlation energy              -0.440628829921

  Triples (T) contribution             -0.019517744966
  Total correlation energy             -0.460146574887

  CCSD total energy                  -130.271904000283
  CCSD[T] energy                     -130.292401033204
  CCSD-T energy                      -130.291035888833
 !CCSD(T) total energy               -130.291421745249

 Timing summary (sec):

 STEP                 CPU(USER)    SYS     CPU(TOT)    WALL
 Transformation          0.03      0.00      0.03      0.04
 CCSD iterations         0.87      0.11      0.98      0.98
 Triples                 0.23      0.01      0.24      0.25

 Program statistics:

 Available memory in ccsd:               994999756
 Min. memory needed in ccsd:                154850
 Max. memory used in ccsd:                  184802
 Max. memory used in cckext:                238416 (25 integral passes)



 **********************************************************************************************************************************
 DATASETS  * FILE   NREC   LENGTH (MB)   RECORD NAMES
              1      20       40.28       500      610      700      900      950      970     1000      129      960     1100   
                                          VAR    BASINP    GEOM    SYMINP    ZMAT    AOBASIS   BASIS     P2S    ABASIS      S 
                                         1400     1410     1200     1210     1080     1600     1650     1300     1700     1380   
                                           T        V       H0       H01     AOSYM     SMH    MOLCAS    ERIS     OPER     JKOP   

              2       4        2.85       700     1000      520     2100   
                                         GEOM     BASIS   MCVARS     RHF  

 PROGRAMS   *        TOTAL   CCSD(T)        HF       INT
 CPU TIMES  *         1.97      1.17      0.19      0.53
 REAL TIME  *         2.77 SEC
 DISK USED  *        75.59 MB      
 **********************************************************************************************************************************

 CCSD(T)/cc-pVTZ-DK energy=   -130.291421745249

        CCSD(T)         HF-SCF  
   -130.29142175   -129.83127517
 **********************************************************************************************************************************
 Molpro calculation terminated
 Variable memory released
