
 Primary working directories    : /tmp/r2666/282614.maple
 Secondary working directories  : /tmp/r2666/282614.maple
 Wavefunction directory         : /ddn/home4/r2666/wfu/
 Main file repository           : /tmp/r2666/282614.maple/

 SHA1      : d5ffa45e93fdbca01ffc919aa182cfdae0147319
 NAME      : 2015.1.35
 ARCHNAME  : linux/x86_64
 FC        : /opt/intel/composer_xe_2015.1.133/bin/intel64/ifort
 BLASLIB   : -Wl,-_start-group /opt/intel/mkl/lib/intel64/libmkl_intel_ilp64.a /opt/intel/mkl/lib/intel64/libmkl_intel_thread.a /opt/intel/mkl/lib/intel64/libmkl_core.a -Wl,-_end-group
 id        : olemiss

 Nodes     nprocs
 cn080        1

 Using customized tuning parameters: mindgm=1; mindgv=20; mindgc=4; mindgr=1; noblas=0; minvec=7
 default implementation of scratch files=df  

 ***,hno CCSD(T)/TZ-F12 QFF
 memory, 995, m;
 gthresh,energy=1.d-12,zero=1.d-22,oneint=1.d-22,twoint=1.d-22;
 gthresh,optgrad=1.d-8,optstep=1.d-8;
 nocompress;
 geomtyp=xyz
 bohr
 geometry={
 3
        124       124
 H        0.0000000000        1.6796992920       -1.9378328988
 N        0.0000000000       -0.1714131244       -1.1382950431
 O        0.0000000000        0.0334816225        1.1255383509
 }
 
 basis=vtz-dk
 dkroll=0
   {hf,maxit=500;accu,20;}
 {ccsd(t),nocheck,maxit=250;orbital,IGNORE_ERROR;}

 Variables initialized (889), CPU time= 0.00 sec
 Commands  initialized (702), CPU time= 0.01 sec, 572 directives.
 Default parameters read. Elapsed time= 0.17 sec

 Checking input...
 Passed
1


                                         ***  PROGRAM SYSTEM MOLPRO  ***
                                       Copyright, TTI GmbH Stuttgart, 2015
                                    Version 2015.1 linked Jul  9 2018 13:16:40


 **********************************************************************************************************************************
 LABEL *   hno CCSD(T)/TZ-F12 QFF                                                        
  64 bit serial version                                                                  DATE: 04-Mar-20          TIME: 13:51:04  
 **********************************************************************************************************************************

 SHA1:             d5ffa45e93fdbca01ffc919aa182cfdae0147319
 **********************************************************************************************************************************

 THRESHOLDS:

 ZERO    =  1.00D-22  ONEINT  =  1.00D-22  TWOINT  =  1.00D-22  PREFAC  =  1.00D-14  LOCALI  =  1.00D-09  EORDER  =  1.00D-04
 ENERGY  =  1.00D-12  ETEST   =  0.00D+00  EDENS   =  0.00D+00  THRDEDEF=  1.00D-06  GRADIENT=  1.00D-02  STEP    =  1.00D-03
 ORBITAL =  1.00D-05  CIVEC   =  1.00D-05  COEFF   =  1.00D-04  PRINTCI =  5.00D-02  PUNCHCI =  9.90D+01  OPTGRAD =  3.00D-04
 OPTENERG=  1.00D-06  OPTSTEP =  3.00D-04  THRGRAD =  1.00D-10  COMPRESS=  1.00D-11  VARMIN  =  1.00D-07  VARMAX  =  1.00D-03
 THRDOUB =  0.00D+00  THRDIV  =  1.00D-05  THRRED  =  1.00D-07  THRPSP  =  1.00D+00  THRDC   =  1.00D-10  THRCS   =  1.00D-10
 THRNRM  =  1.00D-08  THREQ   =  0.00D+00  THRDE   =  1.00D+00  THRREF  =  1.00D-05  SPARFAC =  1.00D+00  THRDLP  =  1.00D-07
 THRDIA  =  1.00D-10  THRDLS  =  1.00D-07  THRGPS  =  0.00D+00  THRKEX  =  0.00D+00  THRDIS  =  2.00D-01  THRVAR  =  1.00D-10
 THRLOC  =  1.00D-06  THRGAP  =  1.00D-06  THRLOCT = -1.00D+00  THRGAPT = -1.00D+00  THRORB  =  1.00D-06  THRMLTP =  0.00D+00
 THRCPQCI=  1.00D-10  KEXTA   =  0.00D+00  THRCOARS=  0.00D+00  SYMTOL  =  1.00D-06  GRADTOL =  1.00D-06  THROVL  =  1.00D-08
 THRORTH =  1.00D-08  GRID    =  1.00D-06  GRIDMAX =  1.00D-03  DTMAX   =  0.00D+00  THROCCDE=  1.00D-01  THROCCDE=  1.00D-01



 THRESHOLDS:

 ZERO    =  1.00D-22  ONEINT  =  1.00D-22  TWOINT  =  1.00D-22  PREFAC  =  1.00D-14  LOCALI  =  1.00D-09  EORDER  =  1.00D-04
 ENERGY  =  1.00D-12  ETEST   =  0.00D+00  EDENS   =  0.00D+00  THRDEDEF=  1.00D-06  GRADIENT=  1.00D-02  STEP    =  1.00D-03
 ORBITAL =  1.00D-05  CIVEC   =  1.00D-05  COEFF   =  1.00D-04  PRINTCI =  5.00D-02  PUNCHCI =  9.90D+01  OPTGRAD =  1.00D-08
 OPTENERG=  1.00D-06  OPTSTEP =  1.00D-08  THRGRAD =  1.00D-10  COMPRESS=  1.00D-11  VARMIN  =  1.00D-07  VARMAX  =  1.00D-03
 THRDOUB =  0.00D+00  THRDIV  =  1.00D-05  THRRED  =  1.00D-07  THRPSP  =  1.00D+00  THRDC   =  1.00D-10  THRCS   =  1.00D-10
 THRNRM  =  1.00D-08  THREQ   =  0.00D+00  THRDE   =  1.00D+00  THRREF  =  1.00D-05  SPARFAC =  1.00D+00  THRDLP  =  1.00D-07
 THRDIA  =  1.00D-10  THRDLS  =  1.00D-07  THRGPS  =  0.00D+00  THRKEX  =  0.00D+00  THRDIS  =  2.00D-01  THRVAR  =  1.00D-10
 THRLOC  =  1.00D-06  THRGAP  =  1.00D-06  THRLOCT = -1.00D+00  THRGAPT = -1.00D+00  THRORB  =  1.00D-06  THRMLTP =  0.00D+00
 THRCPQCI=  1.00D-10  KEXTA   =  0.00D+00  THRCOARS=  0.00D+00  SYMTOL  =  1.00D-06  GRADTOL =  1.00D-06  THROVL  =  1.00D-08
 THRORTH =  1.00D-08  GRID    =  1.00D-06  GRIDMAX =  1.00D-03  DTMAX   =  0.00D+00  THROCCDE=  1.00D-01  THROCCDE=  1.00D-01



 Input parameters for SORTINT:

 COMPRESS =    0.000000
 C_FINAL  =    1.000000
 DEBUG    =   -1.000000
 C_SORT1  =    0.000000
 C_SEWARD =    0.000000
 THRESH   =    0.000000
 IO       =  molpro                                                          
 SPRI     =    0.000000
 SETTING GEOMTYP        =    XYZ
 ZUNIT=BOHR
 

 Variable memory set to  995000000 words,  buffer space   230000 words

 SETTING BASIS          =    VTZ-DK
 SETTING DKROLL         =     0.00000000D+00                                  


 Recomputing integrals since basis changed


 Using spherical harmonics

 Library entry H      S cc-pVTZ-DK           selected for orbital group  1
 Library entry H      P cc-pVTZ-DK           selected for orbital group  1
 Library entry H      D cc-pVTZ-DK           selected for orbital group  1
 Library entry N      S cc-pVTZ-DK           selected for orbital group  2
 Library entry N      P cc-pVTZ-DK           selected for orbital group  2
 Library entry N      D cc-pVTZ-DK           selected for orbital group  2
 Library entry N      F cc-pVTZ-DK           selected for orbital group  2
 Library entry O      S cc-pVTZ-DK           selected for orbital group  3
 Library entry O      P cc-pVTZ-DK           selected for orbital group  3
 Library entry O      D cc-pVTZ-DK           selected for orbital group  3
 Library entry O      F cc-pVTZ-DK           selected for orbital group  3


 PROGRAM * SEWARD (Integral evaluation for generally contracted gaussian basis sets)     Author: Roland Lindh, 1990

 Geometry written to block  1 of record 700


 Point group  Cs  



 ATOMIC COORDINATES

 NR  ATOM    CHARGE       X              Y              Z

   1  H       1.00    0.000000000    1.679699292   -1.937832899
   2  N       7.00    0.000000000   -0.171413124   -1.138295043
   3  O       8.00    0.000000000    0.033481623    1.125538351

 Bond lengths in Bohr (Angstrom)

 1-2  2.016402232  2-3  2.273086776
     ( 1.067034109)     ( 1.202865721)

 Bond angles

  1-2-3  108.18899349

 NUCLEAR CHARGE:                   16
 NUMBER OF PRIMITIVE AOS:         111
 NUMBER OF SYMMETRY AOS:          100
 NUMBER OF CONTRACTIONS:           74   (  50A'  +  24A"  )
 NUMBER OF CORE ORBITALS:           2   (   2A'  +   0A"  )
 NUMBER OF VALENCE ORBITALS:        9   (   7A'  +   2A"  )


 NUCLEAR REPULSION ENERGY   30.40801507

 Eigenvalues of metric

         1 0.247E-02 0.400E-02 0.411E-02 0.860E-02 0.133E-01 0.327E-01 0.424E-01 0.464E-01
         2 0.342E-01 0.466E-01 0.101E+00 0.115E+00 0.235E+00 0.347E+00 0.396E+00 0.450E+00


 Contracted 2-electron integrals neglected if value below      1.0D-22

        1874283. INTEGRALS WRITTEN OUT IN     458 BLOCKS ON RECORD 1290 OF FILE 1


 NUMBER OF SORTED TWO-ELECTRON INTEGRALS:    2006100.     BUFFER LENGTH:  32768
 NUMBER OF SEGMENTS:   1  SEGMENT LENGTH:    2006100      RECORD LENGTH: 524288

 Memory used in sort:       2.56 MW

 SORT1 READ     1874283. AND WROTE     1914195. INTEGRALS IN      6 RECORDS. CPU TIME:     0.03 SEC, REAL TIME:     0.04 SEC
 SORT2 READ     1914195. AND WROTE     2006100. INTEGRALS IN      1 RECORDS. CPU TIME:     0.05 SEC, REAL TIME:     0.06 SEC

 FILE SIZES:   FILE 1:    50.1 MBYTE,  FILE 4:    25.2 MBYTE,   TOTAL:     75.3 MBYTE

 OPERATOR DM      FOR CENTER  0  COORDINATES:    0.000000    0.000000    0.000000


 **********************************************************************************************************************************
 DATASETS  * FILE   NREC   LENGTH (MB)   RECORD NAMES
              1      19       35.89       500      610      700      900      950      970     1000      129      960     1100   
                                          VAR    BASINP    GEOM    SYMINP    ZMAT    AOBASIS   BASIS     P2S    ABASIS      S 
                                         1400     1410     1200     1210     1080     1600     1650     1300     1700   
                                           T        V       H0       H01     AOSYM     SMH    MOLCAS    ERIS     OPER   

 PROGRAMS   *        TOTAL       INT
 CPU TIMES  *         0.64      0.52
 REAL TIME  *         1.28 SEC
 DISK USED  *        75.59 MB      
 **********************************************************************************************************************************


 PROGRAM * RHF-SCF (CLOSED SHELL)       Authors: W. Meyer, H.-J. Werner


 NUMBER OF ELECTRONS:       8+    8-
 CONVERGENCE THRESHOLDS:    1.00E-10 (Density)    1.00E-13 (Energy)
 MAX. NUMBER OF ITERATIONS:      500
 INTERPOLATION TYPE:            DIIS
 INTERPOLATION STEPS:              2 (START)      1 (STEP)
 LEVEL SHIFTS:                  0.00 (CLOSED)  0.00 (OPEN) 



 Orbital guess generated from atomic densities. Full valence occupancy:    9   2

 Molecular orbital dump at record        2100.2

 Initial occupancy:   7   1

 ITERATION    DDIFF          GRAD             ENERGY        2-EL.EN.            DIPOLE MOMENTS         DIIS   ORB.
    1      0.000D+00      0.000D+00      -129.78036996    154.190643    0.00000    0.57808   -1.02353    0    start
    2      0.000D+00      0.136D-01      -129.80740891    155.369792    0.00000    0.61007   -0.22086    1    diag
    3      0.185D-01      0.103D-01      -129.82934341    155.473670    0.00000    0.55539   -0.59282    2    diag
    4      0.897D-02      0.155D-02      -129.83007775    155.207946    0.00000    0.56380   -0.53390    3    diag
    5      0.166D-02      0.516D-03      -129.83019386    155.294411    0.00000    0.56938   -0.53522    4    diag
    6      0.721D-03      0.154D-03      -129.83021311    155.279511    0.00000    0.56994   -0.53107    5    diag
    7      0.281D-03      0.766D-04      -129.83021863    155.281895    0.00000    0.57123   -0.52863    6    diag
    8      0.192D-03      0.243D-04      -129.83021914    155.281216    0.00000    0.57125   -0.52785    7    diag
    9      0.635D-04      0.445D-05      -129.83021916    155.281100    0.00000    0.57120   -0.52769    8    diag
   10      0.123D-04      0.990D-06      -129.83021916    155.281082    0.00000    0.57116   -0.52767    9    orth
   11      0.280D-05      0.195D-06      -129.83021916    155.281077    0.00000    0.57116   -0.52766    9    diag
   12      0.518D-06      0.405D-07      -129.83021916    155.281075    0.00000    0.57115   -0.52766    9    diag
   13      0.115D-06      0.101D-07      -129.83021916    155.281075    0.00000    0.57115   -0.52766    9    diag
   14      0.287D-07      0.185D-08      -129.83021916    155.281075    0.00000    0.57115   -0.52766    9    diag
   15      0.473D-08      0.490D-09      -129.83021916    155.281075    0.00000    0.57115   -0.52766    9    diag
   16      0.114D-08      0.127D-09      -129.83021916    155.281075    0.00000    0.57115   -0.52766    9    diag
   17      0.222D-09      0.385D-10      -129.83021916    155.281075    0.00000    0.57115   -0.52766    9    diag
   18      0.746D-10      0.128D-10      -129.83021916    155.281075    0.00000    0.57115   -0.52766    9    diag
   19      0.303D-10      0.279D-11      -129.83021916    155.281075    0.00000    0.57115   -0.52766    0    orth

 Final occupancy:   7   1

 !RHF STATE 1.1 Energy               -129.830219157697
 Nuclear energy                        30.40801507
 One-electron energy                 -237.87877171
 Two-electron energy                   77.64053748
 Virial quotient                       -0.99969061
 !RHF STATE 1.1 Dipole moment           0.00000000     0.57115412    -0.52766085
 Dipole moment /Debye                   0.00000000     1.45163389    -1.34109227

 Orbital energies:

         1.1          2.1          3.1          4.1          5.1          6.1          7.1          8.1          9.1
    -20.647789   -15.709005    -1.530002    -0.986131    -0.743146    -0.663485    -0.424456     0.143385     0.370749

         1.2          2.2          3.2
     -0.594834     0.088157     0.612323

 HOMO      7.1    -0.424456 =     -11.5500eV
 LUMO      2.2     0.088157 =       2.3989eV
 LUMO-HOMO         0.512614 =      13.9489eV


 **********************************************************************************************************************************
 DATASETS  * FILE   NREC   LENGTH (MB)   RECORD NAMES
              1      19       35.89       500      610      700      900      950      970     1000      129      960     1100   
                                          VAR    BASINP    GEOM    SYMINP    ZMAT    AOBASIS   BASIS     P2S    ABASIS      S 
                                         1400     1410     1200     1210     1080     1600     1650     1300     1700   
                                           T        V       H0       H01     AOSYM     SMH    MOLCAS    ERIS     OPER   

              2       4        2.85       700     1000      520     2100   
                                         GEOM     BASIS   MCVARS     RHF  

 PROGRAMS   *        TOTAL        HF       INT
 CPU TIMES  *         0.87      0.23      0.52
 REAL TIME  *         1.60 SEC
 DISK USED  *        75.59 MB      
 **********************************************************************************************************************************


 PROGRAM * CCSD (Closed-shell coupled cluster)     Authors: C. Hampel, H.-J. Werner, 1991, M. Deegan, P.J. Knowles, 1992


 Convergence thresholds:  THRVAR = 1.00D-08  THRDEN = 1.00D-12

 CCSD(T)     terms to be evaluated (factor= 1.000)


 Number of core orbitals:           2 (   2   0 )
 Number of closed-shell orbitals:   6 (   5   1 )
 Number of external orbitals:      66 (  43  23 )

 Molecular orbitals read from record     2100.2  Type=RHF/CANONICAL (state 1.1)

 Number of N-1 electron functions:               6
 Number of N-2 electron functions:              21
 Number of singly external CSFs:               238
 Number of doubly external CSFs:             41002
 Total number of CSFs:                       41241

 Length of J-op  integral file:               0.00 MB
 Length of K-op  integral file:               0.25 MB
 Length of 3-ext integral record:             0.00 MB

 Memory could be reduced to 1.65 Mwords without degradation in triples

 Integral transformation finished. Total CPU:   0.02 sec, npass=  1  Memory used:   0.55 MW

 Reference energy:                   -129.83021916

 MP2 singlet pair energy:              -0.27338724
 MP2 triplet pair energy:              -0.16227470
 MP2 correlation energy:               -0.43566194
 MP2 total energy:                   -130.26588110

 SCS-MP2 correlation energy:           -0.42903561   (PS=  1.200000  PT=  0.333333)
 SCS-MP2 total energy:               -130.25925477

 ITER.      SQ.NORM     CORR.ENERGY   TOTAL ENERGY   ENERGY CHANGE        DEN1      VAR(S)    VAR(P)  DIIS     TIME  TIME/IT
   1      1.11838127    -0.44096045  -130.27117960    -0.00529851     0.01038536  0.29D-02  0.30D-02  1  1     0.07     0.04
   2      1.12919746    -0.44125306  -130.27147222    -0.00029262    -0.01222710  0.87D-04  0.50D-03  2  2     0.11     0.04
   3      1.13546832    -0.44164206  -130.27186122    -0.00038900    -0.00297748  0.48D-04  0.50D-04  3  3     0.14     0.04
   4      1.13824561    -0.44166607  -130.27188523    -0.00002401    -0.00095242  0.41D-05  0.88D-05  4  4     0.18     0.04
   5      1.13923840    -0.44169564  -130.27191480    -0.00002957    -0.00020572  0.15D-05  0.16D-05  5  5     0.22     0.04
   6      1.13959911    -0.44167940  -130.27189856     0.00001624    -0.00004068  0.11D-06  0.40D-06  6  6     0.24     0.04
   7      1.13968764    -0.44168104  -130.27190020    -0.00000164    -0.00000251  0.14D-07  0.84D-07  6  1     0.29     0.04
   8      1.13971912    -0.44168106  -130.27190021    -0.00000002     0.00000166  0.40D-08  0.10D-07  6  2     0.32     0.04
   9      1.13972720    -0.44168080  -130.27189995     0.00000026    -0.00000218  0.25D-08  0.11D-08  6  3     0.36     0.04
  10      1.13972606    -0.44168131  -130.27190047    -0.00000051     0.00000055  0.48D-09  0.20D-09  6  4     0.40     0.04
  11      1.13972428    -0.44168137  -130.27190052    -0.00000006     0.00000022  0.15D-09  0.23D-10  6  5     0.44     0.04
  12      1.13972286    -0.44168154  -130.27190070    -0.00000018     0.00000044  0.16D-10  0.79D-11  6  6     0.48     0.04
  13      1.13972222    -0.44168155  -130.27190071    -0.00000001     0.00000013  0.71D-11  0.13D-11  6  1     0.52     0.04
  14      1.13972181    -0.44168157  -130.27190073    -0.00000002     0.00000008  0.10D-11  0.43D-12  6  2     0.56     0.04
  15      1.13972167    -0.44168157  -130.27190073    -0.00000000     0.00000001  0.26D-12  0.14D-12  6  3     0.60     0.04
  16      1.13972157    -0.44168158  -130.27190073    -0.00000000     0.00000001  0.27D-13  0.15D-13  6  5     0.63     0.04
  17      1.13972154    -0.44168158  -130.27190074    -0.00000000     0.00000000  0.66D-15  0.21D-14  6  4     0.66     0.04
  18      1.13972154    -0.44168158  -130.27190074     0.00000000    -0.00000000  0.46D-15  0.30D-15  6  1     0.70     0.04
  19      1.13972153    -0.44168158  -130.27190074    -0.00000000     0.00000000  0.41D-16  0.53D-16  6  6     0.74     0.04
  20      1.13972153    -0.44168158  -130.27190074    -0.00000000     0.00000000  0.88D-17  0.13D-16  6  2     0.78     0.04
  21      1.13972153    -0.44168158  -130.27190074    -0.00000000     0.00000000  0.18D-17  0.11D-17  6  5     0.82     0.04
  22      1.13972153    -0.44168158  -130.27190074     0.00000000     0.00000000  0.10D-18  0.75D-19  6  3     0.86     0.04
  23      1.13972153    -0.44168158  -130.27190074     0.00000000    -0.00000000  0.27D-19  0.16D-19  6  4     0.90     0.04
  24      1.13972153    -0.44168158  -130.27190074     0.00000000    -0.00000000  0.40D-20  0.42D-20  6  1     0.94     0.04
  25      1.13972153    -0.44168158  -130.27190074     0.00000000    -0.00000000  0.54D-21  0.74D-21  6  6     0.98     0.04

 Norm of t1 vector:      0.07506048      S-energy:     0.00000000      T1 diagnostic:  0.01532166
                                                                       D1 diagnostic:  0.04182529

 Doubles amplitudes (print threshold =  0.500E-01):

         I         J         SYM. A    SYM. B    A         B      T(IJ, AB)

         6         6         2         2         1         1     -0.14217569


 Total CPU time for triples:      0.23 sec


 RESULTS
 =======

  Reference energy                   -129.830219157697
  CCSD singlet pair energy             -0.302819985025
  CCSD triplet pair energy             -0.138861592734
  CCSD correlation energy              -0.441681577758

  Triples (T) contribution             -0.019711450662
  Total correlation energy             -0.461393028420

  CCSD total energy                  -130.271900735455
  CCSD[T] energy                     -130.292624570912
  CCSD-T energy                      -130.291213726584
 !CCSD(T) total energy               -130.291612186118

 Timing summary (sec):

 STEP                 CPU(USER)    SYS     CPU(TOT)    WALL
 Transformation          0.02      0.01      0.03      0.04
 CCSD iterations         0.97      0.10      1.07      1.05
 Triples                 0.23      0.01      0.24      0.25

 Program statistics:

 Available memory in ccsd:               994999756
 Min. memory needed in ccsd:                154850
 Max. memory used in ccsd:                  184802
 Max. memory used in cckext:                238416 (25 integral passes)



 **********************************************************************************************************************************
 DATASETS  * FILE   NREC   LENGTH (MB)   RECORD NAMES
              1      20       40.28       500      610      700      900      950      970     1000      129      960     1100   
                                          VAR    BASINP    GEOM    SYMINP    ZMAT    AOBASIS   BASIS     P2S    ABASIS      S 
                                         1400     1410     1200     1210     1080     1600     1650     1300     1700     1380   
                                           T        V       H0       H01     AOSYM     SMH    MOLCAS    ERIS     OPER     JKOP   

              2       4        2.85       700     1000      520     2100   
                                         GEOM     BASIS   MCVARS     RHF  

 PROGRAMS   *        TOTAL   CCSD(T)        HF       INT
 CPU TIMES  *         2.13      1.25      0.23      0.52
 REAL TIME  *         2.99 SEC
 DISK USED  *        75.59 MB      
 **********************************************************************************************************************************

 CCSD(T)/cc-pVTZ-DK energy=   -130.291612186118

        CCSD(T)         HF-SCF  
   -130.29161219   -129.83021916
 **********************************************************************************************************************************
 Molpro calculation terminated
 Variable memory released
