
 Primary working directories    : /tmp/r2666/235168.maple
 Secondary working directories  : /tmp/r2666/235168.maple
 Wavefunction directory         : /ddn/home4/r2666/wfu/
 Main file repository           : /tmp/r2666/235168.maple/

 SHA1      : d5ffa45e93fdbca01ffc919aa182cfdae0147319
 NAME      : 2015.1.35
 ARCHNAME  : linux/x86_64
 FC        : /opt/intel/composer_xe_2015.1.133/bin/intel64/ifort
 BLASLIB   : -Wl,-_start-group /opt/intel/mkl/lib/intel64/libmkl_intel_ilp64.a /opt/intel/mkl/lib/intel64/libmkl_intel_thread.a /opt/intel/mkl/lib/intel64/libmkl_core.a -Wl,-_end-group
 id        : olemiss

 Nodes     nprocs
 cn075        1

 Using customized tuning parameters: mindgm=1; mindgv=20; mindgc=4; mindgr=1; noblas=0; minvec=7
 default implementation of scratch files=df  

 ***,hno CCSD(T)/TZ-F12 QFF
 memory, 995, m;
 gthresh,energy=1.d-12,zero=1.d-22,oneint=1.d-22,twoint=1.d-22;
 gthresh,optgrad=1.d-8,optstep=1.d-8;
 nocompress;
 geomtyp=xyz
 bohr
 geometry={
 3
         23        23
 N        0.0000000000       -0.1582727576       -1.1447181986
 H        0.0000000000        1.6611719352       -1.9222202812
 O        0.0000000000        0.0388686123        1.1163488888
 }
 
 basis=vtz-dk
 dkroll=1
   {hf,maxit=500;accu,20;}
 {ccsd(t),nocheck,maxit=250;orbital,IGNORE_ERROR;}

 Variables initialized (889), CPU time= 0.01 sec
 Commands  initialized (702), CPU time= 0.01 sec, 572 directives.
 Default parameters read. Elapsed time= 0.06 sec

 Checking input...
 Passed
1


                                         ***  PROGRAM SYSTEM MOLPRO  ***
                                       Copyright, TTI GmbH Stuttgart, 2015
                                    Version 2015.1 linked Jul  9 2018 13:16:40


 **********************************************************************************************************************************
 LABEL *   hno CCSD(T)/TZ-F12 QFF                                                        
  64 bit serial version                                                                  DATE: 08-Feb-20          TIME: 17:57:16  
 **********************************************************************************************************************************

 SHA1:             d5ffa45e93fdbca01ffc919aa182cfdae0147319
 **********************************************************************************************************************************

 THRESHOLDS:

 ZERO    =  1.00D-22  ONEINT  =  1.00D-22  TWOINT  =  1.00D-22  PREFAC  =  1.00D-14  LOCALI  =  1.00D-09  EORDER  =  1.00D-04
 ENERGY  =  1.00D-12  ETEST   =  0.00D+00  EDENS   =  0.00D+00  THRDEDEF=  1.00D-06  GRADIENT=  1.00D-02  STEP    =  1.00D-03
 ORBITAL =  1.00D-05  CIVEC   =  1.00D-05  COEFF   =  1.00D-04  PRINTCI =  5.00D-02  PUNCHCI =  9.90D+01  OPTGRAD =  3.00D-04
 OPTENERG=  1.00D-06  OPTSTEP =  3.00D-04  THRGRAD =  1.00D-10  COMPRESS=  1.00D-11  VARMIN  =  1.00D-07  VARMAX  =  1.00D-03
 THRDOUB =  0.00D+00  THRDIV  =  1.00D-05  THRRED  =  1.00D-07  THRPSP  =  1.00D+00  THRDC   =  1.00D-10  THRCS   =  1.00D-10
 THRNRM  =  1.00D-08  THREQ   =  0.00D+00  THRDE   =  1.00D+00  THRREF  =  1.00D-05  SPARFAC =  1.00D+00  THRDLP  =  1.00D-07
 THRDIA  =  1.00D-10  THRDLS  =  1.00D-07  THRGPS  =  0.00D+00  THRKEX  =  0.00D+00  THRDIS  =  2.00D-01  THRVAR  =  1.00D-10
 THRLOC  =  1.00D-06  THRGAP  =  1.00D-06  THRLOCT = -1.00D+00  THRGAPT = -1.00D+00  THRORB  =  1.00D-06  THRMLTP =  0.00D+00
 THRCPQCI=  1.00D-10  KEXTA   =  0.00D+00  THRCOARS=  0.00D+00  SYMTOL  =  1.00D-06  GRADTOL =  1.00D-06  THROVL  =  1.00D-08
 THRORTH =  1.00D-08  GRID    =  1.00D-06  GRIDMAX =  1.00D-03  DTMAX   =  0.00D+00  THROCCDE=  1.00D-01  THROCCDE=  1.00D-01



 THRESHOLDS:

 ZERO    =  1.00D-22  ONEINT  =  1.00D-22  TWOINT  =  1.00D-22  PREFAC  =  1.00D-14  LOCALI  =  1.00D-09  EORDER  =  1.00D-04
 ENERGY  =  1.00D-12  ETEST   =  0.00D+00  EDENS   =  0.00D+00  THRDEDEF=  1.00D-06  GRADIENT=  1.00D-02  STEP    =  1.00D-03
 ORBITAL =  1.00D-05  CIVEC   =  1.00D-05  COEFF   =  1.00D-04  PRINTCI =  5.00D-02  PUNCHCI =  9.90D+01  OPTGRAD =  1.00D-08
 OPTENERG=  1.00D-06  OPTSTEP =  1.00D-08  THRGRAD =  1.00D-10  COMPRESS=  1.00D-11  VARMIN  =  1.00D-07  VARMAX  =  1.00D-03
 THRDOUB =  0.00D+00  THRDIV  =  1.00D-05  THRRED  =  1.00D-07  THRPSP  =  1.00D+00  THRDC   =  1.00D-10  THRCS   =  1.00D-10
 THRNRM  =  1.00D-08  THREQ   =  0.00D+00  THRDE   =  1.00D+00  THRREF  =  1.00D-05  SPARFAC =  1.00D+00  THRDLP  =  1.00D-07
 THRDIA  =  1.00D-10  THRDLS  =  1.00D-07  THRGPS  =  0.00D+00  THRKEX  =  0.00D+00  THRDIS  =  2.00D-01  THRVAR  =  1.00D-10
 THRLOC  =  1.00D-06  THRGAP  =  1.00D-06  THRLOCT = -1.00D+00  THRGAPT = -1.00D+00  THRORB  =  1.00D-06  THRMLTP =  0.00D+00
 THRCPQCI=  1.00D-10  KEXTA   =  0.00D+00  THRCOARS=  0.00D+00  SYMTOL  =  1.00D-06  GRADTOL =  1.00D-06  THROVL  =  1.00D-08
 THRORTH =  1.00D-08  GRID    =  1.00D-06  GRIDMAX =  1.00D-03  DTMAX   =  0.00D+00  THROCCDE=  1.00D-01  THROCCDE=  1.00D-01



 Input parameters for SORTINT:

 COMPRESS =    0.000000
 C_FINAL  =    1.000000
 DEBUG    =   -1.000000
 C_SORT1  =    0.000000
 C_SEWARD =    0.000000
 THRESH   =    0.000000
 IO       =  molpro                                                          
 SPRI     =    0.000000
 SETTING GEOMTYP        =    XYZ
 ZUNIT=BOHR
 

 Variable memory set to  995000000 words,  buffer space   230000 words

 SETTING BASIS          =    VTZ-DK
 SETTING DKROLL         =         1.00000000                                  


 Recomputing integrals since basis changed


 Using spherical harmonics

 Library entry N      S cc-pVTZ-DK           selected for orbital group  1
 Library entry N      P cc-pVTZ-DK           selected for orbital group  1
 Library entry N      D cc-pVTZ-DK           selected for orbital group  1
 Library entry N      F cc-pVTZ-DK           selected for orbital group  1
 Library entry H      S cc-pVTZ-DK           selected for orbital group  2
 Library entry H      P cc-pVTZ-DK           selected for orbital group  2
 Library entry H      D cc-pVTZ-DK           selected for orbital group  2
 Library entry O      S cc-pVTZ-DK           selected for orbital group  3
 Library entry O      P cc-pVTZ-DK           selected for orbital group  3
 Library entry O      D cc-pVTZ-DK           selected for orbital group  3
 Library entry O      F cc-pVTZ-DK           selected for orbital group  3


 PROGRAM * SEWARD (Integral evaluation for generally contracted gaussian basis sets)     Author: Roland Lindh, 1990

 Geometry written to block  1 of record 700


 Point group  Cs  



 ATOMIC COORDINATES

 NR  ATOM    CHARGE       X              Y              Z

   1  N       7.00    0.000000000   -0.158272758   -1.144718199
   2  H       1.00    0.000000000    1.661171935   -1.922220281
   3  O       8.00    0.000000000    0.038868612    1.116348889

 Bond lengths in Bohr (Angstrom)

 1-2  1.978607712  1-3  2.269645147
     ( 1.047034111)     ( 1.201044489)

 Bond angles

  2-1-3  108.15544917

 NUCLEAR CHARGE:                   16
 NUMBER OF PRIMITIVE AOS:         111
 NUMBER OF SYMMETRY AOS:          100
 NUMBER OF CONTRACTIONS:           74   (  50A'  +  24A"  )
 NUMBER OF CORE ORBITALS:           2   (   2A'  +   0A"  )
 NUMBER OF VALENCE ORBITALS:        9   (   7A'  +   2A"  )


 NUCLEAR REPULSION ENERGY   30.53382636

 One-electron integrals computed with SEWARD

 2nd-order Douglas-Kroll-Hess method activated. Optimal DKH parametrization is used.

 Computing Douglas-Kroll / X2C integrals


        1874283. INTEGRALS WRITTEN OUT IN     458 BLOCKS ON RECORD 1290 OF FILE 1


 NUMBER OF SORTED TWO-ELECTRON INTEGRALS:    2006100.     BUFFER LENGTH:  32768
 NUMBER OF SEGMENTS:   1  SEGMENT LENGTH:    2006100      RECORD LENGTH: 524288

 Memory used in sort:       2.56 MW

 SORT1 READ     1874283. AND WROTE     1914195. INTEGRALS IN      6 RECORDS. CPU TIME:     0.03 SEC, REAL TIME:     0.04 SEC
 SORT2 READ     1914195. AND WROTE     2006100. INTEGRALS IN      1 RECORDS. CPU TIME:     0.06 SEC, REAL TIME:     0.06 SEC

 FILE SIZES:   FILE 1:    50.2 MBYTE,  FILE 4:    25.2 MBYTE,   TOTAL:     75.4 MBYTE

 OPERATOR DM      FOR CENTER  0  COORDINATES:    0.000000    0.000000    0.000000

 Eigenvalues of metric

         1 0.241E-02 0.392E-02 0.406E-02 0.822E-02 0.129E-01 0.322E-01 0.421E-01 0.463E-01
         2 0.339E-01 0.464E-01 0.101E+00 0.110E+00 0.231E+00 0.339E+00 0.392E+00 0.447E+00


 **********************************************************************************************************************************
 DATASETS  * FILE   NREC   LENGTH (MB)   RECORD NAMES
              1      23       36.03       500      610      700      900      950      970     1000      129      960     1700   
                                          VAR    BASINP    GEOM    SYMINP    ZMAT    AOBASIS   BASIS     P2S    ABASIS    OPER   
                                         1101     1401     1411     1412     1650     1100     1400     1410     1200     1210   
                                          SR      EKINR    POTR     PVPR    MOLCAS      S      EKIN      POT      H0       H01  
                                         1300     1080     1600   
                                         ERIS     AOSYM     SMH  

 PROGRAMS   *        TOTAL       INT
 CPU TIMES  *         0.67      0.57
 REAL TIME  *         1.29 SEC
 DISK USED  *        75.75 MB      
 **********************************************************************************************************************************


 PROGRAM * RHF-SCF (CLOSED SHELL)       Authors: W. Meyer, H.-J. Werner


 NUMBER OF ELECTRONS:       8+    8-
 CONVERGENCE THRESHOLDS:    1.00E-10 (Density)    1.00E-13 (Energy)
 MAX. NUMBER OF ITERATIONS:      500
 INTERPOLATION TYPE:            DIIS
 INTERPOLATION STEPS:              2 (START)      1 (STEP)
 LEVEL SHIFTS:                  0.00 (CLOSED)  0.00 (OPEN) 



 Orbital guess generated from atomic densities. Full valence occupancy:    9   2

 Molecular orbital dump at record        2100.2

 Initial occupancy:   7   1

 ITERATION    DDIFF          GRAD             ENERGY        2-EL.EN.            DIPOLE MOMENTS         DIIS   ORB.
    1      0.000D+00      0.000D+00      -129.86979212    154.525161    0.00000    0.59026   -1.01776    0    start
    2      0.000D+00      0.134D-01      -129.89670949    155.642089    0.00000    0.61082   -0.22581    1    diag
    3      0.183D-01      0.101D-01      -129.91781448    155.759872    0.00000    0.56135   -0.59123    2    diag
    4      0.881D-02      0.154D-02      -129.91853626    155.499656    0.00000    0.57001   -0.53305    3    diag
    5      0.165D-02      0.508D-03      -129.91864736    155.584330    0.00000    0.57531   -0.53420    4    diag
    6      0.708D-03      0.151D-03      -129.91866565    155.569547    0.00000    0.57587   -0.53016    5    diag
    7      0.274D-03      0.753D-04      -129.91867095    155.571891    0.00000    0.57710   -0.52774    6    diag
    8      0.189D-03      0.236D-04      -129.91867142    155.571234    0.00000    0.57712   -0.52697    7    diag
    9      0.617D-04      0.426D-05      -129.91867144    155.571125    0.00000    0.57707   -0.52682    8    diag
   10      0.118D-04      0.955D-06      -129.91867144    155.571108    0.00000    0.57704   -0.52680    9    orth
   11      0.273D-05      0.187D-06      -129.91867144    155.571104    0.00000    0.57703   -0.52680    9    diag
   12      0.500D-06      0.385D-07      -129.91867144    155.571103    0.00000    0.57703   -0.52679    9    diag
   13      0.108D-06      0.942D-08      -129.91867144    155.571103    0.00000    0.57703   -0.52679    9    diag
   14      0.265D-07      0.172D-08      -129.91867144    155.571103    0.00000    0.57703   -0.52679    9    diag
   15      0.436D-08      0.451D-09      -129.91867144    155.571103    0.00000    0.57703   -0.52679    9    diag
   16      0.104D-08      0.114D-09      -129.91867144    155.571103    0.00000    0.57703   -0.52679    9    diag
   17      0.196D-09      0.328D-10      -129.91867144    155.571103    0.00000    0.57703   -0.52679    9    diag
   18      0.617D-10      0.109D-10      -129.91867144    155.571103    0.00000    0.57703   -0.52679    9    diag
   19      0.260D-10      0.242D-11      -129.91867144    155.571103    0.00000    0.57703   -0.52679    0    orth

 Final occupancy:   7   1

 !RHF STATE 1.1 Energy               -129.918671444158
 Nuclear energy                        30.53382636
 One-electron energy                 -238.23804915
 Two-electron energy                   77.78555134
 Virial quotient                       -0.99728553
 !RHF STATE 1.1 Dipole moment           0.00000000     0.57702631    -0.52679367
 Dipole moment /Debye                   0.00000000     1.46655853    -1.33888825

 Orbital energies:

         1.1          2.1          3.1          4.1          5.1          6.1          7.1          8.1          9.1
    -20.664252   -15.714911    -1.533142    -0.991766    -0.745706    -0.663710    -0.424935     0.144768     0.370495

         1.2          2.2          3.2
     -0.595052     0.089065     0.612315

 HOMO      7.1    -0.424935 =     -11.5631eV
 LUMO      2.2     0.089065 =       2.4236eV
 LUMO-HOMO         0.514000 =      13.9866eV


 **********************************************************************************************************************************
 DATASETS  * FILE   NREC   LENGTH (MB)   RECORD NAMES
              1      23       36.03       500      610      700      900      950      970     1000      129      960     1700   
                                          VAR    BASINP    GEOM    SYMINP    ZMAT    AOBASIS   BASIS     P2S    ABASIS    OPER   
                                         1101     1401     1411     1412     1650     1100     1400     1410     1200     1210   
                                          SR      EKINR    POTR     PVPR    MOLCAS      S      EKIN      POT      H0       H01  
                                         1300     1080     1600   
                                         ERIS     AOSYM     SMH  

              2       4        2.85       700     1000      520     2100   
                                         GEOM     BASIS   MCVARS     RHF  

 PROGRAMS   *        TOTAL        HF       INT
 CPU TIMES  *         0.85      0.18      0.57
 REAL TIME  *         1.53 SEC
 DISK USED  *        75.75 MB      
 **********************************************************************************************************************************


 PROGRAM * CCSD (Closed-shell coupled cluster)     Authors: C. Hampel, H.-J. Werner, 1991, M. Deegan, P.J. Knowles, 1992


 Convergence thresholds:  THRVAR = 1.00D-08  THRDEN = 1.00D-12

 CCSD(T)     terms to be evaluated (factor= 1.000)


 Number of core orbitals:           2 (   2   0 )
 Number of closed-shell orbitals:   6 (   5   1 )
 Number of external orbitals:      66 (  43  23 )

 Molecular orbitals read from record     2100.2  Type=RHF/CANONICAL (state 1.1)

 Number of N-1 electron functions:               6
 Number of N-2 electron functions:              21
 Number of singly external CSFs:               238
 Number of doubly external CSFs:             41002
 Total number of CSFs:                       41241

 Length of J-op  integral file:               0.00 MB
 Length of K-op  integral file:               0.25 MB
 Length of 3-ext integral record:             0.00 MB

 Memory could be reduced to 1.65 Mwords without degradation in triples

 Integral transformation finished. Total CPU:   0.03 sec, npass=  1  Memory used:   0.55 MW

 Reference energy:                   -129.91867144

 MP2 singlet pair energy:              -0.27292235
 MP2 triplet pair energy:              -0.16204525
 MP2 correlation energy:               -0.43496761
 MP2 total energy:                   -130.35363905

 SCS-MP2 correlation energy:           -0.42833498   (PS=  1.200000  PT=  0.333333)
 SCS-MP2 total energy:               -130.34700643

 ITER.      SQ.NORM     CORR.ENERGY   TOTAL ENERGY   ENERGY CHANGE        DEN1      VAR(S)    VAR(P)  DIIS     TIME  TIME/IT
   1      1.11754321    -0.44030974  -130.35898119    -0.00534213     0.01012461  0.28D-02  0.29D-02  1  1     0.07     0.04
   2      1.12818335    -0.44061325  -130.35928469    -0.00030351    -0.01209558  0.84D-04  0.49D-03  2  2     0.10     0.04
   3      1.13428246    -0.44098390  -130.35965535    -0.00037066    -0.00291808  0.44D-04  0.49D-04  3  3     0.13     0.04
   4      1.13699209    -0.44101035  -130.35968180    -0.00002645    -0.00093214  0.37D-05  0.86D-05  4  4     0.17     0.04
   5      1.13793890    -0.44103814  -130.35970959    -0.00002779    -0.00019619  0.13D-05  0.16D-05  5  5     0.21     0.04
   6      1.13828469    -0.44102253  -130.35969397     0.00001562    -0.00003909  0.92D-07  0.41D-06  6  6     0.25     0.04
   7      1.13836916    -0.44102453  -130.35969598    -0.00000200    -0.00000223  0.11D-07  0.85D-07  6  1     0.28     0.04
   8      1.13839901    -0.44102460  -130.35969604    -0.00000007     0.00000197  0.45D-08  0.96D-08  6  2     0.32     0.04
   9      1.13840631    -0.44102443  -130.35969588     0.00000016    -0.00000226  0.24D-08  0.11D-08  6  3     0.35     0.04
  10      1.13840506    -0.44102492  -130.35969636    -0.00000048     0.00000063  0.47D-09  0.19D-09  6  4     0.39     0.04
  11      1.13840340    -0.44102497  -130.35969642    -0.00000006     0.00000017  0.14D-09  0.21D-10  6  5     0.42     0.04
  12      1.13840207    -0.44102514  -130.35969658    -0.00000017     0.00000041  0.14D-10  0.69D-11  6  6     0.46     0.04
  13      1.13840150    -0.44102514  -130.35969659    -0.00000001     0.00000012  0.62D-11  0.11D-11  6  1     0.49     0.04
  14      1.13840114    -0.44102516  -130.35969661    -0.00000002     0.00000007  0.87D-12  0.40D-12  6  2     0.53     0.04
  15      1.13840101    -0.44102516  -130.35969661    -0.00000000     0.00000001  0.22D-12  0.13D-12  6  3     0.56     0.04
  16      1.13840092    -0.44102516  -130.35969661    -0.00000000     0.00000001  0.23D-13  0.15D-13  6  5     0.59     0.04
  17      1.13840089    -0.44102517  -130.35969661    -0.00000000     0.00000000  0.75D-15  0.21D-14  6  4     0.62     0.04
  18      1.13840089    -0.44102517  -130.35969661     0.00000000    -0.00000000  0.49D-15  0.31D-15  6  1     0.65     0.04
  19      1.13840088    -0.44102517  -130.35969661    -0.00000000     0.00000000  0.43D-16  0.54D-16  6  6     0.68     0.04
  20      1.13840088    -0.44102517  -130.35969661    -0.00000000     0.00000000  0.92D-17  0.13D-16  6  2     0.72     0.04
  21      1.13840088    -0.44102517  -130.35969661    -0.00000000     0.00000000  0.17D-17  0.98D-18  6  5     0.75     0.04
  22      1.13840088    -0.44102517  -130.35969661     0.00000000     0.00000000  0.10D-18  0.75D-19  6  3     0.79     0.04
  23      1.13840088    -0.44102517  -130.35969661     0.00000000    -0.00000000  0.30D-19  0.16D-19  6  4     0.82     0.04
  24      1.13840088    -0.44102517  -130.35969661     0.00000000    -0.00000000  0.44D-20  0.45D-20  6  1     0.86     0.04
  25      1.13840088    -0.44102517  -130.35969661     0.00000000    -0.00000000  0.50D-21  0.78D-21  6  6     0.89     0.04

 Norm of t1 vector:      0.07369966      S-energy:     0.00000000      T1 diagnostic:  0.01504388
                                                                       D1 diagnostic:  0.04154497

 Doubles amplitudes (print threshold =  0.500E-01):

         I         J         SYM. A    SYM. B    A         B      T(IJ, AB)

         6         6         2         2         1         1     -0.14186562


 Total CPU time for triples:      0.22 sec


 RESULTS
 =======

  Reference energy                   -129.918671444158
  CCSD singlet pair energy             -0.302185075875
  CCSD triplet pair energy             -0.138840091362
  CCSD correlation energy              -0.441025167236

  Triples (T) contribution             -0.019553156593
  Total correlation energy             -0.460578323829

  CCSD total energy                  -130.359696611393
  CCSD[T] energy                     -130.380234533707
  CCSD-T energy                      -130.378860847979
 !CCSD(T) total energy               -130.379249767987

 Timing summary (sec):

 STEP                 CPU(USER)    SYS     CPU(TOT)    WALL
 Transformation          0.03      0.01      0.04      0.04
 CCSD iterations         0.86      0.10      0.96      0.97
 Triples                 0.22      0.01      0.23      0.23

 Program statistics:

 Available memory in ccsd:               994999756
 Min. memory needed in ccsd:                154850
 Max. memory used in ccsd:                  184802
 Max. memory used in cckext:                238416 (25 integral passes)



 **********************************************************************************************************************************
 DATASETS  * FILE   NREC   LENGTH (MB)   RECORD NAMES
              1      24       40.41       500      610      700      900      950      970     1000      129      960     1700   
                                          VAR    BASINP    GEOM    SYMINP    ZMAT    AOBASIS   BASIS     P2S    ABASIS    OPER   
                                         1101     1401     1411     1412     1650     1100     1400     1410     1200     1210   
                                          SR      EKINR    POTR     PVPR    MOLCAS      S      EKIN      POT      H0       H01  
                                         1300     1080     1600     1380   
                                         ERIS     AOSYM     SMH     JKOP   

              2       4        2.85       700     1000      520     2100   
                                         GEOM     BASIS   MCVARS     RHF  

 PROGRAMS   *        TOTAL   CCSD(T)        HF       INT
 CPU TIMES  *         2.00      1.13      0.18      0.57
 REAL TIME  *         2.82 SEC
 DISK USED  *        75.75 MB      
 **********************************************************************************************************************************

 CCSD(T)/cc-pVTZ-DK energy=   -130.379249767987

        CCSD(T)         HF-SCF  
   -130.37924977   -129.91867144
 **********************************************************************************************************************************
 Molpro calculation terminated
 Variable memory released
