
 Primary working directories    : /tmp/r2666/235252.maple
 Secondary working directories  : /tmp/r2666/235252.maple
 Wavefunction directory         : /ddn/home4/r2666/wfu/
 Main file repository           : /tmp/r2666/235252.maple/

 SHA1      : d5ffa45e93fdbca01ffc919aa182cfdae0147319
 NAME      : 2015.1.35
 ARCHNAME  : linux/x86_64
 FC        : /opt/intel/composer_xe_2015.1.133/bin/intel64/ifort
 BLASLIB   : -Wl,-_start-group /opt/intel/mkl/lib/intel64/libmkl_intel_ilp64.a /opt/intel/mkl/lib/intel64/libmkl_intel_thread.a /opt/intel/mkl/lib/intel64/libmkl_core.a -Wl,-_end-group
 id        : olemiss

 Nodes     nprocs
 cn034        1

 Using customized tuning parameters: mindgm=1; mindgv=20; mindgc=4; mindgr=1; noblas=0; minvec=7
 default implementation of scratch files=df  

 ***,hno CCSD(T)/TZ-F12 QFF
 memory, 995, m;
 gthresh,energy=1.d-12,zero=1.d-22,oneint=1.d-22,twoint=1.d-22;
 gthresh,optgrad=1.d-8,optstep=1.d-8;
 nocompress;
 geomtyp=xyz
 bohr
 geometry={
 3
        107       107
 N        0.0000000000       -0.1611388897       -1.1449743018
 H        0.0000000000        1.6719815317       -1.9385079392
 O        0.0000000000        0.0309251480        1.1328926500
 }
 
 basis=vtz-dk
 dkroll=1
   {hf,maxit=500;accu,20;}
 {ccsd(t),nocheck,maxit=250;orbital,IGNORE_ERROR;}

 Variables initialized (889), CPU time= 0.00 sec
 Commands  initialized (702), CPU time= 0.01 sec, 572 directives.
 Default parameters read. Elapsed time= 0.05 sec

 Checking input...
 Passed
1


                                         ***  PROGRAM SYSTEM MOLPRO  ***
                                       Copyright, TTI GmbH Stuttgart, 2015
                                    Version 2015.1 linked Jul  9 2018 13:16:40


 **********************************************************************************************************************************
 LABEL *   hno CCSD(T)/TZ-F12 QFF                                                        
  64 bit serial version                                                                  DATE: 08-Feb-20          TIME: 17:57:24  
 **********************************************************************************************************************************

 SHA1:             d5ffa45e93fdbca01ffc919aa182cfdae0147319
 **********************************************************************************************************************************

 THRESHOLDS:

 ZERO    =  1.00D-22  ONEINT  =  1.00D-22  TWOINT  =  1.00D-22  PREFAC  =  1.00D-14  LOCALI  =  1.00D-09  EORDER  =  1.00D-04
 ENERGY  =  1.00D-12  ETEST   =  0.00D+00  EDENS   =  0.00D+00  THRDEDEF=  1.00D-06  GRADIENT=  1.00D-02  STEP    =  1.00D-03
 ORBITAL =  1.00D-05  CIVEC   =  1.00D-05  COEFF   =  1.00D-04  PRINTCI =  5.00D-02  PUNCHCI =  9.90D+01  OPTGRAD =  3.00D-04
 OPTENERG=  1.00D-06  OPTSTEP =  3.00D-04  THRGRAD =  1.00D-10  COMPRESS=  1.00D-11  VARMIN  =  1.00D-07  VARMAX  =  1.00D-03
 THRDOUB =  0.00D+00  THRDIV  =  1.00D-05  THRRED  =  1.00D-07  THRPSP  =  1.00D+00  THRDC   =  1.00D-10  THRCS   =  1.00D-10
 THRNRM  =  1.00D-08  THREQ   =  0.00D+00  THRDE   =  1.00D+00  THRREF  =  1.00D-05  SPARFAC =  1.00D+00  THRDLP  =  1.00D-07
 THRDIA  =  1.00D-10  THRDLS  =  1.00D-07  THRGPS  =  0.00D+00  THRKEX  =  0.00D+00  THRDIS  =  2.00D-01  THRVAR  =  1.00D-10
 THRLOC  =  1.00D-06  THRGAP  =  1.00D-06  THRLOCT = -1.00D+00  THRGAPT = -1.00D+00  THRORB  =  1.00D-06  THRMLTP =  0.00D+00
 THRCPQCI=  1.00D-10  KEXTA   =  0.00D+00  THRCOARS=  0.00D+00  SYMTOL  =  1.00D-06  GRADTOL =  1.00D-06  THROVL  =  1.00D-08
 THRORTH =  1.00D-08  GRID    =  1.00D-06  GRIDMAX =  1.00D-03  DTMAX   =  0.00D+00  THROCCDE=  1.00D-01  THROCCDE=  1.00D-01



 THRESHOLDS:

 ZERO    =  1.00D-22  ONEINT  =  1.00D-22  TWOINT  =  1.00D-22  PREFAC  =  1.00D-14  LOCALI  =  1.00D-09  EORDER  =  1.00D-04
 ENERGY  =  1.00D-12  ETEST   =  0.00D+00  EDENS   =  0.00D+00  THRDEDEF=  1.00D-06  GRADIENT=  1.00D-02  STEP    =  1.00D-03
 ORBITAL =  1.00D-05  CIVEC   =  1.00D-05  COEFF   =  1.00D-04  PRINTCI =  5.00D-02  PUNCHCI =  9.90D+01  OPTGRAD =  1.00D-08
 OPTENERG=  1.00D-06  OPTSTEP =  1.00D-08  THRGRAD =  1.00D-10  COMPRESS=  1.00D-11  VARMIN  =  1.00D-07  VARMAX  =  1.00D-03
 THRDOUB =  0.00D+00  THRDIV  =  1.00D-05  THRRED  =  1.00D-07  THRPSP  =  1.00D+00  THRDC   =  1.00D-10  THRCS   =  1.00D-10
 THRNRM  =  1.00D-08  THREQ   =  0.00D+00  THRDE   =  1.00D+00  THRREF  =  1.00D-05  SPARFAC =  1.00D+00  THRDLP  =  1.00D-07
 THRDIA  =  1.00D-10  THRDLS  =  1.00D-07  THRGPS  =  0.00D+00  THRKEX  =  0.00D+00  THRDIS  =  2.00D-01  THRVAR  =  1.00D-10
 THRLOC  =  1.00D-06  THRGAP  =  1.00D-06  THRLOCT = -1.00D+00  THRGAPT = -1.00D+00  THRORB  =  1.00D-06  THRMLTP =  0.00D+00
 THRCPQCI=  1.00D-10  KEXTA   =  0.00D+00  THRCOARS=  0.00D+00  SYMTOL  =  1.00D-06  GRADTOL =  1.00D-06  THROVL  =  1.00D-08
 THRORTH =  1.00D-08  GRID    =  1.00D-06  GRIDMAX =  1.00D-03  DTMAX   =  0.00D+00  THROCCDE=  1.00D-01  THROCCDE=  1.00D-01



 Input parameters for SORTINT:

 COMPRESS =    0.000000
 C_FINAL  =    1.000000
 DEBUG    =   -1.000000
 C_SORT1  =    0.000000
 C_SEWARD =    0.000000
 THRESH   =    0.000000
 IO       =  molpro                                                          
 SPRI     =    0.000000
 SETTING GEOMTYP        =    XYZ
 ZUNIT=BOHR
 

 Variable memory set to  995000000 words,  buffer space   230000 words

 SETTING BASIS          =    VTZ-DK
 SETTING DKROLL         =         1.00000000                                  


 Recomputing integrals since basis changed


 Using spherical harmonics

 Library entry N      S cc-pVTZ-DK           selected for orbital group  1
 Library entry N      P cc-pVTZ-DK           selected for orbital group  1
 Library entry N      D cc-pVTZ-DK           selected for orbital group  1
 Library entry N      F cc-pVTZ-DK           selected for orbital group  1
 Library entry H      S cc-pVTZ-DK           selected for orbital group  2
 Library entry H      P cc-pVTZ-DK           selected for orbital group  2
 Library entry H      D cc-pVTZ-DK           selected for orbital group  2
 Library entry O      S cc-pVTZ-DK           selected for orbital group  3
 Library entry O      P cc-pVTZ-DK           selected for orbital group  3
 Library entry O      D cc-pVTZ-DK           selected for orbital group  3
 Library entry O      F cc-pVTZ-DK           selected for orbital group  3


 PROGRAM * SEWARD (Integral evaluation for generally contracted gaussian basis sets)     Author: Roland Lindh, 1990

 Geometry written to block  1 of record 700


 Point group  Cs  



 ATOMIC COORDINATES

 NR  ATOM    CHARGE       X              Y              Z

   1  N       7.00    0.000000000   -0.161138890   -1.144974302
   2  H       1.00    0.000000000    1.671981532   -1.938507939
   3  O       8.00    0.000000000    0.030925148    1.132892650

 Bond lengths in Bohr (Angstrom)

 1-2  1.997504972  1-3  2.285949790
     ( 1.057034110)     ( 1.209672534)

 Bond angles

  2-1-3  108.58751303

 NUCLEAR CHARGE:                   16
 NUMBER OF PRIMITIVE AOS:         111
 NUMBER OF SYMMETRY AOS:          100
 NUMBER OF CONTRACTIONS:           74   (  50A'  +  24A"  )
 NUMBER OF CORE ORBITALS:           2   (   2A'  +   0A"  )
 NUMBER OF VALENCE ORBITALS:        9   (   7A'  +   2A"  )


 NUCLEAR REPULSION ENERGY   30.29916530

 One-electron integrals computed with SEWARD

 2nd-order Douglas-Kroll-Hess method activated. Optimal DKH parametrization is used.

 Computing Douglas-Kroll / X2C integrals


        1874283. INTEGRALS WRITTEN OUT IN     458 BLOCKS ON RECORD 1290 OF FILE 1


 NUMBER OF SORTED TWO-ELECTRON INTEGRALS:    2006100.     BUFFER LENGTH:  32768
 NUMBER OF SEGMENTS:   1  SEGMENT LENGTH:    2006100      RECORD LENGTH: 524288

 Memory used in sort:       2.56 MW

 SORT1 READ     1874283. AND WROTE     1914195. INTEGRALS IN      6 RECORDS. CPU TIME:     0.05 SEC, REAL TIME:     0.07 SEC
 SORT2 READ     1914195. AND WROTE     2006100. INTEGRALS IN      1 RECORDS. CPU TIME:     0.05 SEC, REAL TIME:     0.05 SEC

 FILE SIZES:   FILE 1:    50.2 MBYTE,  FILE 4:    25.2 MBYTE,   TOTAL:     75.4 MBYTE

 OPERATOR DM      FOR CENTER  0  COORDINATES:    0.000000    0.000000    0.000000

 Eigenvalues of metric

         1 0.247E-02 0.400E-02 0.418E-02 0.847E-02 0.131E-01 0.329E-01 0.427E-01 0.464E-01
         2 0.344E-01 0.465E-01 0.102E+00 0.113E+00 0.236E+00 0.344E+00 0.396E+00 0.451E+00


 **********************************************************************************************************************************
 DATASETS  * FILE   NREC   LENGTH (MB)   RECORD NAMES
              1      23       36.03       500      610      700      900      950      970     1000      129      960     1700   
                                          VAR    BASINP    GEOM    SYMINP    ZMAT    AOBASIS   BASIS     P2S    ABASIS    OPER   
                                         1101     1401     1411     1412     1650     1100     1400     1410     1200     1210   
                                          SR      EKINR    POTR     PVPR    MOLCAS      S      EKIN      POT      H0       H01  
                                         1300     1080     1600   
                                         ERIS     AOSYM     SMH  

 PROGRAMS   *        TOTAL       INT
 CPU TIMES  *         0.68      0.58
 REAL TIME  *         1.30 SEC
 DISK USED  *        75.75 MB      
 **********************************************************************************************************************************


 PROGRAM * RHF-SCF (CLOSED SHELL)       Authors: W. Meyer, H.-J. Werner


 NUMBER OF ELECTRONS:       8+    8-
 CONVERGENCE THRESHOLDS:    1.00E-10 (Density)    1.00E-13 (Energy)
 MAX. NUMBER OF ITERATIONS:      500
 INTERPOLATION TYPE:            DIIS
 INTERPOLATION STEPS:              2 (START)      1 (STEP)
 LEVEL SHIFTS:                  0.00 (CLOSED)  0.00 (OPEN) 



 Orbital guess generated from atomic densities. Full valence occupancy:    9   2

 Molecular orbital dump at record        2100.2

 Initial occupancy:   7   1

 ITERATION    DDIFF          GRAD             ENERGY        2-EL.EN.            DIPOLE MOMENTS         DIIS   ORB.
    1      0.000D+00      0.000D+00      -129.86667824    154.095183    0.00000    0.59166   -1.04742    0    start
    2      0.000D+00      0.136D-01      -129.89333455    155.209438    0.00000    0.61514   -0.21922    1    diag
    3      0.187D-01      0.105D-01      -129.91623422    155.341980    0.00000    0.56364   -0.60412    2    diag
    4      0.909D-02      0.156D-02      -129.91697492    155.074306    0.00000    0.57183   -0.54445    3    diag
    5      0.166D-02      0.516D-03      -129.91709083    155.160576    0.00000    0.57729   -0.54549    4    diag
    6      0.721D-03      0.155D-03      -129.91711009    155.145531    0.00000    0.57781   -0.54126    5    diag
    7      0.280D-03      0.775D-04      -129.91711578    155.147827    0.00000    0.57905   -0.53872    6    diag
    8      0.194D-03      0.251D-04      -129.91711633    155.147130    0.00000    0.57907   -0.53789    7    diag
    9      0.667D-04      0.459D-05      -129.91711635    155.147009    0.00000    0.57902   -0.53773    8    diag
   10      0.130D-04      0.101D-05      -129.91711635    155.146991    0.00000    0.57898   -0.53771    9    orth
   11      0.285D-05      0.198D-06      -129.91711636    155.146986    0.00000    0.57897   -0.53771    9    diag
   12      0.520D-06      0.415D-07      -129.91711636    155.146985    0.00000    0.57897   -0.53770    9    diag
   13      0.114D-06      0.104D-07      -129.91711636    155.146985    0.00000    0.57897   -0.53770    9    diag
   14      0.288D-07      0.188D-08      -129.91711636    155.146985    0.00000    0.57897   -0.53770    9    diag
   15      0.449D-08      0.479D-09      -129.91711636    155.146985    0.00000    0.57897   -0.53770    9    diag
   16      0.108D-08      0.113D-09      -129.91711636    155.146985    0.00000    0.57897   -0.53770    9    diag
   17      0.177D-09      0.307D-10      -129.91711636    155.146985    0.00000    0.57897   -0.53770    9    diag
   18      0.509D-10      0.991D-11      -129.91711636    155.146985    0.00000    0.57897   -0.53770    9    diag
   19      0.214D-10      0.192D-11      -129.91711636    155.146985    0.00000    0.57897   -0.53770    0    orth

 Final occupancy:   7   1

 !RHF STATE 1.1 Energy               -129.917116355032
 Nuclear energy                        30.29916530
 One-electron energy                 -237.78977391
 Two-electron energy                   77.57349226
 Virial quotient                       -0.99767840
 !RHF STATE 1.1 Dipole moment           0.00000000     0.57897206    -0.53770316
 Dipole moment /Debye                   0.00000000     1.47150380    -1.36661561

 Orbital energies:

         1.1          2.1          3.1          4.1          5.1          6.1          7.1          8.1          9.1
    -20.665410   -15.717690    -1.525732    -0.991543    -0.741945    -0.661318    -0.426704     0.143525     0.369404

         1.2          2.2          3.2
     -0.591052     0.085797     0.613270

 HOMO      7.1    -0.426704 =     -11.6112eV
 LUMO      2.2     0.085797 =       2.3347eV
 LUMO-HOMO         0.512501 =      13.9459eV


 **********************************************************************************************************************************
 DATASETS  * FILE   NREC   LENGTH (MB)   RECORD NAMES
              1      23       36.03       500      610      700      900      950      970     1000      129      960     1700   
                                          VAR    BASINP    GEOM    SYMINP    ZMAT    AOBASIS   BASIS     P2S    ABASIS    OPER   
                                         1101     1401     1411     1412     1650     1100     1400     1410     1200     1210   
                                          SR      EKINR    POTR     PVPR    MOLCAS      S      EKIN      POT      H0       H01  
                                         1300     1080     1600   
                                         ERIS     AOSYM     SMH  

              2       4        2.85       700     1000      520     2100   
                                         GEOM     BASIS   MCVARS     RHF  

 PROGRAMS   *        TOTAL        HF       INT
 CPU TIMES  *         0.89      0.21      0.58
 REAL TIME  *         1.56 SEC
 DISK USED  *        75.75 MB      
 **********************************************************************************************************************************


 PROGRAM * CCSD (Closed-shell coupled cluster)     Authors: C. Hampel, H.-J. Werner, 1991, M. Deegan, P.J. Knowles, 1992


 Convergence thresholds:  THRVAR = 1.00D-08  THRDEN = 1.00D-12

 CCSD(T)     terms to be evaluated (factor= 1.000)


 Number of core orbitals:           2 (   2   0 )
 Number of closed-shell orbitals:   6 (   5   1 )
 Number of external orbitals:      66 (  43  23 )

 Molecular orbitals read from record     2100.2  Type=RHF/CANONICAL (state 1.1)

 Number of N-1 electron functions:               6
 Number of N-2 electron functions:              21
 Number of singly external CSFs:               238
 Number of doubly external CSFs:             41002
 Total number of CSFs:                       41241

 Length of J-op  integral file:               0.00 MB
 Length of K-op  integral file:               0.25 MB
 Length of 3-ext integral record:             0.00 MB

 Memory could be reduced to 1.65 Mwords without degradation in triples

 Integral transformation finished. Total CPU:   0.04 sec, npass=  1  Memory used:   0.55 MW

 Reference energy:                   -129.91711636

 MP2 singlet pair energy:              -0.27406686
 MP2 triplet pair energy:              -0.16277485
 MP2 correlation energy:               -0.43684171
 MP2 total energy:                   -130.35395807

 SCS-MP2 correlation energy:           -0.43016237   (PS=  1.200000  PT=  0.333333)
 SCS-MP2 total energy:               -130.34727872

 ITER.      SQ.NORM     CORR.ENERGY   TOTAL ENERGY   ENERGY CHANGE        DEN1      VAR(S)    VAR(P)  DIIS     TIME  TIME/IT
   1      1.11882758    -0.44183836  -130.35895471    -0.00499664     0.01092211  0.30D-02  0.30D-02  1  1     0.09     0.05
   2      1.12975366    -0.44207132  -130.35918767    -0.00023296    -0.01236050  0.90D-04  0.51D-03  2  2     0.14     0.05
   3      1.13610845    -0.44246388  -130.35958023    -0.00039256    -0.00300245  0.48D-04  0.51D-04  3  3     0.19     0.05
   4      1.13894850    -0.44248955  -130.35960590    -0.00002567    -0.00096860  0.42D-05  0.91D-05  4  4     0.24     0.05
   5      1.13996851    -0.44251974  -130.35963609    -0.00003019    -0.00021144  0.14D-05  0.17D-05  5  5     0.28     0.05
   6      1.14033495    -0.44250281  -130.35961916     0.00001693    -0.00004163  0.10D-06  0.41D-06  6  6     0.33     0.05
   7      1.14042216    -0.44250477  -130.35962112    -0.00000196    -0.00000213  0.12D-07  0.88D-07  6  1     0.38     0.05
   8      1.14045329    -0.44250475  -130.35962111     0.00000001     0.00000183  0.44D-08  0.11D-07  6  2     0.42     0.05
   9      1.14046141    -0.44250451  -130.35962087     0.00000024    -0.00000227  0.26D-08  0.12D-08  6  3     0.47     0.05
  10      1.14046018    -0.44250504  -130.35962139    -0.00000052     0.00000060  0.50D-09  0.22D-09  6  4     0.52     0.05
  11      1.14045840    -0.44250510  -130.35962145    -0.00000006     0.00000020  0.15D-09  0.24D-10  6  5     0.57     0.05
  12      1.14045697    -0.44250528  -130.35962163    -0.00000018     0.00000044  0.16D-10  0.79D-11  6  6     0.62     0.05
  13      1.14045633    -0.44250529  -130.35962164    -0.00000001     0.00000013  0.70D-11  0.13D-11  6  1     0.67     0.05
  14      1.14045593    -0.44250531  -130.35962166    -0.00000002     0.00000008  0.98D-12  0.45D-12  6  2     0.72     0.05
  15      1.14045578    -0.44250531  -130.35962166    -0.00000000     0.00000001  0.25D-12  0.14D-12  6  3     0.77     0.05
  16      1.14045566    -0.44250531  -130.35962167    -0.00000000     0.00000002  0.77D-14  0.38D-13  6  1     0.82     0.05
  17      1.14045565    -0.44250531  -130.35962167     0.00000000    -0.00000000  0.31D-14  0.26D-14  6  4     0.87     0.05
  18      1.14045564    -0.44250531  -130.35962167    -0.00000000     0.00000000  0.76D-15  0.46D-15  6  5     0.91     0.05
  19      1.14045564    -0.44250531  -130.35962167     0.00000000    -0.00000000  0.14D-15  0.86D-16  6  6     0.95     0.05
  20      1.14045564    -0.44250531  -130.35962167    -0.00000000     0.00000000  0.21D-16  0.21D-16  6  2     1.00     0.05
  21      1.14045564    -0.44250531  -130.35962167    -0.00000000     0.00000000  0.31D-17  0.26D-17  6  3     1.05     0.05
  22      1.14045564    -0.44250531  -130.35962167    -0.00000000     0.00000000  0.32D-18  0.40D-18  6  4     1.09     0.05
  23      1.14045564    -0.44250531  -130.35962167    -0.00000000     0.00000000  0.11D-18  0.33D-19  6  1     1.14     0.05
  24      1.14045564    -0.44250531  -130.35962167     0.00000000    -0.00000000  0.18D-19  0.12D-19  6  6     1.20     0.05
  25      1.14045564    -0.44250531  -130.35962167     0.00000000    -0.00000000  0.38D-20  0.77D-21  6  5     1.24     0.05
  26      1.14045564    -0.44250531  -130.35962167     0.00000000    -0.00000000  0.75D-21  0.30D-21  6  2     1.28     0.05
  27      1.14045564    -0.44250531  -130.35962167     0.00000000    -0.00000000  0.19D-22  0.11D-22  6  5     1.33     0.05

 Norm of t1 vector:      0.07572874      S-energy:     0.00000000      T1 diagnostic:  0.01545807
                                                                       D1 diagnostic:  0.04272724

 Doubles amplitudes (print threshold =  0.500E-01):

         I         J         SYM. A    SYM. B    A         B      T(IJ, AB)

         6         6         2         2         1         1     -0.14417479


 Total CPU time for triples:      0.34 sec


 RESULTS
 =======

  Reference energy                   -129.917116355032
  CCSD singlet pair energy             -0.303471316685
  CCSD triplet pair energy             -0.139033995927
  CCSD correlation energy              -0.442505312611

  Triples (T) contribution             -0.019880492442
  Total correlation energy             -0.462385805053

  CCSD total energy                  -130.359621667643
  CCSD[T] energy                     -130.380536700273
  CCSD-T energy                      -130.379099306614
 !CCSD(T) total energy               -130.379502160085

 Timing summary (sec):

 STEP                 CPU(USER)    SYS     CPU(TOT)    WALL
 Transformation          0.04      0.01      0.05      0.06
 CCSD iterations         1.30      0.12      1.42      1.42
 Triples                 0.34      0.01      0.35      0.35

 Program statistics:

 Available memory in ccsd:               994999756
 Min. memory needed in ccsd:                154850
 Max. memory used in ccsd:                  184802
 Max. memory used in cckext:                238416 (27 integral passes)



 **********************************************************************************************************************************
 DATASETS  * FILE   NREC   LENGTH (MB)   RECORD NAMES
              1      24       40.41       500      610      700      900      950      970     1000      129      960     1700   
                                          VAR    BASINP    GEOM    SYMINP    ZMAT    AOBASIS   BASIS     P2S    ABASIS    OPER   
                                         1101     1401     1411     1412     1650     1100     1400     1410     1200     1210   
                                          SR      EKINR    POTR     PVPR    MOLCAS      S      EKIN      POT      H0       H01  
                                         1300     1080     1600     1380   
                                         ERIS     AOSYM     SMH     JKOP   

              2       4        2.85       700     1000      520     2100   
                                         GEOM     BASIS   MCVARS     RHF  

 PROGRAMS   *        TOTAL   CCSD(T)        HF       INT
 CPU TIMES  *         2.60      1.70      0.21      0.58
 REAL TIME  *         3.42 SEC
 DISK USED  *        75.75 MB      
 **********************************************************************************************************************************

 CCSD(T)/cc-pVTZ-DK energy=   -130.379502160085

        CCSD(T)         HF-SCF  
   -130.37950216   -129.91711636
 **********************************************************************************************************************************
 Molpro calculation terminated
 Variable memory released
