
 Primary working directories    : /tmp/r2666/235148.maple
 Secondary working directories  : /tmp/r2666/235148.maple
 Wavefunction directory         : /ddn/home4/r2666/wfu/
 Main file repository           : /tmp/r2666/235148.maple/

 SHA1      : d5ffa45e93fdbca01ffc919aa182cfdae0147319
 NAME      : 2015.1.35
 ARCHNAME  : linux/x86_64
 FC        : /opt/intel/composer_xe_2015.1.133/bin/intel64/ifort
 BLASLIB   : -Wl,-_start-group /opt/intel/mkl/lib/intel64/libmkl_intel_ilp64.a /opt/intel/mkl/lib/intel64/libmkl_intel_thread.a /opt/intel/mkl/lib/intel64/libmkl_core.a -Wl,-_end-group
 id        : olemiss

 Nodes     nprocs
 cn036        1

 Using customized tuning parameters: mindgm=1; mindgv=20; mindgc=4; mindgr=1; noblas=0; minvec=7
 default implementation of scratch files=df  

 ***,hno CCSD(T)/TZ-F12 QFF
 memory, 995, m;
 gthresh,energy=1.d-12,zero=1.d-22,oneint=1.d-22,twoint=1.d-22;
 gthresh,optgrad=1.d-8,optstep=1.d-8;
 nocompress;
 geomtyp=xyz
 bohr
 geometry={
 3
          3         3
 N        0.0000000000       -0.1464597285       -1.1507956501
 H        0.0000000000        1.6536746499       -1.9253802332
 O        0.0000000000        0.0345528686        1.1255862924
 }
 
 basis=vtz-dk
 dkroll=1
   {hf,maxit=500;accu,20;}
 {ccsd(t),nocheck,maxit=250;orbital,IGNORE_ERROR;}

 Variables initialized (889), CPU time= 0.00 sec
 Commands  initialized (702), CPU time= 0.01 sec, 572 directives.
 Default parameters read. Elapsed time= 0.05 sec

 Checking input...
 Passed
1


                                         ***  PROGRAM SYSTEM MOLPRO  ***
                                       Copyright, TTI GmbH Stuttgart, 2015
                                    Version 2015.1 linked Jul  9 2018 13:16:40


 **********************************************************************************************************************************
 LABEL *   hno CCSD(T)/TZ-F12 QFF                                                        
  64 bit serial version                                                                  DATE: 08-Feb-20          TIME: 17:57:12  
 **********************************************************************************************************************************

 SHA1:             d5ffa45e93fdbca01ffc919aa182cfdae0147319
 **********************************************************************************************************************************

 THRESHOLDS:

 ZERO    =  1.00D-22  ONEINT  =  1.00D-22  TWOINT  =  1.00D-22  PREFAC  =  1.00D-14  LOCALI  =  1.00D-09  EORDER  =  1.00D-04
 ENERGY  =  1.00D-12  ETEST   =  0.00D+00  EDENS   =  0.00D+00  THRDEDEF=  1.00D-06  GRADIENT=  1.00D-02  STEP    =  1.00D-03
 ORBITAL =  1.00D-05  CIVEC   =  1.00D-05  COEFF   =  1.00D-04  PRINTCI =  5.00D-02  PUNCHCI =  9.90D+01  OPTGRAD =  3.00D-04
 OPTENERG=  1.00D-06  OPTSTEP =  3.00D-04  THRGRAD =  1.00D-10  COMPRESS=  1.00D-11  VARMIN  =  1.00D-07  VARMAX  =  1.00D-03
 THRDOUB =  0.00D+00  THRDIV  =  1.00D-05  THRRED  =  1.00D-07  THRPSP  =  1.00D+00  THRDC   =  1.00D-10  THRCS   =  1.00D-10
 THRNRM  =  1.00D-08  THREQ   =  0.00D+00  THRDE   =  1.00D+00  THRREF  =  1.00D-05  SPARFAC =  1.00D+00  THRDLP  =  1.00D-07
 THRDIA  =  1.00D-10  THRDLS  =  1.00D-07  THRGPS  =  0.00D+00  THRKEX  =  0.00D+00  THRDIS  =  2.00D-01  THRVAR  =  1.00D-10
 THRLOC  =  1.00D-06  THRGAP  =  1.00D-06  THRLOCT = -1.00D+00  THRGAPT = -1.00D+00  THRORB  =  1.00D-06  THRMLTP =  0.00D+00
 THRCPQCI=  1.00D-10  KEXTA   =  0.00D+00  THRCOARS=  0.00D+00  SYMTOL  =  1.00D-06  GRADTOL =  1.00D-06  THROVL  =  1.00D-08
 THRORTH =  1.00D-08  GRID    =  1.00D-06  GRIDMAX =  1.00D-03  DTMAX   =  0.00D+00  THROCCDE=  1.00D-01  THROCCDE=  1.00D-01



 THRESHOLDS:

 ZERO    =  1.00D-22  ONEINT  =  1.00D-22  TWOINT  =  1.00D-22  PREFAC  =  1.00D-14  LOCALI  =  1.00D-09  EORDER  =  1.00D-04
 ENERGY  =  1.00D-12  ETEST   =  0.00D+00  EDENS   =  0.00D+00  THRDEDEF=  1.00D-06  GRADIENT=  1.00D-02  STEP    =  1.00D-03
 ORBITAL =  1.00D-05  CIVEC   =  1.00D-05  COEFF   =  1.00D-04  PRINTCI =  5.00D-02  PUNCHCI =  9.90D+01  OPTGRAD =  1.00D-08
 OPTENERG=  1.00D-06  OPTSTEP =  1.00D-08  THRGRAD =  1.00D-10  COMPRESS=  1.00D-11  VARMIN  =  1.00D-07  VARMAX  =  1.00D-03
 THRDOUB =  0.00D+00  THRDIV  =  1.00D-05  THRRED  =  1.00D-07  THRPSP  =  1.00D+00  THRDC   =  1.00D-10  THRCS   =  1.00D-10
 THRNRM  =  1.00D-08  THREQ   =  0.00D+00  THRDE   =  1.00D+00  THRREF  =  1.00D-05  SPARFAC =  1.00D+00  THRDLP  =  1.00D-07
 THRDIA  =  1.00D-10  THRDLS  =  1.00D-07  THRGPS  =  0.00D+00  THRKEX  =  0.00D+00  THRDIS  =  2.00D-01  THRVAR  =  1.00D-10
 THRLOC  =  1.00D-06  THRGAP  =  1.00D-06  THRLOCT = -1.00D+00  THRGAPT = -1.00D+00  THRORB  =  1.00D-06  THRMLTP =  0.00D+00
 THRCPQCI=  1.00D-10  KEXTA   =  0.00D+00  THRCOARS=  0.00D+00  SYMTOL  =  1.00D-06  GRADTOL =  1.00D-06  THROVL  =  1.00D-08
 THRORTH =  1.00D-08  GRID    =  1.00D-06  GRIDMAX =  1.00D-03  DTMAX   =  0.00D+00  THROCCDE=  1.00D-01  THROCCDE=  1.00D-01



 Input parameters for SORTINT:

 COMPRESS =    0.000000
 C_FINAL  =    1.000000
 DEBUG    =   -1.000000
 C_SORT1  =    0.000000
 C_SEWARD =    0.000000
 THRESH   =    0.000000
 IO       =  molpro                                                          
 SPRI     =    0.000000
 SETTING GEOMTYP        =    XYZ
 ZUNIT=BOHR
 

 Variable memory set to  995000000 words,  buffer space   230000 words

 SETTING BASIS          =    VTZ-DK
 SETTING DKROLL         =         1.00000000                                  


 Recomputing integrals since basis changed


 Using spherical harmonics

 Library entry N      S cc-pVTZ-DK           selected for orbital group  1
 Library entry N      P cc-pVTZ-DK           selected for orbital group  1
 Library entry N      D cc-pVTZ-DK           selected for orbital group  1
 Library entry N      F cc-pVTZ-DK           selected for orbital group  1
 Library entry H      S cc-pVTZ-DK           selected for orbital group  2
 Library entry H      P cc-pVTZ-DK           selected for orbital group  2
 Library entry H      D cc-pVTZ-DK           selected for orbital group  2
 Library entry O      S cc-pVTZ-DK           selected for orbital group  3
 Library entry O      P cc-pVTZ-DK           selected for orbital group  3
 Library entry O      D cc-pVTZ-DK           selected for orbital group  3
 Library entry O      F cc-pVTZ-DK           selected for orbital group  3


 PROGRAM * SEWARD (Integral evaluation for generally contracted gaussian basis sets)     Author: Roland Lindh, 1990

 Geometry written to block  1 of record 700


 Point group  Cs  



 ATOMIC COORDINATES

 NR  ATOM    CHARGE       X              Y              Z

   1  N       7.00    0.000000000   -0.146459728   -1.150795650
   2  H       1.00    0.000000000    1.653674650   -1.925380233
   3  O       8.00    0.000000000    0.034552869    1.125586292

 Bond lengths in Bohr (Angstrom)

 1-2  1.959710452  1-3  2.283567452
     ( 1.037034111)     ( 1.208411855)

 Bond angles

  2-1-3  108.73539344

 NUCLEAR CHARGE:                   16
 NUMBER OF PRIMITIVE AOS:         111
 NUMBER OF SYMMETRY AOS:          100
 NUMBER OF CONTRACTIONS:           74   (  50A'  +  24A"  )
 NUMBER OF CORE ORBITALS:           2   (   2A'  +   0A"  )
 NUMBER OF VALENCE ORBITALS:        9   (   7A'  +   2A"  )


 NUCLEAR REPULSION ENERGY   30.41116035

 One-electron integrals computed with SEWARD

 2nd-order Douglas-Kroll-Hess method activated. Optimal DKH parametrization is used.

 Computing Douglas-Kroll / X2C integrals


        1874283. INTEGRALS WRITTEN OUT IN     458 BLOCKS ON RECORD 1290 OF FILE 1


 NUMBER OF SORTED TWO-ELECTRON INTEGRALS:    2006100.     BUFFER LENGTH:  32768
 NUMBER OF SEGMENTS:   1  SEGMENT LENGTH:    2006100      RECORD LENGTH: 524288

 Memory used in sort:       2.56 MW

 SORT1 READ     1874283. AND WROTE     1914195. INTEGRALS IN      6 RECORDS. CPU TIME:     0.05 SEC, REAL TIME:     0.06 SEC
 SORT2 READ     1914195. AND WROTE     2006100. INTEGRALS IN      1 RECORDS. CPU TIME:     0.06 SEC, REAL TIME:     0.07 SEC

 FILE SIZES:   FILE 1:    50.2 MBYTE,  FILE 4:    25.2 MBYTE,   TOTAL:     75.4 MBYTE

 OPERATOR DM      FOR CENTER  0  COORDINATES:    0.000000    0.000000    0.000000

 Eigenvalues of metric

         1 0.240E-02 0.391E-02 0.415E-02 0.808E-02 0.127E-01 0.324E-01 0.425E-01 0.462E-01
         2 0.342E-01 0.463E-01 0.101E+00 0.108E+00 0.232E+00 0.336E+00 0.393E+00 0.448E+00


 **********************************************************************************************************************************
 DATASETS  * FILE   NREC   LENGTH (MB)   RECORD NAMES
              1      23       36.03       500      610      700      900      950      970     1000      129      960     1700   
                                          VAR    BASINP    GEOM    SYMINP    ZMAT    AOBASIS   BASIS     P2S    ABASIS    OPER   
                                         1101     1401     1411     1412     1650     1100     1400     1410     1200     1210   
                                          SR      EKINR    POTR     PVPR    MOLCAS      S      EKIN      POT      H0       H01  
                                         1300     1080     1600   
                                         ERIS     AOSYM     SMH  

 PROGRAMS   *        TOTAL       INT
 CPU TIMES  *         0.64      0.56
 REAL TIME  *         1.39 SEC
 DISK USED  *        75.75 MB      
 **********************************************************************************************************************************


 PROGRAM * RHF-SCF (CLOSED SHELL)       Authors: W. Meyer, H.-J. Werner


 NUMBER OF ELECTRONS:       8+    8-
 CONVERGENCE THRESHOLDS:    1.00E-10 (Density)    1.00E-13 (Energy)
 MAX. NUMBER OF ITERATIONS:      500
 INTERPOLATION TYPE:            DIIS
 INTERPOLATION STEPS:              2 (START)      1 (STEP)
 LEVEL SHIFTS:                  0.00 (CLOSED)  0.00 (OPEN) 



 Orbital guess generated from atomic densities. Full valence occupancy:    9   2

 Molecular orbital dump at record        2100.2

 Initial occupancy:   7   1

 ITERATION    DDIFF          GRAD             ENERGY        2-EL.EN.            DIPOLE MOMENTS         DIIS   ORB.
    1      0.000D+00      0.000D+00      -129.86853946    154.308875    0.00000    0.60481   -1.04034    0    start
    2      0.000D+00      0.135D-01      -129.89524958    155.405111    0.00000    0.61647   -0.22854    1    diag
    3      0.184D-01      0.103D-01      -129.91702310    155.539899    0.00000    0.57080   -0.60481    2    diag
    4      0.892D-02      0.156D-02      -129.91775813    155.275668    0.00000    0.57913   -0.54526    3    diag
    5      0.166D-02      0.510D-03      -129.91786976    155.360393    0.00000    0.58437   -0.54630    4    diag
    6      0.711D-03      0.151D-03      -129.91788805    155.345676    0.00000    0.58492   -0.54218    5    diag
    7      0.274D-03      0.760D-04      -129.91789348    155.347905    0.00000    0.58610   -0.53967    6    diag
    8      0.190D-03      0.244D-04      -129.91789401    155.347230    0.00000    0.58611   -0.53885    7    diag
    9      0.648D-04      0.441D-05      -129.91789403    155.347116    0.00000    0.58606   -0.53870    8    diag
   10      0.125D-04      0.976D-06      -129.91789403    155.347100    0.00000    0.58603   -0.53868    9    orth
   11      0.280D-05      0.190D-06      -129.91789403    155.347096    0.00000    0.58602   -0.53867    9    diag
   12      0.502D-06      0.395D-07      -129.91789403    155.347095    0.00000    0.58602   -0.53867    9    diag
   13      0.107D-06      0.979D-08      -129.91789403    155.347094    0.00000    0.58602   -0.53867    9    diag
   14      0.266D-07      0.177D-08      -129.91789403    155.347094    0.00000    0.58602   -0.53867    9    diag
   15      0.413D-08      0.452D-09      -129.91789403    155.347094    0.00000    0.58602   -0.53867    9    diag
   16      0.101D-08      0.108D-09      -129.91789403    155.347094    0.00000    0.58602   -0.53867    9    diag
   17      0.162D-09      0.284D-10      -129.91789403    155.347094    0.00000    0.58602   -0.53867    9    diag
   18      0.447D-10      0.900D-11      -129.91789403    155.347094    0.00000    0.58602   -0.53867    9    diag
   19      0.176D-10      0.174D-11      -129.91789403    155.347094    0.00000    0.58602   -0.53867    0    orth

 Final occupancy:   7   1

 !RHF STATE 1.1 Energy               -129.917894028392
 Nuclear energy                        30.41116035
 One-electron energy                 -238.00260150
 Two-electron energy                   77.67354712
 Virial quotient                       -0.99740374
 !RHF STATE 1.1 Dipole moment           0.00000000     0.58601903    -0.53867208
 Dipole moment /Debye                   0.00000000     1.48941424    -1.36907817

 Orbital energies:

         1.1          2.1          3.1          4.1          5.1          6.1          7.1          8.1          9.1
    -20.664910   -15.714674    -1.526890    -0.996445    -0.744487    -0.661684    -0.427355     0.144826     0.369511

         1.2          2.2          3.2
     -0.591310     0.086262     0.613197

 HOMO      7.1    -0.427355 =     -11.6289eV
 LUMO      2.2     0.086262 =       2.3473eV
 LUMO-HOMO         0.513616 =      13.9762eV


 **********************************************************************************************************************************
 DATASETS  * FILE   NREC   LENGTH (MB)   RECORD NAMES
              1      23       36.03       500      610      700      900      950      970     1000      129      960     1700   
                                          VAR    BASINP    GEOM    SYMINP    ZMAT    AOBASIS   BASIS     P2S    ABASIS    OPER   
                                         1101     1401     1411     1412     1650     1100     1400     1410     1200     1210   
                                          SR      EKINR    POTR     PVPR    MOLCAS      S      EKIN      POT      H0       H01  
                                         1300     1080     1600   
                                         ERIS     AOSYM     SMH  

              2       4        2.85       700     1000      520     2100   
                                         GEOM     BASIS   MCVARS     RHF  

 PROGRAMS   *        TOTAL        HF       INT
 CPU TIMES  *         0.87      0.23      0.56
 REAL TIME  *         1.66 SEC
 DISK USED  *        75.75 MB      
 **********************************************************************************************************************************


 PROGRAM * CCSD (Closed-shell coupled cluster)     Authors: C. Hampel, H.-J. Werner, 1991, M. Deegan, P.J. Knowles, 1992


 Convergence thresholds:  THRVAR = 1.00D-08  THRDEN = 1.00D-12

 CCSD(T)     terms to be evaluated (factor= 1.000)


 Number of core orbitals:           2 (   2   0 )
 Number of closed-shell orbitals:   6 (   5   1 )
 Number of external orbitals:      66 (  43  23 )

 Molecular orbitals read from record     2100.2  Type=RHF/CANONICAL (state 1.1)

 Number of N-1 electron functions:               6
 Number of N-2 electron functions:              21
 Number of singly external CSFs:               238
 Number of doubly external CSFs:             41002
 Total number of CSFs:                       41241

 Length of J-op  integral file:               0.00 MB
 Length of K-op  integral file:               0.25 MB
 Length of 3-ext integral record:             0.00 MB

 Memory could be reduced to 1.65 Mwords without degradation in triples

 Integral transformation finished. Total CPU:   0.05 sec, npass=  1  Memory used:   0.55 MW

 Reference energy:                   -129.91789403

 MP2 singlet pair energy:              -0.27346584
 MP2 triplet pair energy:              -0.16241891
 MP2 correlation energy:               -0.43588475
 MP2 total energy:                   -130.35377878

 SCS-MP2 correlation energy:           -0.42921966   (PS=  1.200000  PT=  0.333333)
 SCS-MP2 total energy:               -130.34711369

 ITER.      SQ.NORM     CORR.ENERGY   TOTAL ENERGY   ENERGY CHANGE        DEN1      VAR(S)    VAR(P)  DIIS     TIME  TIME/IT
   1      1.11802337    -0.44097532  -130.35886934    -0.00509057     0.01060401  0.29D-02  0.30D-02  1  1     0.11     0.05
   2      1.12878824    -0.44122706  -130.35912109    -0.00025174    -0.01222395  0.87D-04  0.50D-03  2  2     0.15     0.05
   3      1.13499030    -0.44160346  -130.35949749    -0.00037641    -0.00294757  0.45D-04  0.51D-04  3  3     0.21     0.05
   4      1.13777419    -0.44163141  -130.35952544    -0.00002794    -0.00095084  0.38D-05  0.89D-05  4  4     0.26     0.05
   5      1.13875332    -0.44165991  -130.35955394    -0.00002850    -0.00020264  0.13D-05  0.17D-05  5  5     0.31     0.05
   6      1.13910678    -0.44164359  -130.35953762     0.00001632    -0.00004019  0.84D-07  0.42D-06  6  6     0.37     0.05
   7      1.13919062    -0.44164592  -130.35953995    -0.00000233    -0.00000189  0.99D-08  0.90D-07  6  1     0.42     0.05
   8      1.13922040    -0.44164596  -130.35953999    -0.00000004     0.00000214  0.49D-08  0.10D-07  6  2     0.47     0.05
   9      1.13922786    -0.44164581  -130.35953984     0.00000015    -0.00000236  0.26D-08  0.11D-08  6  3     0.52     0.05
  10      1.13922652    -0.44164631  -130.35954034    -0.00000049     0.00000068  0.49D-09  0.20D-09  6  4     0.57     0.05
  11      1.13922486    -0.44164637  -130.35954039    -0.00000006     0.00000015  0.14D-09  0.22D-10  6  5     0.62     0.05
  12      1.13922352    -0.44164654  -130.35954057    -0.00000017     0.00000042  0.14D-10  0.70D-11  6  6     0.67     0.05
  13      1.13922295    -0.44164655  -130.35954057    -0.00000001     0.00000012  0.61D-11  0.11D-11  6  1     0.72     0.05
  14      1.13922259    -0.44164657  -130.35954059    -0.00000002     0.00000007  0.85D-12  0.41D-12  6  2     0.78     0.05
  15      1.13922245    -0.44164657  -130.35954059    -0.00000000     0.00000001  0.21D-12  0.14D-12  6  3     0.82     0.05
  16      1.13922236    -0.44164657  -130.35954060    -0.00000000     0.00000001  0.23D-13  0.16D-13  6  5     0.88     0.05
  17      1.13922233    -0.44164657  -130.35954060    -0.00000000     0.00000000  0.76D-15  0.21D-14  6  4     0.92     0.05
  18      1.13922233    -0.44164657  -130.35954060     0.00000000    -0.00000000  0.50D-15  0.29D-15  6  1     0.97     0.05
  19      1.13922233    -0.44164657  -130.35954060    -0.00000000     0.00000000  0.50D-16  0.54D-16  6  6     1.01     0.05
  20      1.13922233    -0.44164657  -130.35954060    -0.00000000     0.00000000  0.11D-16  0.14D-16  6  2     1.06     0.05
  21      1.13922232    -0.44164657  -130.35954060    -0.00000000     0.00000000  0.17D-17  0.10D-17  6  5     1.11     0.05
  22      1.13922232    -0.44164657  -130.35954060    -0.00000000     0.00000000  0.10D-18  0.80D-19  6  3     1.16     0.05
  23      1.13922232    -0.44164657  -130.35954060     0.00000000    -0.00000000  0.29D-19  0.17D-19  6  4     1.20     0.05
  24      1.13922232    -0.44164657  -130.35954060     0.00000000    -0.00000000  0.43D-20  0.48D-20  6  1     1.25     0.05
  25      1.13922232    -0.44164657  -130.35954060     0.00000000    -0.00000000  0.52D-21  0.81D-21  6  6     1.30     0.05

 Norm of t1 vector:      0.07448681      S-energy:     0.00000000      T1 diagnostic:  0.01520456
                                                                       D1 diagnostic:  0.04251468

 Doubles amplitudes (print threshold =  0.500E-01):

         I         J         SYM. A    SYM. B    A         B      T(IJ, AB)

         6         6         2         2         1         1     -0.14406002


 Total CPU time for triples:      0.35 sec


 RESULTS
 =======

  Reference energy                   -129.917894028392
  CCSD singlet pair energy             -0.302731443965
  CCSD triplet pair energy             -0.138915125816
  CCSD correlation energy              -0.441646569781

  Triples (T) contribution             -0.019716623338
  Total correlation energy             -0.461363193118

  CCSD total energy                  -130.359540598173
  CCSD[T] energy                     -130.380265183465
  CCSD-T energy                      -130.378863791307
 !CCSD(T) total energy               -130.379257221510

 Timing summary (sec):

 STEP                 CPU(USER)    SYS     CPU(TOT)    WALL
 Transformation          0.05      0.01      0.06      0.06
 CCSD iterations         1.25      0.09      1.34      1.35
 Triples                 0.35      0.00      0.35      0.35

 Program statistics:

 Available memory in ccsd:               994999756
 Min. memory needed in ccsd:                154850
 Max. memory used in ccsd:                  184802
 Max. memory used in cckext:                238416 (25 integral passes)



 **********************************************************************************************************************************
 DATASETS  * FILE   NREC   LENGTH (MB)   RECORD NAMES
              1      24       40.41       500      610      700      900      950      970     1000      129      960     1700   
                                          VAR    BASINP    GEOM    SYMINP    ZMAT    AOBASIS   BASIS     P2S    ABASIS    OPER   
                                         1101     1401     1411     1412     1650     1100     1400     1410     1200     1210   
                                          SR      EKINR    POTR     PVPR    MOLCAS      S      EKIN      POT      H0       H01  
                                         1300     1080     1600     1380   
                                         ERIS     AOSYM     SMH     JKOP   

              2       4        2.85       700     1000      520     2100   
                                         GEOM     BASIS   MCVARS     RHF  

 PROGRAMS   *        TOTAL   CCSD(T)        HF       INT
 CPU TIMES  *         2.54      1.67      0.23      0.56
 REAL TIME  *         3.45 SEC
 DISK USED  *        75.75 MB      
 **********************************************************************************************************************************

 CCSD(T)/cc-pVTZ-DK energy=   -130.379257221510

        CCSD(T)         HF-SCF  
   -130.37925722   -129.91789403
 **********************************************************************************************************************************
 Molpro calculation terminated
 Variable memory released
