
 Primary working directories    : /tmp/r2666/235229.maple
 Secondary working directories  : /tmp/r2666/235229.maple
 Wavefunction directory         : /ddn/home4/r2666/wfu/
 Main file repository           : /tmp/r2666/235229.maple/

 SHA1      : d5ffa45e93fdbca01ffc919aa182cfdae0147319
 NAME      : 2015.1.35
 ARCHNAME  : linux/x86_64
 FC        : /opt/intel/composer_xe_2015.1.133/bin/intel64/ifort
 BLASLIB   : -Wl,-_start-group /opt/intel/mkl/lib/intel64/libmkl_intel_ilp64.a /opt/intel/mkl/lib/intel64/libmkl_intel_thread.a /opt/intel/mkl/lib/intel64/libmkl_core.a -Wl,-_end-group
 id        : olemiss

 Nodes     nprocs
 cn035        1

 Using customized tuning parameters: mindgm=1; mindgv=20; mindgc=4; mindgr=1; noblas=0; minvec=7
 default implementation of scratch files=df  

 ***,hno CCSD(T)/TZ-F12 QFF
 memory, 995, m;
 gthresh,energy=1.d-12,zero=1.d-22,oneint=1.d-22,twoint=1.d-22;
 gthresh,optgrad=1.d-8,optstep=1.d-8;
 nocompress;
 geomtyp=xyz
 bohr
 geometry={
 3
         84        84
 N        0.0000000000       -0.1604614986       -1.1606212526
 H        0.0000000000        1.6697005899       -1.9370713470
 O        0.0000000000        0.0325286987        1.1471030087
 }
 
 basis=vtz-dk
 dkroll=1
   {hf,maxit=500;accu,20;}
 {ccsd(t),nocheck,maxit=250;orbital,IGNORE_ERROR;}

 Variables initialized (889), CPU time= 0.00 sec
 Commands  initialized (702), CPU time= 0.01 sec, 572 directives.
 Default parameters read. Elapsed time= 0.06 sec

 Checking input...
 Passed
1


                                         ***  PROGRAM SYSTEM MOLPRO  ***
                                       Copyright, TTI GmbH Stuttgart, 2015
                                    Version 2015.1 linked Jul  9 2018 13:16:40


 **********************************************************************************************************************************
 LABEL *   hno CCSD(T)/TZ-F12 QFF                                                        
  64 bit serial version                                                                  DATE: 08-Feb-20          TIME: 17:57:22  
 **********************************************************************************************************************************

 SHA1:             d5ffa45e93fdbca01ffc919aa182cfdae0147319
 **********************************************************************************************************************************

 THRESHOLDS:

 ZERO    =  1.00D-22  ONEINT  =  1.00D-22  TWOINT  =  1.00D-22  PREFAC  =  1.00D-14  LOCALI  =  1.00D-09  EORDER  =  1.00D-04
 ENERGY  =  1.00D-12  ETEST   =  0.00D+00  EDENS   =  0.00D+00  THRDEDEF=  1.00D-06  GRADIENT=  1.00D-02  STEP    =  1.00D-03
 ORBITAL =  1.00D-05  CIVEC   =  1.00D-05  COEFF   =  1.00D-04  PRINTCI =  5.00D-02  PUNCHCI =  9.90D+01  OPTGRAD =  3.00D-04
 OPTENERG=  1.00D-06  OPTSTEP =  3.00D-04  THRGRAD =  1.00D-10  COMPRESS=  1.00D-11  VARMIN  =  1.00D-07  VARMAX  =  1.00D-03
 THRDOUB =  0.00D+00  THRDIV  =  1.00D-05  THRRED  =  1.00D-07  THRPSP  =  1.00D+00  THRDC   =  1.00D-10  THRCS   =  1.00D-10
 THRNRM  =  1.00D-08  THREQ   =  0.00D+00  THRDE   =  1.00D+00  THRREF  =  1.00D-05  SPARFAC =  1.00D+00  THRDLP  =  1.00D-07
 THRDIA  =  1.00D-10  THRDLS  =  1.00D-07  THRGPS  =  0.00D+00  THRKEX  =  0.00D+00  THRDIS  =  2.00D-01  THRVAR  =  1.00D-10
 THRLOC  =  1.00D-06  THRGAP  =  1.00D-06  THRLOCT = -1.00D+00  THRGAPT = -1.00D+00  THRORB  =  1.00D-06  THRMLTP =  0.00D+00
 THRCPQCI=  1.00D-10  KEXTA   =  0.00D+00  THRCOARS=  0.00D+00  SYMTOL  =  1.00D-06  GRADTOL =  1.00D-06  THROVL  =  1.00D-08
 THRORTH =  1.00D-08  GRID    =  1.00D-06  GRIDMAX =  1.00D-03  DTMAX   =  0.00D+00  THROCCDE=  1.00D-01  THROCCDE=  1.00D-01



 THRESHOLDS:

 ZERO    =  1.00D-22  ONEINT  =  1.00D-22  TWOINT  =  1.00D-22  PREFAC  =  1.00D-14  LOCALI  =  1.00D-09  EORDER  =  1.00D-04
 ENERGY  =  1.00D-12  ETEST   =  0.00D+00  EDENS   =  0.00D+00  THRDEDEF=  1.00D-06  GRADIENT=  1.00D-02  STEP    =  1.00D-03
 ORBITAL =  1.00D-05  CIVEC   =  1.00D-05  COEFF   =  1.00D-04  PRINTCI =  5.00D-02  PUNCHCI =  9.90D+01  OPTGRAD =  1.00D-08
 OPTENERG=  1.00D-06  OPTSTEP =  1.00D-08  THRGRAD =  1.00D-10  COMPRESS=  1.00D-11  VARMIN  =  1.00D-07  VARMAX  =  1.00D-03
 THRDOUB =  0.00D+00  THRDIV  =  1.00D-05  THRRED  =  1.00D-07  THRPSP  =  1.00D+00  THRDC   =  1.00D-10  THRCS   =  1.00D-10
 THRNRM  =  1.00D-08  THREQ   =  0.00D+00  THRDE   =  1.00D+00  THRREF  =  1.00D-05  SPARFAC =  1.00D+00  THRDLP  =  1.00D-07
 THRDIA  =  1.00D-10  THRDLS  =  1.00D-07  THRGPS  =  0.00D+00  THRKEX  =  0.00D+00  THRDIS  =  2.00D-01  THRVAR  =  1.00D-10
 THRLOC  =  1.00D-06  THRGAP  =  1.00D-06  THRLOCT = -1.00D+00  THRGAPT = -1.00D+00  THRORB  =  1.00D-06  THRMLTP =  0.00D+00
 THRCPQCI=  1.00D-10  KEXTA   =  0.00D+00  THRCOARS=  0.00D+00  SYMTOL  =  1.00D-06  GRADTOL =  1.00D-06  THROVL  =  1.00D-08
 THRORTH =  1.00D-08  GRID    =  1.00D-06  GRIDMAX =  1.00D-03  DTMAX   =  0.00D+00  THROCCDE=  1.00D-01  THROCCDE=  1.00D-01



 Input parameters for SORTINT:

 COMPRESS =    0.000000
 C_FINAL  =    1.000000
 DEBUG    =   -1.000000
 C_SORT1  =    0.000000
 C_SEWARD =    0.000000
 THRESH   =    0.000000
 IO       =  molpro                                                          
 SPRI     =    0.000000
 SETTING GEOMTYP        =    XYZ
 ZUNIT=BOHR
 

 Variable memory set to  995000000 words,  buffer space   230000 words

 SETTING BASIS          =    VTZ-DK
 SETTING DKROLL         =         1.00000000                                  


 Recomputing integrals since basis changed


 Using spherical harmonics

 Library entry N      S cc-pVTZ-DK           selected for orbital group  1
 Library entry N      P cc-pVTZ-DK           selected for orbital group  1
 Library entry N      D cc-pVTZ-DK           selected for orbital group  1
 Library entry N      F cc-pVTZ-DK           selected for orbital group  1
 Library entry H      S cc-pVTZ-DK           selected for orbital group  2
 Library entry H      P cc-pVTZ-DK           selected for orbital group  2
 Library entry H      D cc-pVTZ-DK           selected for orbital group  2
 Library entry O      S cc-pVTZ-DK           selected for orbital group  3
 Library entry O      P cc-pVTZ-DK           selected for orbital group  3
 Library entry O      D cc-pVTZ-DK           selected for orbital group  3
 Library entry O      F cc-pVTZ-DK           selected for orbital group  3


 PROGRAM * SEWARD (Integral evaluation for generally contracted gaussian basis sets)     Author: Roland Lindh, 1990

 Geometry written to block  1 of record 700


 Point group  Cs  



 ATOMIC COORDINATES

 NR  ATOM    CHARGE       X              Y              Z

   1  N       7.00    0.000000000   -0.160461499   -1.160621253
   2  H       1.00    0.000000000    1.669700590   -1.937071347
   3  O       8.00    0.000000000    0.032528699    1.147103009

 Bond lengths in Bohr (Angstrom)

 1-2  1.988056342  1-3  2.315779886
     ( 1.052034110)     ( 1.225457941)

 Bond angles

  2-1-3  108.20878234

 NUCLEAR CHARGE:                   16
 NUMBER OF PRIMITIVE AOS:         111
 NUMBER OF SYMMETRY AOS:          100
 NUMBER OF CONTRACTIONS:           74   (  50A'  +  24A"  )
 NUMBER OF CORE ORBITALS:           2   (   2A'  +   0A"  )
 NUMBER OF VALENCE ORBITALS:        9   (   7A'  +   2A"  )


 NUCLEAR REPULSION ENERGY   29.99404639

 One-electron integrals computed with SEWARD

 2nd-order Douglas-Kroll-Hess method activated. Optimal DKH parametrization is used.

 Computing Douglas-Kroll / X2C integrals


        1874283. INTEGRALS WRITTEN OUT IN     458 BLOCKS ON RECORD 1290 OF FILE 1


 NUMBER OF SORTED TWO-ELECTRON INTEGRALS:    2006100.     BUFFER LENGTH:  32768
 NUMBER OF SEGMENTS:   1  SEGMENT LENGTH:    2006100      RECORD LENGTH: 524288

 Memory used in sort:       2.56 MW

 SORT1 READ     1874283. AND WROTE     1914195. INTEGRALS IN      6 RECORDS. CPU TIME:     0.04 SEC, REAL TIME:     0.06 SEC
 SORT2 READ     1914195. AND WROTE     2006100. INTEGRALS IN      1 RECORDS. CPU TIME:     0.03 SEC, REAL TIME:     0.05 SEC

 FILE SIZES:   FILE 1:    50.2 MBYTE,  FILE 4:    25.2 MBYTE,   TOTAL:     75.4 MBYTE

 OPERATOR DM      FOR CENTER  0  COORDINATES:    0.000000    0.000000    0.000000

 Eigenvalues of metric

         1 0.250E-02 0.402E-02 0.444E-02 0.846E-02 0.130E-01 0.337E-01 0.435E-01 0.465E-01
         2 0.351E-01 0.467E-01 0.104E+00 0.113E+00 0.240E+00 0.343E+00 0.400E+00 0.455E+00


 **********************************************************************************************************************************
 DATASETS  * FILE   NREC   LENGTH (MB)   RECORD NAMES
              1      23       36.03       500      610      700      900      950      970     1000      129      960     1700   
                                          VAR    BASINP    GEOM    SYMINP    ZMAT    AOBASIS   BASIS     P2S    ABASIS    OPER   
                                         1101     1401     1411     1412     1650     1100     1400     1410     1200     1210   
                                          SR      EKINR    POTR     PVPR    MOLCAS      S      EKIN      POT      H0       H01  
                                         1300     1080     1600   
                                         ERIS     AOSYM     SMH  

 PROGRAMS   *        TOTAL       INT
 CPU TIMES  *         0.61      0.52
 REAL TIME  *         1.24 SEC
 DISK USED  *        75.75 MB      
 **********************************************************************************************************************************


 PROGRAM * RHF-SCF (CLOSED SHELL)       Authors: W. Meyer, H.-J. Werner


 NUMBER OF ELECTRONS:       8+    8-
 CONVERGENCE THRESHOLDS:    1.00E-10 (Density)    1.00E-13 (Energy)
 MAX. NUMBER OF ITERATIONS:      500
 INTERPOLATION TYPE:            DIIS
 INTERPOLATION STEPS:              2 (START)      1 (STEP)
 LEVEL SHIFTS:                  0.00 (CLOSED)  0.00 (OPEN) 



 Orbital guess generated from atomic densities. Full valence occupancy:    9   2

 Molecular orbital dump at record        2100.2

 Initial occupancy:   7   1

 ITERATION    DDIFF          GRAD             ENERGY        2-EL.EN.            DIPOLE MOMENTS         DIIS   ORB.
    1      0.000D+00      0.000D+00      -129.86212698    153.553477    0.00000    0.59840   -1.09634    0    start
    2      0.000D+00      0.138D-01      -129.88817773    154.628397    0.00000    0.62626   -0.20904    1    diag
    3      0.192D-01      0.110D-01      -129.91370710    154.796138    0.00000    0.57163   -0.62493    2    diag
    4      0.949D-02      0.158D-02      -129.91447332    154.518928    0.00000    0.57975   -0.56295    3    diag
    5      0.168D-02      0.527D-03      -129.91459386    154.606059    0.00000    0.58513   -0.56366    4    diag
    6      0.736D-03      0.157D-03      -129.91461396    154.590841    0.00000    0.58558   -0.55916    5    diag
    7      0.285D-03      0.804D-04      -129.91462020    154.592946    0.00000    0.58676   -0.55641    6    diag
    8      0.201D-03      0.274D-04      -129.91462090    154.592176    0.00000    0.58676   -0.55546    7    diag
    9      0.754D-04      0.504D-05      -129.91462093    154.592039    0.00000    0.58671   -0.55528    8    diag
   10      0.149D-04      0.107D-05      -129.91462093    154.592022    0.00000    0.58668   -0.55525    9    orth
   11      0.299D-05      0.209D-06      -129.91462093    154.592018    0.00000    0.58667   -0.55525    9    diag
   12      0.537D-06      0.463D-07      -129.91462093    154.592016    0.00000    0.58667   -0.55525    9    diag
   13      0.120D-06      0.122D-07      -129.91462093    154.592016    0.00000    0.58667   -0.55525    9    diag
   14      0.316D-07      0.225D-08      -129.91462093    154.592016    0.00000    0.58667   -0.55525    9    diag
   15      0.464D-08      0.589D-09      -129.91462093    154.592016    0.00000    0.58667   -0.55525    9    diag
   16      0.125D-08      0.158D-09      -129.91462093    154.592016    0.00000    0.58667   -0.55525    9    diag
   17      0.239D-09      0.477D-10      -129.91462093    154.592016    0.00000    0.58667   -0.55525    9    diag
   18      0.852D-10      0.168D-10      -129.91462093    154.592016    0.00000    0.58667   -0.55525    0    orth

 Final occupancy:   7   1

 !RHF STATE 1.1 Energy               -129.914620926687
 Nuclear energy                        29.99404639
 One-electron energy                 -237.20467529
 Two-electron energy                   77.29600797
 Virial quotient                       -0.99806014
 !RHF STATE 1.1 Dipole moment           0.00000000     0.58666587    -0.55524784
 Dipole moment /Debye                   0.00000000     1.49105825    -1.41120680

 Orbital energies:

         1.1          2.1          3.1          4.1          5.1          6.1          7.1          8.1          9.1
    -20.666718   -15.719805    -1.513324    -0.996276    -0.737768    -0.656751    -0.431966     0.143023     0.366885

         1.2          2.2          3.2
     -0.583721     0.080048     0.614946

 HOMO      7.1    -0.431966 =     -11.7544eV
 LUMO      2.2     0.080048 =       2.1782eV
 LUMO-HOMO         0.512014 =      13.9326eV


 **********************************************************************************************************************************
 DATASETS  * FILE   NREC   LENGTH (MB)   RECORD NAMES
              1      23       36.03       500      610      700      900      950      970     1000      129      960     1700   
                                          VAR    BASINP    GEOM    SYMINP    ZMAT    AOBASIS   BASIS     P2S    ABASIS    OPER   
                                         1101     1401     1411     1412     1650     1100     1400     1410     1200     1210   
                                          SR      EKINR    POTR     PVPR    MOLCAS      S      EKIN      POT      H0       H01  
                                         1300     1080     1600   
                                         ERIS     AOSYM     SMH  

              2       4        2.85       700     1000      520     2100   
                                         GEOM     BASIS   MCVARS     RHF  

 PROGRAMS   *        TOTAL        HF       INT
 CPU TIMES  *         0.82      0.21      0.52
 REAL TIME  *         1.50 SEC
 DISK USED  *        75.75 MB      
 **********************************************************************************************************************************


 PROGRAM * CCSD (Closed-shell coupled cluster)     Authors: C. Hampel, H.-J. Werner, 1991, M. Deegan, P.J. Knowles, 1992


 Convergence thresholds:  THRVAR = 1.00D-08  THRDEN = 1.00D-12

 CCSD(T)     terms to be evaluated (factor= 1.000)


 Number of core orbitals:           2 (   2   0 )
 Number of closed-shell orbitals:   6 (   5   1 )
 Number of external orbitals:      66 (  43  23 )

 Molecular orbitals read from record     2100.2  Type=RHF/CANONICAL (state 1.1)

 Number of N-1 electron functions:               6
 Number of N-2 electron functions:              21
 Number of singly external CSFs:               238
 Number of doubly external CSFs:             41002
 Total number of CSFs:                       41241

 Length of J-op  integral file:               0.00 MB
 Length of K-op  integral file:               0.25 MB
 Length of 3-ext integral record:             0.00 MB

 Memory could be reduced to 1.65 Mwords without degradation in triples

 Integral transformation finished. Total CPU:   0.04 sec, npass=  1  Memory used:   0.55 MW

 Reference energy:                   -129.91462093

 MP2 singlet pair energy:              -0.27564251
 MP2 triplet pair energy:              -0.16382068
 MP2 correlation energy:               -0.43946319
 MP2 total energy:                   -130.35408412

 SCS-MP2 correlation energy:           -0.43270388   (PS=  1.200000  PT=  0.333333)
 SCS-MP2 total energy:               -130.34732480

 ITER.      SQ.NORM     CORR.ENERGY   TOTAL ENERGY   ENERGY CHANGE        DEN1      VAR(S)    VAR(P)  DIIS     TIME  TIME/IT
   1      1.12038278    -0.44385439  -130.35847532    -0.00439120     0.01215658  0.32D-02  0.32D-02  1  1     0.09     0.05
   2      1.13167264    -0.44396284  -130.35858377    -0.00010845    -0.01272292  0.98D-04  0.53D-03  2  2     0.12     0.05
   3      1.13833268    -0.44437630  -130.35899723    -0.00041346    -0.00310051  0.52D-04  0.55D-04  3  3     0.17     0.05
   4      1.14135544    -0.44440443  -130.35902535    -0.00002813    -0.00101707  0.45D-05  0.97D-05  4  4     0.22     0.05
   5      1.14246201    -0.44443735  -130.35905828    -0.00003293    -0.00022930  0.15D-05  0.17D-05  5  5     0.27     0.05
   6      1.14284793    -0.44441849  -130.35903942     0.00001887    -0.00004459  0.99D-07  0.42D-06  6  6     0.31     0.05
   7      1.14293317    -0.44442087  -130.35904180    -0.00000238    -0.00000140  0.11D-07  0.94D-07  6  1     0.37     0.05
   8      1.14296420    -0.44442066  -130.35904159     0.00000021     0.00000196  0.46D-08  0.12D-07  6  2     0.41     0.05
   9      1.14297268    -0.44442043  -130.35904135     0.00000024    -0.00000237  0.27D-08  0.14D-08  6  3     0.47     0.05
  10      1.14297135    -0.44442097  -130.35904190    -0.00000054     0.00000067  0.52D-09  0.24D-09  6  4     0.52     0.05
  11      1.14296960    -0.44442103  -130.35904196    -0.00000006     0.00000015  0.16D-09  0.25D-10  6  5     0.56     0.05
  12      1.14296814    -0.44442123  -130.35904215    -0.00000020     0.00000046  0.15D-10  0.80D-11  6  6     0.61     0.05
  13      1.14296749    -0.44442123  -130.35904216    -0.00000001     0.00000013  0.67D-11  0.13D-11  6  1     0.65     0.05
  14      1.14296707    -0.44442126  -130.35904218    -0.00000002     0.00000008  0.96D-12  0.47D-12  6  2     0.70     0.05
  15      1.14296690    -0.44442126  -130.35904219    -0.00000000     0.00000002  0.26D-12  0.15D-12  6  3     0.75     0.05
  16      1.14296678    -0.44442126  -130.35904219    -0.00000001     0.00000002  0.87D-14  0.37D-13  6  1     0.80     0.05
  17      1.14296676    -0.44442126  -130.35904219     0.00000000    -0.00000000  0.26D-14  0.24D-14  6  4     0.85     0.05
  18      1.14296676    -0.44442126  -130.35904219    -0.00000000     0.00000000  0.69D-15  0.38D-15  6  5     0.90     0.05
  19      1.14296676    -0.44442126  -130.35904219     0.00000000    -0.00000000  0.14D-15  0.78D-16  6  6     0.95     0.05
  20      1.14296676    -0.44442126  -130.35904219    -0.00000000     0.00000000  0.25D-16  0.21D-16  6  2     1.00     0.05
  21      1.14296675    -0.44442126  -130.35904219    -0.00000000     0.00000000  0.71D-18  0.16D-17  6  4     1.05     0.05
  22      1.14296675    -0.44442126  -130.35904219    -0.00000000     0.00000000  0.91D-19  0.16D-18  6  3     1.09     0.05
  23      1.14296675    -0.44442126  -130.35904219    -0.00000000     0.00000000  0.86D-20  0.16D-19  6  1     1.14     0.05
  24      1.14296675    -0.44442126  -130.35904219     0.00000000     0.00000000  0.44D-20  0.23D-20  6  6     1.19     0.05
  25      1.14296675    -0.44442126  -130.35904219     0.00000000     0.00000000  0.53D-21  0.54D-21  6  5     1.23     0.05

 Norm of t1 vector:      0.07791658      S-energy:     0.00000000      T1 diagnostic:  0.01590466
                                                                       D1 diagnostic:  0.04478849

 Doubles amplitudes (print threshold =  0.500E-01):

         I         J         SYM. A    SYM. B    A         B      T(IJ, AB)

         6         6         2         2         1         1     -0.14866498


 Total CPU time for triples:      0.36 sec


 RESULTS
 =======

  Reference energy                   -129.914620926687
  CCSD singlet pair energy             -0.305145320057
  CCSD triplet pair energy             -0.139275943896
  CCSD correlation energy              -0.444421263950

  Triples (T) contribution             -0.020331198334
  Total correlation energy             -0.464752462285

  CCSD total energy                  -130.359042190637
  CCSD[T] energy                     -130.380470485805
  CCSD-T energy                      -130.378956461106
 !CCSD(T) total energy               -130.379373388972

 Timing summary (sec):

 STEP                 CPU(USER)    SYS     CPU(TOT)    WALL
 Transformation          0.04      0.01      0.05      0.05
 CCSD iterations         1.19      0.14      1.33      1.35
 Triples                 0.36      0.02      0.38      0.37

 Program statistics:

 Available memory in ccsd:               994999756
 Min. memory needed in ccsd:                154850
 Max. memory used in ccsd:                  184802
 Max. memory used in cckext:                238416 (25 integral passes)



 **********************************************************************************************************************************
 DATASETS  * FILE   NREC   LENGTH (MB)   RECORD NAMES
              1      24       40.41       500      610      700      900      950      970     1000      129      960     1700   
                                          VAR    BASINP    GEOM    SYMINP    ZMAT    AOBASIS   BASIS     P2S    ABASIS    OPER   
                                         1101     1401     1411     1412     1650     1100     1400     1410     1200     1210   
                                          SR      EKINR    POTR     PVPR    MOLCAS      S      EKIN      POT      H0       H01  
                                         1300     1080     1600     1380   
                                         ERIS     AOSYM     SMH     JKOP   

              2       4        2.85       700     1000      520     2100   
                                         GEOM     BASIS   MCVARS     RHF  

 PROGRAMS   *        TOTAL   CCSD(T)        HF       INT
 CPU TIMES  *         2.44      1.62      0.21      0.52
 REAL TIME  *         3.32 SEC
 DISK USED  *        75.75 MB      
 **********************************************************************************************************************************

 CCSD(T)/cc-pVTZ-DK energy=   -130.379373388972

        CCSD(T)         HF-SCF  
   -130.37937339   -129.91462093
 **********************************************************************************************************************************
 Molpro calculation terminated
 Variable memory released
