
 Primary working directories    : /tmp/r2666/235257.maple
 Secondary working directories  : /tmp/r2666/235257.maple
 Wavefunction directory         : /ddn/home4/r2666/wfu/
 Main file repository           : /tmp/r2666/235257.maple/

 SHA1      : d5ffa45e93fdbca01ffc919aa182cfdae0147319
 NAME      : 2015.1.35
 ARCHNAME  : linux/x86_64
 FC        : /opt/intel/composer_xe_2015.1.133/bin/intel64/ifort
 BLASLIB   : -Wl,-_start-group /opt/intel/mkl/lib/intel64/libmkl_intel_ilp64.a /opt/intel/mkl/lib/intel64/libmkl_intel_thread.a /opt/intel/mkl/lib/intel64/libmkl_core.a -Wl,-_end-group
 id        : olemiss

 Nodes     nprocs
 cn034        1

 Using customized tuning parameters: mindgm=1; mindgv=20; mindgc=4; mindgr=1; noblas=0; minvec=7
 default implementation of scratch files=df  

 ***,hno CCSD(T)/TZ-F12 QFF
 memory, 995, m;
 gthresh,energy=1.d-12,zero=1.d-22,oneint=1.d-22,twoint=1.d-22;
 gthresh,optgrad=1.d-8,optstep=1.d-8;
 nocompress;
 geomtyp=xyz
 bohr
 geometry={
 3
        112       112
 N        0.0000000000       -0.1700884268       -1.1359511847
 H        0.0000000000        1.6738077865       -1.9283586020
 O        0.0000000000        0.0380484303        1.1137201957
 }
 
 basis=vtz-dk
 dkroll=1
   {hf,maxit=500;accu,20;}
 {ccsd(t),nocheck,maxit=250;orbital,IGNORE_ERROR;}

 Variables initialized (889), CPU time= 0.00 sec
 Commands  initialized (702), CPU time= 0.01 sec, 572 directives.
 Default parameters read. Elapsed time= 0.05 sec

 Checking input...
 Passed
1


                                         ***  PROGRAM SYSTEM MOLPRO  ***
                                       Copyright, TTI GmbH Stuttgart, 2015
                                    Version 2015.1 linked Jul  9 2018 13:16:40


 **********************************************************************************************************************************
 LABEL *   hno CCSD(T)/TZ-F12 QFF                                                        
  64 bit serial version                                                                  DATE: 08-Feb-20          TIME: 17:57:24  
 **********************************************************************************************************************************

 SHA1:             d5ffa45e93fdbca01ffc919aa182cfdae0147319
 **********************************************************************************************************************************

 THRESHOLDS:

 ZERO    =  1.00D-22  ONEINT  =  1.00D-22  TWOINT  =  1.00D-22  PREFAC  =  1.00D-14  LOCALI  =  1.00D-09  EORDER  =  1.00D-04
 ENERGY  =  1.00D-12  ETEST   =  0.00D+00  EDENS   =  0.00D+00  THRDEDEF=  1.00D-06  GRADIENT=  1.00D-02  STEP    =  1.00D-03
 ORBITAL =  1.00D-05  CIVEC   =  1.00D-05  COEFF   =  1.00D-04  PRINTCI =  5.00D-02  PUNCHCI =  9.90D+01  OPTGRAD =  3.00D-04
 OPTENERG=  1.00D-06  OPTSTEP =  3.00D-04  THRGRAD =  1.00D-10  COMPRESS=  1.00D-11  VARMIN  =  1.00D-07  VARMAX  =  1.00D-03
 THRDOUB =  0.00D+00  THRDIV  =  1.00D-05  THRRED  =  1.00D-07  THRPSP  =  1.00D+00  THRDC   =  1.00D-10  THRCS   =  1.00D-10
 THRNRM  =  1.00D-08  THREQ   =  0.00D+00  THRDE   =  1.00D+00  THRREF  =  1.00D-05  SPARFAC =  1.00D+00  THRDLP  =  1.00D-07
 THRDIA  =  1.00D-10  THRDLS  =  1.00D-07  THRGPS  =  0.00D+00  THRKEX  =  0.00D+00  THRDIS  =  2.00D-01  THRVAR  =  1.00D-10
 THRLOC  =  1.00D-06  THRGAP  =  1.00D-06  THRLOCT = -1.00D+00  THRGAPT = -1.00D+00  THRORB  =  1.00D-06  THRMLTP =  0.00D+00
 THRCPQCI=  1.00D-10  KEXTA   =  0.00D+00  THRCOARS=  0.00D+00  SYMTOL  =  1.00D-06  GRADTOL =  1.00D-06  THROVL  =  1.00D-08
 THRORTH =  1.00D-08  GRID    =  1.00D-06  GRIDMAX =  1.00D-03  DTMAX   =  0.00D+00  THROCCDE=  1.00D-01  THROCCDE=  1.00D-01



 THRESHOLDS:

 ZERO    =  1.00D-22  ONEINT  =  1.00D-22  TWOINT  =  1.00D-22  PREFAC  =  1.00D-14  LOCALI  =  1.00D-09  EORDER  =  1.00D-04
 ENERGY  =  1.00D-12  ETEST   =  0.00D+00  EDENS   =  0.00D+00  THRDEDEF=  1.00D-06  GRADIENT=  1.00D-02  STEP    =  1.00D-03
 ORBITAL =  1.00D-05  CIVEC   =  1.00D-05  COEFF   =  1.00D-04  PRINTCI =  5.00D-02  PUNCHCI =  9.90D+01  OPTGRAD =  1.00D-08
 OPTENERG=  1.00D-06  OPTSTEP =  1.00D-08  THRGRAD =  1.00D-10  COMPRESS=  1.00D-11  VARMIN  =  1.00D-07  VARMAX  =  1.00D-03
 THRDOUB =  0.00D+00  THRDIV  =  1.00D-05  THRRED  =  1.00D-07  THRPSP  =  1.00D+00  THRDC   =  1.00D-10  THRCS   =  1.00D-10
 THRNRM  =  1.00D-08  THREQ   =  0.00D+00  THRDE   =  1.00D+00  THRREF  =  1.00D-05  SPARFAC =  1.00D+00  THRDLP  =  1.00D-07
 THRDIA  =  1.00D-10  THRDLS  =  1.00D-07  THRGPS  =  0.00D+00  THRKEX  =  0.00D+00  THRDIS  =  2.00D-01  THRVAR  =  1.00D-10
 THRLOC  =  1.00D-06  THRGAP  =  1.00D-06  THRLOCT = -1.00D+00  THRGAPT = -1.00D+00  THRORB  =  1.00D-06  THRMLTP =  0.00D+00
 THRCPQCI=  1.00D-10  KEXTA   =  0.00D+00  THRCOARS=  0.00D+00  SYMTOL  =  1.00D-06  GRADTOL =  1.00D-06  THROVL  =  1.00D-08
 THRORTH =  1.00D-08  GRID    =  1.00D-06  GRIDMAX =  1.00D-03  DTMAX   =  0.00D+00  THROCCDE=  1.00D-01  THROCCDE=  1.00D-01



 Input parameters for SORTINT:

 COMPRESS =    0.000000
 C_FINAL  =    1.000000
 DEBUG    =   -1.000000
 C_SORT1  =    0.000000
 C_SEWARD =    0.000000
 THRESH   =    0.000000
 IO       =  molpro                                                          
 SPRI     =    0.000000
 SETTING GEOMTYP        =    XYZ
 ZUNIT=BOHR
 

 Variable memory set to  995000000 words,  buffer space   230000 words

 SETTING BASIS          =    VTZ-DK
 SETTING DKROLL         =         1.00000000                                  


 Recomputing integrals since basis changed


 Using spherical harmonics

 Library entry N      S cc-pVTZ-DK           selected for orbital group  1
 Library entry N      P cc-pVTZ-DK           selected for orbital group  1
 Library entry N      D cc-pVTZ-DK           selected for orbital group  1
 Library entry N      F cc-pVTZ-DK           selected for orbital group  1
 Library entry H      S cc-pVTZ-DK           selected for orbital group  2
 Library entry H      P cc-pVTZ-DK           selected for orbital group  2
 Library entry H      D cc-pVTZ-DK           selected for orbital group  2
 Library entry O      S cc-pVTZ-DK           selected for orbital group  3
 Library entry O      P cc-pVTZ-DK           selected for orbital group  3
 Library entry O      D cc-pVTZ-DK           selected for orbital group  3
 Library entry O      F cc-pVTZ-DK           selected for orbital group  3


 PROGRAM * SEWARD (Integral evaluation for generally contracted gaussian basis sets)     Author: Roland Lindh, 1990

 Geometry written to block  1 of record 700


 Point group  Cs  



 ATOMIC COORDINATES

 NR  ATOM    CHARGE       X              Y              Z

   1  N       7.00    0.000000000   -0.170088427   -1.135951185
   2  H       1.00    0.000000000    1.673807787   -1.928358602
   3  O       8.00    0.000000000    0.038048430    1.113720196

 Bond lengths in Bohr (Angstrom)

 1-2  2.006953602  1-3  2.259279149
     ( 1.062034110)     ( 1.195559039)

 Bond angles

  2-1-3  107.96954377

 NUCLEAR CHARGE:                   16
 NUMBER OF PRIMITIVE AOS:         111
 NUMBER OF SYMMETRY AOS:          100
 NUMBER OF CONTRACTIONS:           74   (  50A'  +  24A"  )
 NUMBER OF CORE ORBITALS:           2   (   2A'  +   0A"  )
 NUMBER OF VALENCE ORBITALS:        9   (   7A'  +   2A"  )


 NUCLEAR REPULSION ENERGY   30.59071149

 One-electron integrals computed with SEWARD

 2nd-order Douglas-Kroll-Hess method activated. Optimal DKH parametrization is used.

 Computing Douglas-Kroll / X2C integrals


        1874283. INTEGRALS WRITTEN OUT IN     458 BLOCKS ON RECORD 1290 OF FILE 1


 NUMBER OF SORTED TWO-ELECTRON INTEGRALS:    2006100.     BUFFER LENGTH:  32768
 NUMBER OF SEGMENTS:   1  SEGMENT LENGTH:    2006100      RECORD LENGTH: 524288

 Memory used in sort:       2.56 MW

 SORT1 READ     1874283. AND WROTE     1914195. INTEGRALS IN      6 RECORDS. CPU TIME:     0.04 SEC, REAL TIME:     0.06 SEC
 SORT2 READ     1914195. AND WROTE     2006100. INTEGRALS IN      1 RECORDS. CPU TIME:     0.05 SEC, REAL TIME:     0.06 SEC

 FILE SIZES:   FILE 1:    50.2 MBYTE,  FILE 4:    25.2 MBYTE,   TOTAL:     75.4 MBYTE

 OPERATOR DM      FOR CENTER  0  COORDINATES:    0.000000    0.000000    0.000000

 Eigenvalues of metric

         1 0.243E-02 0.391E-02 0.405E-02 0.847E-02 0.132E-01 0.321E-01 0.419E-01 0.463E-01
         2 0.338E-01 0.464E-01 0.100E+00 0.113E+00 0.232E+00 0.345E+00 0.393E+00 0.447E+00


 **********************************************************************************************************************************
 DATASETS  * FILE   NREC   LENGTH (MB)   RECORD NAMES
              1      23       36.03       500      610      700      900      950      970     1000      129      960     1700   
                                          VAR    BASINP    GEOM    SYMINP    ZMAT    AOBASIS   BASIS     P2S    ABASIS    OPER   
                                         1101     1401     1411     1412     1650     1100     1400     1410     1200     1210   
                                          SR      EKINR    POTR     PVPR    MOLCAS      S      EKIN      POT      H0       H01  
                                         1300     1080     1600   
                                         ERIS     AOSYM     SMH  

 PROGRAMS   *        TOTAL       INT
 CPU TIMES  *         0.68      0.58
 REAL TIME  *         1.29 SEC
 DISK USED  *        75.75 MB      
 **********************************************************************************************************************************


 PROGRAM * RHF-SCF (CLOSED SHELL)       Authors: W. Meyer, H.-J. Werner


 NUMBER OF ELECTRONS:       8+    8-
 CONVERGENCE THRESHOLDS:    1.00E-10 (Density)    1.00E-13 (Energy)
 MAX. NUMBER OF ITERATIONS:      500
 INTERPOLATION TYPE:            DIIS
 INTERPOLATION STEPS:              2 (START)      1 (STEP)
 LEVEL SHIFTS:                  0.00 (CLOSED)  0.00 (OPEN) 



 Orbital guess generated from atomic densities. Full valence occupancy:    9   2

 Molecular orbital dump at record        2100.2

 Initial occupancy:   7   1

 ITERATION    DDIFF          GRAD             ENERGY        2-EL.EN.            DIPOLE MOMENTS         DIIS   ORB.
    1      0.000D+00      0.000D+00      -129.86994479    154.614847    0.00000    0.57602   -1.00140    0    start
    2      0.000D+00      0.134D-01      -129.89699005    155.757689    0.00000    0.60486   -0.22101    1    diag
    3      0.182D-01      0.101D-01      -129.91788650    155.860212    0.00000    0.55184   -0.58052    2    diag
    4      0.877D-02      0.153D-02      -129.91860084    155.601864    0.00000    0.56054   -0.52327    3    diag
    5      0.164D-02      0.507D-03      -129.91871280    155.687148    0.00000    0.56601   -0.52456    4    diag
    6      0.708D-03      0.152D-03      -129.91873137    155.672224    0.00000    0.56659   -0.52057    5    diag
    7      0.276D-03      0.751D-04      -129.91873663    155.674690    0.00000    0.56787   -0.51822    6    diag
    8      0.188D-03      0.233D-04      -129.91873708    155.674043    0.00000    0.56789   -0.51748    7    diag
    9      0.600D-04      0.421D-05      -129.91873710    155.673936    0.00000    0.56785   -0.51734    8    diag
   10      0.115D-04      0.952D-06      -129.91873710    155.673918    0.00000    0.56781   -0.51731    9    orth
   11      0.269D-05      0.189D-06      -129.91873710    155.673913    0.00000    0.56781   -0.51731    9    diag
   12      0.505D-06      0.388D-07      -129.91873710    155.673912    0.00000    0.56780   -0.51731    9    diag
   13      0.111D-06      0.951D-08      -129.91873710    155.673911    0.00000    0.56780   -0.51731    9    diag
   14      0.276D-07      0.179D-08      -129.91873710    155.673911    0.00000    0.56780   -0.51731    9    diag
   15      0.473D-08      0.489D-09      -129.91873710    155.673911    0.00000    0.56780   -0.51731    9    diag
   16      0.115D-08      0.134D-09      -129.91873710    155.673911    0.00000    0.56780   -0.51731    9    diag
   17      0.243D-09      0.409D-10      -129.91873710    155.673911    0.00000    0.56780   -0.51731    9    diag
   18      0.832D-10      0.129D-10      -129.91873710    155.673911    0.00000    0.56780   -0.51731    9    diag
   19      0.299D-10      0.280D-11      -129.91873710    155.673911    0.00000    0.56780   -0.51731    0    orth

 Final occupancy:   7   1

 !RHF STATE 1.1 Energy               -129.918737102059
 Nuclear energy                        30.59071149
 One-electron energy                 -238.34640423
 Two-electron energy                   77.83695564
 Virial quotient                       -0.99728422
 !RHF STATE 1.1 Dipole moment           0.00000000     0.56780431    -0.51730710
 Dipole moment /Debye                   0.00000000     1.44312008    -1.31477738

 Orbital energies:

         1.1          2.1          3.1          4.1          5.1          6.1          7.1          8.1          9.1
    -20.664053   -15.716117    -1.537724    -0.986664    -0.745850    -0.665326    -0.422496     0.144183     0.371192

         1.2          2.2          3.2
     -0.598017     0.091097     0.611593

 HOMO      7.1    -0.422496 =     -11.4967eV
 LUMO      2.2     0.091097 =       2.4789eV
 LUMO-HOMO         0.513593 =      13.9756eV


 **********************************************************************************************************************************
 DATASETS  * FILE   NREC   LENGTH (MB)   RECORD NAMES
              1      23       36.03       500      610      700      900      950      970     1000      129      960     1700   
                                          VAR    BASINP    GEOM    SYMINP    ZMAT    AOBASIS   BASIS     P2S    ABASIS    OPER   
                                         1101     1401     1411     1412     1650     1100     1400     1410     1200     1210   
                                          SR      EKINR    POTR     PVPR    MOLCAS      S      EKIN      POT      H0       H01  
                                         1300     1080     1600   
                                         ERIS     AOSYM     SMH  

              2       4        2.85       700     1000      520     2100   
                                         GEOM     BASIS   MCVARS     RHF  

 PROGRAMS   *        TOTAL        HF       INT
 CPU TIMES  *         0.87      0.19      0.58
 REAL TIME  *         1.56 SEC
 DISK USED  *        75.75 MB      
 **********************************************************************************************************************************


 PROGRAM * CCSD (Closed-shell coupled cluster)     Authors: C. Hampel, H.-J. Werner, 1991, M. Deegan, P.J. Knowles, 1992


 Convergence thresholds:  THRVAR = 1.00D-08  THRDEN = 1.00D-12

 CCSD(T)     terms to be evaluated (factor= 1.000)


 Number of core orbitals:           2 (   2   0 )
 Number of closed-shell orbitals:   6 (   5   1 )
 Number of external orbitals:      66 (  43  23 )

 Molecular orbitals read from record     2100.2  Type=RHF/CANONICAL (state 1.1)

 Number of N-1 electron functions:               6
 Number of N-2 electron functions:              21
 Number of singly external CSFs:               238
 Number of doubly external CSFs:             41002
 Total number of CSFs:                       41241

 Length of J-op  integral file:               0.00 MB
 Length of K-op  integral file:               0.25 MB
 Length of 3-ext integral record:             0.00 MB

 Memory could be reduced to 1.65 Mwords without degradation in triples

 Integral transformation finished. Total CPU:   0.03 sec, npass=  1  Memory used:   0.55 MW

 Reference energy:                   -129.91873710

 MP2 singlet pair energy:              -0.27270821
 MP2 triplet pair energy:              -0.16187775
 MP2 correlation energy:               -0.43458597
 MP2 total energy:                   -130.35332307

 SCS-MP2 correlation energy:           -0.42797379   (PS=  1.200000  PT=  0.333333)
 SCS-MP2 total energy:               -130.34671090

 ITER.      SQ.NORM     CORR.ENERGY   TOTAL ENERGY   ENERGY CHANGE        DEN1      VAR(S)    VAR(P)  DIIS     TIME  TIME/IT
   1      1.11746876    -0.44009583  -130.35883293    -0.00550986     0.00986661  0.28D-02  0.29D-02  1  1     0.07     0.05
   2      1.12807895    -0.44043309  -130.35917020    -0.00033727    -0.01204832  0.83D-04  0.49D-03  2  2     0.12     0.05
   3      1.13416332    -0.44080625  -130.35954335    -0.00037315    -0.00291619  0.45D-04  0.48D-04  3  3     0.16     0.05
   4      1.13684281    -0.44083053  -130.35956763    -0.00002428    -0.00092546  0.39D-05  0.85D-05  4  4     0.21     0.05
   5      1.13778511    -0.44085847  -130.35959558    -0.00002794    -0.00019538  0.14D-05  0.16D-05  5  5     0.26     0.05
   6      1.13813248    -0.44084316  -130.35958026     0.00001531    -0.00003898  0.11D-06  0.39D-06  6  6     0.31     0.05
   7      1.13821983    -0.44084477  -130.35958188    -0.00000161    -0.00000265  0.13D-07  0.80D-07  6  1     0.36     0.05
   8      1.13825057    -0.44084485  -130.35958195    -0.00000008     0.00000171  0.39D-08  0.93D-08  6  2     0.42     0.05
   9      1.13825810    -0.44084463  -130.35958173     0.00000022    -0.00000215  0.23D-08  0.10D-08  6  3     0.47     0.05
  10      1.13825696    -0.44084512  -130.35958222    -0.00000048     0.00000056  0.46D-09  0.19D-09  6  4     0.52     0.05
  11      1.13825525    -0.44084517  -130.35958227    -0.00000006     0.00000021  0.14D-09  0.21D-10  6  5     0.57     0.05
  12      1.13825388    -0.44084534  -130.35958244    -0.00000017     0.00000042  0.15D-10  0.73D-11  6  6     0.62     0.05
  13      1.13825329    -0.44084535  -130.35958245    -0.00000001     0.00000012  0.67D-11  0.11D-11  6  1     0.67     0.05
  14      1.13825291    -0.44084536  -130.35958247    -0.00000002     0.00000007  0.93D-12  0.40D-12  6  2     0.72     0.05
  15      1.13825278    -0.44084537  -130.35958247    -0.00000000     0.00000001  0.23D-12  0.13D-12  6  3     0.76     0.05
  16      1.13825268    -0.44084537  -130.35958247    -0.00000000     0.00000002  0.65D-14  0.34D-13  6  1     0.81     0.05
  17      1.13825267    -0.44084537  -130.35958247     0.00000000    -0.00000000  0.32D-14  0.27D-14  6  4     0.86     0.05
  18      1.13825266    -0.44084537  -130.35958247    -0.00000000     0.00000000  0.69D-15  0.48D-15  6  5     0.91     0.05
  19      1.13825266    -0.44084537  -130.35958247     0.00000000    -0.00000000  0.11D-15  0.79D-16  6  6     0.96     0.05
  20      1.13825265    -0.44084537  -130.35958247    -0.00000000     0.00000000  0.14D-16  0.18D-16  6  4     1.01     0.05
  21      1.13825265    -0.44084537  -130.35958247    -0.00000000     0.00000000  0.64D-18  0.15D-17  6  2     1.05     0.05
  22      1.13825265    -0.44084537  -130.35958247    -0.00000000     0.00000000  0.59D-19  0.76D-19  6  3     1.11     0.05
  23      1.13825265    -0.44084537  -130.35958247    -0.00000000     0.00000000  0.96D-20  0.11D-19  6  1     1.16     0.05
  24      1.13825265    -0.44084537  -130.35958247     0.00000000     0.00000000  0.36D-20  0.11D-20  6  4     1.21     0.05
  25      1.13825265    -0.44084537  -130.35958247     0.00000000    -0.00000000  0.36D-21  0.37D-21  6  5     1.26     0.05

 Norm of t1 vector:      0.07367380      S-energy:     0.00000000      T1 diagnostic:  0.01503860
                                                                       D1 diagnostic:  0.04087673

 Doubles amplitudes (print threshold =  0.500E-01):

         I         J         SYM. A    SYM. B    A         B      T(IJ, AB)

         6         6         2         2         1         1     -0.14016381


 Total CPU time for triples:      0.37 sec


 RESULTS
 =======

  Reference energy                   -129.918737102060
  CCSD singlet pair energy             -0.302021496140
  CCSD triplet pair energy             -0.138823872119
  CCSD correlation energy              -0.440845368257

  Triples (T) contribution             -0.019488033049
  Total correlation energy             -0.460333401307

  CCSD total energy                  -130.359582470317
  CCSD[T] energy                     -130.380048774500
  CCSD-T energy                      -130.378681204685
 !CCSD(T) total energy               -130.379070503366

 Timing summary (sec):

 STEP                 CPU(USER)    SYS     CPU(TOT)    WALL
 Transformation          0.03      0.03      0.06      0.04
 CCSD iterations         1.24      0.11      1.35      1.36
 Triples                 0.37      0.00      0.37      0.38

 Program statistics:

 Available memory in ccsd:               994999756
 Min. memory needed in ccsd:                154850
 Max. memory used in ccsd:                  184802
 Max. memory used in cckext:                238416 (25 integral passes)



 **********************************************************************************************************************************
 DATASETS  * FILE   NREC   LENGTH (MB)   RECORD NAMES
              1      24       40.41       500      610      700      900      950      970     1000      129      960     1700   
                                          VAR    BASINP    GEOM    SYMINP    ZMAT    AOBASIS   BASIS     P2S    ABASIS    OPER   
                                         1101     1401     1411     1412     1650     1100     1400     1410     1200     1210   
                                          SR      EKINR    POTR     PVPR    MOLCAS      S      EKIN      POT      H0       H01  
                                         1300     1080     1600     1380   
                                         ERIS     AOSYM     SMH     JKOP   

              2       4        2.85       700     1000      520     2100   
                                         GEOM     BASIS   MCVARS     RHF  

 PROGRAMS   *        TOTAL   CCSD(T)        HF       INT
 CPU TIMES  *         2.53      1.65      0.19      0.58
 REAL TIME  *         3.45 SEC
 DISK USED  *        75.75 MB      
 **********************************************************************************************************************************

 CCSD(T)/cc-pVTZ-DK energy=   -130.379070503366

        CCSD(T)         HF-SCF  
   -130.37907050   -129.91873710
 **********************************************************************************************************************************
 Molpro calculation terminated
 Variable memory released
