
 Primary working directories    : /tmp/r2666/235272.maple
 Secondary working directories  : /tmp/r2666/235272.maple
 Wavefunction directory         : /ddn/home4/r2666/wfu/
 Main file repository           : /tmp/r2666/235272.maple/

 SHA1      : d5ffa45e93fdbca01ffc919aa182cfdae0147319
 NAME      : 2015.1.35
 ARCHNAME  : linux/x86_64
 FC        : /opt/intel/composer_xe_2015.1.133/bin/intel64/ifort
 BLASLIB   : -Wl,-_start-group /opt/intel/mkl/lib/intel64/libmkl_intel_ilp64.a /opt/intel/mkl/lib/intel64/libmkl_intel_thread.a /opt/intel/mkl/lib/intel64/libmkl_core.a -Wl,-_end-group
 id        : olemiss

 Nodes     nprocs
 cn075        1

 Using customized tuning parameters: mindgm=1; mindgv=20; mindgc=4; mindgr=1; noblas=0; minvec=7
 default implementation of scratch files=df  

 ***,hno CCSD(T)/TZ-F12 QFF
 memory, 995, m;
 gthresh,energy=1.d-12,zero=1.d-22,oneint=1.d-22,twoint=1.d-22;
 gthresh,optgrad=1.d-8,optstep=1.d-8;
 nocompress;
 geomtyp=xyz
 bohr
 geometry={
 3
        127       127
 N        0.0000000000       -0.1800354817       -1.1480500511
 H        0.0000000000        1.6797765988       -1.9271373286
 O        0.0000000000        0.0420266728        1.1245977887
 }
 
 basis=vtz-dk
 dkroll=1
   {hf,maxit=500;accu,20;}
 {ccsd(t),nocheck,maxit=250;orbital,IGNORE_ERROR;}

 Variables initialized (889), CPU time= 0.01 sec
 Commands  initialized (702), CPU time= 0.00 sec, 572 directives.
 Default parameters read. Elapsed time= 0.08 sec

 Checking input...
 Passed
1


                                         ***  PROGRAM SYSTEM MOLPRO  ***
                                       Copyright, TTI GmbH Stuttgart, 2015
                                    Version 2015.1 linked Jul  9 2018 13:16:40


 **********************************************************************************************************************************
 LABEL *   hno CCSD(T)/TZ-F12 QFF                                                        
  64 bit serial version                                                                  DATE: 08-Feb-20          TIME: 17:57:26  
 **********************************************************************************************************************************

 SHA1:             d5ffa45e93fdbca01ffc919aa182cfdae0147319
 **********************************************************************************************************************************

 THRESHOLDS:

 ZERO    =  1.00D-22  ONEINT  =  1.00D-22  TWOINT  =  1.00D-22  PREFAC  =  1.00D-14  LOCALI  =  1.00D-09  EORDER  =  1.00D-04
 ENERGY  =  1.00D-12  ETEST   =  0.00D+00  EDENS   =  0.00D+00  THRDEDEF=  1.00D-06  GRADIENT=  1.00D-02  STEP    =  1.00D-03
 ORBITAL =  1.00D-05  CIVEC   =  1.00D-05  COEFF   =  1.00D-04  PRINTCI =  5.00D-02  PUNCHCI =  9.90D+01  OPTGRAD =  3.00D-04
 OPTENERG=  1.00D-06  OPTSTEP =  3.00D-04  THRGRAD =  1.00D-10  COMPRESS=  1.00D-11  VARMIN  =  1.00D-07  VARMAX  =  1.00D-03
 THRDOUB =  0.00D+00  THRDIV  =  1.00D-05  THRRED  =  1.00D-07  THRPSP  =  1.00D+00  THRDC   =  1.00D-10  THRCS   =  1.00D-10
 THRNRM  =  1.00D-08  THREQ   =  0.00D+00  THRDE   =  1.00D+00  THRREF  =  1.00D-05  SPARFAC =  1.00D+00  THRDLP  =  1.00D-07
 THRDIA  =  1.00D-10  THRDLS  =  1.00D-07  THRGPS  =  0.00D+00  THRKEX  =  0.00D+00  THRDIS  =  2.00D-01  THRVAR  =  1.00D-10
 THRLOC  =  1.00D-06  THRGAP  =  1.00D-06  THRLOCT = -1.00D+00  THRGAPT = -1.00D+00  THRORB  =  1.00D-06  THRMLTP =  0.00D+00
 THRCPQCI=  1.00D-10  KEXTA   =  0.00D+00  THRCOARS=  0.00D+00  SYMTOL  =  1.00D-06  GRADTOL =  1.00D-06  THROVL  =  1.00D-08
 THRORTH =  1.00D-08  GRID    =  1.00D-06  GRIDMAX =  1.00D-03  DTMAX   =  0.00D+00  THROCCDE=  1.00D-01  THROCCDE=  1.00D-01



 THRESHOLDS:

 ZERO    =  1.00D-22  ONEINT  =  1.00D-22  TWOINT  =  1.00D-22  PREFAC  =  1.00D-14  LOCALI  =  1.00D-09  EORDER  =  1.00D-04
 ENERGY  =  1.00D-12  ETEST   =  0.00D+00  EDENS   =  0.00D+00  THRDEDEF=  1.00D-06  GRADIENT=  1.00D-02  STEP    =  1.00D-03
 ORBITAL =  1.00D-05  CIVEC   =  1.00D-05  COEFF   =  1.00D-04  PRINTCI =  5.00D-02  PUNCHCI =  9.90D+01  OPTGRAD =  1.00D-08
 OPTENERG=  1.00D-06  OPTSTEP =  1.00D-08  THRGRAD =  1.00D-10  COMPRESS=  1.00D-11  VARMIN  =  1.00D-07  VARMAX  =  1.00D-03
 THRDOUB =  0.00D+00  THRDIV  =  1.00D-05  THRRED  =  1.00D-07  THRPSP  =  1.00D+00  THRDC   =  1.00D-10  THRCS   =  1.00D-10
 THRNRM  =  1.00D-08  THREQ   =  0.00D+00  THRDE   =  1.00D+00  THRREF  =  1.00D-05  SPARFAC =  1.00D+00  THRDLP  =  1.00D-07
 THRDIA  =  1.00D-10  THRDLS  =  1.00D-07  THRGPS  =  0.00D+00  THRKEX  =  0.00D+00  THRDIS  =  2.00D-01  THRVAR  =  1.00D-10
 THRLOC  =  1.00D-06  THRGAP  =  1.00D-06  THRLOCT = -1.00D+00  THRGAPT = -1.00D+00  THRORB  =  1.00D-06  THRMLTP =  0.00D+00
 THRCPQCI=  1.00D-10  KEXTA   =  0.00D+00  THRCOARS=  0.00D+00  SYMTOL  =  1.00D-06  GRADTOL =  1.00D-06  THROVL  =  1.00D-08
 THRORTH =  1.00D-08  GRID    =  1.00D-06  GRIDMAX =  1.00D-03  DTMAX   =  0.00D+00  THROCCDE=  1.00D-01  THROCCDE=  1.00D-01



 Input parameters for SORTINT:

 COMPRESS =    0.000000
 C_FINAL  =    1.000000
 DEBUG    =   -1.000000
 C_SORT1  =    0.000000
 C_SEWARD =    0.000000
 THRESH   =    0.000000
 IO       =  molpro                                                          
 SPRI     =    0.000000
 SETTING GEOMTYP        =    XYZ
 ZUNIT=BOHR
 

 Variable memory set to  995000000 words,  buffer space   230000 words

 SETTING BASIS          =    VTZ-DK
 SETTING DKROLL         =         1.00000000                                  


 Recomputing integrals since basis changed


 Using spherical harmonics

 Library entry N      S cc-pVTZ-DK           selected for orbital group  1
 Library entry N      P cc-pVTZ-DK           selected for orbital group  1
 Library entry N      D cc-pVTZ-DK           selected for orbital group  1
 Library entry N      F cc-pVTZ-DK           selected for orbital group  1
 Library entry H      S cc-pVTZ-DK           selected for orbital group  2
 Library entry H      P cc-pVTZ-DK           selected for orbital group  2
 Library entry H      D cc-pVTZ-DK           selected for orbital group  2
 Library entry O      S cc-pVTZ-DK           selected for orbital group  3
 Library entry O      P cc-pVTZ-DK           selected for orbital group  3
 Library entry O      D cc-pVTZ-DK           selected for orbital group  3
 Library entry O      F cc-pVTZ-DK           selected for orbital group  3


 PROGRAM * SEWARD (Integral evaluation for generally contracted gaussian basis sets)     Author: Roland Lindh, 1990

 Geometry written to block  1 of record 700


 Point group  Cs  



 ATOMIC COORDINATES

 NR  ATOM    CHARGE       X              Y              Z

   1  N       7.00    0.000000000   -0.180035482   -1.148050051
   2  H       1.00    0.000000000    1.679776599   -1.927137329
   3  O       8.00    0.000000000    0.042026673    1.124597789

 Bond lengths in Bohr (Angstrom)

 1-2  2.016402232  1-3  2.283470999
     ( 1.067034109)     ( 1.208360815)

 Bond angles

  2-1-3  107.14842540

 NUCLEAR CHARGE:                   16
 NUMBER OF PRIMITIVE AOS:         111
 NUMBER OF SYMMETRY AOS:          100
 NUMBER OF CONTRACTIONS:           74   (  50A'  +  24A"  )
 NUMBER OF CORE ORBITALS:           2   (   2A'  +   0A"  )
 NUMBER OF VALENCE ORBITALS:        9   (   7A'  +   2A"  )


 NUCLEAR REPULSION ENERGY   30.30545074

 One-electron integrals computed with SEWARD

 2nd-order Douglas-Kroll-Hess method activated. Optimal DKH parametrization is used.

 Computing Douglas-Kroll / X2C integrals


        1874283. INTEGRALS WRITTEN OUT IN     458 BLOCKS ON RECORD 1290 OF FILE 1


 NUMBER OF SORTED TWO-ELECTRON INTEGRALS:    2006100.     BUFFER LENGTH:  32768
 NUMBER OF SEGMENTS:   1  SEGMENT LENGTH:    2006100      RECORD LENGTH: 524288

 Memory used in sort:       2.56 MW

 SORT1 READ     1874283. AND WROTE     1914195. INTEGRALS IN      6 RECORDS. CPU TIME:     0.03 SEC, REAL TIME:     0.05 SEC
 SORT2 READ     1914195. AND WROTE     2006100. INTEGRALS IN      1 RECORDS. CPU TIME:     0.05 SEC, REAL TIME:     0.06 SEC

 FILE SIZES:   FILE 1:    50.2 MBYTE,  FILE 4:    25.2 MBYTE,   TOTAL:     75.4 MBYTE

 OPERATOR DM      FOR CENTER  0  COORDINATES:    0.000000    0.000000    0.000000

 Eigenvalues of metric

         1 0.250E-02 0.403E-02 0.418E-02 0.861E-02 0.133E-01 0.331E-01 0.426E-01 0.465E-01
         2 0.344E-01 0.467E-01 0.102E+00 0.116E+00 0.237E+00 0.347E+00 0.398E+00 0.451E+00


 **********************************************************************************************************************************
 DATASETS  * FILE   NREC   LENGTH (MB)   RECORD NAMES
              1      23       36.03       500      610      700      900      950      970     1000      129      960     1700   
                                          VAR    BASINP    GEOM    SYMINP    ZMAT    AOBASIS   BASIS     P2S    ABASIS    OPER   
                                         1101     1401     1411     1412     1650     1100     1400     1410     1200     1210   
                                          SR      EKINR    POTR     PVPR    MOLCAS      S      EKIN      POT      H0       H01  
                                         1300     1080     1600   
                                         ERIS     AOSYM     SMH  

 PROGRAMS   *        TOTAL       INT
 CPU TIMES  *         0.69      0.58
 REAL TIME  *         1.29 SEC
 DISK USED  *        75.75 MB      
 **********************************************************************************************************************************


 PROGRAM * RHF-SCF (CLOSED SHELL)       Authors: W. Meyer, H.-J. Werner


 NUMBER OF ELECTRONS:       8+    8-
 CONVERGENCE THRESHOLDS:    1.00E-10 (Density)    1.00E-13 (Energy)
 MAX. NUMBER OF ITERATIONS:      500
 INTERPOLATION TYPE:            DIIS
 INTERPOLATION STEPS:              2 (START)      1 (STEP)
 LEVEL SHIFTS:                  0.00 (CLOSED)  0.00 (OPEN) 



 Orbital guess generated from atomic densities. Full valence occupancy:    9   2

 Molecular orbital dump at record        2100.2

 Initial occupancy:   7   1

 ITERATION    DDIFF          GRAD             ENERGY        2-EL.EN.            DIPOLE MOMENTS         DIIS   ORB.
    1      0.000D+00      0.000D+00      -129.86595714    154.103584    0.00000    0.57150   -1.04104    0    start
    2      0.000D+00      0.137D-01      -129.89266902    155.226335    0.00000    0.61403   -0.20964    1    diag
    3      0.187D-01      0.106D-01      -129.91593729    155.353739    0.00000    0.55362   -0.59526    2    diag
    4      0.915D-02      0.155D-02      -129.91667449    155.086325    0.00000    0.56242   -0.53617    3    diag
    5      0.165D-02      0.519D-03      -129.91679236    155.172802    0.00000    0.56789   -0.53713    4    diag
    6      0.725D-03      0.157D-03      -129.91681214    155.157553    0.00000    0.56839   -0.53286    5    diag
    7      0.283D-03      0.783D-04      -129.91681794    155.159893    0.00000    0.56964   -0.53031    6    diag
    8      0.196D-03      0.252D-04      -129.91681850    155.159180    0.00000    0.56966   -0.52949    7    diag
    9      0.669D-04      0.460D-05      -129.91681852    155.159060    0.00000    0.56961   -0.52933    8    diag
   10      0.129D-04      0.100D-05      -129.91681852    155.159041    0.00000    0.56957   -0.52930    9    orth
   11      0.281D-05      0.199D-06      -129.91681852    155.159037    0.00000    0.56957   -0.52930    9    diag
   12      0.520D-06      0.420D-07      -129.91681852    155.159036    0.00000    0.56956   -0.52930    9    diag
   13      0.117D-06      0.105D-07      -129.91681852    155.159035    0.00000    0.56956   -0.52930    9    diag
   14      0.296D-07      0.190D-08      -129.91681852    155.159035    0.00000    0.56956   -0.52930    9    diag
   15      0.468D-08      0.490D-09      -129.91681852    155.159035    0.00000    0.56956   -0.52930    9    diag
   16      0.111D-08      0.120D-09      -129.91681852    155.159035    0.00000    0.56956   -0.52930    9    diag
   17      0.200D-09      0.353D-10      -129.91681852    155.159035    0.00000    0.56956   -0.52930    9    diag
   18      0.632D-10      0.119D-10      -129.91681852    155.159035    0.00000    0.56956   -0.52930    9    diag
   19      0.277D-10      0.257D-11      -129.91681852    155.159035    0.00000    0.56956   -0.52930    0    orth

 Final occupancy:   7   1

 !RHF STATE 1.1 Energy               -129.916818523743
 Nuclear energy                        30.30545074
 One-electron energy                 -237.80178683
 Two-electron energy                   77.57951756
 Virial quotient                       -0.99771285
 !RHF STATE 1.1 Dipole moment           0.00000000     0.56956320    -0.52929783
 Dipole moment /Debye                   0.00000000     1.44759043    -1.34525278

 Orbital energies:

         1.1          2.1          3.1          4.1          5.1          6.1          7.1          8.1          9.1
    -20.665178   -15.719161    -1.527478    -0.987995    -0.741363    -0.661477    -0.426668     0.143227     0.369498

         1.2          2.2          3.2
     -0.592056     0.086392     0.612953

 HOMO      7.1    -0.426668 =     -11.6102eV
 LUMO      2.2     0.086392 =       2.3508eV
 LUMO-HOMO         0.513060 =      13.9611eV


 **********************************************************************************************************************************
 DATASETS  * FILE   NREC   LENGTH (MB)   RECORD NAMES
              1      23       36.03       500      610      700      900      950      970     1000      129      960     1700   
                                          VAR    BASINP    GEOM    SYMINP    ZMAT    AOBASIS   BASIS     P2S    ABASIS    OPER   
                                         1101     1401     1411     1412     1650     1100     1400     1410     1200     1210   
                                          SR      EKINR    POTR     PVPR    MOLCAS      S      EKIN      POT      H0       H01  
                                         1300     1080     1600   
                                         ERIS     AOSYM     SMH  

              2       4        2.85       700     1000      520     2100   
                                         GEOM     BASIS   MCVARS     RHF  

 PROGRAMS   *        TOTAL        HF       INT
 CPU TIMES  *         0.88      0.19      0.58
 REAL TIME  *         1.53 SEC
 DISK USED  *        75.75 MB      
 **********************************************************************************************************************************


 PROGRAM * CCSD (Closed-shell coupled cluster)     Authors: C. Hampel, H.-J. Werner, 1991, M. Deegan, P.J. Knowles, 1992


 Convergence thresholds:  THRVAR = 1.00D-08  THRDEN = 1.00D-12

 CCSD(T)     terms to be evaluated (factor= 1.000)


 Number of core orbitals:           2 (   2   0 )
 Number of closed-shell orbitals:   6 (   5   1 )
 Number of external orbitals:      66 (  43  23 )

 Molecular orbitals read from record     2100.2  Type=RHF/CANONICAL (state 1.1)

 Number of N-1 electron functions:               6
 Number of N-2 electron functions:              21
 Number of singly external CSFs:               238
 Number of doubly external CSFs:             41002
 Total number of CSFs:                       41241

 Length of J-op  integral file:               0.00 MB
 Length of K-op  integral file:               0.25 MB
 Length of 3-ext integral record:             0.00 MB

 Memory could be reduced to 1.65 Mwords without degradation in triples

 Integral transformation finished. Total CPU:   0.02 sec, npass=  1  Memory used:   0.55 MW

 Reference energy:                   -129.91681852

 MP2 singlet pair energy:              -0.27417271
 MP2 triplet pair energy:              -0.16282179
 MP2 correlation energy:               -0.43699450
 MP2 total energy:                   -130.35381303

 SCS-MP2 correlation energy:           -0.43031859   (PS=  1.200000  PT=  0.333333)
 SCS-MP2 total energy:               -130.34713712

 ITER.      SQ.NORM     CORR.ENERGY   TOTAL ENERGY   ENERGY CHANGE        DEN1      VAR(S)    VAR(P)  DIIS     TIME  TIME/IT
   1      1.11899725    -0.44201349  -130.35883201    -0.00501898     0.01090432  0.30D-02  0.30D-02  1  1     0.07     0.04
   2      1.12993763    -0.44225782  -130.35907634    -0.00024433    -0.01236938  0.89D-04  0.51D-03  2  2     0.10     0.04
   3      1.13630362    -0.44265214  -130.35947067    -0.00039432    -0.00301390  0.48D-04  0.51D-04  3  3     0.14     0.04
   4      1.13913216    -0.44267762  -130.35949614    -0.00002547    -0.00096759  0.42D-05  0.89D-05  4  4     0.17     0.04
   5      1.14014208    -0.44270795  -130.35952647    -0.00003033    -0.00020979  0.15D-05  0.16D-05  5  5     0.20     0.04
   6      1.14050391    -0.44269111  -130.35950963     0.00001684    -0.00004127  0.11D-06  0.39D-06  6  6     0.24     0.04
   7      1.14058989    -0.44269288  -130.35951140    -0.00000177    -0.00000212  0.14D-07  0.83D-07  6  1     0.27     0.04
   8      1.14062103    -0.44269278  -130.35951130     0.00000010     0.00000168  0.39D-08  0.10D-07  6  2     0.31     0.04
   9      1.14062904    -0.44269254  -130.35951106     0.00000024    -0.00000219  0.24D-08  0.12D-08  6  3     0.34     0.04
  10      1.14062793    -0.44269304  -130.35951157    -0.00000050     0.00000058  0.47D-09  0.21D-09  6  4     0.38     0.04
  11      1.14062621    -0.44269310  -130.35951162    -0.00000006     0.00000019  0.15D-09  0.23D-10  6  5     0.41     0.04
  12      1.14062480    -0.44269328  -130.35951180    -0.00000018     0.00000043  0.15D-10  0.76D-11  6  6     0.45     0.04
  13      1.14062418    -0.44269328  -130.35951181    -0.00000001     0.00000012  0.68D-11  0.12D-11  6  1     0.48     0.04
  14      1.14062378    -0.44269330  -130.35951183    -0.00000002     0.00000008  0.98D-12  0.42D-12  6  2     0.51     0.04
  15      1.14062364    -0.44269330  -130.35951183    -0.00000000     0.00000001  0.26D-12  0.13D-12  6  3     0.54     0.04
  16      1.14062354    -0.44269331  -130.35951183    -0.00000000     0.00000001  0.25D-13  0.15D-13  6  5     0.57     0.04
  17      1.14062351    -0.44269331  -130.35951183    -0.00000000     0.00000000  0.51D-15  0.18D-14  6  4     0.61     0.04
  18      1.14062351    -0.44269331  -130.35951183     0.00000000    -0.00000000  0.39D-15  0.25D-15  6  1     0.64     0.04
  19      1.14062350    -0.44269331  -130.35951183    -0.00000000     0.00000000  0.38D-16  0.46D-16  6  6     0.68     0.04
  20      1.14062350    -0.44269331  -130.35951183    -0.00000000     0.00000000  0.85D-17  0.12D-16  6  2     0.71     0.04
  21      1.14062350    -0.44269331  -130.35951183    -0.00000000     0.00000000  0.16D-17  0.98D-18  6  5     0.74     0.04
  22      1.14062350    -0.44269331  -130.35951183    -0.00000000     0.00000000  0.87D-19  0.73D-19  6  3     0.78     0.04
  23      1.14062350    -0.44269331  -130.35951183     0.00000000    -0.00000000  0.24D-19  0.16D-19  6  4     0.82     0.04
  24      1.14062350    -0.44269331  -130.35951183     0.00000000    -0.00000000  0.36D-20  0.40D-20  6  1     0.85     0.04
  25      1.14062350    -0.44269331  -130.35951183     0.00000000    -0.00000000  0.56D-21  0.67D-21  6  6     0.89     0.04

 Norm of t1 vector:      0.07562480      S-energy:     0.00000000      T1 diagnostic:  0.01543685
                                                                       D1 diagnostic:  0.04245109

 Doubles amplitudes (print threshold =  0.500E-01):

         I         J         SYM. A    SYM. B    A         B      T(IJ, AB)

         6         6         2         2         1         1     -0.14365301


 Total CPU time for triples:      0.23 sec


 RESULTS
 =======

  Reference energy                   -129.916818523743
  CCSD singlet pair energy             -0.303629634486
  CCSD triplet pair energy             -0.139063674233
  CCSD correlation energy              -0.442693308718

  Triples (T) contribution             -0.019892995098
  Total correlation energy             -0.462586303816

  CCSD total energy                  -130.359511832461
  CCSD[T] energy                     -130.380436295022
  CCSD-T energy                      -130.379001321539
 !CCSD(T) total energy               -130.379404827559

 Timing summary (sec):

 STEP                 CPU(USER)    SYS     CPU(TOT)    WALL
 Transformation          0.02      0.01      0.03      0.03
 CCSD iterations         0.88      0.09      0.97      0.97
 Triples                 0.23      0.00      0.23      0.23

 Program statistics:

 Available memory in ccsd:               994999756
 Min. memory needed in ccsd:                154850
 Max. memory used in ccsd:                  184802
 Max. memory used in cckext:                238416 (25 integral passes)



 **********************************************************************************************************************************
 DATASETS  * FILE   NREC   LENGTH (MB)   RECORD NAMES
              1      24       40.41       500      610      700      900      950      970     1000      129      960     1700   
                                          VAR    BASINP    GEOM    SYMINP    ZMAT    AOBASIS   BASIS     P2S    ABASIS    OPER   
                                         1101     1401     1411     1412     1650     1100     1400     1410     1200     1210   
                                          SR      EKINR    POTR     PVPR    MOLCAS      S      EKIN      POT      H0       H01  
                                         1300     1080     1600     1380   
                                         ERIS     AOSYM     SMH     JKOP   

              2       4        2.85       700     1000      520     2100   
                                         GEOM     BASIS   MCVARS     RHF  

 PROGRAMS   *        TOTAL   CCSD(T)        HF       INT
 CPU TIMES  *         2.03      1.14      0.19      0.58
 REAL TIME  *         2.80 SEC
 DISK USED  *        75.75 MB      
 **********************************************************************************************************************************

 CCSD(T)/cc-pVTZ-DK energy=   -130.379404827559

        CCSD(T)         HF-SCF  
   -130.37940483   -129.91681852
 **********************************************************************************************************************************
 Molpro calculation terminated
 Variable memory released
