
 Primary working directories    : /tmp/r2666/235273.maple
 Secondary working directories  : /tmp/r2666/235273.maple
 Wavefunction directory         : /ddn/home4/r2666/wfu/
 Main file repository           : /tmp/r2666/235273.maple/

 SHA1      : d5ffa45e93fdbca01ffc919aa182cfdae0147319
 NAME      : 2015.1.35
 ARCHNAME  : linux/x86_64
 FC        : /opt/intel/composer_xe_2015.1.133/bin/intel64/ifort
 BLASLIB   : -Wl,-_start-group /opt/intel/mkl/lib/intel64/libmkl_intel_ilp64.a /opt/intel/mkl/lib/intel64/libmkl_intel_thread.a /opt/intel/mkl/lib/intel64/libmkl_core.a -Wl,-_end-group
 id        : olemiss

 Nodes     nprocs
 cn030        1

 Using customized tuning parameters: mindgm=1; mindgv=20; mindgc=4; mindgr=1; noblas=0; minvec=7
 default implementation of scratch files=df  

 ***,hno CCSD(T)/TZ-F12 QFF
 memory, 995, m;
 gthresh,energy=1.d-12,zero=1.d-22,oneint=1.d-22,twoint=1.d-22;
 gthresh,optgrad=1.d-8,optstep=1.d-8;
 nocompress;
 geomtyp=xyz
 bohr
 geometry={
 3
        128       128
 N        0.0000000000       -0.1759082017       -1.1446679504
 H        0.0000000000        1.6800258830       -1.9329487598
 O        0.0000000000        0.0376501087        1.1270271192
 }
 
 basis=vtz-dk
 dkroll=1
   {hf,maxit=500;accu,20;}
 {ccsd(t),nocheck,maxit=250;orbital,IGNORE_ERROR;}

 Variables initialized (889), CPU time= 0.01 sec
 Commands  initialized (702), CPU time= 0.00 sec, 572 directives.
 Default parameters read. Elapsed time= 0.05 sec

 Checking input...
 Passed
1


                                         ***  PROGRAM SYSTEM MOLPRO  ***
                                       Copyright, TTI GmbH Stuttgart, 2015
                                    Version 2015.1 linked Jul  9 2018 13:16:40


 **********************************************************************************************************************************
 LABEL *   hno CCSD(T)/TZ-F12 QFF                                                        
  64 bit serial version                                                                  DATE: 08-Feb-20          TIME: 17:57:26  
 **********************************************************************************************************************************

 SHA1:             d5ffa45e93fdbca01ffc919aa182cfdae0147319
 **********************************************************************************************************************************

 THRESHOLDS:

 ZERO    =  1.00D-22  ONEINT  =  1.00D-22  TWOINT  =  1.00D-22  PREFAC  =  1.00D-14  LOCALI  =  1.00D-09  EORDER  =  1.00D-04
 ENERGY  =  1.00D-12  ETEST   =  0.00D+00  EDENS   =  0.00D+00  THRDEDEF=  1.00D-06  GRADIENT=  1.00D-02  STEP    =  1.00D-03
 ORBITAL =  1.00D-05  CIVEC   =  1.00D-05  COEFF   =  1.00D-04  PRINTCI =  5.00D-02  PUNCHCI =  9.90D+01  OPTGRAD =  3.00D-04
 OPTENERG=  1.00D-06  OPTSTEP =  3.00D-04  THRGRAD =  1.00D-10  COMPRESS=  1.00D-11  VARMIN  =  1.00D-07  VARMAX  =  1.00D-03
 THRDOUB =  0.00D+00  THRDIV  =  1.00D-05  THRRED  =  1.00D-07  THRPSP  =  1.00D+00  THRDC   =  1.00D-10  THRCS   =  1.00D-10
 THRNRM  =  1.00D-08  THREQ   =  0.00D+00  THRDE   =  1.00D+00  THRREF  =  1.00D-05  SPARFAC =  1.00D+00  THRDLP  =  1.00D-07
 THRDIA  =  1.00D-10  THRDLS  =  1.00D-07  THRGPS  =  0.00D+00  THRKEX  =  0.00D+00  THRDIS  =  2.00D-01  THRVAR  =  1.00D-10
 THRLOC  =  1.00D-06  THRGAP  =  1.00D-06  THRLOCT = -1.00D+00  THRGAPT = -1.00D+00  THRORB  =  1.00D-06  THRMLTP =  0.00D+00
 THRCPQCI=  1.00D-10  KEXTA   =  0.00D+00  THRCOARS=  0.00D+00  SYMTOL  =  1.00D-06  GRADTOL =  1.00D-06  THROVL  =  1.00D-08
 THRORTH =  1.00D-08  GRID    =  1.00D-06  GRIDMAX =  1.00D-03  DTMAX   =  0.00D+00  THROCCDE=  1.00D-01  THROCCDE=  1.00D-01



 THRESHOLDS:

 ZERO    =  1.00D-22  ONEINT  =  1.00D-22  TWOINT  =  1.00D-22  PREFAC  =  1.00D-14  LOCALI  =  1.00D-09  EORDER  =  1.00D-04
 ENERGY  =  1.00D-12  ETEST   =  0.00D+00  EDENS   =  0.00D+00  THRDEDEF=  1.00D-06  GRADIENT=  1.00D-02  STEP    =  1.00D-03
 ORBITAL =  1.00D-05  CIVEC   =  1.00D-05  COEFF   =  1.00D-04  PRINTCI =  5.00D-02  PUNCHCI =  9.90D+01  OPTGRAD =  1.00D-08
 OPTENERG=  1.00D-06  OPTSTEP =  1.00D-08  THRGRAD =  1.00D-10  COMPRESS=  1.00D-11  VARMIN  =  1.00D-07  VARMAX  =  1.00D-03
 THRDOUB =  0.00D+00  THRDIV  =  1.00D-05  THRRED  =  1.00D-07  THRPSP  =  1.00D+00  THRDC   =  1.00D-10  THRCS   =  1.00D-10
 THRNRM  =  1.00D-08  THREQ   =  0.00D+00  THRDE   =  1.00D+00  THRREF  =  1.00D-05  SPARFAC =  1.00D+00  THRDLP  =  1.00D-07
 THRDIA  =  1.00D-10  THRDLS  =  1.00D-07  THRGPS  =  0.00D+00  THRKEX  =  0.00D+00  THRDIS  =  2.00D-01  THRVAR  =  1.00D-10
 THRLOC  =  1.00D-06  THRGAP  =  1.00D-06  THRLOCT = -1.00D+00  THRGAPT = -1.00D+00  THRORB  =  1.00D-06  THRMLTP =  0.00D+00
 THRCPQCI=  1.00D-10  KEXTA   =  0.00D+00  THRCOARS=  0.00D+00  SYMTOL  =  1.00D-06  GRADTOL =  1.00D-06  THROVL  =  1.00D-08
 THRORTH =  1.00D-08  GRID    =  1.00D-06  GRIDMAX =  1.00D-03  DTMAX   =  0.00D+00  THROCCDE=  1.00D-01  THROCCDE=  1.00D-01



 Input parameters for SORTINT:

 COMPRESS =    0.000000
 C_FINAL  =    1.000000
 DEBUG    =   -1.000000
 C_SORT1  =    0.000000
 C_SEWARD =    0.000000
 THRESH   =    0.000000
 IO       =  molpro                                                          
 SPRI     =    0.000000
 SETTING GEOMTYP        =    XYZ
 ZUNIT=BOHR
 

 Variable memory set to  995000000 words,  buffer space   230000 words

 SETTING BASIS          =    VTZ-DK
 SETTING DKROLL         =         1.00000000                                  


 Recomputing integrals since basis changed


 Using spherical harmonics

 Library entry N      S cc-pVTZ-DK           selected for orbital group  1
 Library entry N      P cc-pVTZ-DK           selected for orbital group  1
 Library entry N      D cc-pVTZ-DK           selected for orbital group  1
 Library entry N      F cc-pVTZ-DK           selected for orbital group  1
 Library entry H      S cc-pVTZ-DK           selected for orbital group  2
 Library entry H      P cc-pVTZ-DK           selected for orbital group  2
 Library entry H      D cc-pVTZ-DK           selected for orbital group  2
 Library entry O      S cc-pVTZ-DK           selected for orbital group  3
 Library entry O      P cc-pVTZ-DK           selected for orbital group  3
 Library entry O      D cc-pVTZ-DK           selected for orbital group  3
 Library entry O      F cc-pVTZ-DK           selected for orbital group  3


 PROGRAM * SEWARD (Integral evaluation for generally contracted gaussian basis sets)     Author: Roland Lindh, 1990

 Geometry written to block  1 of record 700


 Point group  Cs  



 ATOMIC COORDINATES

 NR  ATOM    CHARGE       X              Y              Z

   1  N       7.00    0.000000000   -0.175908202   -1.144667950
   2  H       1.00    0.000000000    1.680025883   -1.932948760
   3  O       8.00    0.000000000    0.037650109    1.127027119

 Bond lengths in Bohr (Angstrom)

 1-2  2.016402232  1-3  2.281711121
     ( 1.067034109)     ( 1.207429527)

 Bond angles

  2-1-3  107.64214899

 NUCLEAR CHARGE:                   16
 NUMBER OF PRIMITIVE AOS:         111
 NUMBER OF SYMMETRY AOS:          100
 NUMBER OF CONTRACTIONS:           74   (  50A'  +  24A"  )
 NUMBER OF CORE ORBITALS:           2   (   2A'  +   0A"  )
 NUMBER OF VALENCE ORBITALS:        9   (   7A'  +   2A"  )


 NUCLEAR REPULSION ENERGY   30.31808169

 One-electron integrals computed with SEWARD

 2nd-order Douglas-Kroll-Hess method activated. Optimal DKH parametrization is used.

 Computing Douglas-Kroll / X2C integrals


        1874283. INTEGRALS WRITTEN OUT IN     458 BLOCKS ON RECORD 1290 OF FILE 1


 NUMBER OF SORTED TWO-ELECTRON INTEGRALS:    2006100.     BUFFER LENGTH:  32768
 NUMBER OF SEGMENTS:   1  SEGMENT LENGTH:    2006100      RECORD LENGTH: 524288

 Memory used in sort:       2.56 MW

 SORT1 READ     1874283. AND WROTE     1914195. INTEGRALS IN      6 RECORDS. CPU TIME:     0.05 SEC, REAL TIME:     0.07 SEC
 SORT2 READ     1914195. AND WROTE     2006100. INTEGRALS IN      1 RECORDS. CPU TIME:     0.04 SEC, REAL TIME:     0.06 SEC

 FILE SIZES:   FILE 1:    50.2 MBYTE,  FILE 4:    25.2 MBYTE,   TOTAL:     75.4 MBYTE

 OPERATOR DM      FOR CENTER  0  COORDINATES:    0.000000    0.000000    0.000000

 Eigenvalues of metric

         1 0.249E-02 0.403E-02 0.416E-02 0.861E-02 0.133E-01 0.330E-01 0.426E-01 0.465E-01
         2 0.344E-01 0.466E-01 0.102E+00 0.116E+00 0.236E+00 0.347E+00 0.398E+00 0.451E+00


 **********************************************************************************************************************************
 DATASETS  * FILE   NREC   LENGTH (MB)   RECORD NAMES
              1      23       36.03       500      610      700      900      950      970     1000      129      960     1700   
                                          VAR    BASINP    GEOM    SYMINP    ZMAT    AOBASIS   BASIS     P2S    ABASIS    OPER   
                                         1101     1401     1411     1412     1650     1100     1400     1410     1200     1210   
                                          SR      EKINR    POTR     PVPR    MOLCAS      S      EKIN      POT      H0       H01  
                                         1300     1080     1600   
                                         ERIS     AOSYM     SMH  

 PROGRAMS   *        TOTAL       INT
 CPU TIMES  *         0.67      0.58
 REAL TIME  *         1.26 SEC
 DISK USED  *        75.75 MB      
 **********************************************************************************************************************************


 PROGRAM * RHF-SCF (CLOSED SHELL)       Authors: W. Meyer, H.-J. Werner


 NUMBER OF ELECTRONS:       8+    8-
 CONVERGENCE THRESHOLDS:    1.00E-10 (Density)    1.00E-13 (Energy)
 MAX. NUMBER OF ITERATIONS:      500
 INTERPOLATION TYPE:            DIIS
 INTERPOLATION STEPS:              2 (START)      1 (STEP)
 LEVEL SHIFTS:                  0.00 (CLOSED)  0.00 (OPEN) 



 Orbital guess generated from atomic densities. Full valence occupancy:    9   2

 Molecular orbital dump at record        2100.2

 Initial occupancy:   7   1

 ITERATION    DDIFF          GRAD             ENERGY        2-EL.EN.            DIPOLE MOMENTS         DIIS   ORB.
    1      0.000D+00      0.000D+00      -129.86631362    154.124081    0.00000    0.57547   -1.03914    0    start
    2      0.000D+00      0.137D-01      -129.89304439    155.250586    0.00000    0.61297   -0.21224    1    diag
    3      0.187D-01      0.105D-01      -129.91610256    155.375863    0.00000    0.55500   -0.59590    2    diag
    4      0.912D-02      0.155D-02      -129.91683929    155.108810    0.00000    0.56358   -0.53682    3    diag
    5      0.165D-02      0.518D-03      -129.91695667    155.195363    0.00000    0.56910   -0.53785    4    diag
    6      0.724D-03      0.156D-03      -129.91697633    155.180155    0.00000    0.56961   -0.53361    5    diag
    7      0.283D-03      0.779D-04      -129.91698208    155.182509    0.00000    0.57087   -0.53108    6    diag
    8      0.195D-03      0.251D-04      -129.91698263    155.181805    0.00000    0.57089   -0.53026    7    diag
    9      0.663D-04      0.458D-05      -129.91698265    155.181685    0.00000    0.57084   -0.53010    8    diag
   10      0.129D-04      0.101D-05      -129.91698265    155.181666    0.00000    0.57080   -0.53008    9    orth
   11      0.282D-05      0.199D-06      -129.91698265    155.181662    0.00000    0.57080   -0.53007    9    diag
   12      0.521D-06      0.418D-07      -129.91698265    155.181660    0.00000    0.57079   -0.53007    9    diag
   13      0.117D-06      0.105D-07      -129.91698265    155.181660    0.00000    0.57079   -0.53007    9    diag
   14      0.294D-07      0.189D-08      -129.91698265    155.181660    0.00000    0.57079   -0.53007    9    diag
   15      0.470D-08      0.491D-09      -129.91698265    155.181660    0.00000    0.57079   -0.53007    9    diag
   16      0.112D-08      0.120D-09      -129.91698265    155.181660    0.00000    0.57079   -0.53007    9    diag
   17      0.202D-09      0.355D-10      -129.91698265    155.181660    0.00000    0.57079   -0.53007    9    diag
   18      0.642D-10      0.120D-10      -129.91698265    155.181660    0.00000    0.57079   -0.53007    9    diag
   19      0.281D-10      0.259D-11      -129.91698265    155.181660    0.00000    0.57079   -0.53007    0    orth

 Final occupancy:   7   1

 !RHF STATE 1.1 Energy               -129.916982649195
 Nuclear energy                        30.31808169
 One-electron energy                 -237.82589416
 Two-electron energy                   77.59082982
 Virial quotient                       -0.99769930
 !RHF STATE 1.1 Dipole moment           0.00000000     0.57079455    -0.53007128
 Dipole moment /Debye                   0.00000000     1.45072002    -1.34721857

 Orbital energies:

         1.1          2.1          3.1          4.1          5.1          6.1          7.1          8.1          9.1
    -20.665213   -15.718900    -1.527989    -0.988061    -0.741613    -0.661836    -0.426076     0.143185     0.369678

         1.2          2.2          3.2
     -0.592430     0.086689     0.612883

 HOMO      7.1    -0.426076 =     -11.5941eV
 LUMO      2.2     0.086689 =       2.3589eV
 LUMO-HOMO         0.512765 =      13.9530eV


 **********************************************************************************************************************************
 DATASETS  * FILE   NREC   LENGTH (MB)   RECORD NAMES
              1      23       36.03       500      610      700      900      950      970     1000      129      960     1700   
                                          VAR    BASINP    GEOM    SYMINP    ZMAT    AOBASIS   BASIS     P2S    ABASIS    OPER   
                                         1101     1401     1411     1412     1650     1100     1400     1410     1200     1210   
                                          SR      EKINR    POTR     PVPR    MOLCAS      S      EKIN      POT      H0       H01  
                                         1300     1080     1600   
                                         ERIS     AOSYM     SMH  

              2       4        2.85       700     1000      520     2100   
                                         GEOM     BASIS   MCVARS     RHF  

 PROGRAMS   *        TOTAL        HF       INT
 CPU TIMES  *         0.89      0.22      0.58
 REAL TIME  *         1.53 SEC
 DISK USED  *        75.75 MB      
 **********************************************************************************************************************************


 PROGRAM * CCSD (Closed-shell coupled cluster)     Authors: C. Hampel, H.-J. Werner, 1991, M. Deegan, P.J. Knowles, 1992


 Convergence thresholds:  THRVAR = 1.00D-08  THRDEN = 1.00D-12

 CCSD(T)     terms to be evaluated (factor= 1.000)


 Number of core orbitals:           2 (   2   0 )
 Number of closed-shell orbitals:   6 (   5   1 )
 Number of external orbitals:      66 (  43  23 )

 Molecular orbitals read from record     2100.2  Type=RHF/CANONICAL (state 1.1)

 Number of N-1 electron functions:               6
 Number of N-2 electron functions:              21
 Number of singly external CSFs:               238
 Number of doubly external CSFs:             41002
 Total number of CSFs:                       41241

 Length of J-op  integral file:               0.00 MB
 Length of K-op  integral file:               0.25 MB
 Length of 3-ext integral record:             0.00 MB

 Memory could be reduced to 1.65 Mwords without degradation in triples

 Integral transformation finished. Total CPU:   0.04 sec, npass=  1  Memory used:   0.55 MW

 Reference energy:                   -129.91698265

 MP2 singlet pair energy:              -0.27407255
 MP2 triplet pair energy:              -0.16275682
 MP2 correlation energy:               -0.43682937
 MP2 total energy:                   -130.35381202

 SCS-MP2 correlation energy:           -0.43015797   (PS=  1.200000  PT=  0.333333)
 SCS-MP2 total energy:               -130.34714062

 ITER.      SQ.NORM     CORR.ENERGY   TOTAL ENERGY   ENERGY CHANGE        DEN1      VAR(S)    VAR(P)  DIIS     TIME  TIME/IT
   1      1.11890857    -0.44188553  -130.35886818    -0.00505616     0.01083939  0.30D-02  0.30D-02  1  1     0.09     0.05
   2      1.12983413    -0.44213492  -130.35911757    -0.00024939    -0.01235226  0.89D-04  0.51D-03  2  2     0.14     0.05
   3      1.13619081    -0.44252914  -130.35951179    -0.00039421    -0.00300879  0.49D-04  0.51D-04  3  3     0.18     0.05
   4      1.13901498    -0.44255411  -130.35953675    -0.00002497    -0.00096606  0.42D-05  0.89D-05  4  4     0.23     0.05
   5      1.14002678    -0.44258439  -130.35956704    -0.00003029    -0.00021006  0.15D-05  0.16D-05  5  5     0.28     0.05
   6      1.14039045    -0.44256761  -130.35955026     0.00001678    -0.00004134  0.11D-06  0.40D-06  6  6     0.32     0.05
   7      1.14047759    -0.44256935  -130.35955200    -0.00000174    -0.00000224  0.14D-07  0.84D-07  6  1     0.37     0.05
   8      1.14050896    -0.44256929  -130.35955194     0.00000006     0.00000167  0.39D-08  0.10D-07  6  2     0.42     0.05
   9      1.14051708    -0.44256903  -130.35955168     0.00000026    -0.00000219  0.24D-08  0.12D-08  6  3     0.46     0.05
  10      1.14051595    -0.44256954  -130.35955219    -0.00000051     0.00000057  0.48D-09  0.21D-09  6  4     0.51     0.05
  11      1.14051420    -0.44256960  -130.35955225    -0.00000006     0.00000021  0.15D-09  0.23D-10  6  5     0.56     0.05
  12      1.14051278    -0.44256978  -130.35955243    -0.00000018     0.00000044  0.16D-10  0.78D-11  6  6     0.61     0.05
  13      1.14051214    -0.44256979  -130.35955244    -0.00000001     0.00000013  0.70D-11  0.12D-11  6  1     0.66     0.05
  14      1.14051174    -0.44256981  -130.35955246    -0.00000002     0.00000008  0.10D-11  0.43D-12  6  2     0.70     0.05
  15      1.14051159    -0.44256981  -130.35955246    -0.00000000     0.00000001  0.26D-12  0.14D-12  6  3     0.75     0.05
  16      1.14051149    -0.44256981  -130.35955246    -0.00000000     0.00000001  0.26D-13  0.15D-13  6  5     0.80     0.05
  17      1.14051146    -0.44256981  -130.35955246    -0.00000000     0.00000000  0.56D-15  0.19D-14  6  4     0.85     0.05
  18      1.14051146    -0.44256981  -130.35955246     0.00000000    -0.00000000  0.41D-15  0.27D-15  6  1     0.90     0.05
  19      1.14051146    -0.44256981  -130.35955246    -0.00000000     0.00000000  0.40D-16  0.48D-16  6  6     0.95     0.05
  20      1.14051146    -0.44256981  -130.35955246    -0.00000000     0.00000000  0.89D-17  0.13D-16  6  2     0.99     0.05
  21      1.14051145    -0.44256981  -130.35955246    -0.00000000     0.00000000  0.17D-17  0.10D-17  6  5     1.04     0.05
  22      1.14051145    -0.44256981  -130.35955246    -0.00000000     0.00000000  0.93D-19  0.75D-19  6  3     1.09     0.05
  23      1.14051145    -0.44256981  -130.35955246     0.00000000    -0.00000000  0.25D-19  0.16D-19  6  4     1.14     0.05
  24      1.14051145    -0.44256981  -130.35955246     0.00000000    -0.00000000  0.38D-20  0.41D-20  6  1     1.18     0.05
  25      1.14051145    -0.44256981  -130.35955246     0.00000000    -0.00000000  0.57D-21  0.69D-21  6  6     1.23     0.05

 Norm of t1 vector:      0.07564259      S-energy:     0.00000000      T1 diagnostic:  0.01544048
                                                                       D1 diagnostic:  0.04237511

 Doubles amplitudes (print threshold =  0.500E-01):

         I         J         SYM. A    SYM. B    A         B      T(IJ, AB)

         6         6         2         2         1         1     -0.14340697


 Total CPU time for triples:      0.37 sec


 RESULTS
 =======

  Reference energy                   -129.916982649195
  CCSD singlet pair energy             -0.303522661748
  CCSD triplet pair energy             -0.139047151085
  CCSD correlation energy              -0.442569812831

  Triples (T) contribution             -0.019869782379
  Total correlation energy             -0.462439595210

  CCSD total energy                  -130.359552462027
  CCSD[T] energy                     -130.380452871160
  CCSD-T energy                      -130.379018903940
 !CCSD(T) total energy               -130.379422244405

 Timing summary (sec):

 STEP                 CPU(USER)    SYS     CPU(TOT)    WALL
 Transformation          0.04      0.01      0.05      0.05
 CCSD iterations         1.19      0.13      1.32      1.32
 Triples                 0.37      0.00      0.37      0.37

 Program statistics:

 Available memory in ccsd:               994999756
 Min. memory needed in ccsd:                154850
 Max. memory used in ccsd:                  184802
 Max. memory used in cckext:                238416 (25 integral passes)



 **********************************************************************************************************************************
 DATASETS  * FILE   NREC   LENGTH (MB)   RECORD NAMES
              1      24       40.41       500      610      700      900      950      970     1000      129      960     1700   
                                          VAR    BASINP    GEOM    SYMINP    ZMAT    AOBASIS   BASIS     P2S    ABASIS    OPER   
                                         1101     1401     1411     1412     1650     1100     1400     1410     1200     1210   
                                          SR      EKINR    POTR     PVPR    MOLCAS      S      EKIN      POT      H0       H01  
                                         1300     1080     1600     1380   
                                         ERIS     AOSYM     SMH     JKOP   

              2       4        2.85       700     1000      520     2100   
                                         GEOM     BASIS   MCVARS     RHF  

 PROGRAMS   *        TOTAL   CCSD(T)        HF       INT
 CPU TIMES  *         2.51      1.61      0.22      0.58
 REAL TIME  *         3.42 SEC
 DISK USED  *        75.75 MB      
 **********************************************************************************************************************************

 CCSD(T)/cc-pVTZ-DK energy=   -130.379422244405

        CCSD(T)         HF-SCF  
   -130.37942224   -129.91698265
 **********************************************************************************************************************************
 Molpro calculation terminated
 Variable memory released
