
 Primary working directories    : /tmp/r2666/235202.maple
 Secondary working directories  : /tmp/r2666/235202.maple
 Wavefunction directory         : /ddn/home4/r2666/wfu/
 Main file repository           : /tmp/r2666/235202.maple/

 SHA1      : d5ffa45e93fdbca01ffc919aa182cfdae0147319
 NAME      : 2015.1.35
 ARCHNAME  : linux/x86_64
 FC        : /opt/intel/composer_xe_2015.1.133/bin/intel64/ifort
 BLASLIB   : -Wl,-_start-group /opt/intel/mkl/lib/intel64/libmkl_intel_ilp64.a /opt/intel/mkl/lib/intel64/libmkl_intel_thread.a /opt/intel/mkl/lib/intel64/libmkl_core.a -Wl,-_end-group
 id        : olemiss

 Nodes     nprocs
 cn029        1

 Using customized tuning parameters: mindgm=1; mindgv=20; mindgc=4; mindgr=1; noblas=0; minvec=7
 default implementation of scratch files=df  

 ***,hno CCSD(T)/TZ-F12 QFF
 memory, 995, m;
 gthresh,energy=1.d-12,zero=1.d-22,oneint=1.d-22,twoint=1.d-22;
 gthresh,optgrad=1.d-8,optstep=1.d-8;
 nocompress;
 geomtyp=xyz
 bohr
 geometry={
 3
         57        57
 N        0.0000000000       -0.1594673210       -1.1396160791
 H        0.0000000000        1.6655362758       -1.9281145832
 O        0.0000000000        0.0356988353        1.1171410712
 }
 
 basis=vtz-dk
 dkroll=1
   {hf,maxit=500;accu,20;}
 {ccsd(t),nocheck,maxit=250;orbital,IGNORE_ERROR;}

 Variables initialized (889), CPU time= 0.01 sec
 Commands  initialized (702), CPU time= 0.00 sec, 572 directives.
 Default parameters read. Elapsed time= 0.05 sec

 Checking input...
 Passed
1


                                         ***  PROGRAM SYSTEM MOLPRO  ***
                                       Copyright, TTI GmbH Stuttgart, 2015
                                    Version 2015.1 linked Jul  9 2018 13:16:40


 **********************************************************************************************************************************
 LABEL *   hno CCSD(T)/TZ-F12 QFF                                                        
  64 bit serial version                                                                  DATE: 08-Feb-20          TIME: 17:57:18  
 **********************************************************************************************************************************

 SHA1:             d5ffa45e93fdbca01ffc919aa182cfdae0147319
 **********************************************************************************************************************************

 THRESHOLDS:

 ZERO    =  1.00D-22  ONEINT  =  1.00D-22  TWOINT  =  1.00D-22  PREFAC  =  1.00D-14  LOCALI  =  1.00D-09  EORDER  =  1.00D-04
 ENERGY  =  1.00D-12  ETEST   =  0.00D+00  EDENS   =  0.00D+00  THRDEDEF=  1.00D-06  GRADIENT=  1.00D-02  STEP    =  1.00D-03
 ORBITAL =  1.00D-05  CIVEC   =  1.00D-05  COEFF   =  1.00D-04  PRINTCI =  5.00D-02  PUNCHCI =  9.90D+01  OPTGRAD =  3.00D-04
 OPTENERG=  1.00D-06  OPTSTEP =  3.00D-04  THRGRAD =  1.00D-10  COMPRESS=  1.00D-11  VARMIN  =  1.00D-07  VARMAX  =  1.00D-03
 THRDOUB =  0.00D+00  THRDIV  =  1.00D-05  THRRED  =  1.00D-07  THRPSP  =  1.00D+00  THRDC   =  1.00D-10  THRCS   =  1.00D-10
 THRNRM  =  1.00D-08  THREQ   =  0.00D+00  THRDE   =  1.00D+00  THRREF  =  1.00D-05  SPARFAC =  1.00D+00  THRDLP  =  1.00D-07
 THRDIA  =  1.00D-10  THRDLS  =  1.00D-07  THRGPS  =  0.00D+00  THRKEX  =  0.00D+00  THRDIS  =  2.00D-01  THRVAR  =  1.00D-10
 THRLOC  =  1.00D-06  THRGAP  =  1.00D-06  THRLOCT = -1.00D+00  THRGAPT = -1.00D+00  THRORB  =  1.00D-06  THRMLTP =  0.00D+00
 THRCPQCI=  1.00D-10  KEXTA   =  0.00D+00  THRCOARS=  0.00D+00  SYMTOL  =  1.00D-06  GRADTOL =  1.00D-06  THROVL  =  1.00D-08
 THRORTH =  1.00D-08  GRID    =  1.00D-06  GRIDMAX =  1.00D-03  DTMAX   =  0.00D+00  THROCCDE=  1.00D-01  THROCCDE=  1.00D-01



 THRESHOLDS:

 ZERO    =  1.00D-22  ONEINT  =  1.00D-22  TWOINT  =  1.00D-22  PREFAC  =  1.00D-14  LOCALI  =  1.00D-09  EORDER  =  1.00D-04
 ENERGY  =  1.00D-12  ETEST   =  0.00D+00  EDENS   =  0.00D+00  THRDEDEF=  1.00D-06  GRADIENT=  1.00D-02  STEP    =  1.00D-03
 ORBITAL =  1.00D-05  CIVEC   =  1.00D-05  COEFF   =  1.00D-04  PRINTCI =  5.00D-02  PUNCHCI =  9.90D+01  OPTGRAD =  1.00D-08
 OPTENERG=  1.00D-06  OPTSTEP =  1.00D-08  THRGRAD =  1.00D-10  COMPRESS=  1.00D-11  VARMIN  =  1.00D-07  VARMAX  =  1.00D-03
 THRDOUB =  0.00D+00  THRDIV  =  1.00D-05  THRRED  =  1.00D-07  THRPSP  =  1.00D+00  THRDC   =  1.00D-10  THRCS   =  1.00D-10
 THRNRM  =  1.00D-08  THREQ   =  0.00D+00  THRDE   =  1.00D+00  THRREF  =  1.00D-05  SPARFAC =  1.00D+00  THRDLP  =  1.00D-07
 THRDIA  =  1.00D-10  THRDLS  =  1.00D-07  THRGPS  =  0.00D+00  THRKEX  =  0.00D+00  THRDIS  =  2.00D-01  THRVAR  =  1.00D-10
 THRLOC  =  1.00D-06  THRGAP  =  1.00D-06  THRLOCT = -1.00D+00  THRGAPT = -1.00D+00  THRORB  =  1.00D-06  THRMLTP =  0.00D+00
 THRCPQCI=  1.00D-10  KEXTA   =  0.00D+00  THRCOARS=  0.00D+00  SYMTOL  =  1.00D-06  GRADTOL =  1.00D-06  THROVL  =  1.00D-08
 THRORTH =  1.00D-08  GRID    =  1.00D-06  GRIDMAX =  1.00D-03  DTMAX   =  0.00D+00  THROCCDE=  1.00D-01  THROCCDE=  1.00D-01



 Input parameters for SORTINT:

 COMPRESS =    0.000000
 C_FINAL  =    1.000000
 DEBUG    =   -1.000000
 C_SORT1  =    0.000000
 C_SEWARD =    0.000000
 THRESH   =    0.000000
 IO       =  molpro                                                          
 SPRI     =    0.000000
 SETTING GEOMTYP        =    XYZ
 ZUNIT=BOHR
 

 Variable memory set to  995000000 words,  buffer space   230000 words

 SETTING BASIS          =    VTZ-DK
 SETTING DKROLL         =         1.00000000                                  


 Recomputing integrals since basis changed


 Using spherical harmonics

 Library entry N      S cc-pVTZ-DK           selected for orbital group  1
 Library entry N      P cc-pVTZ-DK           selected for orbital group  1
 Library entry N      D cc-pVTZ-DK           selected for orbital group  1
 Library entry N      F cc-pVTZ-DK           selected for orbital group  1
 Library entry H      S cc-pVTZ-DK           selected for orbital group  2
 Library entry H      P cc-pVTZ-DK           selected for orbital group  2
 Library entry H      D cc-pVTZ-DK           selected for orbital group  2
 Library entry O      S cc-pVTZ-DK           selected for orbital group  3
 Library entry O      P cc-pVTZ-DK           selected for orbital group  3
 Library entry O      D cc-pVTZ-DK           selected for orbital group  3
 Library entry O      F cc-pVTZ-DK           selected for orbital group  3


 PROGRAM * SEWARD (Integral evaluation for generally contracted gaussian basis sets)     Author: Roland Lindh, 1990

 Geometry written to block  1 of record 700


 Point group  Cs  



 ATOMIC COORDINATES

 NR  ATOM    CHARGE       X              Y              Z

   1  N       7.00    0.000000000   -0.159467321   -1.139616079
   2  H       1.00    0.000000000    1.665536276   -1.928114583
   3  O       8.00    0.000000000    0.035698835    1.117141071

 Bond lengths in Bohr (Angstrom)

 1-2  1.988056342  1-3  2.265180493
     ( 1.052034110)     ( 1.198681895)

 Bond angles

  2-1-3  108.42422233

 NUCLEAR CHARGE:                   16
 NUMBER OF PRIMITIVE AOS:         111
 NUMBER OF SYMMETRY AOS:          100
 NUMBER OF CONTRACTIONS:           74   (  50A'  +  24A"  )
 NUMBER OF CORE ORBITALS:           2   (   2A'  +   0A"  )
 NUMBER OF VALENCE ORBITALS:        9   (   7A'  +   2A"  )


 NUCLEAR REPULSION ENERGY   30.55928983

 One-electron integrals computed with SEWARD

 2nd-order Douglas-Kroll-Hess method activated. Optimal DKH parametrization is used.

 Computing Douglas-Kroll / X2C integrals


        1874254. INTEGRALS WRITTEN OUT IN     458 BLOCKS ON RECORD 1290 OF FILE 1


 NUMBER OF SORTED TWO-ELECTRON INTEGRALS:    2006100.     BUFFER LENGTH:  32768
 NUMBER OF SEGMENTS:   1  SEGMENT LENGTH:    2006100      RECORD LENGTH: 524288

 Memory used in sort:       2.56 MW

 SORT1 READ     1874254. AND WROTE     1914161. INTEGRALS IN      6 RECORDS. CPU TIME:     0.05 SEC, REAL TIME:     0.05 SEC
 SORT2 READ     1914161. AND WROTE     2006100. INTEGRALS IN      1 RECORDS. CPU TIME:     0.04 SEC, REAL TIME:     0.06 SEC

 FILE SIZES:   FILE 1:    50.2 MBYTE,  FILE 4:    25.2 MBYTE,   TOTAL:     75.4 MBYTE

 OPERATOR DM      FOR CENTER  0  COORDINATES:    0.000000    0.000000    0.000000

 Eigenvalues of metric

         1 0.241E-02 0.392E-02 0.404E-02 0.831E-02 0.130E-01 0.321E-01 0.420E-01 0.463E-01
         2 0.338E-01 0.464E-01 0.100E+00 0.111E+00 0.231E+00 0.341E+00 0.392E+00 0.447E+00


 **********************************************************************************************************************************
 DATASETS  * FILE   NREC   LENGTH (MB)   RECORD NAMES
              1      23       36.03       500      610      700      900      950      970     1000      129      960     1700   
                                          VAR    BASINP    GEOM    SYMINP    ZMAT    AOBASIS   BASIS     P2S    ABASIS    OPER   
                                         1101     1401     1411     1412     1650     1100     1400     1410     1200     1210   
                                          SR      EKINR    POTR     PVPR    MOLCAS      S      EKIN      POT      H0       H01  
                                         1300     1080     1600   
                                         ERIS     AOSYM     SMH  

 PROGRAMS   *        TOTAL       INT
 CPU TIMES  *         0.74      0.63
 REAL TIME  *         1.36 SEC
 DISK USED  *        75.75 MB      
 **********************************************************************************************************************************


 PROGRAM * RHF-SCF (CLOSED SHELL)       Authors: W. Meyer, H.-J. Werner


 NUMBER OF ELECTRONS:       8+    8-
 CONVERGENCE THRESHOLDS:    1.00E-10 (Density)    1.00E-13 (Energy)
 MAX. NUMBER OF ITERATIONS:      500
 INTERPOLATION TYPE:            DIIS
 INTERPOLATION STEPS:              2 (START)      1 (STEP)
 LEVEL SHIFTS:                  0.00 (CLOSED)  0.00 (OPEN) 



 Orbital guess generated from atomic densities. Full valence occupancy:    9   2

 Molecular orbital dump at record        2100.2

 Initial occupancy:   7   1

 ITERATION    DDIFF          GRAD             ENERGY        2-EL.EN.            DIPOLE MOMENTS         DIIS   ORB.
    1      0.000D+00      0.000D+00      -129.87004708    154.566011    0.00000    0.58825   -1.01154    0    start
    2      0.000D+00      0.134D-01      -129.89701325    155.693460    0.00000    0.60840   -0.22591    1    diag
    3      0.182D-01      0.101D-01      -129.91793897    155.805000    0.00000    0.55925   -0.58829    2    diag
    4      0.878D-02      0.154D-02      -129.91865793    155.545636    0.00000    0.56778   -0.53042    3    diag
    5      0.165D-02      0.507D-03      -129.91876902    155.630559    0.00000    0.57316   -0.53166    4    diag
    6      0.707D-03      0.151D-03      -129.91878734    155.615750    0.00000    0.57374   -0.52765    5    diag
    7      0.274D-03      0.750D-04      -129.91879259    155.618142    0.00000    0.57499   -0.52526    6    diag
    8      0.188D-03      0.234D-04      -129.91879306    155.617494    0.00000    0.57501   -0.52451    7    diag
    9      0.609D-04      0.423D-05      -129.91879308    155.617385    0.00000    0.57496   -0.52436    8    diag
   10      0.117D-04      0.955D-06      -129.91879308    155.617368    0.00000    0.57492   -0.52434    9    orth
   11      0.272D-05      0.188D-06      -129.91879308    155.617363    0.00000    0.57492   -0.52434    9    diag
   12      0.502D-06      0.385D-07      -129.91879308    155.617362    0.00000    0.57492   -0.52434    9    diag
   13      0.109D-06      0.939D-08      -129.91879308    155.617362    0.00000    0.57492   -0.52434    9    diag
   14      0.268D-07      0.174D-08      -129.91879308    155.617362    0.00000    0.57492   -0.52434    9    diag
   15      0.448D-08      0.461D-09      -129.91879308    155.617362    0.00000    0.57492   -0.52434    9    diag
   16      0.107D-08      0.121D-09      -129.91879308    155.617362    0.00000    0.57492   -0.52434    9    diag
   17      0.213D-09      0.356D-10      -129.91879308    155.617362    0.00000    0.57492   -0.52434    9    diag
   18      0.699D-10      0.118D-10      -129.91879308    155.617362    0.00000    0.57492   -0.52434    9    diag
   19      0.281D-10      0.259D-11      -129.91879308    155.617362    0.00000    0.57492   -0.52434    0    orth

 Final occupancy:   7   1

 !RHF STATE 1.1 Energy               -129.918793076174
 Nuclear energy                        30.55928983
 One-electron energy                 -238.28676377
 Two-electron energy                   77.80868086
 Virial quotient                       -0.99727927
 !RHF STATE 1.1 Dipole moment           0.00000000     0.57491539    -0.52433565
 Dipole moment /Debye                   0.00000000     1.46119346    -1.33264099

 Orbital energies:

         1.1          2.1          3.1          4.1          5.1          6.1          7.1          8.1          9.1
    -20.664203   -15.715144    -1.534922    -0.990114    -0.745886    -0.664462    -0.423732     0.144540     0.370815

         1.2          2.2          3.2
     -0.596239     0.089915     0.612049

 HOMO      7.1    -0.423732 =     -11.5303eV
 LUMO      2.2     0.089915 =       2.4467eV
 LUMO-HOMO         0.513647 =      13.9770eV


 **********************************************************************************************************************************
 DATASETS  * FILE   NREC   LENGTH (MB)   RECORD NAMES
              1      23       36.03       500      610      700      900      950      970     1000      129      960     1700   
                                          VAR    BASINP    GEOM    SYMINP    ZMAT    AOBASIS   BASIS     P2S    ABASIS    OPER   
                                         1101     1401     1411     1412     1650     1100     1400     1410     1200     1210   
                                          SR      EKINR    POTR     PVPR    MOLCAS      S      EKIN      POT      H0       H01  
                                         1300     1080     1600   
                                         ERIS     AOSYM     SMH  

              2       4        2.85       700     1000      520     2100   
                                         GEOM     BASIS   MCVARS     RHF  

 PROGRAMS   *        TOTAL        HF       INT
 CPU TIMES  *         0.98      0.24      0.63
 REAL TIME  *         1.65 SEC
 DISK USED  *        75.75 MB      
 **********************************************************************************************************************************


 PROGRAM * CCSD (Closed-shell coupled cluster)     Authors: C. Hampel, H.-J. Werner, 1991, M. Deegan, P.J. Knowles, 1992


 Convergence thresholds:  THRVAR = 1.00D-08  THRDEN = 1.00D-12

 CCSD(T)     terms to be evaluated (factor= 1.000)


 Number of core orbitals:           2 (   2   0 )
 Number of closed-shell orbitals:   6 (   5   1 )
 Number of external orbitals:      66 (  43  23 )

 Molecular orbitals read from record     2100.2  Type=RHF/CANONICAL (state 1.1)

 Number of N-1 electron functions:               6
 Number of N-2 electron functions:              21
 Number of singly external CSFs:               238
 Number of doubly external CSFs:             41002
 Total number of CSFs:                       41241

 Length of J-op  integral file:               0.00 MB
 Length of K-op  integral file:               0.25 MB
 Length of 3-ext integral record:             0.00 MB

 Memory could be reduced to 1.65 Mwords without degradation in triples

 Integral transformation finished. Total CPU:   0.03 sec, npass=  1  Memory used:   0.55 MW

 Reference energy:                   -129.91879308

 MP2 singlet pair energy:              -0.27279281
 MP2 triplet pair energy:              -0.16195254
 MP2 correlation energy:               -0.43474535
 MP2 total energy:                   -130.35353843

 SCS-MP2 correlation energy:           -0.42812184   (PS=  1.200000  PT=  0.333333)
 SCS-MP2 total energy:               -130.34691492

 ITER.      SQ.NORM     CORR.ENERGY   TOTAL ENERGY   ENERGY CHANGE        DEN1      VAR(S)    VAR(P)  DIIS     TIME  TIME/IT
   1      1.11746633    -0.44016412  -130.35895720    -0.00541877     0.01000241  0.28D-02  0.29D-02  1  1     0.09     0.06
   2      1.12808789    -0.44048147  -130.35927454    -0.00031735    -0.01207015  0.83D-04  0.49D-03  2  2     0.15     0.06
   3      1.13417674    -0.44085295  -130.35964603    -0.00037148    -0.00291444  0.45D-04  0.49D-04  3  3     0.20     0.06
   4      1.13687400    -0.44087839  -130.35967147    -0.00002544    -0.00092907  0.38D-05  0.86D-05  4  4     0.26     0.06
   5      1.13782078    -0.44090624  -130.35969931    -0.00002784    -0.00019616  0.13D-05  0.16D-05  5  5     0.32     0.06
   6      1.13816841    -0.44089075  -130.35968383     0.00001548    -0.00003912  0.97D-07  0.41D-06  6  6     0.37     0.06
   7      1.13825460    -0.44089261  -130.35968569    -0.00000186    -0.00000244  0.12D-07  0.84D-07  6  1     0.43     0.06
   8      1.13828489    -0.44089270  -130.35968578    -0.00000009     0.00000188  0.43D-08  0.96D-08  6  2     0.48     0.06
   9      1.13829233    -0.44089251  -130.35968559     0.00000019    -0.00000222  0.24D-08  0.11D-08  6  3     0.54     0.06
  10      1.13829110    -0.44089300  -130.35968608    -0.00000049     0.00000060  0.47D-09  0.19D-09  6  4     0.60     0.06
  11      1.13828940    -0.44089306  -130.35968613    -0.00000006     0.00000019  0.14D-09  0.22D-10  6  5     0.67     0.06
  12      1.13828804    -0.44089323  -130.35968630    -0.00000017     0.00000042  0.15D-10  0.72D-11  6  6     0.74     0.06
  13      1.13828746    -0.44089323  -130.35968631    -0.00000001     0.00000012  0.65D-11  0.12D-11  6  1     0.79     0.06
  14      1.13828709    -0.44089325  -130.35968633    -0.00000002     0.00000007  0.90D-12  0.40D-12  6  2     0.85     0.06
  15      1.13828696    -0.44089325  -130.35968633    -0.00000000     0.00000001  0.23D-12  0.14D-12  6  3     0.90     0.06
  16      1.13828686    -0.44089325  -130.35968633    -0.00000000     0.00000001  0.24D-13  0.15D-13  6  5     0.95     0.06
  17      1.13828684    -0.44089326  -130.35968633    -0.00000000     0.00000000  0.78D-15  0.22D-14  6  4     1.00     0.06
  18      1.13828683    -0.44089326  -130.35968633     0.00000000    -0.00000000  0.50D-15  0.32D-15  6  1     1.05     0.06
  19      1.13828683    -0.44089326  -130.35968633    -0.00000000     0.00000000  0.43D-16  0.56D-16  6  6     1.11     0.06
  20      1.13828683    -0.44089326  -130.35968633    -0.00000000     0.00000000  0.90D-17  0.13D-16  6  2     1.16     0.06
  21      1.13828683    -0.44089326  -130.35968633    -0.00000000     0.00000000  0.18D-17  0.10D-17  6  5     1.21     0.06
  22      1.13828683    -0.44089326  -130.35968633     0.00000000     0.00000000  0.11D-18  0.75D-19  6  3     1.27     0.06
  23      1.13828683    -0.44089326  -130.35968633     0.00000000    -0.00000000  0.31D-19  0.16D-19  6  4     1.33     0.06
  24      1.13828683    -0.44089326  -130.35968633     0.00000000    -0.00000000  0.45D-20  0.45D-20  6  1     1.37     0.06
  25      1.13828683    -0.44089326  -130.35968633     0.00000000    -0.00000000  0.50D-21  0.79D-21  6  6     1.43     0.06

 Norm of t1 vector:      0.07370461      S-energy:     0.00000000      T1 diagnostic:  0.01504489
                                                                       D1 diagnostic:  0.04128352

 Doubles amplitudes (print threshold =  0.500E-01):

         I         J         SYM. A    SYM. B    A         B      T(IJ, AB)

         6         6         2         2         1         1     -0.14115810


 Total CPU time for triples:      0.37 sec


 RESULTS
 =======

  Reference energy                   -129.918793076174
  CCSD singlet pair energy             -0.302068071495
  CCSD triplet pair energy             -0.138825184251
  CCSD correlation energy              -0.440893255745

  Triples (T) contribution             -0.019518139744
  Total correlation energy             -0.460411395490

  CCSD total energy                  -130.359686331919
  CCSD[T] energy                     -130.380186696108
  CCSD-T energy                      -130.378815522613
 !CCSD(T) total energy               -130.379204471663

 Timing summary (sec):

 STEP                 CPU(USER)    SYS     CPU(TOT)    WALL
 Transformation          0.03      0.01      0.04      0.05
 CCSD iterations         1.41      0.15      1.56      1.55
 Triples                 0.37      0.01      0.38      0.37

 Program statistics:

 Available memory in ccsd:               994999756
 Min. memory needed in ccsd:                154850
 Max. memory used in ccsd:                  184802
 Max. memory used in cckext:                238416 (25 integral passes)



 **********************************************************************************************************************************
 DATASETS  * FILE   NREC   LENGTH (MB)   RECORD NAMES
              1      24       40.41       500      610      700      900      950      970     1000      129      960     1700   
                                          VAR    BASINP    GEOM    SYMINP    ZMAT    AOBASIS   BASIS     P2S    ABASIS    OPER   
                                         1101     1401     1411     1412     1650     1100     1400     1410     1200     1210   
                                          SR      EKINR    POTR     PVPR    MOLCAS      S      EKIN      POT      H0       H01  
                                         1300     1080     1600     1380   
                                         ERIS     AOSYM     SMH     JKOP   

              2       4        2.85       700     1000      520     2100   
                                         GEOM     BASIS   MCVARS     RHF  

 PROGRAMS   *        TOTAL   CCSD(T)        HF       INT
 CPU TIMES  *         2.81      1.83      0.24      0.63
 REAL TIME  *         3.68 SEC
 DISK USED  *        75.75 MB      
 **********************************************************************************************************************************

 CCSD(T)/cc-pVTZ-DK energy=   -130.379204471663

        CCSD(T)         HF-SCF  
   -130.37920447   -129.91879308
 **********************************************************************************************************************************
 Molpro calculation terminated
 Variable memory released
