
 Primary working directories    : /tmp/r2666/235164.maple
 Secondary working directories  : /tmp/r2666/235164.maple
 Wavefunction directory         : /ddn/home4/r2666/wfu/
 Main file repository           : /tmp/r2666/235164.maple/

 SHA1      : d5ffa45e93fdbca01ffc919aa182cfdae0147319
 NAME      : 2015.1.35
 ARCHNAME  : linux/x86_64
 FC        : /opt/intel/composer_xe_2015.1.133/bin/intel64/ifort
 BLASLIB   : -Wl,-_start-group /opt/intel/mkl/lib/intel64/libmkl_intel_ilp64.a /opt/intel/mkl/lib/intel64/libmkl_intel_thread.a /opt/intel/mkl/lib/intel64/libmkl_core.a -Wl,-_end-group
 id        : olemiss

 Nodes     nprocs
 cn047        1

 Using customized tuning parameters: mindgm=1; mindgv=20; mindgc=4; mindgr=1; noblas=0; minvec=7
 default implementation of scratch files=df  

 ***,hno CCSD(T)/TZ-F12 QFF
 memory, 995, m;
 gthresh,energy=1.d-12,zero=1.d-22,oneint=1.d-22,twoint=1.d-22;
 gthresh,optgrad=1.d-8,optstep=1.d-8;
 nocompress;
 geomtyp=xyz
 bohr
 geometry={
 3
         19        19
 N        0.0000000000       -0.1522406718       -1.1594244221
 H        0.0000000000        1.6598853463       -1.9300000417
 O        0.0000000000        0.0341231154        1.1388348728
 }
 
 basis=vtz-dk
 dkroll=1
   {hf,maxit=500;accu,20;}
 {ccsd(t),nocheck,maxit=250;orbital,IGNORE_ERROR;}

 Variables initialized (889), CPU time= 0.00 sec
 Commands  initialized (702), CPU time= 0.01 sec, 572 directives.
 Default parameters read. Elapsed time= 0.06 sec

 Checking input...
 Passed
1


                                         ***  PROGRAM SYSTEM MOLPRO  ***
                                       Copyright, TTI GmbH Stuttgart, 2015
                                    Version 2015.1 linked Jul  9 2018 13:16:40


 **********************************************************************************************************************************
 LABEL *   hno CCSD(T)/TZ-F12 QFF                                                        
  64 bit serial version                                                                  DATE: 08-Feb-20          TIME: 17:57:15  
 **********************************************************************************************************************************

 SHA1:             d5ffa45e93fdbca01ffc919aa182cfdae0147319
 **********************************************************************************************************************************

 THRESHOLDS:

 ZERO    =  1.00D-22  ONEINT  =  1.00D-22  TWOINT  =  1.00D-22  PREFAC  =  1.00D-14  LOCALI  =  1.00D-09  EORDER  =  1.00D-04
 ENERGY  =  1.00D-12  ETEST   =  0.00D+00  EDENS   =  0.00D+00  THRDEDEF=  1.00D-06  GRADIENT=  1.00D-02  STEP    =  1.00D-03
 ORBITAL =  1.00D-05  CIVEC   =  1.00D-05  COEFF   =  1.00D-04  PRINTCI =  5.00D-02  PUNCHCI =  9.90D+01  OPTGRAD =  3.00D-04
 OPTENERG=  1.00D-06  OPTSTEP =  3.00D-04  THRGRAD =  1.00D-10  COMPRESS=  1.00D-11  VARMIN  =  1.00D-07  VARMAX  =  1.00D-03
 THRDOUB =  0.00D+00  THRDIV  =  1.00D-05  THRRED  =  1.00D-07  THRPSP  =  1.00D+00  THRDC   =  1.00D-10  THRCS   =  1.00D-10
 THRNRM  =  1.00D-08  THREQ   =  0.00D+00  THRDE   =  1.00D+00  THRREF  =  1.00D-05  SPARFAC =  1.00D+00  THRDLP  =  1.00D-07
 THRDIA  =  1.00D-10  THRDLS  =  1.00D-07  THRGPS  =  0.00D+00  THRKEX  =  0.00D+00  THRDIS  =  2.00D-01  THRVAR  =  1.00D-10
 THRLOC  =  1.00D-06  THRGAP  =  1.00D-06  THRLOCT = -1.00D+00  THRGAPT = -1.00D+00  THRORB  =  1.00D-06  THRMLTP =  0.00D+00
 THRCPQCI=  1.00D-10  KEXTA   =  0.00D+00  THRCOARS=  0.00D+00  SYMTOL  =  1.00D-06  GRADTOL =  1.00D-06  THROVL  =  1.00D-08
 THRORTH =  1.00D-08  GRID    =  1.00D-06  GRIDMAX =  1.00D-03  DTMAX   =  0.00D+00  THROCCDE=  1.00D-01  THROCCDE=  1.00D-01



 THRESHOLDS:

 ZERO    =  1.00D-22  ONEINT  =  1.00D-22  TWOINT  =  1.00D-22  PREFAC  =  1.00D-14  LOCALI  =  1.00D-09  EORDER  =  1.00D-04
 ENERGY  =  1.00D-12  ETEST   =  0.00D+00  EDENS   =  0.00D+00  THRDEDEF=  1.00D-06  GRADIENT=  1.00D-02  STEP    =  1.00D-03
 ORBITAL =  1.00D-05  CIVEC   =  1.00D-05  COEFF   =  1.00D-04  PRINTCI =  5.00D-02  PUNCHCI =  9.90D+01  OPTGRAD =  1.00D-08
 OPTENERG=  1.00D-06  OPTSTEP =  1.00D-08  THRGRAD =  1.00D-10  COMPRESS=  1.00D-11  VARMIN  =  1.00D-07  VARMAX  =  1.00D-03
 THRDOUB =  0.00D+00  THRDIV  =  1.00D-05  THRRED  =  1.00D-07  THRPSP  =  1.00D+00  THRDC   =  1.00D-10  THRCS   =  1.00D-10
 THRNRM  =  1.00D-08  THREQ   =  0.00D+00  THRDE   =  1.00D+00  THRREF  =  1.00D-05  SPARFAC =  1.00D+00  THRDLP  =  1.00D-07
 THRDIA  =  1.00D-10  THRDLS  =  1.00D-07  THRGPS  =  0.00D+00  THRKEX  =  0.00D+00  THRDIS  =  2.00D-01  THRVAR  =  1.00D-10
 THRLOC  =  1.00D-06  THRGAP  =  1.00D-06  THRLOCT = -1.00D+00  THRGAPT = -1.00D+00  THRORB  =  1.00D-06  THRMLTP =  0.00D+00
 THRCPQCI=  1.00D-10  KEXTA   =  0.00D+00  THRCOARS=  0.00D+00  SYMTOL  =  1.00D-06  GRADTOL =  1.00D-06  THROVL  =  1.00D-08
 THRORTH =  1.00D-08  GRID    =  1.00D-06  GRIDMAX =  1.00D-03  DTMAX   =  0.00D+00  THROCCDE=  1.00D-01  THROCCDE=  1.00D-01



 Input parameters for SORTINT:

 COMPRESS =    0.000000
 C_FINAL  =    1.000000
 DEBUG    =   -1.000000
 C_SORT1  =    0.000000
 C_SEWARD =    0.000000
 THRESH   =    0.000000
 IO       =  molpro                                                          
 SPRI     =    0.000000
 SETTING GEOMTYP        =    XYZ
 ZUNIT=BOHR
 

 Variable memory set to  995000000 words,  buffer space   230000 words

 SETTING BASIS          =    VTZ-DK
 SETTING DKROLL         =         1.00000000                                  


 Recomputing integrals since basis changed


 Using spherical harmonics

 Library entry N      S cc-pVTZ-DK           selected for orbital group  1
 Library entry N      P cc-pVTZ-DK           selected for orbital group  1
 Library entry N      D cc-pVTZ-DK           selected for orbital group  1
 Library entry N      F cc-pVTZ-DK           selected for orbital group  1
 Library entry H      S cc-pVTZ-DK           selected for orbital group  2
 Library entry H      P cc-pVTZ-DK           selected for orbital group  2
 Library entry H      D cc-pVTZ-DK           selected for orbital group  2
 Library entry O      S cc-pVTZ-DK           selected for orbital group  3
 Library entry O      P cc-pVTZ-DK           selected for orbital group  3
 Library entry O      D cc-pVTZ-DK           selected for orbital group  3
 Library entry O      F cc-pVTZ-DK           selected for orbital group  3


 PROGRAM * SEWARD (Integral evaluation for generally contracted gaussian basis sets)     Author: Roland Lindh, 1990

 Geometry written to block  1 of record 700


 Point group  Cs  



 ATOMIC COORDINATES

 NR  ATOM    CHARGE       X              Y              Z

   1  N       7.00    0.000000000   -0.152240672   -1.159424422
   2  H       1.00    0.000000000    1.659885346   -1.930000042
   3  O       8.00    0.000000000    0.034123115    1.138834873

 Bond lengths in Bohr (Angstrom)

 1-2  1.969159082  1-3  2.305802951
     ( 1.042034111)     ( 1.220178374)

 Bond angles

  2-1-3  108.40087407

 NUCLEAR CHARGE:                   16
 NUMBER OF PRIMITIVE AOS:         111
 NUMBER OF SYMMETRY AOS:          100
 NUMBER OF CONTRACTIONS:           74   (  50A'  +  24A"  )
 NUMBER OF CORE ORBITALS:           2   (   2A'  +   0A"  )
 NUMBER OF VALENCE ORBITALS:        9   (   7A'  +   2A"  )


 NUCLEAR REPULSION ENERGY   30.14493540

 One-electron integrals computed with SEWARD

 2nd-order Douglas-Kroll-Hess method activated. Optimal DKH parametrization is used.

 Computing Douglas-Kroll / X2C integrals


        1874283. INTEGRALS WRITTEN OUT IN     458 BLOCKS ON RECORD 1290 OF FILE 1


 NUMBER OF SORTED TWO-ELECTRON INTEGRALS:    2006100.     BUFFER LENGTH:  32768
 NUMBER OF SEGMENTS:   1  SEGMENT LENGTH:    2006100      RECORD LENGTH: 524288

 Memory used in sort:       2.56 MW

 SORT1 READ     1874283. AND WROTE     1914195. INTEGRALS IN      6 RECORDS. CPU TIME:     0.06 SEC, REAL TIME:     0.08 SEC
 SORT2 READ     1914195. AND WROTE     2006100. INTEGRALS IN      1 RECORDS. CPU TIME:     0.05 SEC, REAL TIME:     0.07 SEC

 FILE SIZES:   FILE 1:    50.2 MBYTE,  FILE 4:    25.2 MBYTE,   TOTAL:     75.4 MBYTE

 OPERATOR DM      FOR CENTER  0  COORDINATES:    0.000000    0.000000    0.000000

 Eigenvalues of metric

         1 0.245E-02 0.396E-02 0.434E-02 0.824E-02 0.128E-01 0.332E-01 0.432E-01 0.464E-01
         2 0.347E-01 0.466E-01 0.103E+00 0.110E+00 0.236E+00 0.339E+00 0.397E+00 0.452E+00


 **********************************************************************************************************************************
 DATASETS  * FILE   NREC   LENGTH (MB)   RECORD NAMES
              1      23       36.03       500      610      700      900      950      970     1000      129      960     1700   
                                          VAR    BASINP    GEOM    SYMINP    ZMAT    AOBASIS   BASIS     P2S    ABASIS    OPER   
                                         1101     1401     1411     1412     1650     1100     1400     1410     1200     1210   
                                          SR      EKINR    POTR     PVPR    MOLCAS      S      EKIN      POT      H0       H01  
                                         1300     1080     1600   
                                         ERIS     AOSYM     SMH  

 PROGRAMS   *        TOTAL       INT
 CPU TIMES  *         0.74      0.64
 REAL TIME  *         1.46 SEC
 DISK USED  *        75.75 MB      
 **********************************************************************************************************************************


 PROGRAM * RHF-SCF (CLOSED SHELL)       Authors: W. Meyer, H.-J. Werner


 NUMBER OF ELECTRONS:       8+    8-
 CONVERGENCE THRESHOLDS:    1.00E-10 (Density)    1.00E-13 (Energy)
 MAX. NUMBER OF ITERATIONS:      500
 INTERPOLATION TYPE:            DIIS
 INTERPOLATION STEPS:              2 (START)      1 (STEP)
 LEVEL SHIFTS:                  0.00 (CLOSED)  0.00 (OPEN) 



 Orbital guess generated from atomic densities. Full valence occupancy:    9   2

 Molecular orbital dump at record        2100.2

 Initial occupancy:   7   1

 ITERATION    DDIFF          GRAD             ENERGY        2-EL.EN.            DIPOLE MOMENTS         DIIS   ORB.
    1      0.000D+00      0.000D+00      -129.86467079    153.828557    0.00000    0.60393   -1.07761    0    start
    2      0.000D+00      0.137D-01      -129.89097877    154.906080    0.00000    0.62348   -0.21772    1    diag
    3      0.189D-01      0.107D-01      -129.91501367    155.064609    0.00000    0.57325   -0.61920    2    diag
    4      0.927D-02      0.157D-02      -129.91576979    154.791998    0.00000    0.58148   -0.55792    3    diag
    5      0.168D-02      0.521D-03      -129.91588652    154.877996    0.00000    0.58676   -0.55873    4    diag
    6      0.726D-03      0.155D-03      -129.91590581    154.863024    0.00000    0.58724   -0.55437    5    diag
    7      0.280D-03      0.787D-04      -129.91591174    154.865148    0.00000    0.58841   -0.55169    6    diag
    8      0.197D-03      0.263D-04      -129.91591237    154.864414    0.00000    0.58841   -0.55079    7    diag
    9      0.716D-04      0.479D-05      -129.91591239    154.864287    0.00000    0.58836   -0.55062    8    diag
   10      0.140D-04      0.103D-05      -129.91591240    154.864270    0.00000    0.58833   -0.55060    9    orth
   11      0.291D-05      0.201D-06      -129.91591240    154.864266    0.00000    0.58832   -0.55059    9    diag
   12      0.520D-06      0.435D-07      -129.91591240    154.864265    0.00000    0.58832   -0.55059    9    diag
   13      0.114D-06      0.113D-07      -129.91591240    154.864265    0.00000    0.58832   -0.55059    9    diag
   14      0.294D-07      0.206D-08      -129.91591240    154.864265    0.00000    0.58832   -0.55059    9    diag
   15      0.436D-08      0.536D-09      -129.91591240    154.864265    0.00000    0.58832   -0.55059    9    diag
   16      0.114D-08      0.139D-09      -129.91591240    154.864265    0.00000    0.58832   -0.55059    9    diag
   17      0.204D-09      0.412D-10      -129.91591240    154.864265    0.00000    0.58832   -0.55059    9    diag
   18      0.693D-10      0.145D-10      -129.91591240    154.864265    0.00000    0.58832   -0.55059    9    diag
   19      0.317D-10      0.297D-11      -129.91591240    154.864265    0.00000    0.58832   -0.55059    9    fixocc
   20      0.808D-11      0.569D-12      -129.91591240    154.864265    0.00000    0.58832   -0.55059    9    orth
   21      0.146D-11      0.157D-12      -129.91591240    154.864265    0.00000    0.58832   -0.55059    9    diag
   22      0.469D-12      0.439D-13      -129.91591240    154.864265    0.00000    0.58832   -0.55059    9    diag
   23      0.110D-12      0.274D-13      -129.91591240    154.864265    0.00000    0.58832   -0.55059    9    diag
   24      0.469D-13      0.179D-13      -129.91591240    154.864265    0.00000    0.58832   -0.55059    0    orth

 Final occupancy:   7   1

 !RHF STATE 1.1 Energy               -129.915912395478
 Nuclear energy                        30.14493540
 One-electron energy                 -237.49298016
 Two-electron energy                   77.43213237
 Virial quotient                       -0.99779853
 !RHF STATE 1.1 Dipole moment           0.00000000     0.58831794    -0.55059115
 Dipole moment /Debye                   0.00000000     1.49525712    -1.39937146

 Orbital energies:

         1.1          2.1          3.1          4.1          5.1          6.1          7.1          8.1          9.1
    -20.666084   -15.717491    -1.517542    -0.997700    -0.740440    -0.658279    -0.430852     0.143931     0.367743

         1.2          2.2          3.2
     -0.585969     0.081948     0.614431

 HOMO      7.1    -0.430852 =     -11.7241eV
 LUMO      2.2     0.081948 =       2.2299eV
 LUMO-HOMO         0.512800 =      13.9540eV


 **********************************************************************************************************************************
 DATASETS  * FILE   NREC   LENGTH (MB)   RECORD NAMES
              1      23       36.03       500      610      700      900      950      970     1000      129      960     1700   
                                          VAR    BASINP    GEOM    SYMINP    ZMAT    AOBASIS   BASIS     P2S    ABASIS    OPER   
                                         1101     1401     1411     1412     1650     1100     1400     1410     1200     1210   
                                          SR      EKINR    POTR     PVPR    MOLCAS      S      EKIN      POT      H0       H01  
                                         1300     1080     1600   
                                         ERIS     AOSYM     SMH  

              2       4        2.85       700     1000      520     2100   
                                         GEOM     BASIS   MCVARS     RHF  

 PROGRAMS   *        TOTAL        HF       INT
 CPU TIMES  *         1.05      0.31      0.64
 REAL TIME  *         1.86 SEC
 DISK USED  *        75.75 MB      
 **********************************************************************************************************************************


 PROGRAM * CCSD (Closed-shell coupled cluster)     Authors: C. Hampel, H.-J. Werner, 1991, M. Deegan, P.J. Knowles, 1992


 Convergence thresholds:  THRVAR = 1.00D-08  THRDEN = 1.00D-12

 CCSD(T)     terms to be evaluated (factor= 1.000)


 Number of core orbitals:           2 (   2   0 )
 Number of closed-shell orbitals:   6 (   5   1 )
 Number of external orbitals:      66 (  43  23 )

 Molecular orbitals read from record     2100.2  Type=RHF/CANONICAL (state 1.1)

 Number of N-1 electron functions:               6
 Number of N-2 electron functions:              21
 Number of singly external CSFs:               238
 Number of doubly external CSFs:             41002
 Total number of CSFs:                       41241

 Length of J-op  integral file:               0.00 MB
 Length of K-op  integral file:               0.25 MB
 Length of 3-ext integral record:             0.00 MB

 Memory could be reduced to 1.65 Mwords without degradation in triples

 Integral transformation finished. Total CPU:   0.04 sec, npass=  1  Memory used:   0.55 MW

 Reference energy:                   -129.91591240

 MP2 singlet pair energy:              -0.27483879
 MP2 triplet pair energy:              -0.16331031
 MP2 correlation energy:               -0.43814910
 MP2 total energy:                   -130.35406150

 SCS-MP2 correlation energy:           -0.43142185   (PS=  1.200000  PT=  0.333333)
 SCS-MP2 total energy:               -130.34733425

 ITER.      SQ.NORM     CORR.ENERGY   TOTAL ENERGY   ENERGY CHANGE        DEN1      VAR(S)    VAR(P)  DIIS     TIME  TIME/IT
   1      1.11947085    -0.44277294  -130.35868534    -0.00462384     0.01160740  0.31D-02  0.31D-02  1  1     0.10     0.05
   2      1.13056084    -0.44293062  -130.35884301    -0.00015768    -0.01253696  0.94D-04  0.52D-03  2  2     0.15     0.06
   3      1.13704237    -0.44332837  -130.35924076    -0.00039775    -0.00304037  0.49D-04  0.53D-04  3  3     0.20     0.06
   4      1.13997794    -0.44335705  -130.35926945    -0.00002869    -0.00099243  0.42D-05  0.93D-05  4  4     0.26     0.06
   5      1.14103353    -0.44338810  -130.35930049    -0.00003104    -0.00021861  0.13D-05  0.17D-05  5  5     0.31     0.06
   6      1.14140563    -0.44337018  -130.35928257     0.00001792    -0.00004282  0.90D-07  0.42D-06  6  6     0.36     0.06
   7      1.14148945    -0.44337265  -130.35928504    -0.00000247    -0.00000147  0.10D-07  0.94D-07  6  1     0.42     0.06
   8      1.14151977    -0.44337253  -130.35928492     0.00000012     0.00000211  0.49D-08  0.12D-07  6  2     0.47     0.06
   9      1.14152776    -0.44337235  -130.35928474     0.00000018    -0.00000240  0.27D-08  0.13D-08  6  3     0.53     0.06
  10      1.14152639    -0.44337287  -130.35928526    -0.00000052     0.00000070  0.51D-09  0.22D-09  6  4     0.58     0.06
  11      1.14152470    -0.44337293  -130.35928532    -0.00000006     0.00000014  0.15D-09  0.24D-10  6  5     0.63     0.06
  12      1.14152330    -0.44337311  -130.35928551    -0.00000019     0.00000044  0.14D-10  0.74D-11  6  6     0.69     0.06
  13      1.14152270    -0.44337312  -130.35928552    -0.00000001     0.00000012  0.62D-11  0.12D-11  6  1     0.75     0.06
  14      1.14152231    -0.44337314  -130.35928554    -0.00000002     0.00000008  0.89D-12  0.44D-12  6  2     0.80     0.06
  15      1.14152216    -0.44337314  -130.35928554    -0.00000000     0.00000002  0.23D-12  0.14D-12  6  3     0.86     0.06
  16      1.14152207    -0.44337315  -130.35928554    -0.00000000     0.00000001  0.15D-13  0.54D-13  6  4     0.91     0.06
  17      1.14152203    -0.44337315  -130.35928554    -0.00000000     0.00000001  0.25D-14  0.12D-13  6  5     0.96     0.06
  18      1.14152202    -0.44337315  -130.35928554     0.00000000     0.00000000  0.17D-14  0.33D-14  6  6     1.01     0.06
  19      1.14152202    -0.44337315  -130.35928554     0.00000000    -0.00000000  0.80D-15  0.37D-15  6  1     1.07     0.06
  20      1.14152202    -0.44337315  -130.35928554     0.00000000    -0.00000000  0.67D-16  0.67D-16  6  2     1.13     0.06
  21      1.14152202    -0.44337315  -130.35928554    -0.00000000     0.00000000  0.38D-16  0.12D-16  6  3     1.18     0.06
  22      1.14152202    -0.44337315  -130.35928554     0.00000000     0.00000000  0.64D-17  0.23D-17  6  4     1.24     0.06
  23      1.14152202    -0.44337315  -130.35928554    -0.00000000     0.00000000  0.23D-17  0.39D-18  6  5     1.29     0.06
  24      1.14152202    -0.44337315  -130.35928554    -0.00000000    -0.00000000  0.24D-18  0.11D-18  6  6     1.35     0.06
  25      1.14152202    -0.44337315  -130.35928554     0.00000000    -0.00000000  0.70D-19  0.26D-19  6  2     1.40     0.06
  26      1.14152202    -0.44337315  -130.35928554     0.00000000    -0.00000000  0.17D-20  0.22D-20  6  1     1.46     0.06
  27      1.14152202    -0.44337315  -130.35928554     0.00000000    -0.00000000  0.34D-21  0.68D-21  6  3     1.52     0.06

 Norm of t1 vector:      0.07656236      S-energy:    -0.00000000      T1 diagnostic:  0.01562823
                                                                       D1 diagnostic:  0.04405376

 Doubles amplitudes (print threshold =  0.500E-01):

         I         J         SYM. A    SYM. B    A         B      T(IJ, AB)

         6         6         2         2         1         1     -0.14729786


 Total CPU time for triples:      0.39 sec


 RESULTS
 =======

  Reference energy                   -129.915912395479
  CCSD singlet pair energy             -0.304234288772
  CCSD triplet pair energy             -0.139138858865
  CCSD correlation energy              -0.443373147637

  Triples (T) contribution             -0.020105231948
  Total correlation energy             -0.463478379585

  CCSD total energy                  -130.359285543115
  CCSD[T] energy                     -130.380453724949
  CCSD-T energy                      -130.378983294490
 !CCSD(T) total energy               -130.379390775063

 Timing summary (sec):

 STEP                 CPU(USER)    SYS     CPU(TOT)    WALL
 Transformation          0.04      0.01      0.05      0.05
 CCSD iterations         1.48      0.11      1.59      1.59
 Triples                 0.39      0.02      0.41      0.42

 Program statistics:

 Available memory in ccsd:               994999756
 Min. memory needed in ccsd:                154850
 Max. memory used in ccsd:                  184802
 Max. memory used in cckext:                238416 (27 integral passes)



 **********************************************************************************************************************************
 DATASETS  * FILE   NREC   LENGTH (MB)   RECORD NAMES
              1      24       40.41       500      610      700      900      950      970     1000      129      960     1700   
                                          VAR    BASINP    GEOM    SYMINP    ZMAT    AOBASIS   BASIS     P2S    ABASIS    OPER   
                                         1101     1401     1411     1412     1650     1100     1400     1410     1200     1210   
                                          SR      EKINR    POTR     PVPR    MOLCAS      S      EKIN      POT      H0       H01  
                                         1300     1080     1600     1380   
                                         ERIS     AOSYM     SMH     JKOP   

              2       4        2.85       700     1000      520     2100   
                                         GEOM     BASIS   MCVARS     RHF  

 PROGRAMS   *        TOTAL   CCSD(T)        HF       INT
 CPU TIMES  *         3.00      1.94      0.31      0.64
 REAL TIME  *         3.98 SEC
 DISK USED  *        75.75 MB      
 **********************************************************************************************************************************

 CCSD(T)/cc-pVTZ-DK energy=   -130.379390775063

        CCSD(T)         HF-SCF  
   -130.37939078   -129.91591240
 **********************************************************************************************************************************
 Molpro calculation terminated
 Variable memory released
