
 Primary working directories    : /tmp/r2666/235225.maple
 Secondary working directories  : /tmp/r2666/235225.maple
 Wavefunction directory         : /ddn/home4/r2666/wfu/
 Main file repository           : /tmp/r2666/235225.maple/

 SHA1      : d5ffa45e93fdbca01ffc919aa182cfdae0147319
 NAME      : 2015.1.35
 ARCHNAME  : linux/x86_64
 FC        : /opt/intel/composer_xe_2015.1.133/bin/intel64/ifort
 BLASLIB   : -Wl,-_start-group /opt/intel/mkl/lib/intel64/libmkl_intel_ilp64.a /opt/intel/mkl/lib/intel64/libmkl_intel_thread.a /opt/intel/mkl/lib/intel64/libmkl_core.a -Wl,-_end-group
 id        : olemiss

 Nodes     nprocs
 cn035        1

 Using customized tuning parameters: mindgm=1; mindgv=20; mindgc=4; mindgr=1; noblas=0; minvec=7
 default implementation of scratch files=df  

 ***,hno CCSD(T)/TZ-F12 QFF
 memory, 995, m;
 gthresh,energy=1.d-12,zero=1.d-22,oneint=1.d-22,twoint=1.d-22;
 gthresh,optgrad=1.d-8,optstep=1.d-8;
 nocompress;
 geomtyp=xyz
 bohr
 geometry={
 3
         80        80
 N        0.0000000000       -0.1616603024       -1.1582091470
 H        0.0000000000        1.6689264254       -1.9336575666
 O        0.0000000000        0.0345016669        1.1412771226
 }
 
 basis=vtz-dk
 dkroll=1
   {hf,maxit=500;accu,20;}
 {ccsd(t),nocheck,maxit=250;orbital,IGNORE_ERROR;}

 Variables initialized (889), CPU time= 0.01 sec
 Commands  initialized (702), CPU time= 0.00 sec, 572 directives.
 Default parameters read. Elapsed time= 0.05 sec

 Checking input...
 Passed
1


                                         ***  PROGRAM SYSTEM MOLPRO  ***
                                       Copyright, TTI GmbH Stuttgart, 2015
                                    Version 2015.1 linked Jul  9 2018 13:16:40


 **********************************************************************************************************************************
 LABEL *   hno CCSD(T)/TZ-F12 QFF                                                        
  64 bit serial version                                                                  DATE: 08-Feb-20          TIME: 17:57:21  
 **********************************************************************************************************************************

 SHA1:             d5ffa45e93fdbca01ffc919aa182cfdae0147319
 **********************************************************************************************************************************

 THRESHOLDS:

 ZERO    =  1.00D-22  ONEINT  =  1.00D-22  TWOINT  =  1.00D-22  PREFAC  =  1.00D-14  LOCALI  =  1.00D-09  EORDER  =  1.00D-04
 ENERGY  =  1.00D-12  ETEST   =  0.00D+00  EDENS   =  0.00D+00  THRDEDEF=  1.00D-06  GRADIENT=  1.00D-02  STEP    =  1.00D-03
 ORBITAL =  1.00D-05  CIVEC   =  1.00D-05  COEFF   =  1.00D-04  PRINTCI =  5.00D-02  PUNCHCI =  9.90D+01  OPTGRAD =  3.00D-04
 OPTENERG=  1.00D-06  OPTSTEP =  3.00D-04  THRGRAD =  1.00D-10  COMPRESS=  1.00D-11  VARMIN  =  1.00D-07  VARMAX  =  1.00D-03
 THRDOUB =  0.00D+00  THRDIV  =  1.00D-05  THRRED  =  1.00D-07  THRPSP  =  1.00D+00  THRDC   =  1.00D-10  THRCS   =  1.00D-10
 THRNRM  =  1.00D-08  THREQ   =  0.00D+00  THRDE   =  1.00D+00  THRREF  =  1.00D-05  SPARFAC =  1.00D+00  THRDLP  =  1.00D-07
 THRDIA  =  1.00D-10  THRDLS  =  1.00D-07  THRGPS  =  0.00D+00  THRKEX  =  0.00D+00  THRDIS  =  2.00D-01  THRVAR  =  1.00D-10
 THRLOC  =  1.00D-06  THRGAP  =  1.00D-06  THRLOCT = -1.00D+00  THRGAPT = -1.00D+00  THRORB  =  1.00D-06  THRMLTP =  0.00D+00
 THRCPQCI=  1.00D-10  KEXTA   =  0.00D+00  THRCOARS=  0.00D+00  SYMTOL  =  1.00D-06  GRADTOL =  1.00D-06  THROVL  =  1.00D-08
 THRORTH =  1.00D-08  GRID    =  1.00D-06  GRIDMAX =  1.00D-03  DTMAX   =  0.00D+00  THROCCDE=  1.00D-01  THROCCDE=  1.00D-01



 THRESHOLDS:

 ZERO    =  1.00D-22  ONEINT  =  1.00D-22  TWOINT  =  1.00D-22  PREFAC  =  1.00D-14  LOCALI  =  1.00D-09  EORDER  =  1.00D-04
 ENERGY  =  1.00D-12  ETEST   =  0.00D+00  EDENS   =  0.00D+00  THRDEDEF=  1.00D-06  GRADIENT=  1.00D-02  STEP    =  1.00D-03
 ORBITAL =  1.00D-05  CIVEC   =  1.00D-05  COEFF   =  1.00D-04  PRINTCI =  5.00D-02  PUNCHCI =  9.90D+01  OPTGRAD =  1.00D-08
 OPTENERG=  1.00D-06  OPTSTEP =  1.00D-08  THRGRAD =  1.00D-10  COMPRESS=  1.00D-11  VARMIN  =  1.00D-07  VARMAX  =  1.00D-03
 THRDOUB =  0.00D+00  THRDIV  =  1.00D-05  THRRED  =  1.00D-07  THRPSP  =  1.00D+00  THRDC   =  1.00D-10  THRCS   =  1.00D-10
 THRNRM  =  1.00D-08  THREQ   =  0.00D+00  THRDE   =  1.00D+00  THRREF  =  1.00D-05  SPARFAC =  1.00D+00  THRDLP  =  1.00D-07
 THRDIA  =  1.00D-10  THRDLS  =  1.00D-07  THRGPS  =  0.00D+00  THRKEX  =  0.00D+00  THRDIS  =  2.00D-01  THRVAR  =  1.00D-10
 THRLOC  =  1.00D-06  THRGAP  =  1.00D-06  THRLOCT = -1.00D+00  THRGAPT = -1.00D+00  THRORB  =  1.00D-06  THRMLTP =  0.00D+00
 THRCPQCI=  1.00D-10  KEXTA   =  0.00D+00  THRCOARS=  0.00D+00  SYMTOL  =  1.00D-06  GRADTOL =  1.00D-06  THROVL  =  1.00D-08
 THRORTH =  1.00D-08  GRID    =  1.00D-06  GRIDMAX =  1.00D-03  DTMAX   =  0.00D+00  THROCCDE=  1.00D-01  THROCCDE=  1.00D-01



 Input parameters for SORTINT:

 COMPRESS =    0.000000
 C_FINAL  =    1.000000
 DEBUG    =   -1.000000
 C_SORT1  =    0.000000
 C_SEWARD =    0.000000
 THRESH   =    0.000000
 IO       =  molpro                                                          
 SPRI     =    0.000000
 SETTING GEOMTYP        =    XYZ
 ZUNIT=BOHR
 

 Variable memory set to  995000000 words,  buffer space   230000 words

 SETTING BASIS          =    VTZ-DK
 SETTING DKROLL         =         1.00000000                                  


 Recomputing integrals since basis changed


 Using spherical harmonics

 Library entry N      S cc-pVTZ-DK           selected for orbital group  1
 Library entry N      P cc-pVTZ-DK           selected for orbital group  1
 Library entry N      D cc-pVTZ-DK           selected for orbital group  1
 Library entry N      F cc-pVTZ-DK           selected for orbital group  1
 Library entry H      S cc-pVTZ-DK           selected for orbital group  2
 Library entry H      P cc-pVTZ-DK           selected for orbital group  2
 Library entry H      D cc-pVTZ-DK           selected for orbital group  2
 Library entry O      S cc-pVTZ-DK           selected for orbital group  3
 Library entry O      P cc-pVTZ-DK           selected for orbital group  3
 Library entry O      D cc-pVTZ-DK           selected for orbital group  3
 Library entry O      F cc-pVTZ-DK           selected for orbital group  3


 PROGRAM * SEWARD (Integral evaluation for generally contracted gaussian basis sets)     Author: Roland Lindh, 1990

 Geometry written to block  1 of record 700


 Point group  Cs  



 ATOMIC COORDINATES

 NR  ATOM    CHARGE       X              Y              Z

   1  N       7.00    0.000000000   -0.161660302   -1.158209147
   2  H       1.00    0.000000000    1.668926425   -1.933657567
   3  O       8.00    0.000000000    0.034501667    1.141277123

 Bond lengths in Bohr (Angstrom)

 1-2  1.988056342  1-3  2.307838084
     ( 1.052034110)     ( 1.221255321)

 Bond angles

  2-1-3  108.08191250

 NUCLEAR CHARGE:                   16
 NUMBER OF PRIMITIVE AOS:         111
 NUMBER OF SYMMETRY AOS:          100
 NUMBER OF CONTRACTIONS:           74   (  50A'  +  24A"  )
 NUMBER OF CORE ORBITALS:           2   (   2A'  +   0A"  )
 NUMBER OF VALENCE ORBITALS:        9   (   7A'  +   2A"  )


 NUCLEAR REPULSION ENERGY   30.08347842

 One-electron integrals computed with SEWARD

 2nd-order Douglas-Kroll-Hess method activated. Optimal DKH parametrization is used.

 Computing Douglas-Kroll / X2C integrals


        1874283. INTEGRALS WRITTEN OUT IN     458 BLOCKS ON RECORD 1290 OF FILE 1


 NUMBER OF SORTED TWO-ELECTRON INTEGRALS:    2006100.     BUFFER LENGTH:  32768
 NUMBER OF SEGMENTS:   1  SEGMENT LENGTH:    2006100      RECORD LENGTH: 524288

 Memory used in sort:       2.56 MW

 SORT1 READ     1874283. AND WROTE     1914195. INTEGRALS IN      6 RECORDS. CPU TIME:     0.05 SEC, REAL TIME:     0.07 SEC
 SORT2 READ     1914195. AND WROTE     2006100. INTEGRALS IN      1 RECORDS. CPU TIME:     0.04 SEC, REAL TIME:     0.07 SEC

 FILE SIZES:   FILE 1:    50.2 MBYTE,  FILE 4:    25.2 MBYTE,   TOTAL:     75.4 MBYTE

 OPERATOR DM      FOR CENTER  0  COORDINATES:    0.000000    0.000000    0.000000

 Eigenvalues of metric

         1 0.249E-02 0.401E-02 0.436E-02 0.843E-02 0.130E-01 0.335E-01 0.433E-01 0.465E-01
         2 0.349E-01 0.467E-01 0.103E+00 0.113E+00 0.239E+00 0.343E+00 0.399E+00 0.453E+00


 **********************************************************************************************************************************
 DATASETS  * FILE   NREC   LENGTH (MB)   RECORD NAMES
              1      23       36.03       500      610      700      900      950      970     1000      129      960     1700   
                                          VAR    BASINP    GEOM    SYMINP    ZMAT    AOBASIS   BASIS     P2S    ABASIS    OPER   
                                         1101     1401     1411     1412     1650     1100     1400     1410     1200     1210   
                                          SR      EKINR    POTR     PVPR    MOLCAS      S      EKIN      POT      H0       H01  
                                         1300     1080     1600   
                                         ERIS     AOSYM     SMH  

 PROGRAMS   *        TOTAL       INT
 CPU TIMES  *         0.67      0.58
 REAL TIME  *         1.34 SEC
 DISK USED  *        75.75 MB      
 **********************************************************************************************************************************


 PROGRAM * RHF-SCF (CLOSED SHELL)       Authors: W. Meyer, H.-J. Werner


 NUMBER OF ELECTRONS:       8+    8-
 CONVERGENCE THRESHOLDS:    1.00E-10 (Density)    1.00E-13 (Energy)
 MAX. NUMBER OF ITERATIONS:      500
 INTERPOLATION TYPE:            DIIS
 INTERPOLATION STEPS:              2 (START)      1 (STEP)
 LEVEL SHIFTS:                  0.00 (CLOSED)  0.00 (OPEN) 



 Orbital guess generated from atomic densities. Full valence occupancy:    9   2

 Molecular orbital dump at record        2100.2

 Initial occupancy:   7   1

 ITERATION    DDIFF          GRAD             ENERGY        2-EL.EN.            DIPOLE MOMENTS         DIIS   ORB.
    1      0.000D+00      0.000D+00      -129.86351225    153.714118    0.00000    0.59545   -1.08254    0    start
    2      0.000D+00      0.138D-01      -129.88975454    154.797757    0.00000    0.62365   -0.21165    1    diag
    3      0.191D-01      0.109D-01      -129.91451314    154.956433    0.00000    0.56915   -0.61870    2    diag
    4      0.938D-02      0.157D-02      -129.91527198    154.681994    0.00000    0.57741   -0.55737    3    diag
    5      0.168D-02      0.524D-03      -129.91539114    154.768726    0.00000    0.58278   -0.55815    4    diag
    6      0.731D-03      0.157D-03      -129.91541100    154.753563    0.00000    0.58325   -0.55372    5    diag
    7      0.284D-03      0.796D-04      -129.91541709    154.755711    0.00000    0.58444   -0.55102    6    diag
    8      0.199D-03      0.267D-04      -129.91541774    154.754960    0.00000    0.58444   -0.55010    7    diag
    9      0.730D-04      0.490D-05      -129.91541777    154.754829    0.00000    0.58439   -0.54993    8    diag
   10      0.143D-04      0.105D-05      -129.91541777    154.754811    0.00000    0.58435   -0.54990    9    orth
   11      0.294D-05      0.205D-06      -129.91541777    154.754807    0.00000    0.58435   -0.54990    9    diag
   12      0.529D-06      0.446D-07      -129.91541777    154.754806    0.00000    0.58434   -0.54990    9    diag
   13      0.118D-06      0.116D-07      -129.91541777    154.754806    0.00000    0.58434   -0.54990    9    diag
   14      0.305D-07      0.211D-08      -129.91541777    154.754805    0.00000    0.58434   -0.54990    9    diag
   15      0.450D-08      0.541D-09      -129.91541777    154.754806    0.00000    0.58434   -0.54990    9    diag
   16      0.116D-08      0.137D-09      -129.91541777    154.754805    0.00000    0.58434   -0.54990    9    diag
   17      0.199D-09      0.405D-10      -129.91541777    154.754806    0.00000    0.58434   -0.54990    9    diag
   18      0.661D-10      0.143D-10      -129.91541777    154.754805    0.00000    0.58434   -0.54990    0    orth

 Final occupancy:   7   1

 !RHF STATE 1.1 Energy               -129.915417771635
 Nuclear energy                        30.08347842
 One-electron energy                 -237.37629894
 Two-electron energy                   77.37740275
 Virial quotient                       -0.99794024
 !RHF STATE 1.1 Dipole moment           0.00000000     0.58434421    -0.54989725
 Dipole moment /Debye                   0.00000000     1.48515755    -1.39760785

 Orbital energies:

         1.1          2.1          3.1          4.1          5.1          6.1          7.1          8.1          9.1
    -20.666291   -15.719109    -1.516718    -0.995213    -0.739022    -0.657922    -0.430814     0.143292     0.367582

         1.2          2.2          3.2
     -0.585658     0.081590     0.614499

 HOMO      7.1    -0.430814 =     -11.7230eV
 LUMO      2.2     0.081590 =       2.2202eV
 LUMO-HOMO         0.512404 =      13.9432eV


 **********************************************************************************************************************************
 DATASETS  * FILE   NREC   LENGTH (MB)   RECORD NAMES
              1      23       36.03       500      610      700      900      950      970     1000      129      960     1700   
                                          VAR    BASINP    GEOM    SYMINP    ZMAT    AOBASIS   BASIS     P2S    ABASIS    OPER   
                                         1101     1401     1411     1412     1650     1100     1400     1410     1200     1210   
                                          SR      EKINR    POTR     PVPR    MOLCAS      S      EKIN      POT      H0       H01  
                                         1300     1080     1600   
                                         ERIS     AOSYM     SMH  

              2       4        2.85       700     1000      520     2100   
                                         GEOM     BASIS   MCVARS     RHF  

 PROGRAMS   *        TOTAL        HF       INT
 CPU TIMES  *         0.87      0.20      0.58
 REAL TIME  *         1.59 SEC
 DISK USED  *        75.75 MB      
 **********************************************************************************************************************************


 PROGRAM * CCSD (Closed-shell coupled cluster)     Authors: C. Hampel, H.-J. Werner, 1991, M. Deegan, P.J. Knowles, 1992


 Convergence thresholds:  THRVAR = 1.00D-08  THRDEN = 1.00D-12

 CCSD(T)     terms to be evaluated (factor= 1.000)


 Number of core orbitals:           2 (   2   0 )
 Number of closed-shell orbitals:   6 (   5   1 )
 Number of external orbitals:      66 (  43  23 )

 Molecular orbitals read from record     2100.2  Type=RHF/CANONICAL (state 1.1)

 Number of N-1 electron functions:               6
 Number of N-2 electron functions:              21
 Number of singly external CSFs:               238
 Number of doubly external CSFs:             41002
 Total number of CSFs:                       41241

 Length of J-op  integral file:               0.00 MB
 Length of K-op  integral file:               0.25 MB
 Length of 3-ext integral record:             0.00 MB

 Memory could be reduced to 1.65 Mwords without degradation in triples

 Integral transformation finished. Total CPU:   0.03 sec, npass=  1  Memory used:   0.55 MW

 Reference energy:                   -129.91541777

 MP2 singlet pair energy:              -0.27518830
 MP2 triplet pair energy:              -0.16352093
 MP2 correlation energy:               -0.43870923
 MP2 total energy:                   -130.35412700

 SCS-MP2 correlation energy:           -0.43197232   (PS=  1.200000  PT=  0.333333)
 SCS-MP2 total energy:               -130.34739009

 ITER.      SQ.NORM     CORR.ENERGY   TOTAL ENERGY   ENERGY CHANGE        DEN1      VAR(S)    VAR(P)  DIIS     TIME  TIME/IT
   1      1.11991387    -0.44326627  -130.35868404    -0.00455703     0.01180224  0.31D-02  0.32D-02  1  1     0.08     0.05
   2      1.13109169    -0.44341069  -130.35882846    -0.00014442    -0.01261453  0.95D-04  0.52D-03  2  2     0.13     0.05
   3      1.13765448    -0.44381671  -130.35923448    -0.00040602    -0.00307027  0.50D-04  0.54D-04  3  3     0.18     0.05
   4      1.14062053    -0.44384450  -130.35926228    -0.00002779    -0.00100214  0.44D-05  0.94D-05  4  4     0.22     0.05
   5      1.14169651    -0.44387647  -130.35929424    -0.00003197    -0.00022307  0.14D-05  0.17D-05  5  5     0.27     0.05
   6      1.14207437    -0.44385820  -130.35927598     0.00001827    -0.00004353  0.98D-07  0.41D-06  6  6     0.32     0.05
   7      1.14215926    -0.44386050  -130.35927827    -0.00000230    -0.00000153  0.11D-07  0.93D-07  6  1     0.37     0.05
   8      1.14219009    -0.44386034  -130.35927811     0.00000016     0.00000195  0.45D-08  0.12D-07  6  2     0.42     0.05
   9      1.14219835    -0.44386011  -130.35927789     0.00000022    -0.00000235  0.27D-08  0.13D-08  6  3     0.46     0.05
  10      1.14219705    -0.44386065  -130.35927842    -0.00000053     0.00000066  0.51D-09  0.23D-09  6  4     0.50     0.05
  11      1.14219531    -0.44386071  -130.35927848    -0.00000006     0.00000016  0.16D-09  0.25D-10  6  5     0.54     0.05
  12      1.14219388    -0.44386090  -130.35927867    -0.00000019     0.00000045  0.15D-10  0.78D-11  6  6     0.59     0.05
  13      1.14219325    -0.44386090  -130.35927868    -0.00000001     0.00000013  0.66D-11  0.13D-11  6  1     0.64     0.05
  14      1.14219284    -0.44386093  -130.35927870    -0.00000002     0.00000008  0.95D-12  0.46D-12  6  2     0.68     0.05
  15      1.14219268    -0.44386093  -130.35927870    -0.00000000     0.00000002  0.25D-12  0.14D-12  6  3     0.72     0.05
  16      1.14219256    -0.44386093  -130.35927870    -0.00000000     0.00000002  0.82D-14  0.37D-13  6  1     0.77     0.05
  17      1.14219254    -0.44386093  -130.35927870     0.00000000    -0.00000000  0.27D-14  0.24D-14  6  4     0.83     0.05
  18      1.14219253    -0.44386093  -130.35927870    -0.00000000     0.00000000  0.69D-15  0.40D-15  6  5     0.87     0.05
  19      1.14219253    -0.44386093  -130.35927870     0.00000000    -0.00000000  0.14D-15  0.79D-16  6  6     0.92     0.05
  20      1.14219253    -0.44386093  -130.35927870    -0.00000000     0.00000000  0.23D-16  0.20D-16  6  2     0.96     0.05
  21      1.14219253    -0.44386093  -130.35927870    -0.00000000     0.00000000  0.65D-18  0.15D-17  6  4     1.01     0.05
  22      1.14219253    -0.44386093  -130.35927870    -0.00000000     0.00000000  0.88D-19  0.15D-18  6  3     1.05     0.05
  23      1.14219253    -0.44386093  -130.35927870    -0.00000000     0.00000000  0.83D-20  0.16D-19  6  1     1.11     0.05
  24      1.14219253    -0.44386093  -130.35927870     0.00000000     0.00000000  0.43D-20  0.21D-20  6  6     1.16     0.05
  25      1.14219253    -0.44386093  -130.35927870     0.00000000    -0.00000000  0.27D-21  0.51D-21  6  4     1.21     0.05

 Norm of t1 vector:      0.07716733      S-energy:     0.00000000      T1 diagnostic:  0.01575172
                                                                       D1 diagnostic:  0.04420212

 Doubles amplitudes (print threshold =  0.500E-01):

         I         J         SYM. A    SYM. B    A         B      T(IJ, AB)

         6         6         2         2         1         1     -0.14747404


 Total CPU time for triples:      0.36 sec


 RESULTS
 =======

  Reference energy                   -129.915417771635
  CCSD singlet pair energy             -0.304655681458
  CCSD triplet pair energy             -0.139205250594
  CCSD correlation energy              -0.443860932049

  Triples (T) contribution             -0.020198587538
  Total correlation energy             -0.464059519587

  CCSD total energy                  -130.359278703684
  CCSD[T] energy                     -130.380554239788
  CCSD-T energy                      -130.379065037752
 !CCSD(T) total energy               -130.379477291222

 Timing summary (sec):

 STEP                 CPU(USER)    SYS     CPU(TOT)    WALL
 Transformation          0.03      0.01      0.04      0.06
 CCSD iterations         1.18      0.13      1.31      1.30
 Triples                 0.36      0.00      0.36      0.37

 Program statistics:

 Available memory in ccsd:               994999756
 Min. memory needed in ccsd:                154850
 Max. memory used in ccsd:                  184802
 Max. memory used in cckext:                238416 (25 integral passes)



 **********************************************************************************************************************************
 DATASETS  * FILE   NREC   LENGTH (MB)   RECORD NAMES
              1      24       40.41       500      610      700      900      950      970     1000      129      960     1700   
                                          VAR    BASINP    GEOM    SYMINP    ZMAT    AOBASIS   BASIS     P2S    ABASIS    OPER   
                                         1101     1401     1411     1412     1650     1100     1400     1410     1200     1210   
                                          SR      EKINR    POTR     PVPR    MOLCAS      S      EKIN      POT      H0       H01  
                                         1300     1080     1600     1380   
                                         ERIS     AOSYM     SMH     JKOP   

              2       4        2.85       700     1000      520     2100   
                                         GEOM     BASIS   MCVARS     RHF  

 PROGRAMS   *        TOTAL   CCSD(T)        HF       INT
 CPU TIMES  *         2.48      1.61      0.20      0.58
 REAL TIME  *         3.36 SEC
 DISK USED  *        75.75 MB      
 **********************************************************************************************************************************

 CCSD(T)/cc-pVTZ-DK energy=   -130.379477291222

        CCSD(T)         HF-SCF  
   -130.37947729   -129.91541777
 **********************************************************************************************************************************
 Molpro calculation terminated
 Variable memory released
