
 Primary working directories    : /tmp/r2666/235172.maple
 Secondary working directories  : /tmp/r2666/235172.maple
 Wavefunction directory         : /ddn/home4/r2666/wfu/
 Main file repository           : /tmp/r2666/235172.maple/

 SHA1      : d5ffa45e93fdbca01ffc919aa182cfdae0147319
 NAME      : 2015.1.35
 ARCHNAME  : linux/x86_64
 FC        : /opt/intel/composer_xe_2015.1.133/bin/intel64/ifort
 BLASLIB   : -Wl,-_start-group /opt/intel/mkl/lib/intel64/libmkl_intel_ilp64.a /opt/intel/mkl/lib/intel64/libmkl_intel_thread.a /opt/intel/mkl/lib/intel64/libmkl_core.a -Wl,-_end-group
 id        : olemiss

 Nodes     nprocs
 cn076        1

 Using customized tuning parameters: mindgm=1; mindgv=20; mindgc=4; mindgr=1; noblas=0; minvec=7
 default implementation of scratch files=df  

 ***,hno CCSD(T)/TZ-F12 QFF
 memory, 995, m;
 gthresh,energy=1.d-12,zero=1.d-22,oneint=1.d-22,twoint=1.d-22;
 gthresh,optgrad=1.d-8,optstep=1.d-8;
 nocompress;
 geomtyp=xyz
 bohr
 geometry={
 3
         27        27
 N        0.0000000000       -0.1570667161       -1.1471222939
 H        0.0000000000        1.6619439394       -1.9256392902
 O        0.0000000000        0.0368905667        1.1221719931
 }
 
 basis=vtz-dk
 dkroll=1
   {hf,maxit=500;accu,20;}
 {ccsd(t),nocheck,maxit=250;orbital,IGNORE_ERROR;}

 Variables initialized (889), CPU time= 0.00 sec
 Commands  initialized (702), CPU time= 0.01 sec, 572 directives.
 Default parameters read. Elapsed time= 0.06 sec

 Checking input...
 Passed
1


                                         ***  PROGRAM SYSTEM MOLPRO  ***
                                       Copyright, TTI GmbH Stuttgart, 2015
                                    Version 2015.1 linked Jul  9 2018 13:16:40


 **********************************************************************************************************************************
 LABEL *   hno CCSD(T)/TZ-F12 QFF                                                        
  64 bit serial version                                                                  DATE: 08-Feb-20          TIME: 17:57:16  
 **********************************************************************************************************************************

 SHA1:             d5ffa45e93fdbca01ffc919aa182cfdae0147319
 **********************************************************************************************************************************

 THRESHOLDS:

 ZERO    =  1.00D-22  ONEINT  =  1.00D-22  TWOINT  =  1.00D-22  PREFAC  =  1.00D-14  LOCALI  =  1.00D-09  EORDER  =  1.00D-04
 ENERGY  =  1.00D-12  ETEST   =  0.00D+00  EDENS   =  0.00D+00  THRDEDEF=  1.00D-06  GRADIENT=  1.00D-02  STEP    =  1.00D-03
 ORBITAL =  1.00D-05  CIVEC   =  1.00D-05  COEFF   =  1.00D-04  PRINTCI =  5.00D-02  PUNCHCI =  9.90D+01  OPTGRAD =  3.00D-04
 OPTENERG=  1.00D-06  OPTSTEP =  3.00D-04  THRGRAD =  1.00D-10  COMPRESS=  1.00D-11  VARMIN  =  1.00D-07  VARMAX  =  1.00D-03
 THRDOUB =  0.00D+00  THRDIV  =  1.00D-05  THRRED  =  1.00D-07  THRPSP  =  1.00D+00  THRDC   =  1.00D-10  THRCS   =  1.00D-10
 THRNRM  =  1.00D-08  THREQ   =  0.00D+00  THRDE   =  1.00D+00  THRREF  =  1.00D-05  SPARFAC =  1.00D+00  THRDLP  =  1.00D-07
 THRDIA  =  1.00D-10  THRDLS  =  1.00D-07  THRGPS  =  0.00D+00  THRKEX  =  0.00D+00  THRDIS  =  2.00D-01  THRVAR  =  1.00D-10
 THRLOC  =  1.00D-06  THRGAP  =  1.00D-06  THRLOCT = -1.00D+00  THRGAPT = -1.00D+00  THRORB  =  1.00D-06  THRMLTP =  0.00D+00
 THRCPQCI=  1.00D-10  KEXTA   =  0.00D+00  THRCOARS=  0.00D+00  SYMTOL  =  1.00D-06  GRADTOL =  1.00D-06  THROVL  =  1.00D-08
 THRORTH =  1.00D-08  GRID    =  1.00D-06  GRIDMAX =  1.00D-03  DTMAX   =  0.00D+00  THROCCDE=  1.00D-01  THROCCDE=  1.00D-01



 THRESHOLDS:

 ZERO    =  1.00D-22  ONEINT  =  1.00D-22  TWOINT  =  1.00D-22  PREFAC  =  1.00D-14  LOCALI  =  1.00D-09  EORDER  =  1.00D-04
 ENERGY  =  1.00D-12  ETEST   =  0.00D+00  EDENS   =  0.00D+00  THRDEDEF=  1.00D-06  GRADIENT=  1.00D-02  STEP    =  1.00D-03
 ORBITAL =  1.00D-05  CIVEC   =  1.00D-05  COEFF   =  1.00D-04  PRINTCI =  5.00D-02  PUNCHCI =  9.90D+01  OPTGRAD =  1.00D-08
 OPTENERG=  1.00D-06  OPTSTEP =  1.00D-08  THRGRAD =  1.00D-10  COMPRESS=  1.00D-11  VARMIN  =  1.00D-07  VARMAX  =  1.00D-03
 THRDOUB =  0.00D+00  THRDIV  =  1.00D-05  THRRED  =  1.00D-07  THRPSP  =  1.00D+00  THRDC   =  1.00D-10  THRCS   =  1.00D-10
 THRNRM  =  1.00D-08  THREQ   =  0.00D+00  THRDE   =  1.00D+00  THRREF  =  1.00D-05  SPARFAC =  1.00D+00  THRDLP  =  1.00D-07
 THRDIA  =  1.00D-10  THRDLS  =  1.00D-07  THRGPS  =  0.00D+00  THRKEX  =  0.00D+00  THRDIS  =  2.00D-01  THRVAR  =  1.00D-10
 THRLOC  =  1.00D-06  THRGAP  =  1.00D-06  THRLOCT = -1.00D+00  THRGAPT = -1.00D+00  THRORB  =  1.00D-06  THRMLTP =  0.00D+00
 THRCPQCI=  1.00D-10  KEXTA   =  0.00D+00  THRCOARS=  0.00D+00  SYMTOL  =  1.00D-06  GRADTOL =  1.00D-06  THROVL  =  1.00D-08
 THRORTH =  1.00D-08  GRID    =  1.00D-06  GRIDMAX =  1.00D-03  DTMAX   =  0.00D+00  THROCCDE=  1.00D-01  THROCCDE=  1.00D-01



 Input parameters for SORTINT:

 COMPRESS =    0.000000
 C_FINAL  =    1.000000
 DEBUG    =   -1.000000
 C_SORT1  =    0.000000
 C_SEWARD =    0.000000
 THRESH   =    0.000000
 IO       =  molpro                                                          
 SPRI     =    0.000000
 SETTING GEOMTYP        =    XYZ
 ZUNIT=BOHR
 

 Variable memory set to  995000000 words,  buffer space   230000 words

 SETTING BASIS          =    VTZ-DK
 SETTING DKROLL         =         1.00000000                                  


 Recomputing integrals since basis changed


 Using spherical harmonics

 Library entry N      S cc-pVTZ-DK           selected for orbital group  1
 Library entry N      P cc-pVTZ-DK           selected for orbital group  1
 Library entry N      D cc-pVTZ-DK           selected for orbital group  1
 Library entry N      F cc-pVTZ-DK           selected for orbital group  1
 Library entry H      S cc-pVTZ-DK           selected for orbital group  2
 Library entry H      P cc-pVTZ-DK           selected for orbital group  2
 Library entry H      D cc-pVTZ-DK           selected for orbital group  2
 Library entry O      S cc-pVTZ-DK           selected for orbital group  3
 Library entry O      P cc-pVTZ-DK           selected for orbital group  3
 Library entry O      D cc-pVTZ-DK           selected for orbital group  3
 Library entry O      F cc-pVTZ-DK           selected for orbital group  3


 PROGRAM * SEWARD (Integral evaluation for generally contracted gaussian basis sets)     Author: Roland Lindh, 1990

 Geometry written to block  1 of record 700


 Point group  Cs  



 ATOMIC COORDINATES

 NR  ATOM    CHARGE       X              Y              Z

   1  N       7.00    0.000000000   -0.157066716   -1.147122294
   2  H       1.00    0.000000000    1.661943939   -1.925639290
   3  O       8.00    0.000000000    0.036890567    1.122171993

 Bond lengths in Bohr (Angstrom)

 1-2  1.978607712  1-3  2.277567999
     ( 1.047034111)     ( 1.205237081)

 Bond angles

  2-1-3  108.28518867

 NUCLEAR CHARGE:                   16
 NUMBER OF PRIMITIVE AOS:         111
 NUMBER OF SYMMETRY AOS:          100
 NUMBER OF CONTRACTIONS:           74   (  50A'  +  24A"  )
 NUMBER OF CORE ORBITALS:           2   (   2A'  +   0A"  )
 NUMBER OF VALENCE ORBITALS:        9   (   7A'  +   2A"  )


 NUCLEAR REPULSION ENERGY   30.44164268

 One-electron integrals computed with SEWARD

 2nd-order Douglas-Kroll-Hess method activated. Optimal DKH parametrization is used.

 Computing Douglas-Kroll / X2C integrals


        1874283. INTEGRALS WRITTEN OUT IN     458 BLOCKS ON RECORD 1290 OF FILE 1


 NUMBER OF SORTED TWO-ELECTRON INTEGRALS:    2006100.     BUFFER LENGTH:  32768
 NUMBER OF SEGMENTS:   1  SEGMENT LENGTH:    2006100      RECORD LENGTH: 524288

 Memory used in sort:       2.56 MW

 SORT1 READ     1874283. AND WROTE     1914195. INTEGRALS IN      6 RECORDS. CPU TIME:     0.03 SEC, REAL TIME:     0.05 SEC
 SORT2 READ     1914195. AND WROTE     2006100. INTEGRALS IN      1 RECORDS. CPU TIME:     0.04 SEC, REAL TIME:     0.06 SEC

 FILE SIZES:   FILE 1:    50.2 MBYTE,  FILE 4:    25.2 MBYTE,   TOTAL:     75.4 MBYTE

 OPERATOR DM      FOR CENTER  0  COORDINATES:    0.000000    0.000000    0.000000

 Eigenvalues of metric

         1 0.242E-02 0.394E-02 0.411E-02 0.825E-02 0.129E-01 0.324E-01 0.424E-01 0.463E-01
         2 0.341E-01 0.464E-01 0.101E+00 0.110E+00 0.232E+00 0.340E+00 0.393E+00 0.448E+00


 **********************************************************************************************************************************
 DATASETS  * FILE   NREC   LENGTH (MB)   RECORD NAMES
              1      23       36.03       500      610      700      900      950      970     1000      129      960     1700   
                                          VAR    BASINP    GEOM    SYMINP    ZMAT    AOBASIS   BASIS     P2S    ABASIS    OPER   
                                         1101     1401     1411     1412     1650     1100     1400     1410     1200     1210   
                                          SR      EKINR    POTR     PVPR    MOLCAS      S      EKIN      POT      H0       H01  
                                         1300     1080     1600   
                                         ERIS     AOSYM     SMH  

 PROGRAMS   *        TOTAL       INT
 CPU TIMES  *         0.66      0.58
 REAL TIME  *         1.27 SEC
 DISK USED  *        75.75 MB      
 **********************************************************************************************************************************


 PROGRAM * RHF-SCF (CLOSED SHELL)       Authors: W. Meyer, H.-J. Werner


 NUMBER OF ELECTRONS:       8+    8-
 CONVERGENCE THRESHOLDS:    1.00E-10 (Density)    1.00E-13 (Energy)
 MAX. NUMBER OF ITERATIONS:      500
 INTERPOLATION TYPE:            DIIS
 INTERPOLATION STEPS:              2 (START)      1 (STEP)
 LEVEL SHIFTS:                  0.00 (CLOSED)  0.00 (OPEN) 



 Orbital guess generated from atomic densities. Full valence occupancy:    9   2

 Molecular orbital dump at record        2100.2

 Initial occupancy:   7   1

 ITERATION    DDIFF          GRAD             ENERGY        2-EL.EN.            DIPOLE MOMENTS         DIIS   ORB.
    1      0.000D+00      0.000D+00      -129.86870101    154.359101    0.00000    0.59331   -1.03122    0    start
    2      0.000D+00      0.135D-01      -129.89550789    155.469440    0.00000    0.61354   -0.22434    1    diag
    3      0.184D-01      0.103D-01      -129.91726221    155.595641    0.00000    0.56394   -0.59769    2    diag
    4      0.891D-02      0.155D-02      -129.91799210    155.332472    0.00000    0.57246   -0.53880    3    diag
    5      0.166D-02      0.511D-03      -129.91810464    155.417534    0.00000    0.57778   -0.53987    4    diag
    6      0.712D-03      0.152D-03      -129.91812320    155.402694    0.00000    0.57832   -0.53576    5    diag
    7      0.276D-03      0.761D-04      -129.91812864    155.404995    0.00000    0.57954   -0.53328    6    diag
    8      0.191D-03      0.242D-04      -129.91812915    155.404322    0.00000    0.57956   -0.53249    7    diag
    9      0.638D-04      0.438D-05      -129.91812917    155.404209    0.00000    0.57951   -0.53233    8    diag
   10      0.123D-04      0.973D-06      -129.91812917    155.404192    0.00000    0.57947   -0.53231    9    orth
   11      0.277D-05      0.191D-06      -129.91812917    155.404188    0.00000    0.57947   -0.53231    9    diag
   12      0.505D-06      0.395D-07      -129.91812917    155.404186    0.00000    0.57946   -0.53231    9    diag
   13      0.109D-06      0.974D-08      -129.91812917    155.404186    0.00000    0.57946   -0.53231    9    diag
   14      0.271D-07      0.176D-08      -129.91812917    155.404186    0.00000    0.57946   -0.53231    9    diag
   15      0.432D-08      0.454D-09      -129.91812917    155.404186    0.00000    0.57946   -0.53231    9    diag
   16      0.103D-08      0.110D-09      -129.91812917    155.404186    0.00000    0.57946   -0.53231    9    diag
   17      0.179D-09      0.301D-10      -129.91812917    155.404186    0.00000    0.57946   -0.53231    9    diag
   18      0.527D-10      0.989D-11      -129.91812917    155.404186    0.00000    0.57946   -0.53231    0    orth

 Final occupancy:   7   1

 !RHF STATE 1.1 Energy               -129.918129174468
 Nuclear energy                        30.44164268
 One-electron energy                 -238.06186483
 Two-electron energy                   77.70209298
 Virial quotient                       -0.99741822
 !RHF STATE 1.1 Dipole moment           0.00000000     0.57946410    -0.53230595
 Dipole moment /Debye                   0.00000000     1.47275436    -1.35289815

 Orbital energies:

         1.1          2.1          3.1          4.1          5.1          6.1          7.1          8.1          9.1
    -20.664693   -15.715608    -1.529613    -0.992829    -0.744405    -0.662525    -0.426136     0.144495     0.369958

         1.2          2.2          3.2
     -0.593030     0.087485     0.612796

 HOMO      7.1    -0.426136 =     -11.5957eV
 LUMO      2.2     0.087485 =       2.3806eV
 LUMO-HOMO         0.513621 =      13.9763eV


 **********************************************************************************************************************************
 DATASETS  * FILE   NREC   LENGTH (MB)   RECORD NAMES
              1      23       36.03       500      610      700      900      950      970     1000      129      960     1700   
                                          VAR    BASINP    GEOM    SYMINP    ZMAT    AOBASIS   BASIS     P2S    ABASIS    OPER   
                                         1101     1401     1411     1412     1650     1100     1400     1410     1200     1210   
                                          SR      EKINR    POTR     PVPR    MOLCAS      S      EKIN      POT      H0       H01  
                                         1300     1080     1600   
                                         ERIS     AOSYM     SMH  

              2       4        2.85       700     1000      520     2100   
                                         GEOM     BASIS   MCVARS     RHF  

 PROGRAMS   *        TOTAL        HF       INT
 CPU TIMES  *         0.82      0.16      0.58
 REAL TIME  *         1.50 SEC
 DISK USED  *        75.75 MB      
 **********************************************************************************************************************************


 PROGRAM * CCSD (Closed-shell coupled cluster)     Authors: C. Hampel, H.-J. Werner, 1991, M. Deegan, P.J. Knowles, 1992


 Convergence thresholds:  THRVAR = 1.00D-08  THRDEN = 1.00D-12

 CCSD(T)     terms to be evaluated (factor= 1.000)


 Number of core orbitals:           2 (   2   0 )
 Number of closed-shell orbitals:   6 (   5   1 )
 Number of external orbitals:      66 (  43  23 )

 Molecular orbitals read from record     2100.2  Type=RHF/CANONICAL (state 1.1)

 Number of N-1 electron functions:               6
 Number of N-2 electron functions:              21
 Number of singly external CSFs:               238
 Number of doubly external CSFs:             41002
 Total number of CSFs:                       41241

 Length of J-op  integral file:               0.00 MB
 Length of K-op  integral file:               0.25 MB
 Length of 3-ext integral record:             0.00 MB

 Memory could be reduced to 1.65 Mwords without degradation in triples

 Integral transformation finished. Total CPU:   0.02 sec, npass=  1  Memory used:   0.55 MW

 Reference energy:                   -129.91812917

 MP2 singlet pair energy:              -0.27336255
 MP2 triplet pair energy:              -0.16233256
 MP2 correlation energy:               -0.43569511
 MP2 total energy:                   -130.35382429

 SCS-MP2 correlation energy:           -0.42904199   (PS=  1.200000  PT=  0.333333)
 SCS-MP2 total energy:               -130.34717116

 ITER.      SQ.NORM     CORR.ENERGY   TOTAL ENERGY   ENERGY CHANGE        DEN1      VAR(S)    VAR(P)  DIIS     TIME  TIME/IT
   1      1.11799890    -0.44088109  -130.35901026    -0.00518597     0.01045406  0.29D-02  0.30D-02  1  1     0.05     0.04
   2      1.12874299    -0.44115343  -130.35928261    -0.00027235    -0.01219616  0.86D-04  0.50D-03  2  2     0.09     0.04
   3      1.13493169    -0.44153079  -130.35965996    -0.00037735    -0.00294722  0.46D-04  0.50D-04  3  3     0.13     0.04
   4      1.13769202    -0.44155752  -130.35968669    -0.00002673    -0.00094594  0.38D-05  0.87D-05  4  4     0.16     0.04
   5      1.13866374    -0.44158606  -130.35971523    -0.00002854    -0.00020136  0.13D-05  0.17D-05  5  5     0.19     0.04
   6      1.13901582    -0.44156994  -130.35969911     0.00001612    -0.00003995  0.92D-07  0.41D-06  6  6     0.23     0.04
   7      1.13910045    -0.44157202  -130.35970119    -0.00000208    -0.00000209  0.11D-07  0.87D-07  6  1     0.27     0.04
   8      1.13913053    -0.44157205  -130.35970122    -0.00000003     0.00000199  0.45D-08  0.10D-07  6  2     0.30     0.04
   9      1.13913803    -0.44157187  -130.35970105     0.00000017    -0.00000229  0.25D-08  0.11D-08  6  3     0.34     0.04
  10      1.13913677    -0.44157237  -130.35970154    -0.00000049     0.00000064  0.48D-09  0.20D-09  6  4     0.37     0.04
  11      1.13913508    -0.44157242  -130.35970160    -0.00000006     0.00000017  0.14D-09  0.22D-10  6  5     0.41     0.04
  12      1.13913373    -0.44157260  -130.35970177    -0.00000017     0.00000042  0.15D-10  0.71D-11  6  6     0.44     0.04
  13      1.13913315    -0.44157260  -130.35970178    -0.00000001     0.00000012  0.63D-11  0.12D-11  6  1     0.47     0.04
  14      1.13913278    -0.44157262  -130.35970180    -0.00000002     0.00000007  0.89D-12  0.41D-12  6  2     0.50     0.04
  15      1.13913264    -0.44157262  -130.35970180    -0.00000000     0.00000001  0.22D-12  0.14D-12  6  3     0.54     0.04
  16      1.13913255    -0.44157262  -130.35970180    -0.00000000     0.00000001  0.24D-13  0.16D-13  6  5     0.58     0.04
  17      1.13913252    -0.44157263  -130.35970180    -0.00000000     0.00000000  0.72D-15  0.21D-14  6  4     0.61     0.04
  18      1.13913252    -0.44157263  -130.35970180     0.00000000    -0.00000000  0.48D-15  0.30D-15  6  1     0.64     0.04
  19      1.13913251    -0.44157263  -130.35970180    -0.00000000     0.00000000  0.46D-16  0.53D-16  6  6     0.68     0.04
  20      1.13913251    -0.44157263  -130.35970180    -0.00000000     0.00000000  0.10D-16  0.13D-16  6  2     0.72     0.04
  21      1.13913251    -0.44157263  -130.35970180    -0.00000000     0.00000000  0.17D-17  0.10D-17  6  5     0.75     0.04
  22      1.13913251    -0.44157263  -130.35970180    -0.00000000     0.00000000  0.10D-18  0.77D-19  6  3     0.78     0.04
  23      1.13913251    -0.44157263  -130.35970180     0.00000000    -0.00000000  0.29D-19  0.16D-19  6  4     0.82     0.04
  24      1.13913251    -0.44157263  -130.35970180     0.00000000    -0.00000000  0.43D-20  0.46D-20  6  1     0.85     0.04
  25      1.13913251    -0.44157263  -130.35970180     0.00000000    -0.00000000  0.52D-21  0.78D-21  6  6     0.88     0.04

 Norm of t1 vector:      0.07438417      S-energy:     0.00000000      T1 diagnostic:  0.01518361
                                                                       D1 diagnostic:  0.04209241

 Doubles amplitudes (print threshold =  0.500E-01):

         I         J         SYM. A    SYM. B    A         B      T(IJ, AB)

         6         6         2         2         1         1     -0.14304036


 Total CPU time for triples:      0.23 sec


 RESULTS
 =======

  Reference energy                   -129.918129174468
  CCSD singlet pair energy             -0.302662218468
  CCSD triplet pair energy             -0.138910408744
  CCSD correlation energy              -0.441572627211

  Triples (T) contribution             -0.019679428113
  Total correlation energy             -0.461252055324

  CCSD total energy                  -130.359701801680
  CCSD[T] energy                     -130.380384034275
  CCSD-T energy                      -130.378987719775
 !CCSD(T) total energy               -130.379381229793

 Timing summary (sec):

 STEP                 CPU(USER)    SYS     CPU(TOT)    WALL
 Transformation          0.02      0.02      0.04      0.04
 CCSD iterations         0.86      0.13      0.99      1.00
 Triples                 0.23      0.00      0.23      0.24

 Program statistics:

 Available memory in ccsd:               994999756
 Min. memory needed in ccsd:                154850
 Max. memory used in ccsd:                  184802
 Max. memory used in cckext:                238416 (25 integral passes)



 **********************************************************************************************************************************
 DATASETS  * FILE   NREC   LENGTH (MB)   RECORD NAMES
              1      24       40.41       500      610      700      900      950      970     1000      129      960     1700   
                                          VAR    BASINP    GEOM    SYMINP    ZMAT    AOBASIS   BASIS     P2S    ABASIS    OPER   
                                         1101     1401     1411     1412     1650     1100     1400     1410     1200     1210   
                                          SR      EKINR    POTR     PVPR    MOLCAS      S      EKIN      POT      H0       H01  
                                         1300     1080     1600     1380   
                                         ERIS     AOSYM     SMH     JKOP   

              2       4        2.85       700     1000      520     2100   
                                         GEOM     BASIS   MCVARS     RHF  

 PROGRAMS   *        TOTAL   CCSD(T)        HF       INT
 CPU TIMES  *         1.97      1.14      0.16      0.58
 REAL TIME  *         2.82 SEC
 DISK USED  *        75.75 MB      
 **********************************************************************************************************************************

 CCSD(T)/cc-pVTZ-DK energy=   -130.379381229793

        CCSD(T)         HF-SCF  
   -130.37938123   -129.91812917
 **********************************************************************************************************************************
 Molpro calculation terminated
 Variable memory released
