
 Primary working directories    : /tmp/r2666/235213.maple
 Secondary working directories  : /tmp/r2666/235213.maple
 Wavefunction directory         : /ddn/home4/r2666/wfu/
 Main file repository           : /tmp/r2666/235213.maple/

 SHA1      : d5ffa45e93fdbca01ffc919aa182cfdae0147319
 NAME      : 2015.1.35
 ARCHNAME  : linux/x86_64
 FC        : /opt/intel/composer_xe_2015.1.133/bin/intel64/ifort
 BLASLIB   : -Wl,-_start-group /opt/intel/mkl/lib/intel64/libmkl_intel_ilp64.a /opt/intel/mkl/lib/intel64/libmkl_intel_thread.a /opt/intel/mkl/lib/intel64/libmkl_core.a -Wl,-_end-group
 id        : olemiss

 Nodes     nprocs
 cn030        1

 Using customized tuning parameters: mindgm=1; mindgv=20; mindgc=4; mindgr=1; noblas=0; minvec=7
 default implementation of scratch files=df  

 ***,hno CCSD(T)/TZ-F12 QFF
 memory, 995, m;
 gthresh,energy=1.d-12,zero=1.d-22,oneint=1.d-22,twoint=1.d-22;
 gthresh,optgrad=1.d-8,optstep=1.d-8;
 nocompress;
 geomtyp=xyz
 bohr
 geometry={
 3
         68        68
 N        0.0000000000       -0.1697829235       -1.1648000114
 H        0.0000000000        1.6683818827       -1.9221098321
 O        0.0000000000        0.0431688307        1.1363202525
 }
 
 basis=vtz-dk
 dkroll=1
   {hf,maxit=500;accu,20;}
 {ccsd(t),nocheck,maxit=250;orbital,IGNORE_ERROR;}

 Variables initialized (889), CPU time= 0.01 sec
 Commands  initialized (702), CPU time= 0.00 sec, 572 directives.
 Default parameters read. Elapsed time= 0.04 sec

 Checking input...
 Passed
1


                                         ***  PROGRAM SYSTEM MOLPRO  ***
                                       Copyright, TTI GmbH Stuttgart, 2015
                                    Version 2015.1 linked Jul  9 2018 13:16:40


 **********************************************************************************************************************************
 LABEL *   hno CCSD(T)/TZ-F12 QFF                                                        
  64 bit serial version                                                                  DATE: 08-Feb-20          TIME: 17:57:20  
 **********************************************************************************************************************************

 SHA1:             d5ffa45e93fdbca01ffc919aa182cfdae0147319
 **********************************************************************************************************************************

 THRESHOLDS:

 ZERO    =  1.00D-22  ONEINT  =  1.00D-22  TWOINT  =  1.00D-22  PREFAC  =  1.00D-14  LOCALI  =  1.00D-09  EORDER  =  1.00D-04
 ENERGY  =  1.00D-12  ETEST   =  0.00D+00  EDENS   =  0.00D+00  THRDEDEF=  1.00D-06  GRADIENT=  1.00D-02  STEP    =  1.00D-03
 ORBITAL =  1.00D-05  CIVEC   =  1.00D-05  COEFF   =  1.00D-04  PRINTCI =  5.00D-02  PUNCHCI =  9.90D+01  OPTGRAD =  3.00D-04
 OPTENERG=  1.00D-06  OPTSTEP =  3.00D-04  THRGRAD =  1.00D-10  COMPRESS=  1.00D-11  VARMIN  =  1.00D-07  VARMAX  =  1.00D-03
 THRDOUB =  0.00D+00  THRDIV  =  1.00D-05  THRRED  =  1.00D-07  THRPSP  =  1.00D+00  THRDC   =  1.00D-10  THRCS   =  1.00D-10
 THRNRM  =  1.00D-08  THREQ   =  0.00D+00  THRDE   =  1.00D+00  THRREF  =  1.00D-05  SPARFAC =  1.00D+00  THRDLP  =  1.00D-07
 THRDIA  =  1.00D-10  THRDLS  =  1.00D-07  THRGPS  =  0.00D+00  THRKEX  =  0.00D+00  THRDIS  =  2.00D-01  THRVAR  =  1.00D-10
 THRLOC  =  1.00D-06  THRGAP  =  1.00D-06  THRLOCT = -1.00D+00  THRGAPT = -1.00D+00  THRORB  =  1.00D-06  THRMLTP =  0.00D+00
 THRCPQCI=  1.00D-10  KEXTA   =  0.00D+00  THRCOARS=  0.00D+00  SYMTOL  =  1.00D-06  GRADTOL =  1.00D-06  THROVL  =  1.00D-08
 THRORTH =  1.00D-08  GRID    =  1.00D-06  GRIDMAX =  1.00D-03  DTMAX   =  0.00D+00  THROCCDE=  1.00D-01  THROCCDE=  1.00D-01



 THRESHOLDS:

 ZERO    =  1.00D-22  ONEINT  =  1.00D-22  TWOINT  =  1.00D-22  PREFAC  =  1.00D-14  LOCALI  =  1.00D-09  EORDER  =  1.00D-04
 ENERGY  =  1.00D-12  ETEST   =  0.00D+00  EDENS   =  0.00D+00  THRDEDEF=  1.00D-06  GRADIENT=  1.00D-02  STEP    =  1.00D-03
 ORBITAL =  1.00D-05  CIVEC   =  1.00D-05  COEFF   =  1.00D-04  PRINTCI =  5.00D-02  PUNCHCI =  9.90D+01  OPTGRAD =  1.00D-08
 OPTENERG=  1.00D-06  OPTSTEP =  1.00D-08  THRGRAD =  1.00D-10  COMPRESS=  1.00D-11  VARMIN  =  1.00D-07  VARMAX  =  1.00D-03
 THRDOUB =  0.00D+00  THRDIV  =  1.00D-05  THRRED  =  1.00D-07  THRPSP  =  1.00D+00  THRDC   =  1.00D-10  THRCS   =  1.00D-10
 THRNRM  =  1.00D-08  THREQ   =  0.00D+00  THRDE   =  1.00D+00  THRREF  =  1.00D-05  SPARFAC =  1.00D+00  THRDLP  =  1.00D-07
 THRDIA  =  1.00D-10  THRDLS  =  1.00D-07  THRGPS  =  0.00D+00  THRKEX  =  0.00D+00  THRDIS  =  2.00D-01  THRVAR  =  1.00D-10
 THRLOC  =  1.00D-06  THRGAP  =  1.00D-06  THRLOCT = -1.00D+00  THRGAPT = -1.00D+00  THRORB  =  1.00D-06  THRMLTP =  0.00D+00
 THRCPQCI=  1.00D-10  KEXTA   =  0.00D+00  THRCOARS=  0.00D+00  SYMTOL  =  1.00D-06  GRADTOL =  1.00D-06  THROVL  =  1.00D-08
 THRORTH =  1.00D-08  GRID    =  1.00D-06  GRIDMAX =  1.00D-03  DTMAX   =  0.00D+00  THROCCDE=  1.00D-01  THROCCDE=  1.00D-01



 Input parameters for SORTINT:

 COMPRESS =    0.000000
 C_FINAL  =    1.000000
 DEBUG    =   -1.000000
 C_SORT1  =    0.000000
 C_SEWARD =    0.000000
 THRESH   =    0.000000
 IO       =  molpro                                                          
 SPRI     =    0.000000
 SETTING GEOMTYP        =    XYZ
 ZUNIT=BOHR
 

 Variable memory set to  995000000 words,  buffer space   230000 words

 SETTING BASIS          =    VTZ-DK
 SETTING DKROLL         =         1.00000000                                  


 Recomputing integrals since basis changed


 Using spherical harmonics

 Library entry N      S cc-pVTZ-DK           selected for orbital group  1
 Library entry N      P cc-pVTZ-DK           selected for orbital group  1
 Library entry N      D cc-pVTZ-DK           selected for orbital group  1
 Library entry N      F cc-pVTZ-DK           selected for orbital group  1
 Library entry H      S cc-pVTZ-DK           selected for orbital group  2
 Library entry H      P cc-pVTZ-DK           selected for orbital group  2
 Library entry H      D cc-pVTZ-DK           selected for orbital group  2
 Library entry O      S cc-pVTZ-DK           selected for orbital group  3
 Library entry O      P cc-pVTZ-DK           selected for orbital group  3
 Library entry O      D cc-pVTZ-DK           selected for orbital group  3
 Library entry O      F cc-pVTZ-DK           selected for orbital group  3


 PROGRAM * SEWARD (Integral evaluation for generally contracted gaussian basis sets)     Author: Roland Lindh, 1990

 Geometry written to block  1 of record 700


 Point group  Cs  



 ATOMIC COORDINATES

 NR  ATOM    CHARGE       X              Y              Z

   1  N       7.00    0.000000000   -0.169782923   -1.164800011
   2  H       1.00    0.000000000    1.668381883   -1.922109832
   3  O       8.00    0.000000000    0.043168831    1.136320253

 Bond lengths in Bohr (Angstrom)

 1-2  1.988056342  1-3  2.310952816
     ( 1.052034110)     ( 1.222903566)

 Bond angles

  2-1-3  107.10404219

 NUCLEAR CHARGE:                   16
 NUMBER OF PRIMITIVE AOS:         111
 NUMBER OF SYMMETRY AOS:          100
 NUMBER OF CONTRACTIONS:           74   (  50A'  +  24A"  )
 NUMBER OF CORE ORBITALS:           2   (   2A'  +   0A"  )
 NUMBER OF VALENCE ORBITALS:        9   (   7A'  +   2A"  )


 NUCLEAR REPULSION ENERGY   30.06330826

 One-electron integrals computed with SEWARD

 2nd-order Douglas-Kroll-Hess method activated. Optimal DKH parametrization is used.

 Computing Douglas-Kroll / X2C integrals


        1874283. INTEGRALS WRITTEN OUT IN     458 BLOCKS ON RECORD 1290 OF FILE 1


 NUMBER OF SORTED TWO-ELECTRON INTEGRALS:    2006100.     BUFFER LENGTH:  32768
 NUMBER OF SEGMENTS:   1  SEGMENT LENGTH:    2006100      RECORD LENGTH: 524288

 Memory used in sort:       2.56 MW

 SORT1 READ     1874283. AND WROTE     1914195. INTEGRALS IN      6 RECORDS. CPU TIME:     0.04 SEC, REAL TIME:     0.06 SEC
 SORT2 READ     1914195. AND WROTE     2006100. INTEGRALS IN      1 RECORDS. CPU TIME:     0.06 SEC, REAL TIME:     0.08 SEC

 FILE SIZES:   FILE 1:    50.2 MBYTE,  FILE 4:    25.2 MBYTE,   TOTAL:     75.4 MBYTE

 OPERATOR DM      FOR CENTER  0  COORDINATES:    0.000000    0.000000    0.000000

 Eigenvalues of metric

         1 0.250E-02 0.401E-02 0.440E-02 0.842E-02 0.130E-01 0.336E-01 0.433E-01 0.466E-01
         2 0.349E-01 0.467E-01 0.103E+00 0.114E+00 0.239E+00 0.342E+00 0.400E+00 0.454E+00


 **********************************************************************************************************************************
 DATASETS  * FILE   NREC   LENGTH (MB)   RECORD NAMES
              1      23       36.03       500      610      700      900      950      970     1000      129      960     1700   
                                          VAR    BASINP    GEOM    SYMINP    ZMAT    AOBASIS   BASIS     P2S    ABASIS    OPER   
                                         1101     1401     1411     1412     1650     1100     1400     1410     1200     1210   
                                          SR      EKINR    POTR     PVPR    MOLCAS      S      EKIN      POT      H0       H01  
                                         1300     1080     1600   
                                         ERIS     AOSYM     SMH  

 PROGRAMS   *        TOTAL       INT
 CPU TIMES  *         0.70      0.61
 REAL TIME  *         1.41 SEC
 DISK USED  *        75.75 MB      
 **********************************************************************************************************************************


 PROGRAM * RHF-SCF (CLOSED SHELL)       Authors: W. Meyer, H.-J. Werner


 NUMBER OF ELECTRONS:       8+    8-
 CONVERGENCE THRESHOLDS:    1.00E-10 (Density)    1.00E-13 (Energy)
 MAX. NUMBER OF ITERATIONS:      500
 INTERPOLATION TYPE:            DIIS
 INTERPOLATION STEPS:              2 (START)      1 (STEP)
 LEVEL SHIFTS:                  0.00 (CLOSED)  0.00 (OPEN) 



 Orbital guess generated from atomic densities. Full valence occupancy:    9   2

 Molecular orbital dump at record        2100.2

 Initial occupancy:   7   1

 ITERATION    DDIFF          GRAD             ENERGY        2-EL.EN.            DIPOLE MOMENTS         DIIS   ORB.
    1      0.000D+00      0.000D+00      -129.86286345    153.681668    0.00000    0.58718   -1.08555    0    start
    2      0.000D+00      0.138D-01      -129.88905028    154.758002    0.00000    0.62545   -0.20623    1    diag
    3      0.192D-01      0.110D-01      -129.91421620    154.920664    0.00000    0.56605   -0.61699    2    diag
    4      0.944D-02      0.157D-02      -129.91497549    154.645648    0.00000    0.57476   -0.55568    3    diag
    5      0.168D-02      0.527D-03      -129.91509561    154.732227    0.00000    0.58005   -0.55633    4    diag
    6      0.734D-03      0.158D-03      -129.91511570    154.716991    0.00000    0.58049   -0.55186    5    diag
    7      0.285D-03      0.803D-04      -129.91512191    154.719115    0.00000    0.58167   -0.54912    6    diag
    8      0.201D-03      0.270D-04      -129.91512259    154.718346    0.00000    0.58167   -0.54819    7    diag
    9      0.742D-04      0.493D-05      -129.91512262    154.718215    0.00000    0.58162   -0.54801    8    diag
   10      0.145D-04      0.104D-05      -129.91512262    154.718198    0.00000    0.58158   -0.54799    9    orth
   11      0.291D-05      0.205D-06      -129.91512262    154.718194    0.00000    0.58158   -0.54799    9    diag
   12      0.527D-06      0.451D-07      -129.91512262    154.718192    0.00000    0.58157   -0.54799    9    diag
   13      0.119D-06      0.118D-07      -129.91512262    154.718192    0.00000    0.58157   -0.54799    9    diag
   14      0.307D-07      0.212D-08      -129.91512262    154.718192    0.00000    0.58157   -0.54799    9    diag
   15      0.449D-08      0.546D-09      -129.91512262    154.718192    0.00000    0.58157   -0.54799    9    diag
   16      0.116D-08      0.139D-09      -129.91512262    154.718192    0.00000    0.58157   -0.54799    9    diag
   17      0.204D-09      0.416D-10      -129.91512262    154.718192    0.00000    0.58157   -0.54799    9    diag
   18      0.693D-10      0.147D-10      -129.91512262    154.718192    0.00000    0.58157   -0.54799    9    diag
   19      0.320D-10      0.301D-11      -129.91512262    154.718192    0.00000    0.58157   -0.54799    9    fixocc
   20      0.818D-11      0.589D-12      -129.91512262    154.718192    0.00000    0.58157   -0.54799    9    orth
   21      0.151D-11      0.162D-12      -129.91512262    154.718192    0.00000    0.58157   -0.54799    0    orth

 Final occupancy:   7   1

 !RHF STATE 1.1 Energy               -129.915122616170
 Nuclear energy                        30.06330826
 One-electron energy                 -237.33752691
 Two-electron energy                   77.35909603
 Virial quotient                       -0.99795884
 !RHF STATE 1.1 Dipole moment           0.00000000     0.58157427    -0.54798562
 Dipole moment /Debye                   0.00000000     1.47811754    -1.39274929

 Orbital energies:

         1.1          2.1          3.1          4.1          5.1          6.1          7.1          8.1          9.1
    -20.666225   -15.719602    -1.515934    -0.995022    -0.738578    -0.657313    -0.431947     0.143418     0.367193

         1.2          2.2          3.2
     -0.585048     0.081077     0.614596

 HOMO      7.1    -0.431947 =     -11.7539eV
 LUMO      2.2     0.081077 =       2.2062eV
 LUMO-HOMO         0.513024 =      13.9601eV


 **********************************************************************************************************************************
 DATASETS  * FILE   NREC   LENGTH (MB)   RECORD NAMES
              1      23       36.03       500      610      700      900      950      970     1000      129      960     1700   
                                          VAR    BASINP    GEOM    SYMINP    ZMAT    AOBASIS   BASIS     P2S    ABASIS    OPER   
                                         1101     1401     1411     1412     1650     1100     1400     1410     1200     1210   
                                          SR      EKINR    POTR     PVPR    MOLCAS      S      EKIN      POT      H0       H01  
                                         1300     1080     1600   
                                         ERIS     AOSYM     SMH  

              2       4        2.85       700     1000      520     2100   
                                         GEOM     BASIS   MCVARS     RHF  

 PROGRAMS   *        TOTAL        HF       INT
 CPU TIMES  *         0.98      0.28      0.61
 REAL TIME  *         1.74 SEC
 DISK USED  *        75.75 MB      
 **********************************************************************************************************************************


 PROGRAM * CCSD (Closed-shell coupled cluster)     Authors: C. Hampel, H.-J. Werner, 1991, M. Deegan, P.J. Knowles, 1992


 Convergence thresholds:  THRVAR = 1.00D-08  THRDEN = 1.00D-12

 CCSD(T)     terms to be evaluated (factor= 1.000)


 Number of core orbitals:           2 (   2   0 )
 Number of closed-shell orbitals:   6 (   5   1 )
 Number of external orbitals:      66 (  43  23 )

 Molecular orbitals read from record     2100.2  Type=RHF/CANONICAL (state 1.1)

 Number of N-1 electron functions:               6
 Number of N-2 electron functions:              21
 Number of singly external CSFs:               238
 Number of doubly external CSFs:             41002
 Total number of CSFs:                       41241

 Length of J-op  integral file:               0.00 MB
 Length of K-op  integral file:               0.25 MB
 Length of 3-ext integral record:             0.00 MB

 Memory could be reduced to 1.65 Mwords without degradation in triples

 Integral transformation finished. Total CPU:   0.03 sec, npass=  1  Memory used:   0.55 MW

 Reference energy:                   -129.91512262

 MP2 singlet pair energy:              -0.27537123
 MP2 triplet pair energy:              -0.16364350
 MP2 correlation energy:               -0.43901473
 MP2 total energy:                   -130.35413735

 SCS-MP2 correlation energy:           -0.43226810   (PS=  1.200000  PT=  0.333333)
 SCS-MP2 total energy:               -130.34739072

 ITER.      SQ.NORM     CORR.ENERGY   TOTAL ENERGY   ENERGY CHANGE        DEN1      VAR(S)    VAR(P)  DIIS     TIME  TIME/IT
   1      1.12007238    -0.44350007  -130.35862269    -0.00448534     0.01192605  0.31D-02  0.32D-02  1  1     0.09     0.05
   2      1.13127684    -0.44363399  -130.35875661    -0.00013392    -0.01264641  0.96D-04  0.53D-03  2  2     0.13     0.06
   3      1.13785504    -0.44403991  -130.35916252    -0.00040592    -0.00307908  0.50D-04  0.54D-04  3  3     0.18     0.05
   4      1.14082806    -0.44406861  -130.35919123    -0.00002870    -0.00100465  0.43D-05  0.94D-05  4  4     0.22     0.05
   5      1.14190038    -0.44410065  -130.35922327    -0.00003204    -0.00022259  0.14D-05  0.17D-05  5  5     0.27     0.05
   6      1.14227467    -0.44408227  -130.35920489     0.00001838    -0.00004338  0.97D-07  0.41D-06  6  6     0.32     0.05
   7      1.14235735    -0.44408462  -130.35920723    -0.00000234    -0.00000133  0.11D-07  0.91D-07  6  1     0.37     0.05
   8      1.14238770    -0.44408438  -130.35920700     0.00000024     0.00000198  0.44D-08  0.11D-07  6  2     0.42     0.05
   9      1.14239571    -0.44408419  -130.35920680     0.00000019    -0.00000234  0.25D-08  0.13D-08  6  3     0.48     0.05
  10      1.14239441    -0.44408470  -130.35920732    -0.00000052     0.00000069  0.49D-09  0.22D-09  6  4     0.53     0.05
  11      1.14239274    -0.44408476  -130.35920738    -0.00000006     0.00000013  0.15D-09  0.24D-10  6  5     0.58     0.05
  12      1.14239134    -0.44408495  -130.35920756    -0.00000019     0.00000044  0.14D-10  0.74D-11  6  6     0.62     0.05
  13      1.14239074    -0.44408495  -130.35920757    -0.00000001     0.00000012  0.62D-11  0.12D-11  6  1     0.67     0.05
  14      1.14239035    -0.44408497  -130.35920759    -0.00000002     0.00000008  0.90D-12  0.43D-12  6  2     0.73     0.05
  15      1.14239019    -0.44408498  -130.35920759    -0.00000000     0.00000002  0.24D-12  0.13D-12  6  3     0.77     0.05
  16      1.14239008    -0.44408498  -130.35920760    -0.00000000     0.00000002  0.78D-14  0.34D-13  6  1     0.82     0.05
  17      1.14239006    -0.44408498  -130.35920760     0.00000000    -0.00000000  0.24D-14  0.22D-14  6  4     0.87     0.05
  18      1.14239005    -0.44408498  -130.35920760    -0.00000000     0.00000000  0.62D-15  0.36D-15  6  5     0.92     0.05
  19      1.14239006    -0.44408498  -130.35920760     0.00000000    -0.00000000  0.13D-15  0.71D-16  6  6     0.97     0.05
  20      1.14239005    -0.44408498  -130.35920760    -0.00000000     0.00000000  0.21D-16  0.19D-16  6  2     1.01     0.05
  21      1.14239005    -0.44408498  -130.35920760    -0.00000000     0.00000000  0.59D-18  0.13D-17  6  4     1.06     0.05
  22      1.14239005    -0.44408498  -130.35920760    -0.00000000     0.00000000  0.80D-19  0.14D-18  6  3     1.11     0.05
  23      1.14239005    -0.44408498  -130.35920760    -0.00000000     0.00000000  0.77D-20  0.15D-19  6  1     1.16     0.05
  24      1.14239005    -0.44408498  -130.35920760     0.00000000     0.00000000  0.39D-20  0.21D-20  6  6     1.21     0.05
  25      1.14239005    -0.44408498  -130.35920760     0.00000000     0.00000000  0.47D-21  0.47D-21  6  5     1.26     0.05

 Norm of t1 vector:      0.07712709      S-energy:    -0.00000000      T1 diagnostic:  0.01574350
                                                                       D1 diagnostic:  0.04432542

 Doubles amplitudes (print threshold =  0.500E-01):

         I         J         SYM. A    SYM. B    A         B      T(IJ, AB)

         6         6         2         2         1         1     -0.14790342


 Total CPU time for triples:      0.35 sec


 RESULTS
 =======

  Reference energy                   -129.915122616170
  CCSD singlet pair energy             -0.304847388622
  CCSD triplet pair energy             -0.139237591885
  CCSD correlation energy              -0.444084980507

  Triples (T) contribution             -0.020241220541
  Total correlation energy             -0.464326201048

  CCSD total energy                  -130.359207596677
  CCSD[T] energy                     -130.380527272526
  CCSD-T energy                      -130.379036278243
 !CCSD(T) total energy               -130.379448817218

 Timing summary (sec):

 STEP                 CPU(USER)    SYS     CPU(TOT)    WALL
 Transformation          0.03      0.01      0.04      0.05
 CCSD iterations         1.23      0.14      1.37      1.37
 Triples                 0.35      0.01      0.36      0.35

 Program statistics:

 Available memory in ccsd:               994999756
 Min. memory needed in ccsd:                154850
 Max. memory used in ccsd:                  184802
 Max. memory used in cckext:                238416 (25 integral passes)



 **********************************************************************************************************************************
 DATASETS  * FILE   NREC   LENGTH (MB)   RECORD NAMES
              1      24       40.41       500      610      700      900      950      970     1000      129      960     1700   
                                          VAR    BASINP    GEOM    SYMINP    ZMAT    AOBASIS   BASIS     P2S    ABASIS    OPER   
                                         1101     1401     1411     1412     1650     1100     1400     1410     1200     1210   
                                          SR      EKINR    POTR     PVPR    MOLCAS      S      EKIN      POT      H0       H01  
                                         1300     1080     1600     1380   
                                         ERIS     AOSYM     SMH     JKOP   

              2       4        2.85       700     1000      520     2100   
                                         GEOM     BASIS   MCVARS     RHF  

 PROGRAMS   *        TOTAL   CCSD(T)        HF       INT
 CPU TIMES  *         2.60      1.62      0.28      0.61
 REAL TIME  *         3.68 SEC
 DISK USED  *        75.75 MB      
 **********************************************************************************************************************************

 CCSD(T)/cc-pVTZ-DK energy=   -130.379448817218

        CCSD(T)         HF-SCF  
   -130.37944882   -129.91512262
 **********************************************************************************************************************************
 Molpro calculation terminated
 Variable memory released
