
 Primary working directories    : /tmp/r2666/235238.maple
 Secondary working directories  : /tmp/r2666/235238.maple
 Wavefunction directory         : /ddn/home4/r2666/wfu/
 Main file repository           : /tmp/r2666/235238.maple/

 SHA1      : d5ffa45e93fdbca01ffc919aa182cfdae0147319
 NAME      : 2015.1.35
 ARCHNAME  : linux/x86_64
 FC        : /opt/intel/composer_xe_2015.1.133/bin/intel64/ifort
 BLASLIB   : -Wl,-_start-group /opt/intel/mkl/lib/intel64/libmkl_intel_ilp64.a /opt/intel/mkl/lib/intel64/libmkl_intel_thread.a /opt/intel/mkl/lib/intel64/libmkl_core.a -Wl,-_end-group
 id        : olemiss

 Nodes     nprocs
 cn088        1

 Using customized tuning parameters: mindgm=1; mindgv=20; mindgc=4; mindgr=1; noblas=0; minvec=7
 default implementation of scratch files=df  

 ***,hno CCSD(T)/TZ-F12 QFF
 memory, 995, m;
 gthresh,energy=1.d-12,zero=1.d-22,oneint=1.d-22,twoint=1.d-22;
 gthresh,optgrad=1.d-8,optstep=1.d-8;
 nocompress;
 geomtyp=xyz
 bohr
 geometry={
 3
         93        93
 N        0.0000000000       -0.1705881630       -1.1492067094
 H        0.0000000000        1.6707368249       -1.9235118187
 O        0.0000000000        0.0416191281        1.1221289370
 }
 
 basis=vtz-dk
 dkroll=1
   {hf,maxit=500;accu,20;}
 {ccsd(t),nocheck,maxit=250;orbital,IGNORE_ERROR;}

 Variables initialized (889), CPU time= 0.00 sec
 Commands  initialized (702), CPU time= 0.01 sec, 572 directives.
 Default parameters read. Elapsed time= 0.05 sec

 Checking input...
 Passed
1


                                         ***  PROGRAM SYSTEM MOLPRO  ***
                                       Copyright, TTI GmbH Stuttgart, 2015
                                    Version 2015.1 linked Jul  9 2018 13:16:40


 **********************************************************************************************************************************
 LABEL *   hno CCSD(T)/TZ-F12 QFF                                                        
  64 bit serial version                                                                  DATE: 08-Feb-20          TIME: 17:57:23  
 **********************************************************************************************************************************

 SHA1:             d5ffa45e93fdbca01ffc919aa182cfdae0147319
 **********************************************************************************************************************************

 THRESHOLDS:

 ZERO    =  1.00D-22  ONEINT  =  1.00D-22  TWOINT  =  1.00D-22  PREFAC  =  1.00D-14  LOCALI  =  1.00D-09  EORDER  =  1.00D-04
 ENERGY  =  1.00D-12  ETEST   =  0.00D+00  EDENS   =  0.00D+00  THRDEDEF=  1.00D-06  GRADIENT=  1.00D-02  STEP    =  1.00D-03
 ORBITAL =  1.00D-05  CIVEC   =  1.00D-05  COEFF   =  1.00D-04  PRINTCI =  5.00D-02  PUNCHCI =  9.90D+01  OPTGRAD =  3.00D-04
 OPTENERG=  1.00D-06  OPTSTEP =  3.00D-04  THRGRAD =  1.00D-10  COMPRESS=  1.00D-11  VARMIN  =  1.00D-07  VARMAX  =  1.00D-03
 THRDOUB =  0.00D+00  THRDIV  =  1.00D-05  THRRED  =  1.00D-07  THRPSP  =  1.00D+00  THRDC   =  1.00D-10  THRCS   =  1.00D-10
 THRNRM  =  1.00D-08  THREQ   =  0.00D+00  THRDE   =  1.00D+00  THRREF  =  1.00D-05  SPARFAC =  1.00D+00  THRDLP  =  1.00D-07
 THRDIA  =  1.00D-10  THRDLS  =  1.00D-07  THRGPS  =  0.00D+00  THRKEX  =  0.00D+00  THRDIS  =  2.00D-01  THRVAR  =  1.00D-10
 THRLOC  =  1.00D-06  THRGAP  =  1.00D-06  THRLOCT = -1.00D+00  THRGAPT = -1.00D+00  THRORB  =  1.00D-06  THRMLTP =  0.00D+00
 THRCPQCI=  1.00D-10  KEXTA   =  0.00D+00  THRCOARS=  0.00D+00  SYMTOL  =  1.00D-06  GRADTOL =  1.00D-06  THROVL  =  1.00D-08
 THRORTH =  1.00D-08  GRID    =  1.00D-06  GRIDMAX =  1.00D-03  DTMAX   =  0.00D+00  THROCCDE=  1.00D-01  THROCCDE=  1.00D-01



 THRESHOLDS:

 ZERO    =  1.00D-22  ONEINT  =  1.00D-22  TWOINT  =  1.00D-22  PREFAC  =  1.00D-14  LOCALI  =  1.00D-09  EORDER  =  1.00D-04
 ENERGY  =  1.00D-12  ETEST   =  0.00D+00  EDENS   =  0.00D+00  THRDEDEF=  1.00D-06  GRADIENT=  1.00D-02  STEP    =  1.00D-03
 ORBITAL =  1.00D-05  CIVEC   =  1.00D-05  COEFF   =  1.00D-04  PRINTCI =  5.00D-02  PUNCHCI =  9.90D+01  OPTGRAD =  1.00D-08
 OPTENERG=  1.00D-06  OPTSTEP =  1.00D-08  THRGRAD =  1.00D-10  COMPRESS=  1.00D-11  VARMIN  =  1.00D-07  VARMAX  =  1.00D-03
 THRDOUB =  0.00D+00  THRDIV  =  1.00D-05  THRRED  =  1.00D-07  THRPSP  =  1.00D+00  THRDC   =  1.00D-10  THRCS   =  1.00D-10
 THRNRM  =  1.00D-08  THREQ   =  0.00D+00  THRDE   =  1.00D+00  THRREF  =  1.00D-05  SPARFAC =  1.00D+00  THRDLP  =  1.00D-07
 THRDIA  =  1.00D-10  THRDLS  =  1.00D-07  THRGPS  =  0.00D+00  THRKEX  =  0.00D+00  THRDIS  =  2.00D-01  THRVAR  =  1.00D-10
 THRLOC  =  1.00D-06  THRGAP  =  1.00D-06  THRLOCT = -1.00D+00  THRGAPT = -1.00D+00  THRORB  =  1.00D-06  THRMLTP =  0.00D+00
 THRCPQCI=  1.00D-10  KEXTA   =  0.00D+00  THRCOARS=  0.00D+00  SYMTOL  =  1.00D-06  GRADTOL =  1.00D-06  THROVL  =  1.00D-08
 THRORTH =  1.00D-08  GRID    =  1.00D-06  GRIDMAX =  1.00D-03  DTMAX   =  0.00D+00  THROCCDE=  1.00D-01  THROCCDE=  1.00D-01



 Input parameters for SORTINT:

 COMPRESS =    0.000000
 C_FINAL  =    1.000000
 DEBUG    =   -1.000000
 C_SORT1  =    0.000000
 C_SEWARD =    0.000000
 THRESH   =    0.000000
 IO       =  molpro                                                          
 SPRI     =    0.000000
 SETTING GEOMTYP        =    XYZ
 ZUNIT=BOHR
 

 Variable memory set to  995000000 words,  buffer space   230000 words

 SETTING BASIS          =    VTZ-DK
 SETTING DKROLL         =         1.00000000                                  


 Recomputing integrals since basis changed


 Using spherical harmonics

 Library entry N      S cc-pVTZ-DK           selected for orbital group  1
 Library entry N      P cc-pVTZ-DK           selected for orbital group  1
 Library entry N      D cc-pVTZ-DK           selected for orbital group  1
 Library entry N      F cc-pVTZ-DK           selected for orbital group  1
 Library entry H      S cc-pVTZ-DK           selected for orbital group  2
 Library entry H      P cc-pVTZ-DK           selected for orbital group  2
 Library entry H      D cc-pVTZ-DK           selected for orbital group  2
 Library entry O      S cc-pVTZ-DK           selected for orbital group  3
 Library entry O      P cc-pVTZ-DK           selected for orbital group  3
 Library entry O      D cc-pVTZ-DK           selected for orbital group  3
 Library entry O      F cc-pVTZ-DK           selected for orbital group  3


 PROGRAM * SEWARD (Integral evaluation for generally contracted gaussian basis sets)     Author: Roland Lindh, 1990

 Geometry written to block  1 of record 700


 Point group  Cs  



 ATOMIC COORDINATES

 NR  ATOM    CHARGE       X              Y              Z

   1  N       7.00    0.000000000   -0.170588163   -1.149206709
   2  H       1.00    0.000000000    1.670736825   -1.923511819
   3  O       8.00    0.000000000    0.041619128    1.122128937

 Bond lengths in Bohr (Angstrom)

 1-2  1.997504972  1-3  2.281227203
     ( 1.057034110)     ( 1.207173449)

 Bond angles

  2-1-3  107.46993302

 NUCLEAR CHARGE:                   16
 NUMBER OF PRIMITIVE AOS:         111
 NUMBER OF SYMMETRY AOS:          100
 NUMBER OF CONTRACTIONS:           74   (  50A'  +  24A"  )
 NUMBER OF CORE ORBITALS:           2   (   2A'  +   0A"  )
 NUMBER OF VALENCE ORBITALS:        9   (   7A'  +   2A"  )


 NUCLEAR REPULSION ENERGY   30.36873336

 One-electron integrals computed with SEWARD

 2nd-order Douglas-Kroll-Hess method activated. Optimal DKH parametrization is used.

 Computing Douglas-Kroll / X2C integrals


        1874283. INTEGRALS WRITTEN OUT IN     458 BLOCKS ON RECORD 1290 OF FILE 1


 NUMBER OF SORTED TWO-ELECTRON INTEGRALS:    2006100.     BUFFER LENGTH:  32768
 NUMBER OF SEGMENTS:   1  SEGMENT LENGTH:    2006100      RECORD LENGTH: 524288

 Memory used in sort:       2.56 MW

 SORT1 READ     1874283. AND WROTE     1914195. INTEGRALS IN      6 RECORDS. CPU TIME:     0.03 SEC, REAL TIME:     0.04 SEC
 SORT2 READ     1914195. AND WROTE     2006100. INTEGRALS IN      1 RECORDS. CPU TIME:     0.03 SEC, REAL TIME:     0.06 SEC

 FILE SIZES:   FILE 1:    50.2 MBYTE,  FILE 4:    25.2 MBYTE,   TOTAL:     75.4 MBYTE

 OPERATOR DM      FOR CENTER  0  COORDINATES:    0.000000    0.000000    0.000000

 Eigenvalues of metric

         1 0.246E-02 0.399E-02 0.415E-02 0.843E-02 0.131E-01 0.328E-01 0.425E-01 0.465E-01
         2 0.343E-01 0.466E-01 0.102E+00 0.113E+00 0.235E+00 0.343E+00 0.396E+00 0.450E+00


 **********************************************************************************************************************************
 DATASETS  * FILE   NREC   LENGTH (MB)   RECORD NAMES
              1      23       36.03       500      610      700      900      950      970     1000      129      960     1700   
                                          VAR    BASINP    GEOM    SYMINP    ZMAT    AOBASIS   BASIS     P2S    ABASIS    OPER   
                                         1101     1401     1411     1412     1650     1100     1400     1410     1200     1210   
                                          SR      EKINR    POTR     PVPR    MOLCAS      S      EKIN      POT      H0       H01  
                                         1300     1080     1600   
                                         ERIS     AOSYM     SMH  

 PROGRAMS   *        TOTAL       INT
 CPU TIMES  *         0.63      0.54
 REAL TIME  *         1.31 SEC
 DISK USED  *        75.75 MB      
 **********************************************************************************************************************************


 PROGRAM * RHF-SCF (CLOSED SHELL)       Authors: W. Meyer, H.-J. Werner


 NUMBER OF ELECTRONS:       8+    8-
 CONVERGENCE THRESHOLDS:    1.00E-10 (Density)    1.00E-13 (Energy)
 MAX. NUMBER OF ITERATIONS:      500
 INTERPOLATION TYPE:            DIIS
 INTERPOLATION STEPS:              2 (START)      1 (STEP)
 LEVEL SHIFTS:                  0.00 (CLOSED)  0.00 (OPEN) 



 Orbital guess generated from atomic densities. Full valence occupancy:    9   2

 Molecular orbital dump at record        2100.2

 Initial occupancy:   7   1

 ITERATION    DDIFF          GRAD             ENERGY        2-EL.EN.            DIPOLE MOMENTS         DIIS   ORB.
    1      0.000D+00      0.000D+00      -129.86726429    154.223936    0.00000    0.58055   -1.03689    0    start
    2      0.000D+00      0.136D-01      -129.89402497    155.338660    0.00000    0.61414   -0.21581    1    diag
    3      0.186D-01      0.104D-01      -129.91661639    155.466518    0.00000    0.55805   -0.59609    2    diag
    4      0.905D-02      0.155D-02      -129.91734996    155.201086    0.00000    0.56683   -0.53711    3    diag
    5      0.165D-02      0.516D-03      -129.91746536    155.286813    0.00000    0.57220   -0.53810    4    diag
    6      0.719D-03      0.155D-03      -129.91748458    155.271755    0.00000    0.57272   -0.53390    5    diag
    7      0.280D-03      0.773D-04      -129.91749022    155.274070    0.00000    0.57395   -0.53138    6    diag
    8      0.194D-03      0.248D-04      -129.91749076    155.273373    0.00000    0.57396   -0.53056    7    diag
    9      0.656D-04      0.450D-05      -129.91749078    155.273257    0.00000    0.57392   -0.53041    8    diag
   10      0.127D-04      0.987D-06      -129.91749078    155.273239    0.00000    0.57388   -0.53038    9    orth
   11      0.278D-05      0.194D-06      -129.91749078    155.273235    0.00000    0.57387   -0.53038    9    diag
   12      0.512D-06      0.408D-07      -129.91749078    155.273233    0.00000    0.57387   -0.53038    9    diag
   13      0.113D-06      0.102D-07      -129.91749078    155.273233    0.00000    0.57387   -0.53038    9    diag
   14      0.283D-07      0.183D-08      -129.91749078    155.273233    0.00000    0.57387   -0.53038    9    diag
   15      0.449D-08      0.471D-09      -129.91749078    155.273233    0.00000    0.57387   -0.53038    9    diag
   16      0.107D-08      0.114D-09      -129.91749078    155.273233    0.00000    0.57387   -0.53038    9    diag
   17      0.188D-09      0.325D-10      -129.91749078    155.273233    0.00000    0.57387   -0.53038    9    diag
   18      0.572D-10      0.108D-10      -129.91749078    155.273233    0.00000    0.57387   -0.53038    9    diag
   19      0.250D-10      0.232D-11      -129.91749078    155.273233    0.00000    0.57387   -0.53038    0    orth

 Final occupancy:   7   1

 !RHF STATE 1.1 Energy               -129.917490781321
 Nuclear energy                        30.36873336
 One-electron energy                 -237.92284066
 Two-electron energy                   77.63661652
 Virial quotient                       -0.99757211
 !RHF STATE 1.1 Dipole moment           0.00000000     0.57387119    -0.53037792
 Dipole moment /Debye                   0.00000000     1.45853954    -1.34799792

 Orbital energies:

         1.1          2.1          3.1          4.1          5.1          6.1          7.1          8.1          9.1
    -20.664909   -15.717506    -1.528364    -0.990301    -0.742791    -0.661842    -0.426694     0.143911     0.369667

         1.2          2.2          3.2
     -0.592397     0.086827     0.612909

 HOMO      7.1    -0.426694 =     -11.6109eV
 LUMO      2.2     0.086827 =       2.3627eV
 LUMO-HOMO         0.513522 =      13.9736eV


 **********************************************************************************************************************************
 DATASETS  * FILE   NREC   LENGTH (MB)   RECORD NAMES
              1      23       36.03       500      610      700      900      950      970     1000      129      960     1700   
                                          VAR    BASINP    GEOM    SYMINP    ZMAT    AOBASIS   BASIS     P2S    ABASIS    OPER   
                                         1101     1401     1411     1412     1650     1100     1400     1410     1200     1210   
                                          SR      EKINR    POTR     PVPR    MOLCAS      S      EKIN      POT      H0       H01  
                                         1300     1080     1600   
                                         ERIS     AOSYM     SMH  

              2       4        2.85       700     1000      520     2100   
                                         GEOM     BASIS   MCVARS     RHF  

 PROGRAMS   *        TOTAL        HF       INT
 CPU TIMES  *         0.84      0.21      0.54
 REAL TIME  *         1.54 SEC
 DISK USED  *        75.75 MB      
 **********************************************************************************************************************************


 PROGRAM * CCSD (Closed-shell coupled cluster)     Authors: C. Hampel, H.-J. Werner, 1991, M. Deegan, P.J. Knowles, 1992


 Convergence thresholds:  THRVAR = 1.00D-08  THRDEN = 1.00D-12

 CCSD(T)     terms to be evaluated (factor= 1.000)


 Number of core orbitals:           2 (   2   0 )
 Number of closed-shell orbitals:   6 (   5   1 )
 Number of external orbitals:      66 (  43  23 )

 Molecular orbitals read from record     2100.2  Type=RHF/CANONICAL (state 1.1)

 Number of N-1 electron functions:               6
 Number of N-2 electron functions:              21
 Number of singly external CSFs:               238
 Number of doubly external CSFs:             41002
 Total number of CSFs:                       41241

 Length of J-op  integral file:               0.00 MB
 Length of K-op  integral file:               0.25 MB
 Length of 3-ext integral record:             0.00 MB

 Memory could be reduced to 1.65 Mwords without degradation in triples

 Integral transformation finished. Total CPU:   0.02 sec, npass=  1  Memory used:   0.55 MW

 Reference energy:                   -129.91749078

 MP2 singlet pair energy:              -0.27380534
 MP2 triplet pair energy:              -0.16260189
 MP2 correlation energy:               -0.43640723
 MP2 total energy:                   -130.35389801

 SCS-MP2 correlation energy:           -0.42974092   (PS=  1.200000  PT=  0.333333)
 SCS-MP2 total energy:               -130.34723170

 ITER.      SQ.NORM     CORR.ENERGY   TOTAL ENERGY   ENERGY CHANGE        DEN1      VAR(S)    VAR(P)  DIIS     TIME  TIME/IT
   1      1.11852858    -0.44149474  -130.35898552    -0.00508751     0.01070313  0.29D-02  0.30D-02  1  1     0.07     0.04
   2      1.12937464    -0.44175116  -130.35924194    -0.00025643    -0.01228842  0.88D-04  0.50D-03  2  2     0.10     0.04
   3      1.13565311    -0.44213670  -130.35962748    -0.00038554    -0.00298205  0.47D-04  0.50D-04  3  3     0.14     0.04
   4      1.13844762    -0.44216300  -130.35965378    -0.00002630    -0.00095697  0.40D-05  0.88D-05  4  4     0.18     0.04
   5      1.13943660    -0.44219241  -130.35968319    -0.00002941    -0.00020527  0.14D-05  0.16D-05  5  5     0.22     0.04
   6      1.13979229    -0.44217591  -130.35966669     0.00001650    -0.00004053  0.10D-06  0.40D-06  6  6     0.26     0.04
   7      1.13987693    -0.44217785  -130.35966863    -0.00000193    -0.00000205  0.12D-07  0.85D-07  6  1     0.29     0.04
   8      1.13990739    -0.44217780  -130.35966858     0.00000005     0.00000185  0.42D-08  0.10D-07  6  2     0.32     0.04
   9      1.13991507    -0.44217760  -130.35966838     0.00000020    -0.00000224  0.24D-08  0.11D-08  6  3     0.36     0.04
  10      1.13991387    -0.44217809  -130.35966887    -0.00000050     0.00000061  0.47D-09  0.20D-09  6  4     0.40     0.04
  11      1.13991218    -0.44217815  -130.35966893    -0.00000006     0.00000017  0.14D-09  0.22D-10  6  5     0.43     0.04
  12      1.13991081    -0.44217832  -130.35966910    -0.00000017     0.00000042  0.15D-10  0.73D-11  6  6     0.47     0.04
  13      1.13991021    -0.44217833  -130.35966911    -0.00000001     0.00000012  0.65D-11  0.12D-11  6  1     0.51     0.04
  14      1.13990983    -0.44217835  -130.35966913    -0.00000002     0.00000007  0.92D-12  0.41D-12  6  2     0.54     0.04
  15      1.13990969    -0.44217835  -130.35966913    -0.00000000     0.00000001  0.24D-12  0.13D-12  6  3     0.58     0.04
  16      1.13990959    -0.44217835  -130.35966914    -0.00000000     0.00000002  0.69D-14  0.34D-13  6  1     0.61     0.04
  17      1.13990958    -0.44217835  -130.35966913     0.00000000    -0.00000000  0.29D-14  0.25D-14  6  4     0.64     0.04
  18      1.13990957    -0.44217835  -130.35966914    -0.00000000     0.00000000  0.68D-15  0.43D-15  6  5     0.68     0.04
  19      1.13990957    -0.44217835  -130.35966913     0.00000000    -0.00000000  0.12D-15  0.78D-16  6  6     0.71     0.04
  20      1.13990956    -0.44217835  -130.35966913    -0.00000000     0.00000000  0.17D-16  0.18D-16  6  2     0.75     0.04
  21      1.13990956    -0.44217835  -130.35966913    -0.00000000     0.00000000  0.25D-17  0.22D-17  6  3     0.79     0.04
  22      1.13990956    -0.44217835  -130.35966913    -0.00000000     0.00000000  0.26D-18  0.34D-18  6  4     0.82     0.04
  23      1.13990956    -0.44217835  -130.35966913    -0.00000000     0.00000000  0.10D-18  0.29D-19  6  1     0.86     0.04
  24      1.13990956    -0.44217835  -130.35966913     0.00000000    -0.00000000  0.16D-19  0.11D-19  6  6     0.89     0.04
  25      1.13990956    -0.44217835  -130.35966913     0.00000000    -0.00000000  0.34D-20  0.68D-21  6  5     0.92     0.04
  26      1.13990956    -0.44217835  -130.35966913     0.00000000    -0.00000000  0.69D-21  0.27D-21  6  2     0.95     0.04
  27      1.13990956    -0.44217835  -130.35966913     0.00000000    -0.00000000  0.23D-22  0.16D-22  6  3     0.98     0.04

 Norm of t1 vector:      0.07497945      S-energy:     0.00000000      T1 diagnostic:  0.01530512
                                                                       D1 diagnostic:  0.04229683

 Doubles amplitudes (print threshold =  0.500E-01):

         I         J         SYM. A    SYM. B    A         B      T(IJ, AB)

         6         6         2         2         1         1     -0.14344213


 Total CPU time for triples:      0.24 sec


 RESULTS
 =======

  Reference energy                   -129.917490781321
  CCSD singlet pair energy             -0.303184812782
  CCSD triplet pair energy             -0.138993540866
  CCSD correlation energy              -0.442178353648

  Triples (T) contribution             -0.019794247072
  Total correlation energy             -0.461972600720

  CCSD total energy                  -130.359669134969
  CCSD[T] energy                     -130.380480503733
  CCSD-T energy                      -130.379064895237
 !CCSD(T) total energy               -130.379463382041

 Timing summary (sec):

 STEP                 CPU(USER)    SYS     CPU(TOT)    WALL
 Transformation          0.02      0.01      0.03      0.04
 CCSD iterations         0.96      0.12      1.08      1.08
 Triples                 0.24      0.00      0.24      0.23

 Program statistics:

 Available memory in ccsd:               994999756
 Min. memory needed in ccsd:                154850
 Max. memory used in ccsd:                  184802
 Max. memory used in cckext:                238416 (27 integral passes)



 **********************************************************************************************************************************
 DATASETS  * FILE   NREC   LENGTH (MB)   RECORD NAMES
              1      24       40.41       500      610      700      900      950      970     1000      129      960     1700   
                                          VAR    BASINP    GEOM    SYMINP    ZMAT    AOBASIS   BASIS     P2S    ABASIS    OPER   
                                         1101     1401     1411     1412     1650     1100     1400     1410     1200     1210   
                                          SR      EKINR    POTR     PVPR    MOLCAS      S      EKIN      POT      H0       H01  
                                         1300     1080     1600     1380   
                                         ERIS     AOSYM     SMH     JKOP   

              2       4        2.85       700     1000      520     2100   
                                         GEOM     BASIS   MCVARS     RHF  

 PROGRAMS   *        TOTAL   CCSD(T)        HF       INT
 CPU TIMES  *         2.08      1.24      0.21      0.54
 REAL TIME  *         2.92 SEC
 DISK USED  *        75.75 MB      
 **********************************************************************************************************************************

 CCSD(T)/cc-pVTZ-DK energy=   -130.379463382041

        CCSD(T)         HF-SCF  
   -130.37946338   -129.91749078
 **********************************************************************************************************************************
 Molpro calculation terminated
 Variable memory released
