
 Primary working directories    : /tmp/r2666/235191.maple
 Secondary working directories  : /tmp/r2666/235191.maple
 Wavefunction directory         : /ddn/home4/r2666/wfu/
 Main file repository           : /tmp/r2666/235191.maple/

 SHA1      : d5ffa45e93fdbca01ffc919aa182cfdae0147319
 NAME      : 2015.1.35
 ARCHNAME  : linux/x86_64
 FC        : /opt/intel/composer_xe_2015.1.133/bin/intel64/ifort
 BLASLIB   : -Wl,-_start-group /opt/intel/mkl/lib/intel64/libmkl_intel_ilp64.a /opt/intel/mkl/lib/intel64/libmkl_intel_thread.a /opt/intel/mkl/lib/intel64/libmkl_core.a -Wl,-_end-group
 id        : olemiss

 Nodes     nprocs
 cn033        1

 Using customized tuning parameters: mindgm=1; mindgv=20; mindgc=4; mindgr=1; noblas=0; minvec=7
 default implementation of scratch files=df  

 ***,hno CCSD(T)/TZ-F12 QFF
 memory, 995, m;
 gthresh,energy=1.d-12,zero=1.d-22,oneint=1.d-22,twoint=1.d-22;
 gthresh,optgrad=1.d-8,optstep=1.d-8;
 nocompress;
 geomtyp=xyz
 bohr
 geometry={
 3
         46        46
 N        0.0000000000       -0.1660083273       -1.1381157618
 H        0.0000000000        1.6637621183       -1.9154883467
 O        0.0000000000        0.0440139990        1.1030145174
 }
 
 basis=vtz-dk
 dkroll=1
   {hf,maxit=500;accu,20;}
 {ccsd(t),nocheck,maxit=250;orbital,IGNORE_ERROR;}

 Variables initialized (889), CPU time= 0.00 sec
 Commands  initialized (702), CPU time= 0.01 sec, 572 directives.
 Default parameters read. Elapsed time= 0.07 sec

 Checking input...
 Passed
1


                                         ***  PROGRAM SYSTEM MOLPRO  ***
                                       Copyright, TTI GmbH Stuttgart, 2015
                                    Version 2015.1 linked Jul  9 2018 13:16:40


 **********************************************************************************************************************************
 LABEL *   hno CCSD(T)/TZ-F12 QFF                                                        
  64 bit serial version                                                                  DATE: 08-Feb-20          TIME: 17:57:18  
 **********************************************************************************************************************************

 SHA1:             d5ffa45e93fdbca01ffc919aa182cfdae0147319
 **********************************************************************************************************************************

 THRESHOLDS:

 ZERO    =  1.00D-22  ONEINT  =  1.00D-22  TWOINT  =  1.00D-22  PREFAC  =  1.00D-14  LOCALI  =  1.00D-09  EORDER  =  1.00D-04
 ENERGY  =  1.00D-12  ETEST   =  0.00D+00  EDENS   =  0.00D+00  THRDEDEF=  1.00D-06  GRADIENT=  1.00D-02  STEP    =  1.00D-03
 ORBITAL =  1.00D-05  CIVEC   =  1.00D-05  COEFF   =  1.00D-04  PRINTCI =  5.00D-02  PUNCHCI =  9.90D+01  OPTGRAD =  3.00D-04
 OPTENERG=  1.00D-06  OPTSTEP =  3.00D-04  THRGRAD =  1.00D-10  COMPRESS=  1.00D-11  VARMIN  =  1.00D-07  VARMAX  =  1.00D-03
 THRDOUB =  0.00D+00  THRDIV  =  1.00D-05  THRRED  =  1.00D-07  THRPSP  =  1.00D+00  THRDC   =  1.00D-10  THRCS   =  1.00D-10
 THRNRM  =  1.00D-08  THREQ   =  0.00D+00  THRDE   =  1.00D+00  THRREF  =  1.00D-05  SPARFAC =  1.00D+00  THRDLP  =  1.00D-07
 THRDIA  =  1.00D-10  THRDLS  =  1.00D-07  THRGPS  =  0.00D+00  THRKEX  =  0.00D+00  THRDIS  =  2.00D-01  THRVAR  =  1.00D-10
 THRLOC  =  1.00D-06  THRGAP  =  1.00D-06  THRLOCT = -1.00D+00  THRGAPT = -1.00D+00  THRORB  =  1.00D-06  THRMLTP =  0.00D+00
 THRCPQCI=  1.00D-10  KEXTA   =  0.00D+00  THRCOARS=  0.00D+00  SYMTOL  =  1.00D-06  GRADTOL =  1.00D-06  THROVL  =  1.00D-08
 THRORTH =  1.00D-08  GRID    =  1.00D-06  GRIDMAX =  1.00D-03  DTMAX   =  0.00D+00  THROCCDE=  1.00D-01  THROCCDE=  1.00D-01



 THRESHOLDS:

 ZERO    =  1.00D-22  ONEINT  =  1.00D-22  TWOINT  =  1.00D-22  PREFAC  =  1.00D-14  LOCALI  =  1.00D-09  EORDER  =  1.00D-04
 ENERGY  =  1.00D-12  ETEST   =  0.00D+00  EDENS   =  0.00D+00  THRDEDEF=  1.00D-06  GRADIENT=  1.00D-02  STEP    =  1.00D-03
 ORBITAL =  1.00D-05  CIVEC   =  1.00D-05  COEFF   =  1.00D-04  PRINTCI =  5.00D-02  PUNCHCI =  9.90D+01  OPTGRAD =  1.00D-08
 OPTENERG=  1.00D-06  OPTSTEP =  1.00D-08  THRGRAD =  1.00D-10  COMPRESS=  1.00D-11  VARMIN  =  1.00D-07  VARMAX  =  1.00D-03
 THRDOUB =  0.00D+00  THRDIV  =  1.00D-05  THRRED  =  1.00D-07  THRPSP  =  1.00D+00  THRDC   =  1.00D-10  THRCS   =  1.00D-10
 THRNRM  =  1.00D-08  THREQ   =  0.00D+00  THRDE   =  1.00D+00  THRREF  =  1.00D-05  SPARFAC =  1.00D+00  THRDLP  =  1.00D-07
 THRDIA  =  1.00D-10  THRDLS  =  1.00D-07  THRGPS  =  0.00D+00  THRKEX  =  0.00D+00  THRDIS  =  2.00D-01  THRVAR  =  1.00D-10
 THRLOC  =  1.00D-06  THRGAP  =  1.00D-06  THRLOCT = -1.00D+00  THRGAPT = -1.00D+00  THRORB  =  1.00D-06  THRMLTP =  0.00D+00
 THRCPQCI=  1.00D-10  KEXTA   =  0.00D+00  THRCOARS=  0.00D+00  SYMTOL  =  1.00D-06  GRADTOL =  1.00D-06  THROVL  =  1.00D-08
 THRORTH =  1.00D-08  GRID    =  1.00D-06  GRIDMAX =  1.00D-03  DTMAX   =  0.00D+00  THROCCDE=  1.00D-01  THROCCDE=  1.00D-01



 Input parameters for SORTINT:

 COMPRESS =    0.000000
 C_FINAL  =    1.000000
 DEBUG    =   -1.000000
 C_SORT1  =    0.000000
 C_SEWARD =    0.000000
 THRESH   =    0.000000
 IO       =  molpro                                                          
 SPRI     =    0.000000
 SETTING GEOMTYP        =    XYZ
 ZUNIT=BOHR
 

 Variable memory set to  995000000 words,  buffer space   230000 words

 SETTING BASIS          =    VTZ-DK
 SETTING DKROLL         =         1.00000000                                  


 Recomputing integrals since basis changed


 Using spherical harmonics

 Library entry N      S cc-pVTZ-DK           selected for orbital group  1
 Library entry N      P cc-pVTZ-DK           selected for orbital group  1
 Library entry N      D cc-pVTZ-DK           selected for orbital group  1
 Library entry N      F cc-pVTZ-DK           selected for orbital group  1
 Library entry H      S cc-pVTZ-DK           selected for orbital group  2
 Library entry H      P cc-pVTZ-DK           selected for orbital group  2
 Library entry H      D cc-pVTZ-DK           selected for orbital group  2
 Library entry O      S cc-pVTZ-DK           selected for orbital group  3
 Library entry O      P cc-pVTZ-DK           selected for orbital group  3
 Library entry O      D cc-pVTZ-DK           selected for orbital group  3
 Library entry O      F cc-pVTZ-DK           selected for orbital group  3


 PROGRAM * SEWARD (Integral evaluation for generally contracted gaussian basis sets)     Author: Roland Lindh, 1990

 Geometry written to block  1 of record 700


 Point group  Cs  



 ATOMIC COORDINATES

 NR  ATOM    CHARGE       X              Y              Z

   1  N       7.00    0.000000000   -0.166008327   -1.138115762
   2  H       1.00    0.000000000    1.663762118   -1.915488347
   3  O       8.00    0.000000000    0.044013999    1.103014517

 Bond lengths in Bohr (Angstrom)

 1-2  1.988056342  1-3  2.250949645
     ( 1.052034110)     ( 1.191151255)

 Bond angles

  2-1-3  107.66436374

 NUCLEAR CHARGE:                   16
 NUMBER OF PRIMITIVE AOS:         111
 NUMBER OF SYMMETRY AOS:          100
 NUMBER OF CONTRACTIONS:           74   (  50A'  +  24A"  )
 NUMBER OF CORE ORBITALS:           2   (   2A'  +   0A"  )
 NUMBER OF VALENCE ORBITALS:        9   (   7A'  +   2A"  )


 NUCLEAR REPULSION ENERGY   30.73475217

 One-electron integrals computed with SEWARD

 2nd-order Douglas-Kroll-Hess method activated. Optimal DKH parametrization is used.

 Computing Douglas-Kroll / X2C integrals


        1874283. INTEGRALS WRITTEN OUT IN     458 BLOCKS ON RECORD 1290 OF FILE 1


 NUMBER OF SORTED TWO-ELECTRON INTEGRALS:    2006100.     BUFFER LENGTH:  32768
 NUMBER OF SEGMENTS:   1  SEGMENT LENGTH:    2006100      RECORD LENGTH: 524288

 Memory used in sort:       2.56 MW

 SORT1 READ     1874283. AND WROTE     1914195. INTEGRALS IN      6 RECORDS. CPU TIME:     0.04 SEC, REAL TIME:     0.07 SEC
 SORT2 READ     1914195. AND WROTE     2006100. INTEGRALS IN      1 RECORDS. CPU TIME:     0.04 SEC, REAL TIME:     0.07 SEC

 FILE SIZES:   FILE 1:    50.2 MBYTE,  FILE 4:    25.2 MBYTE,   TOTAL:     75.4 MBYTE

 OPERATOR DM      FOR CENTER  0  COORDINATES:    0.000000    0.000000    0.000000

 Eigenvalues of metric

         1 0.239E-02 0.384E-02 0.400E-02 0.825E-02 0.130E-01 0.317E-01 0.415E-01 0.463E-01
         2 0.334E-01 0.463E-01 0.994E-01 0.111E+00 0.228E+00 0.340E+00 0.390E+00 0.444E+00


 **********************************************************************************************************************************
 DATASETS  * FILE   NREC   LENGTH (MB)   RECORD NAMES
              1      23       36.03       500      610      700      900      950      970     1000      129      960     1700   
                                          VAR    BASINP    GEOM    SYMINP    ZMAT    AOBASIS   BASIS     P2S    ABASIS    OPER   
                                         1101     1401     1411     1412     1650     1100     1400     1410     1200     1210   
                                          SR      EKINR    POTR     PVPR    MOLCAS      S      EKIN      POT      H0       H01  
                                         1300     1080     1600   
                                         ERIS     AOSYM     SMH  

 PROGRAMS   *        TOTAL       INT
 CPU TIMES  *         0.63      0.55
 REAL TIME  *         1.37 SEC
 DISK USED  *        75.75 MB      
 **********************************************************************************************************************************


 PROGRAM * RHF-SCF (CLOSED SHELL)       Authors: W. Meyer, H.-J. Werner


 NUMBER OF ELECTRONS:       8+    8-
 CONVERGENCE THRESHOLDS:    1.00E-10 (Density)    1.00E-13 (Energy)
 MAX. NUMBER OF ITERATIONS:      500
 INTERPOLATION TYPE:            DIIS
 INTERPOLATION STEPS:              2 (START)      1 (STEP)
 LEVEL SHIFTS:                  0.00 (CLOSED)  0.00 (OPEN) 



 Orbital guess generated from atomic densities. Full valence occupancy:    9   2

 Molecular orbital dump at record        2100.2

 Initial occupancy:   7   1

 ITERATION    DDIFF          GRAD             ENERGY        2-EL.EN.            DIPOLE MOMENTS         DIIS   ORB.
    1      0.000D+00      0.000D+00      -129.87171016    154.883690    0.00000    0.57809   -0.98616    0    start
    2      0.000D+00      0.133D-01      -129.89884407    156.019776    0.00000    0.60348   -0.22552    1    diag
    3      0.180D-01      0.983D-02      -129.91871173    156.116884    0.00000    0.55242   -0.57433    2    diag
    4      0.860D-02      0.152D-02      -129.91941460    155.863171    0.00000    0.56143   -0.51790    3    diag
    5      0.163D-02      0.502D-03      -129.91952316    155.947249    0.00000    0.56675   -0.51922    4    diag
    6      0.699D-03      0.150D-03      -129.91954102    155.932524    0.00000    0.56734   -0.51534    5    diag
    7      0.271D-03      0.737D-04      -129.91954603    155.934993    0.00000    0.56861   -0.51305    6    diag
    8      0.185D-03      0.224D-04      -129.91954645    155.934368    0.00000    0.56863   -0.51235    7    diag
    9      0.574D-04      0.402D-05      -129.91954646    155.934267    0.00000    0.56858   -0.51221    8    diag
   10      0.109D-04      0.917D-06      -129.91954647    155.934250    0.00000    0.56855   -0.51219    9    orth
   11      0.262D-05      0.182D-06      -129.91954647    155.934246    0.00000    0.56854   -0.51219    9    diag
   12      0.492D-06      0.372D-07      -129.91954647    155.934244    0.00000    0.56854   -0.51219    9    diag
   13      0.107D-06      0.899D-08      -129.91954647    155.934244    0.00000    0.56854   -0.51219    9    diag
   14      0.262D-07      0.171D-08      -129.91954647    155.934244    0.00000    0.56854   -0.51219    9    diag
   15      0.459D-08      0.473D-09      -129.91954647    155.934244    0.00000    0.56854   -0.51219    9    diag
   16      0.111D-08      0.133D-09      -129.91954647    155.934244    0.00000    0.56854   -0.51219    9    diag
   17      0.243D-09      0.398D-10      -129.91954647    155.934244    0.00000    0.56854   -0.51219    9    diag
   18      0.822D-10      0.123D-10      -129.91954647    155.934244    0.00000    0.56854   -0.51219    0    orth

 Final occupancy:   7   1

 !RHF STATE 1.1 Energy               -129.919546465651
 Nuclear energy                        30.73475217
 One-electron energy                 -238.62142065
 Two-electron energy                   77.96712202
 Virial quotient                       -0.99701558
 !RHF STATE 1.1 Dipole moment           0.00000000     0.56854250    -0.51218500
 Dipole moment /Debye                   0.00000000     1.44499625    -1.30175916

 Orbital energies:

         1.1          2.1          3.1          4.1          5.1          6.1          7.1          8.1          9.1
    -20.663286   -15.714014    -1.541655    -0.987891    -0.748330    -0.666498    -0.421888     0.145148     0.371647

         1.2          2.2          3.2
     -0.600026     0.092828     0.611113

 HOMO      7.1    -0.421888 =     -11.4801eV
 LUMO      2.2     0.092828 =       2.5260eV
 LUMO-HOMO         0.514716 =      14.0061eV


 **********************************************************************************************************************************
 DATASETS  * FILE   NREC   LENGTH (MB)   RECORD NAMES
              1      23       36.03       500      610      700      900      950      970     1000      129      960     1700   
                                          VAR    BASINP    GEOM    SYMINP    ZMAT    AOBASIS   BASIS     P2S    ABASIS    OPER   
                                         1101     1401     1411     1412     1650     1100     1400     1410     1200     1210   
                                          SR      EKINR    POTR     PVPR    MOLCAS      S      EKIN      POT      H0       H01  
                                         1300     1080     1600   
                                         ERIS     AOSYM     SMH  

              2       4        2.85       700     1000      520     2100   
                                         GEOM     BASIS   MCVARS     RHF  

 PROGRAMS   *        TOTAL        HF       INT
 CPU TIMES  *         0.85      0.22      0.55
 REAL TIME  *         1.64 SEC
 DISK USED  *        75.75 MB      
 **********************************************************************************************************************************


 PROGRAM * CCSD (Closed-shell coupled cluster)     Authors: C. Hampel, H.-J. Werner, 1991, M. Deegan, P.J. Knowles, 1992


 Convergence thresholds:  THRVAR = 1.00D-08  THRDEN = 1.00D-12

 CCSD(T)     terms to be evaluated (factor= 1.000)


 Number of core orbitals:           2 (   2   0 )
 Number of closed-shell orbitals:   6 (   5   1 )
 Number of external orbitals:      66 (  43  23 )

 Molecular orbitals read from record     2100.2  Type=RHF/CANONICAL (state 1.1)

 Number of N-1 electron functions:               6
 Number of N-2 electron functions:              21
 Number of singly external CSFs:               238
 Number of doubly external CSFs:             41002
 Total number of CSFs:                       41241

 Length of J-op  integral file:               0.00 MB
 Length of K-op  integral file:               0.25 MB
 Length of 3-ext integral record:             0.00 MB

 Memory could be reduced to 1.65 Mwords without degradation in triples

 Integral transformation finished. Total CPU:   0.03 sec, npass=  1  Memory used:   0.55 MW

 Reference energy:                   -129.91954647

 MP2 singlet pair energy:              -0.27201305
 MP2 triplet pair energy:              -0.16144432
 MP2 correlation energy:               -0.43345737
 MP2 total energy:                   -130.35300384

 SCS-MP2 correlation energy:           -0.42686990   (PS=  1.200000  PT=  0.333333)
 SCS-MP2 total energy:               -130.34641637

 ITER.      SQ.NORM     CORR.ENERGY   TOTAL ENERGY   ENERGY CHANGE        DEN1      VAR(S)    VAR(P)  DIIS     TIME  TIME/IT
   1      1.11664561    -0.43914911  -130.35869557    -0.00569174     0.00941695  0.27D-02  0.28D-02  1  1     0.08     0.05
   2      1.12707807    -0.43952165  -130.35906811    -0.00037254    -0.01188925  0.79D-04  0.48D-03  2  2     0.12     0.05
   3      1.13300099    -0.43988017  -130.35942664    -0.00035852    -0.00286155  0.43D-04  0.47D-04  3  3     0.18     0.05
   4      1.13560446    -0.43990553  -130.35945199    -0.00002536    -0.00090351  0.36D-05  0.82D-05  4  4     0.23     0.05
   5      1.13650264    -0.43993199  -130.35947846    -0.00002646    -0.00018611  0.13D-05  0.16D-05  5  5     0.28     0.05
   6      1.13683680    -0.43991741  -130.35946388     0.00001458    -0.00003744  0.96D-07  0.39D-06  6  6     0.31     0.05
   7      1.13692157    -0.43991915  -130.35946562    -0.00000174    -0.00000260  0.12D-07  0.79D-07  6  1     0.36     0.05
   8      1.13695119    -0.43991927  -130.35946574    -0.00000012     0.00000187  0.41D-08  0.86D-08  6  2     0.40     0.05
   9      1.13695813    -0.43991912  -130.35946558     0.00000016    -0.00000216  0.22D-08  0.94D-09  6  3     0.45     0.05
  10      1.13695695    -0.43991957  -130.35946604    -0.00000046     0.00000059  0.44D-09  0.17D-09  6  4     0.50     0.05
  11      1.13695532    -0.43991963  -130.35946609    -0.00000005     0.00000018  0.13D-09  0.20D-10  6  5     0.55     0.05
  12      1.13695403    -0.43991978  -130.35946625    -0.00000016     0.00000040  0.14D-10  0.66D-11  6  6     0.60     0.05
  13      1.13695348    -0.43991979  -130.35946625    -0.00000001     0.00000011  0.61D-11  0.10D-11  6  1     0.65     0.05
  14      1.13695313    -0.43991981  -130.35946627    -0.00000002     0.00000007  0.84D-12  0.37D-12  6  2     0.70     0.05
  15      1.13695302    -0.43991981  -130.35946627    -0.00000000     0.00000001  0.21D-12  0.12D-12  6  3     0.74     0.05
  16      1.13695293    -0.43991981  -130.35946627    -0.00000000     0.00000001  0.22D-13  0.14D-13  6  5     0.79     0.05
  17      1.13695291    -0.43991981  -130.35946627    -0.00000000     0.00000000  0.76D-15  0.22D-14  6  4     0.84     0.05
  18      1.13695290    -0.43991981  -130.35946627     0.00000000    -0.00000000  0.44D-15  0.61D-15  6  6     0.89     0.05
  19      1.13695290    -0.43991981  -130.35946627    -0.00000000    -0.00000000  0.85D-16  0.67D-16  6  1     0.94     0.05
  20      1.13695290    -0.43991981  -130.35946627     0.00000000     0.00000000  0.48D-17  0.95D-17  6  2     0.99     0.05
  21      1.13695290    -0.43991981  -130.35946627    -0.00000000     0.00000000  0.20D-17  0.98D-18  6  3     1.05     0.05
  22      1.13695290    -0.43991981  -130.35946627    -0.00000000     0.00000000  0.45D-19  0.17D-18  6  4     1.10     0.05
  23      1.13695290    -0.43991981  -130.35946627    -0.00000000     0.00000000  0.12D-19  0.87D-20  6  5     1.14     0.05
  24      1.13695290    -0.43991981  -130.35946627    -0.00000000    -0.00000000  0.20D-20  0.27D-20  6  6     1.19     0.05
  25      1.13695290    -0.43991981  -130.35946627     0.00000000    -0.00000000  0.93D-22  0.28D-21  6  1     1.24     0.05

 Norm of t1 vector:      0.07236167      S-energy:     0.00000000      T1 diagnostic:  0.01477076
                                                                       D1 diagnostic:  0.04027963

 Doubles amplitudes (print threshold =  0.500E-01):

         I         J         SYM. A    SYM. B    A         B      T(IJ, AB)

         6         6         2         2         1         1     -0.13904393


 Total CPU time for triples:      0.35 sec


 RESULTS
 =======

  Reference energy                   -129.919546465651
  CCSD singlet pair energy             -0.301219908866
  CCSD triplet pair energy             -0.138699899718
  CCSD correlation energy              -0.439919808582

  Triples (T) contribution             -0.019290804953
  Total correlation energy             -0.459210613535

  CCSD total energy                  -130.359466274233
  CCSD[T] energy                     -130.379705212110
  CCSD-T energy                      -130.378377093368
 !CCSD(T) total energy               -130.378757079186

 Timing summary (sec):

 STEP                 CPU(USER)    SYS     CPU(TOT)    WALL
 Transformation          0.03      0.02      0.05      0.05
 CCSD iterations         1.21      0.09      1.30      1.31
 Triples                 0.35      0.02      0.37      0.36

 Program statistics:

 Available memory in ccsd:               994999756
 Min. memory needed in ccsd:                154850
 Max. memory used in ccsd:                  184802
 Max. memory used in cckext:                238416 (25 integral passes)



 **********************************************************************************************************************************
 DATASETS  * FILE   NREC   LENGTH (MB)   RECORD NAMES
              1      24       40.41       500      610      700      900      950      970     1000      129      960     1700   
                                          VAR    BASINP    GEOM    SYMINP    ZMAT    AOBASIS   BASIS     P2S    ABASIS    OPER   
                                         1101     1401     1411     1412     1650     1100     1400     1410     1200     1210   
                                          SR      EKINR    POTR     PVPR    MOLCAS      S      EKIN      POT      H0       H01  
                                         1300     1080     1600     1380   
                                         ERIS     AOSYM     SMH     JKOP   

              2       4        2.85       700     1000      520     2100   
                                         GEOM     BASIS   MCVARS     RHF  

 PROGRAMS   *        TOTAL   CCSD(T)        HF       INT
 CPU TIMES  *         2.47      1.61      0.22      0.55
 REAL TIME  *         3.44 SEC
 DISK USED  *        75.75 MB      
 **********************************************************************************************************************************

 CCSD(T)/cc-pVTZ-DK energy=   -130.378757079186

        CCSD(T)         HF-SCF  
   -130.37875708   -129.91954647
 **********************************************************************************************************************************
 Molpro calculation terminated
 Variable memory released
