
 Primary working directories    : /tmp/r2666/235179.maple
 Secondary working directories  : /tmp/r2666/235179.maple
 Wavefunction directory         : /ddn/home4/r2666/wfu/
 Main file repository           : /tmp/r2666/235179.maple/

 SHA1      : d5ffa45e93fdbca01ffc919aa182cfdae0147319
 NAME      : 2015.1.35
 ARCHNAME  : linux/x86_64
 FC        : /opt/intel/composer_xe_2015.1.133/bin/intel64/ifort
 BLASLIB   : -Wl,-_start-group /opt/intel/mkl/lib/intel64/libmkl_intel_ilp64.a /opt/intel/mkl/lib/intel64/libmkl_intel_thread.a /opt/intel/mkl/lib/intel64/libmkl_core.a -Wl,-_end-group
 id        : olemiss

 Nodes     nprocs
 cn037        1

 Using customized tuning parameters: mindgm=1; mindgv=20; mindgc=4; mindgr=1; noblas=0; minvec=7
 default implementation of scratch files=df  

 ***,hno CCSD(T)/TZ-F12 QFF
 memory, 995, m;
 gthresh,energy=1.d-12,zero=1.d-22,oneint=1.d-22,twoint=1.d-22;
 gthresh,optgrad=1.d-8,optstep=1.d-8;
 nocompress;
 geomtyp=xyz
 bohr
 geometry={
 3
         34        34
 N        0.0000000000       -0.1587474701       -1.1551960813
 H        0.0000000000        1.6632447087       -1.9267095153
 O        0.0000000000        0.0372705514        1.1313160056
 }
 
 basis=vtz-dk
 dkroll=1
   {hf,maxit=500;accu,20;}
 {ccsd(t),nocheck,maxit=250;orbital,IGNORE_ERROR;}

 Variables initialized (889), CPU time= 0.00 sec
 Commands  initialized (702), CPU time= 0.00 sec, 572 directives.
 Default parameters read. Elapsed time= 0.05 sec

 Checking input...
 Passed
1


                                         ***  PROGRAM SYSTEM MOLPRO  ***
                                       Copyright, TTI GmbH Stuttgart, 2015
                                    Version 2015.1 linked Jul  9 2018 13:16:40


 **********************************************************************************************************************************
 LABEL *   hno CCSD(T)/TZ-F12 QFF                                                        
  64 bit serial version                                                                  DATE: 08-Feb-20          TIME: 17:57:16  
 **********************************************************************************************************************************

 SHA1:             d5ffa45e93fdbca01ffc919aa182cfdae0147319
 **********************************************************************************************************************************

 THRESHOLDS:

 ZERO    =  1.00D-22  ONEINT  =  1.00D-22  TWOINT  =  1.00D-22  PREFAC  =  1.00D-14  LOCALI  =  1.00D-09  EORDER  =  1.00D-04
 ENERGY  =  1.00D-12  ETEST   =  0.00D+00  EDENS   =  0.00D+00  THRDEDEF=  1.00D-06  GRADIENT=  1.00D-02  STEP    =  1.00D-03
 ORBITAL =  1.00D-05  CIVEC   =  1.00D-05  COEFF   =  1.00D-04  PRINTCI =  5.00D-02  PUNCHCI =  9.90D+01  OPTGRAD =  3.00D-04
 OPTENERG=  1.00D-06  OPTSTEP =  3.00D-04  THRGRAD =  1.00D-10  COMPRESS=  1.00D-11  VARMIN  =  1.00D-07  VARMAX  =  1.00D-03
 THRDOUB =  0.00D+00  THRDIV  =  1.00D-05  THRRED  =  1.00D-07  THRPSP  =  1.00D+00  THRDC   =  1.00D-10  THRCS   =  1.00D-10
 THRNRM  =  1.00D-08  THREQ   =  0.00D+00  THRDE   =  1.00D+00  THRREF  =  1.00D-05  SPARFAC =  1.00D+00  THRDLP  =  1.00D-07
 THRDIA  =  1.00D-10  THRDLS  =  1.00D-07  THRGPS  =  0.00D+00  THRKEX  =  0.00D+00  THRDIS  =  2.00D-01  THRVAR  =  1.00D-10
 THRLOC  =  1.00D-06  THRGAP  =  1.00D-06  THRLOCT = -1.00D+00  THRGAPT = -1.00D+00  THRORB  =  1.00D-06  THRMLTP =  0.00D+00
 THRCPQCI=  1.00D-10  KEXTA   =  0.00D+00  THRCOARS=  0.00D+00  SYMTOL  =  1.00D-06  GRADTOL =  1.00D-06  THROVL  =  1.00D-08
 THRORTH =  1.00D-08  GRID    =  1.00D-06  GRIDMAX =  1.00D-03  DTMAX   =  0.00D+00  THROCCDE=  1.00D-01  THROCCDE=  1.00D-01



 THRESHOLDS:

 ZERO    =  1.00D-22  ONEINT  =  1.00D-22  TWOINT  =  1.00D-22  PREFAC  =  1.00D-14  LOCALI  =  1.00D-09  EORDER  =  1.00D-04
 ENERGY  =  1.00D-12  ETEST   =  0.00D+00  EDENS   =  0.00D+00  THRDEDEF=  1.00D-06  GRADIENT=  1.00D-02  STEP    =  1.00D-03
 ORBITAL =  1.00D-05  CIVEC   =  1.00D-05  COEFF   =  1.00D-04  PRINTCI =  5.00D-02  PUNCHCI =  9.90D+01  OPTGRAD =  1.00D-08
 OPTENERG=  1.00D-06  OPTSTEP =  1.00D-08  THRGRAD =  1.00D-10  COMPRESS=  1.00D-11  VARMIN  =  1.00D-07  VARMAX  =  1.00D-03
 THRDOUB =  0.00D+00  THRDIV  =  1.00D-05  THRRED  =  1.00D-07  THRPSP  =  1.00D+00  THRDC   =  1.00D-10  THRCS   =  1.00D-10
 THRNRM  =  1.00D-08  THREQ   =  0.00D+00  THRDE   =  1.00D+00  THRREF  =  1.00D-05  SPARFAC =  1.00D+00  THRDLP  =  1.00D-07
 THRDIA  =  1.00D-10  THRDLS  =  1.00D-07  THRGPS  =  0.00D+00  THRKEX  =  0.00D+00  THRDIS  =  2.00D-01  THRVAR  =  1.00D-10
 THRLOC  =  1.00D-06  THRGAP  =  1.00D-06  THRLOCT = -1.00D+00  THRGAPT = -1.00D+00  THRORB  =  1.00D-06  THRMLTP =  0.00D+00
 THRCPQCI=  1.00D-10  KEXTA   =  0.00D+00  THRCOARS=  0.00D+00  SYMTOL  =  1.00D-06  GRADTOL =  1.00D-06  THROVL  =  1.00D-08
 THRORTH =  1.00D-08  GRID    =  1.00D-06  GRIDMAX =  1.00D-03  DTMAX   =  0.00D+00  THROCCDE=  1.00D-01  THROCCDE=  1.00D-01



 Input parameters for SORTINT:

 COMPRESS =    0.000000
 C_FINAL  =    1.000000
 DEBUG    =   -1.000000
 C_SORT1  =    0.000000
 C_SEWARD =    0.000000
 THRESH   =    0.000000
 IO       =  molpro                                                          
 SPRI     =    0.000000
 SETTING GEOMTYP        =    XYZ
 ZUNIT=BOHR
 

 Variable memory set to  995000000 words,  buffer space   230000 words

 SETTING BASIS          =    VTZ-DK
 SETTING DKROLL         =         1.00000000                                  


 Recomputing integrals since basis changed


 Using spherical harmonics

 Library entry N      S cc-pVTZ-DK           selected for orbital group  1
 Library entry N      P cc-pVTZ-DK           selected for orbital group  1
 Library entry N      D cc-pVTZ-DK           selected for orbital group  1
 Library entry N      F cc-pVTZ-DK           selected for orbital group  1
 Library entry H      S cc-pVTZ-DK           selected for orbital group  2
 Library entry H      P cc-pVTZ-DK           selected for orbital group  2
 Library entry H      D cc-pVTZ-DK           selected for orbital group  2
 Library entry O      S cc-pVTZ-DK           selected for orbital group  3
 Library entry O      P cc-pVTZ-DK           selected for orbital group  3
 Library entry O      D cc-pVTZ-DK           selected for orbital group  3
 Library entry O      F cc-pVTZ-DK           selected for orbital group  3


 PROGRAM * SEWARD (Integral evaluation for generally contracted gaussian basis sets)     Author: Roland Lindh, 1990

 Geometry written to block  1 of record 700


 Point group  Cs  



 ATOMIC COORDINATES

 NR  ATOM    CHARGE       X              Y              Z

   1  N       7.00    0.000000000   -0.158747470   -1.155196081
   2  H       1.00    0.000000000    1.663244709   -1.926709515
   3  O       8.00    0.000000000    0.037270551    1.131316006

 Bond lengths in Bohr (Angstrom)

 1-2  1.978607712  1-3  2.294898819
     ( 1.047034111)     ( 1.214408156)

 Bond angles

  2-1-3  108.05011406

 NUCLEAR CHARGE:                   16
 NUMBER OF PRIMITIVE AOS:         111
 NUMBER OF SYMMETRY AOS:          100
 NUMBER OF CONTRACTIONS:           74   (  50A'  +  24A"  )
 NUMBER OF CORE ORBITALS:           2   (   2A'  +   0A"  )
 NUMBER OF VALENCE ORBITALS:        9   (   7A'  +   2A"  )


 NUCLEAR REPULSION ENERGY   30.24964085

 One-electron integrals computed with SEWARD

 2nd-order Douglas-Kroll-Hess method activated. Optimal DKH parametrization is used.

 Computing Douglas-Kroll / X2C integrals


        1874283. INTEGRALS WRITTEN OUT IN     458 BLOCKS ON RECORD 1290 OF FILE 1


 NUMBER OF SORTED TWO-ELECTRON INTEGRALS:    2006100.     BUFFER LENGTH:  32768
 NUMBER OF SEGMENTS:   1  SEGMENT LENGTH:    2006100      RECORD LENGTH: 524288

 Memory used in sort:       2.56 MW

 SORT1 READ     1874283. AND WROTE     1914195. INTEGRALS IN      6 RECORDS. CPU TIME:     0.06 SEC, REAL TIME:     0.07 SEC
 SORT2 READ     1914195. AND WROTE     2006100. INTEGRALS IN      1 RECORDS. CPU TIME:     0.05 SEC, REAL TIME:     0.06 SEC

 FILE SIZES:   FILE 1:    50.2 MBYTE,  FILE 4:    25.2 MBYTE,   TOTAL:     75.4 MBYTE

 OPERATOR DM      FOR CENTER  0  COORDINATES:    0.000000    0.000000    0.000000

 Eigenvalues of metric

         1 0.245E-02 0.397E-02 0.425E-02 0.830E-02 0.129E-01 0.330E-01 0.429E-01 0.464E-01
         2 0.345E-01 0.465E-01 0.102E+00 0.111E+00 0.235E+00 0.340E+00 0.396E+00 0.451E+00


 **********************************************************************************************************************************
 DATASETS  * FILE   NREC   LENGTH (MB)   RECORD NAMES
              1      23       36.03       500      610      700      900      950      970     1000      129      960     1700   
                                          VAR    BASINP    GEOM    SYMINP    ZMAT    AOBASIS   BASIS     P2S    ABASIS    OPER   
                                         1101     1401     1411     1412     1650     1100     1400     1410     1200     1210   
                                          SR      EKINR    POTR     PVPR    MOLCAS      S      EKIN      POT      H0       H01  
                                         1300     1080     1600   
                                         ERIS     AOSYM     SMH  

 PROGRAMS   *        TOTAL       INT
 CPU TIMES  *         0.65      0.57
 REAL TIME  *         1.29 SEC
 DISK USED  *        75.75 MB      
 **********************************************************************************************************************************


 PROGRAM * RHF-SCF (CLOSED SHELL)       Authors: W. Meyer, H.-J. Werner


 NUMBER OF ELECTRONS:       8+    8-
 CONVERGENCE THRESHOLDS:    1.00E-10 (Density)    1.00E-13 (Energy)
 MAX. NUMBER OF ITERATIONS:      500
 INTERPOLATION TYPE:            DIIS
 INTERPOLATION STEPS:              2 (START)      1 (STEP)
 LEVEL SHIFTS:                  0.00 (CLOSED)  0.00 (OPEN) 



 Orbital guess generated from atomic densities. Full valence occupancy:    9   2

 Molecular orbital dump at record        2100.2

 Initial occupancy:   7   1

 ITERATION    DDIFF          GRAD             ENERGY        2-EL.EN.            DIPOLE MOMENTS         DIIS   ORB.
    1      0.000D+00      0.000D+00      -129.86605821    154.015154    0.00000    0.59529   -1.05963    0    start
    2      0.000D+00      0.136D-01      -129.89258178    155.107703    0.00000    0.61965   -0.21813    1    diag
    3      0.188D-01      0.106D-01      -129.91588324    155.253033    0.00000    0.56748   -0.60956    2    diag
    4      0.916D-02      0.156D-02      -129.91662921    154.983761    0.00000    0.57594   -0.54928    3    diag
    5      0.167D-02      0.518D-03      -129.91674506    155.069531    0.00000    0.58125   -0.55016    4    diag
    6      0.722D-03      0.154D-03      -129.91676425    155.054547    0.00000    0.58175   -0.54588    5    diag
    7      0.279D-03      0.780D-04      -129.91677004    155.056749    0.00000    0.58294   -0.54327    6    diag
    8      0.195D-03      0.256D-04      -129.91677062    155.056034    0.00000    0.58295   -0.54241    7    diag
    9      0.687D-04      0.465D-05      -129.91677065    155.055912    0.00000    0.58290   -0.54224    8    diag
   10      0.134D-04      0.101D-05      -129.91677065    155.055895    0.00000    0.58286   -0.54222    9    orth
   11      0.285D-05      0.197D-06      -129.91677065    155.055891    0.00000    0.58286   -0.54222    9    diag
   12      0.515D-06      0.419D-07      -129.91677065    155.055889    0.00000    0.58285   -0.54222    9    diag
   13      0.113D-06      0.106D-07      -129.91677065    155.055889    0.00000    0.58285   -0.54221    9    diag
   14      0.285D-07      0.191D-08      -129.91677065    155.055889    0.00000    0.58285   -0.54221    9    diag
   15      0.431D-08      0.486D-09      -129.91677065    155.055889    0.00000    0.58285   -0.54221    9    diag
   16      0.106D-08      0.116D-09      -129.91677065    155.055889    0.00000    0.58285   -0.54221    9    diag
   17      0.168D-09      0.319D-10      -129.91677065    155.055889    0.00000    0.58285   -0.54221    9    diag
   18      0.485D-10      0.105D-10      -129.91677065    155.055889    0.00000    0.58285   -0.54221    9    diag
   19      0.201D-10      0.222D-11      -129.91677065    155.055889    0.00000    0.58285   -0.54221    9    fixocc
   20      0.545D-11      0.423D-12      -129.91677065    155.055889    0.00000    0.58285   -0.54221    9    orth
   21      0.119D-11      0.137D-12      -129.91677065    155.055889    0.00000    0.58285   -0.54221    9    diag
   22      0.373D-12      0.363D-13      -129.91677065    155.055889    0.00000    0.58285   -0.54221    0    orth

 Final occupancy:   7   1

 !RHF STATE 1.1 Energy               -129.916770649676
 Nuclear energy                        30.24964085
 One-electron energy                 -237.69435599
 Two-electron energy                   77.52794449
 Virial quotient                       -0.99768439
 !RHF STATE 1.1 Dipole moment           0.00000000     0.58285313    -0.54221486
 Dipole moment /Debye                   0.00000000     1.48136786    -1.37808245

 Orbital energies:

         1.1          2.1          3.1          4.1          5.1          6.1          7.1          8.1          9.1
    -20.665533   -15.717249    -1.522280    -0.994844    -0.741631    -0.659860    -0.429083     0.144019     0.368639

         1.2          2.2          3.2
     -0.588753     0.084106     0.613782

 HOMO      7.1    -0.429083 =     -11.6759eV
 LUMO      2.2     0.084106 =       2.2886eV
 LUMO-HOMO         0.513189 =      13.9646eV


 **********************************************************************************************************************************
 DATASETS  * FILE   NREC   LENGTH (MB)   RECORD NAMES
              1      23       36.03       500      610      700      900      950      970     1000      129      960     1700   
                                          VAR    BASINP    GEOM    SYMINP    ZMAT    AOBASIS   BASIS     P2S    ABASIS    OPER   
                                         1101     1401     1411     1412     1650     1100     1400     1410     1200     1210   
                                          SR      EKINR    POTR     PVPR    MOLCAS      S      EKIN      POT      H0       H01  
                                         1300     1080     1600   
                                         ERIS     AOSYM     SMH  

              2       4        2.85       700     1000      520     2100   
                                         GEOM     BASIS   MCVARS     RHF  

 PROGRAMS   *        TOTAL        HF       INT
 CPU TIMES  *         0.92      0.27      0.57
 REAL TIME  *         1.62 SEC
 DISK USED  *        75.75 MB      
 **********************************************************************************************************************************


 PROGRAM * CCSD (Closed-shell coupled cluster)     Authors: C. Hampel, H.-J. Werner, 1991, M. Deegan, P.J. Knowles, 1992


 Convergence thresholds:  THRVAR = 1.00D-08  THRDEN = 1.00D-12

 CCSD(T)     terms to be evaluated (factor= 1.000)


 Number of core orbitals:           2 (   2   0 )
 Number of closed-shell orbitals:   6 (   5   1 )
 Number of external orbitals:      66 (  43  23 )

 Molecular orbitals read from record     2100.2  Type=RHF/CANONICAL (state 1.1)

 Number of N-1 electron functions:               6
 Number of N-2 electron functions:              21
 Number of singly external CSFs:               238
 Number of doubly external CSFs:             41002
 Total number of CSFs:                       41241

 Length of J-op  integral file:               0.00 MB
 Length of K-op  integral file:               0.25 MB
 Length of 3-ext integral record:             0.00 MB

 Memory could be reduced to 1.65 Mwords without degradation in triples

 Integral transformation finished. Total CPU:   0.03 sec, npass=  1  Memory used:   0.55 MW

 Reference energy:                   -129.91677065

 MP2 singlet pair energy:              -0.27433644
 MP2 triplet pair energy:              -0.16297027
 MP2 correlation energy:               -0.43730672
 MP2 total energy:                   -130.35407737

 SCS-MP2 correlation energy:           -0.43060746   (PS=  1.200000  PT=  0.333333)
 SCS-MP2 total energy:               -130.34737811

 ITER.      SQ.NORM     CORR.ENERGY   TOTAL ENERGY   ENERGY CHANGE        DEN1      VAR(S)    VAR(P)  DIIS     TIME  TIME/IT
   1      1.11899205    -0.44214213  -130.35891278    -0.00483541     0.01118328  0.30D-02  0.31D-02  1  1     0.08     0.05
   2      1.12996074    -0.44234491  -130.35911556    -0.00020277    -0.01241622  0.91D-04  0.51D-03  2  2     0.12     0.05
   3      1.13633983    -0.44273594  -130.35950659    -0.00039104    -0.00301026  0.48D-04  0.52D-04  3  3     0.17     0.05
   4      1.13920789    -0.44276369  -130.35953434    -0.00002775    -0.00097529  0.41D-05  0.91D-05  4  4     0.22     0.05
   5      1.14023037    -0.44279386  -130.35956451    -0.00003017    -0.00021197  0.13D-05  0.17D-05  5  5     0.28     0.06
   6      1.14059403    -0.44277662  -130.35954727     0.00001724    -0.00004167  0.93D-07  0.41D-06  6  6     0.34     0.06
   7      1.14067793    -0.44277888  -130.35954953    -0.00000226    -0.00000171  0.11D-07  0.90D-07  6  1     0.38     0.06
   8      1.14070819    -0.44277880  -130.35954945     0.00000008     0.00000202  0.46D-08  0.11D-07  6  2     0.43     0.06
   9      1.14071599    -0.44277862  -130.35954927     0.00000018    -0.00000234  0.26D-08  0.12D-08  6  3     0.48     0.06
  10      1.14071469    -0.44277913  -130.35954977    -0.00000051     0.00000067  0.49D-09  0.21D-09  6  4     0.54     0.06
  11      1.14071300    -0.44277918  -130.35954983    -0.00000006     0.00000015  0.15D-09  0.23D-10  6  5     0.59     0.06
  12      1.14071162    -0.44277936  -130.35955001    -0.00000018     0.00000043  0.14D-10  0.73D-11  6  6     0.64     0.06
  13      1.14071102    -0.44277937  -130.35955002    -0.00000001     0.00000012  0.63D-11  0.12D-11  6  1     0.68     0.05
  14      1.14071064    -0.44277939  -130.35955004    -0.00000002     0.00000008  0.90D-12  0.43D-12  6  2     0.73     0.05
  15      1.14071049    -0.44277939  -130.35955004    -0.00000000     0.00000001  0.23D-12  0.14D-12  6  3     0.78     0.05
  16      1.14071039    -0.44277939  -130.35955004    -0.00000000     0.00000001  0.24D-13  0.16D-13  6  5     0.83     0.05
  17      1.14071036    -0.44277940  -130.35955005    -0.00000000     0.00000000  0.60D-15  0.19D-14  6  4     0.87     0.05
  18      1.14071036    -0.44277940  -130.35955004     0.00000000    -0.00000000  0.43D-15  0.26D-15  6  1     0.92     0.05
  19      1.14071036    -0.44277940  -130.35955005    -0.00000000     0.00000000  0.46D-16  0.47D-16  6  6     0.97     0.05
  20      1.14071036    -0.44277940  -130.35955005    -0.00000000     0.00000000  0.11D-16  0.13D-16  6  2     1.02     0.05
  21      1.14071035    -0.44277940  -130.35955005    -0.00000000     0.00000000  0.16D-17  0.10D-17  6  5     1.06     0.05
  22      1.14071035    -0.44277940  -130.35955005    -0.00000000     0.00000000  0.91D-19  0.79D-19  6  3     1.11     0.05
  23      1.14071035    -0.44277940  -130.35955005     0.00000000     0.00000000  0.26D-19  0.16D-19  6  4     1.17     0.05
  24      1.14071035    -0.44277940  -130.35955005     0.00000000    -0.00000000  0.39D-20  0.44D-20  6  1     1.21     0.05
  25      1.14071035    -0.44277940  -130.35955005     0.00000000    -0.00000000  0.57D-21  0.74D-21  6  6     1.26     0.05

 Norm of t1 vector:      0.07576494      S-energy:     0.00000000      T1 diagnostic:  0.01546545
                                                                       D1 diagnostic:  0.04326571

 Doubles amplitudes (print threshold =  0.500E-01):

         I         J         SYM. A    SYM. B    A         B      T(IJ, AB)

         6         6         2         2         1         1     -0.14560309


 Total CPU time for triples:      0.35 sec


 RESULTS
 =======

  Reference energy                   -129.916770649676
  CCSD singlet pair energy             -0.303713684187
  CCSD triplet pair energy             -0.139065711396
  CCSD correlation energy              -0.442779395583

  Triples (T) contribution             -0.019955164422
  Total correlation energy             -0.462734560005

  CCSD total energy                  -130.359550045259
  CCSD[T] energy                     -130.380545846842
  CCSD-T energy                      -130.379102351476
 !CCSD(T) total energy               -130.379505209681

 Timing summary (sec):

 STEP                 CPU(USER)    SYS     CPU(TOT)    WALL
 Transformation          0.03      0.02      0.05      0.06
 CCSD iterations         1.23      0.14      1.37      1.35
 Triples                 0.35      0.01      0.36      0.36

 Program statistics:

 Available memory in ccsd:               994999756
 Min. memory needed in ccsd:                154850
 Max. memory used in ccsd:                  184802
 Max. memory used in cckext:                238416 (25 integral passes)



 **********************************************************************************************************************************
 DATASETS  * FILE   NREC   LENGTH (MB)   RECORD NAMES
              1      24       40.41       500      610      700      900      950      970     1000      129      960     1700   
                                          VAR    BASINP    GEOM    SYMINP    ZMAT    AOBASIS   BASIS     P2S    ABASIS    OPER   
                                         1101     1401     1411     1412     1650     1100     1400     1410     1200     1210   
                                          SR      EKINR    POTR     PVPR    MOLCAS      S      EKIN      POT      H0       H01  
                                         1300     1080     1600     1380   
                                         ERIS     AOSYM     SMH     JKOP   

              2       4        2.85       700     1000      520     2100   
                                         GEOM     BASIS   MCVARS     RHF  

 PROGRAMS   *        TOTAL   CCSD(T)        HF       INT
 CPU TIMES  *         2.55      1.62      0.27      0.57
 REAL TIME  *         3.48 SEC
 DISK USED  *        75.75 MB      
 **********************************************************************************************************************************

 CCSD(T)/cc-pVTZ-DK energy=   -130.379505209681

        CCSD(T)         HF-SCF  
   -130.37950521   -129.91677065
 **********************************************************************************************************************************
 Molpro calculation terminated
 Variable memory released
