
 Primary working directories    : /tmp/r2666/235269.maple
 Secondary working directories  : /tmp/r2666/235269.maple
 Wavefunction directory         : /ddn/home4/r2666/wfu/
 Main file repository           : /tmp/r2666/235269.maple/

 SHA1      : d5ffa45e93fdbca01ffc919aa182cfdae0147319
 NAME      : 2015.1.35
 ARCHNAME  : linux/x86_64
 FC        : /opt/intel/composer_xe_2015.1.133/bin/intel64/ifort
 BLASLIB   : -Wl,-_start-group /opt/intel/mkl/lib/intel64/libmkl_intel_ilp64.a /opt/intel/mkl/lib/intel64/libmkl_intel_thread.a /opt/intel/mkl/lib/intel64/libmkl_core.a -Wl,-_end-group
 id        : olemiss

 Nodes     nprocs
 cn036        1

 Using customized tuning parameters: mindgm=1; mindgv=20; mindgc=4; mindgr=1; noblas=0; minvec=7
 default implementation of scratch files=df  

 ***,hno CCSD(T)/TZ-F12 QFF
 memory, 995, m;
 gthresh,energy=1.d-12,zero=1.d-22,oneint=1.d-22,twoint=1.d-22;
 gthresh,optgrad=1.d-8,optstep=1.d-8;
 nocompress;
 geomtyp=xyz
 bohr
 geometry={
 3
        124       124
 N        0.0000000000       -0.1783373767       -1.1398958683
 H        0.0000000000        1.6784812029       -1.9260909606
 O        0.0000000000        0.0416239638        1.1153972379
 }
 
 basis=vtz-dk
 dkroll=1
   {hf,maxit=500;accu,20;}
 {ccsd(t),nocheck,maxit=250;orbital,IGNORE_ERROR;}

 Variables initialized (889), CPU time= 0.00 sec
 Commands  initialized (702), CPU time= 0.01 sec, 572 directives.
 Default parameters read. Elapsed time= 0.06 sec

 Checking input...
 Passed
1


                                         ***  PROGRAM SYSTEM MOLPRO  ***
                                       Copyright, TTI GmbH Stuttgart, 2015
                                    Version 2015.1 linked Jul  9 2018 13:16:40


 **********************************************************************************************************************************
 LABEL *   hno CCSD(T)/TZ-F12 QFF                                                        
  64 bit serial version                                                                  DATE: 08-Feb-20          TIME: 17:57:25  
 **********************************************************************************************************************************

 SHA1:             d5ffa45e93fdbca01ffc919aa182cfdae0147319
 **********************************************************************************************************************************

 THRESHOLDS:

 ZERO    =  1.00D-22  ONEINT  =  1.00D-22  TWOINT  =  1.00D-22  PREFAC  =  1.00D-14  LOCALI  =  1.00D-09  EORDER  =  1.00D-04
 ENERGY  =  1.00D-12  ETEST   =  0.00D+00  EDENS   =  0.00D+00  THRDEDEF=  1.00D-06  GRADIENT=  1.00D-02  STEP    =  1.00D-03
 ORBITAL =  1.00D-05  CIVEC   =  1.00D-05  COEFF   =  1.00D-04  PRINTCI =  5.00D-02  PUNCHCI =  9.90D+01  OPTGRAD =  3.00D-04
 OPTENERG=  1.00D-06  OPTSTEP =  3.00D-04  THRGRAD =  1.00D-10  COMPRESS=  1.00D-11  VARMIN  =  1.00D-07  VARMAX  =  1.00D-03
 THRDOUB =  0.00D+00  THRDIV  =  1.00D-05  THRRED  =  1.00D-07  THRPSP  =  1.00D+00  THRDC   =  1.00D-10  THRCS   =  1.00D-10
 THRNRM  =  1.00D-08  THREQ   =  0.00D+00  THRDE   =  1.00D+00  THRREF  =  1.00D-05  SPARFAC =  1.00D+00  THRDLP  =  1.00D-07
 THRDIA  =  1.00D-10  THRDLS  =  1.00D-07  THRGPS  =  0.00D+00  THRKEX  =  0.00D+00  THRDIS  =  2.00D-01  THRVAR  =  1.00D-10
 THRLOC  =  1.00D-06  THRGAP  =  1.00D-06  THRLOCT = -1.00D+00  THRGAPT = -1.00D+00  THRORB  =  1.00D-06  THRMLTP =  0.00D+00
 THRCPQCI=  1.00D-10  KEXTA   =  0.00D+00  THRCOARS=  0.00D+00  SYMTOL  =  1.00D-06  GRADTOL =  1.00D-06  THROVL  =  1.00D-08
 THRORTH =  1.00D-08  GRID    =  1.00D-06  GRIDMAX =  1.00D-03  DTMAX   =  0.00D+00  THROCCDE=  1.00D-01  THROCCDE=  1.00D-01



 THRESHOLDS:

 ZERO    =  1.00D-22  ONEINT  =  1.00D-22  TWOINT  =  1.00D-22  PREFAC  =  1.00D-14  LOCALI  =  1.00D-09  EORDER  =  1.00D-04
 ENERGY  =  1.00D-12  ETEST   =  0.00D+00  EDENS   =  0.00D+00  THRDEDEF=  1.00D-06  GRADIENT=  1.00D-02  STEP    =  1.00D-03
 ORBITAL =  1.00D-05  CIVEC   =  1.00D-05  COEFF   =  1.00D-04  PRINTCI =  5.00D-02  PUNCHCI =  9.90D+01  OPTGRAD =  1.00D-08
 OPTENERG=  1.00D-06  OPTSTEP =  1.00D-08  THRGRAD =  1.00D-10  COMPRESS=  1.00D-11  VARMIN  =  1.00D-07  VARMAX  =  1.00D-03
 THRDOUB =  0.00D+00  THRDIV  =  1.00D-05  THRRED  =  1.00D-07  THRPSP  =  1.00D+00  THRDC   =  1.00D-10  THRCS   =  1.00D-10
 THRNRM  =  1.00D-08  THREQ   =  0.00D+00  THRDE   =  1.00D+00  THRREF  =  1.00D-05  SPARFAC =  1.00D+00  THRDLP  =  1.00D-07
 THRDIA  =  1.00D-10  THRDLS  =  1.00D-07  THRGPS  =  0.00D+00  THRKEX  =  0.00D+00  THRDIS  =  2.00D-01  THRVAR  =  1.00D-10
 THRLOC  =  1.00D-06  THRGAP  =  1.00D-06  THRLOCT = -1.00D+00  THRGAPT = -1.00D+00  THRORB  =  1.00D-06  THRMLTP =  0.00D+00
 THRCPQCI=  1.00D-10  KEXTA   =  0.00D+00  THRCOARS=  0.00D+00  SYMTOL  =  1.00D-06  GRADTOL =  1.00D-06  THROVL  =  1.00D-08
 THRORTH =  1.00D-08  GRID    =  1.00D-06  GRIDMAX =  1.00D-03  DTMAX   =  0.00D+00  THROCCDE=  1.00D-01  THROCCDE=  1.00D-01



 Input parameters for SORTINT:

 COMPRESS =    0.000000
 C_FINAL  =    1.000000
 DEBUG    =   -1.000000
 C_SORT1  =    0.000000
 C_SEWARD =    0.000000
 THRESH   =    0.000000
 IO       =  molpro                                                          
 SPRI     =    0.000000
 SETTING GEOMTYP        =    XYZ
 ZUNIT=BOHR
 

 Variable memory set to  995000000 words,  buffer space   230000 words

 SETTING BASIS          =    VTZ-DK
 SETTING DKROLL         =         1.00000000                                  


 Recomputing integrals since basis changed


 Using spherical harmonics

 Library entry N      S cc-pVTZ-DK           selected for orbital group  1
 Library entry N      P cc-pVTZ-DK           selected for orbital group  1
 Library entry N      D cc-pVTZ-DK           selected for orbital group  1
 Library entry N      F cc-pVTZ-DK           selected for orbital group  1
 Library entry H      S cc-pVTZ-DK           selected for orbital group  2
 Library entry H      P cc-pVTZ-DK           selected for orbital group  2
 Library entry H      D cc-pVTZ-DK           selected for orbital group  2
 Library entry O      S cc-pVTZ-DK           selected for orbital group  3
 Library entry O      P cc-pVTZ-DK           selected for orbital group  3
 Library entry O      D cc-pVTZ-DK           selected for orbital group  3
 Library entry O      F cc-pVTZ-DK           selected for orbital group  3


 PROGRAM * SEWARD (Integral evaluation for generally contracted gaussian basis sets)     Author: Roland Lindh, 1990

 Geometry written to block  1 of record 700


 Point group  Cs  



 ATOMIC COORDINATES

 NR  ATOM    CHARGE       X              Y              Z

   1  N       7.00    0.000000000   -0.178337377   -1.139895868
   2  H       1.00    0.000000000    1.678481203   -1.926090961
   3  O       8.00    0.000000000    0.041623964    1.115397238

 Bond lengths in Bohr (Angstrom)

 1-2  2.016402232  1-3  2.265994260
     ( 1.067034109)     ( 1.199112522)

 Bond angles

  2-1-3  107.37776771

 NUCLEAR CHARGE:                   16
 NUMBER OF PRIMITIVE AOS:         111
 NUMBER OF SYMMETRY AOS:          100
 NUMBER OF CONTRACTIONS:           74   (  50A'  +  24A"  )
 NUMBER OF CORE ORBITALS:           2   (   2A'  +   0A"  )
 NUMBER OF VALENCE ORBITALS:        9   (   7A'  +   2A"  )


 NUCLEAR REPULSION ENERGY   30.50091421

 One-electron integrals computed with SEWARD

 2nd-order Douglas-Kroll-Hess method activated. Optimal DKH parametrization is used.

 Computing Douglas-Kroll / X2C integrals


        1874283. INTEGRALS WRITTEN OUT IN     458 BLOCKS ON RECORD 1290 OF FILE 1


 NUMBER OF SORTED TWO-ELECTRON INTEGRALS:    2006100.     BUFFER LENGTH:  32768
 NUMBER OF SEGMENTS:   1  SEGMENT LENGTH:    2006100      RECORD LENGTH: 524288

 Memory used in sort:       2.56 MW

 SORT1 READ     1874283. AND WROTE     1914195. INTEGRALS IN      6 RECORDS. CPU TIME:     0.04 SEC, REAL TIME:     0.07 SEC
 SORT2 READ     1914195. AND WROTE     2006100. INTEGRALS IN      1 RECORDS. CPU TIME:     0.05 SEC, REAL TIME:     0.05 SEC

 FILE SIZES:   FILE 1:    50.2 MBYTE,  FILE 4:    25.2 MBYTE,   TOTAL:     75.4 MBYTE

 OPERATOR DM      FOR CENTER  0  COORDINATES:    0.000000    0.000000    0.000000

 Eigenvalues of metric

         1 0.246E-02 0.395E-02 0.409E-02 0.856E-02 0.133E-01 0.325E-01 0.421E-01 0.465E-01
         2 0.340E-01 0.466E-01 0.101E+00 0.115E+00 0.233E+00 0.346E+00 0.396E+00 0.449E+00


 **********************************************************************************************************************************
 DATASETS  * FILE   NREC   LENGTH (MB)   RECORD NAMES
              1      23       36.03       500      610      700      900      950      970     1000      129      960     1700   
                                          VAR    BASINP    GEOM    SYMINP    ZMAT    AOBASIS   BASIS     P2S    ABASIS    OPER   
                                         1101     1401     1411     1412     1650     1100     1400     1410     1200     1210   
                                          SR      EKINR    POTR     PVPR    MOLCAS      S      EKIN      POT      H0       H01  
                                         1300     1080     1600   
                                         ERIS     AOSYM     SMH  

 PROGRAMS   *        TOTAL       INT
 CPU TIMES  *         0.64      0.54
 REAL TIME  *         1.26 SEC
 DISK USED  *        75.75 MB      
 **********************************************************************************************************************************


 PROGRAM * RHF-SCF (CLOSED SHELL)       Authors: W. Meyer, H.-J. Werner


 NUMBER OF ELECTRONS:       8+    8-
 CONVERGENCE THRESHOLDS:    1.00E-10 (Density)    1.00E-13 (Energy)
 MAX. NUMBER OF ITERATIONS:      500
 INTERPOLATION TYPE:            DIIS
 INTERPOLATION STEPS:              2 (START)      1 (STEP)
 LEVEL SHIFTS:                  0.00 (CLOSED)  0.00 (OPEN) 



 Orbital guess generated from atomic densities. Full valence occupancy:    9   2

 Molecular orbital dump at record        2100.2

 Initial occupancy:   7   1

 ITERATION    DDIFF          GRAD             ENERGY        2-EL.EN.            DIPOLE MOMENTS         DIIS   ORB.
    1      0.000D+00      0.000D+00      -129.86850620    154.451677    0.00000    0.56913   -1.01171    0    start
    2      0.000D+00      0.135D-01      -129.89548149    155.592482    0.00000    0.60705   -0.21500    1    diag
    3      0.184D-01      0.102D-01      -129.91719469    155.700769    0.00000    0.54951   -0.58266    2    diag
    4      0.890D-02      0.153D-02      -129.91791558    155.439547    0.00000    0.55837   -0.52498    3    diag
    5      0.164D-02      0.512D-03      -129.91802998    155.525326    0.00000    0.56386   -0.52616    4    diag
    6      0.715D-03      0.154D-03      -129.91804907    155.510242    0.00000    0.56441   -0.52207    5    diag
    7      0.279D-03      0.763D-04      -129.91805452    155.512687    0.00000    0.56569   -0.51966    6    diag
    8      0.191D-03      0.239D-04      -129.91805501    155.512016    0.00000    0.56571   -0.51889    7    diag
    9      0.621D-04      0.434D-05      -129.91805503    155.511905    0.00000    0.56566   -0.51875    8    diag
   10      0.119D-04      0.968D-06      -129.91805503    155.511887    0.00000    0.56563   -0.51872    9    orth
   11      0.272D-05      0.192D-06      -129.91805503    155.511882    0.00000    0.56562   -0.51872    9    diag
   12      0.511D-06      0.400D-07      -129.91805503    155.511881    0.00000    0.56562   -0.51872    9    diag
   13      0.114D-06      0.988D-08      -129.91805503    155.511880    0.00000    0.56562   -0.51872    9    diag
   14      0.285D-07      0.184D-08      -129.91805503    155.511880    0.00000    0.56562   -0.51872    9    diag
   15      0.480D-08      0.498D-09      -129.91805503    155.511880    0.00000    0.56562   -0.51872    9    diag
   16      0.116D-08      0.135D-09      -129.91805503    155.511880    0.00000    0.56562   -0.51872    9    diag
   17      0.240D-09      0.415D-10      -129.91805503    155.511880    0.00000    0.56562   -0.51872    9    diag
   18      0.826D-10      0.133D-10      -129.91805503    155.511880    0.00000    0.56562   -0.51872    0    orth

 Final occupancy:   7   1

 !RHF STATE 1.1 Energy               -129.918055027419
 Nuclear energy                        30.50091421
 One-electron energy                 -238.17490930
 Two-electron energy                   77.75594007
 Virial quotient                       -0.99743619
 !RHF STATE 1.1 Dipole moment           0.00000000     0.56561991    -0.51871726
 Dipole moment /Debye                   0.00000000     1.43756824    -1.31836142

 Orbital energies:

         1.1          2.1          3.1          4.1          5.1          6.1          7.1          8.1          9.1
    -20.664375   -15.717548    -1.535026    -0.985962    -0.744250    -0.664195    -0.423689     0.143747     0.370737

         1.2          2.2          3.2
     -0.596469     0.089804     0.611922

 HOMO      7.1    -0.423689 =     -11.5292eV
 LUMO      2.2     0.089804 =       2.4437eV
 LUMO-HOMO         0.513493 =      13.9729eV


 **********************************************************************************************************************************
 DATASETS  * FILE   NREC   LENGTH (MB)   RECORD NAMES
              1      23       36.03       500      610      700      900      950      970     1000      129      960     1700   
                                          VAR    BASINP    GEOM    SYMINP    ZMAT    AOBASIS   BASIS     P2S    ABASIS    OPER   
                                         1101     1401     1411     1412     1650     1100     1400     1410     1200     1210   
                                          SR      EKINR    POTR     PVPR    MOLCAS      S      EKIN      POT      H0       H01  
                                         1300     1080     1600   
                                         ERIS     AOSYM     SMH  

              2       4        2.85       700     1000      520     2100   
                                         GEOM     BASIS   MCVARS     RHF  

 PROGRAMS   *        TOTAL        HF       INT
 CPU TIMES  *         0.86      0.22      0.54
 REAL TIME  *         1.54 SEC
 DISK USED  *        75.75 MB      
 **********************************************************************************************************************************


 PROGRAM * CCSD (Closed-shell coupled cluster)     Authors: C. Hampel, H.-J. Werner, 1991, M. Deegan, P.J. Knowles, 1992


 Convergence thresholds:  THRVAR = 1.00D-08  THRDEN = 1.00D-12

 CCSD(T)     terms to be evaluated (factor= 1.000)


 Number of core orbitals:           2 (   2   0 )
 Number of closed-shell orbitals:   6 (   5   1 )
 Number of external orbitals:      66 (  43  23 )

 Molecular orbitals read from record     2100.2  Type=RHF/CANONICAL (state 1.1)

 Number of N-1 electron functions:               6
 Number of N-2 electron functions:              21
 Number of singly external CSFs:               238
 Number of doubly external CSFs:             41002
 Total number of CSFs:                       41241

 Length of J-op  integral file:               0.00 MB
 Length of K-op  integral file:               0.25 MB
 Length of 3-ext integral record:             0.00 MB

 Memory could be reduced to 1.65 Mwords without degradation in triples

 Integral transformation finished. Total CPU:   0.04 sec, npass=  1  Memory used:   0.55 MW

 Reference energy:                   -129.91805503

 MP2 singlet pair energy:              -0.27320061
 MP2 triplet pair energy:              -0.16218662
 MP2 correlation energy:               -0.43538722
 MP2 total energy:                   -130.35344225

 SCS-MP2 correlation energy:           -0.42875684   (PS=  1.200000  PT=  0.333333)
 SCS-MP2 total energy:               -130.34681187

 ITER.      SQ.NORM     CORR.ENERGY   TOTAL ENERGY   ENERGY CHANGE        DEN1      VAR(S)    VAR(P)  DIIS     TIME  TIME/IT
   1      1.11800937    -0.44075427  -130.35880930    -0.00536705     0.01018325  0.29D-02  0.29D-02  1  1     0.09     0.05
   2      1.12873000    -0.44106684  -130.35912187    -0.00031257    -0.01215245  0.85D-04  0.50D-03  2  2     0.14     0.05
   3      1.13490936    -0.44144762  -130.35950264    -0.00038077    -0.00295113  0.46D-04  0.49D-04  3  3     0.18     0.05
   4      1.13763346    -0.44147207  -130.35952710    -0.00002445    -0.00093872  0.40D-05  0.85D-05  4  4     0.23     0.05
   5      1.13859525    -0.44150082  -130.35955584    -0.00002875    -0.00019964  0.14D-05  0.16D-05  5  5     0.28     0.05
   6      1.13894643    -0.44148505  -130.35954008     0.00001576    -0.00003963  0.11D-06  0.39D-06  6  6     0.32     0.05
   7      1.13903332    -0.44148664  -130.35954167    -0.00000159    -0.00000251  0.14D-07  0.80D-07  6  1     0.37     0.05
   8      1.13906432    -0.44148665  -130.35954167    -0.00000000     0.00000165  0.38D-08  0.96D-08  6  2     0.41     0.05
   9      1.13907203    -0.44148642  -130.35954144     0.00000023    -0.00000214  0.23D-08  0.11D-08  6  3     0.46     0.05
  10      1.13907093    -0.44148690  -130.35954193    -0.00000049     0.00000056  0.45D-09  0.19D-09  6  4     0.51     0.05
  11      1.13906922    -0.44148696  -130.35954199    -0.00000006     0.00000020  0.14D-09  0.22D-10  6  5     0.56     0.05
  12      1.13906785    -0.44148713  -130.35954216    -0.00000017     0.00000042  0.15D-10  0.74D-11  6  6     0.60     0.05
  13      1.13906724    -0.44148714  -130.35954216    -0.00000001     0.00000012  0.67D-11  0.12D-11  6  1     0.65     0.05
  14      1.13906686    -0.44148715  -130.35954218    -0.00000002     0.00000007  0.95D-12  0.40D-12  6  2     0.71     0.05
  15      1.13906673    -0.44148716  -130.35954218    -0.00000000     0.00000001  0.25D-12  0.13D-12  6  3     0.75     0.05
  16      1.13906663    -0.44148716  -130.35954218    -0.00000000     0.00000001  0.24D-13  0.14D-13  6  5     0.80     0.05
  17      1.13906660    -0.44148716  -130.35954219    -0.00000000     0.00000000  0.61D-15  0.20D-14  6  4     0.84     0.05
  18      1.13906660    -0.44148716  -130.35954219     0.00000000    -0.00000000  0.43D-15  0.29D-15  6  1     0.89     0.05
  19      1.13906660    -0.44148716  -130.35954219    -0.00000000     0.00000000  0.36D-16  0.50D-16  6  6     0.94     0.05
  20      1.13906660    -0.44148716  -130.35954219    -0.00000000     0.00000000  0.75D-17  0.12D-16  6  2     0.99     0.05
  21      1.13906660    -0.44148716  -130.35954219    -0.00000000     0.00000000  0.17D-17  0.95D-18  6  5     1.04     0.05
  22      1.13906660    -0.44148716  -130.35954219     0.00000000     0.00000000  0.96D-19  0.69D-19  6  3     1.08     0.05
  23      1.13906660    -0.44148716  -130.35954219     0.00000000    -0.00000000  0.27D-19  0.15D-19  6  4     1.13     0.05
  24      1.13906660    -0.44148716  -130.35954219     0.00000000    -0.00000000  0.40D-20  0.39D-20  6  1     1.18     0.05
  25      1.13906660    -0.44148716  -130.35954219     0.00000000    -0.00000000  0.52D-21  0.69D-21  6  6     1.22     0.05

 Norm of t1 vector:      0.07430027      S-energy:     0.00000000      T1 diagnostic:  0.01516648
                                                                       D1 diagnostic:  0.04128597

 Doubles amplitudes (print threshold =  0.500E-01):

         I         J         SYM. A    SYM. B    A         B      T(IJ, AB)

         6         6         2         2         1         1     -0.14108005


 Total CPU time for triples:      0.37 sec


 RESULTS
 =======

  Reference energy                   -129.918055027419
  CCSD singlet pair energy             -0.302578428302
  CCSD triplet pair energy             -0.138908730297
  CCSD correlation energy              -0.441487158597

  Triples (T) contribution             -0.019619938033
  Total correlation energy             -0.461107096631

  CCSD total energy                  -130.359542186016
  CCSD[T] energy                     -130.380156727197
  CCSD-T energy                      -130.378767909444
 !CCSD(T) total energy               -130.379162124049

 Timing summary (sec):

 STEP                 CPU(USER)    SYS     CPU(TOT)    WALL
 Transformation          0.04      0.01      0.05      0.05
 CCSD iterations         1.18      0.11      1.29      1.29
 Triples                 0.37      0.01      0.38      0.38

 Program statistics:

 Available memory in ccsd:               994999756
 Min. memory needed in ccsd:                154850
 Max. memory used in ccsd:                  184802
 Max. memory used in cckext:                238416 (25 integral passes)



 **********************************************************************************************************************************
 DATASETS  * FILE   NREC   LENGTH (MB)   RECORD NAMES
              1      24       40.41       500      610      700      900      950      970     1000      129      960     1700   
                                          VAR    BASINP    GEOM    SYMINP    ZMAT    AOBASIS   BASIS     P2S    ABASIS    OPER   
                                         1101     1401     1411     1412     1650     1100     1400     1410     1200     1210   
                                          SR      EKINR    POTR     PVPR    MOLCAS      S      EKIN      POT      H0       H01  
                                         1300     1080     1600     1380   
                                         ERIS     AOSYM     SMH     JKOP   

              2       4        2.85       700     1000      520     2100   
                                         GEOM     BASIS   MCVARS     RHF  

 PROGRAMS   *        TOTAL   CCSD(T)        HF       INT
 CPU TIMES  *         2.48      1.62      0.22      0.54
 REAL TIME  *         3.31 SEC
 DISK USED  *        75.75 MB      
 **********************************************************************************************************************************

 CCSD(T)/cc-pVTZ-DK energy=   -130.379162124049

        CCSD(T)         HF-SCF  
   -130.37916212   -129.91805503
 **********************************************************************************************************************************
 Molpro calculation terminated
 Variable memory released
