
 Primary working directories    : /tmp/r2666/235256.maple
 Secondary working directories  : /tmp/r2666/235256.maple
 Wavefunction directory         : /ddn/home4/r2666/wfu/
 Main file repository           : /tmp/r2666/235256.maple/

 SHA1      : d5ffa45e93fdbca01ffc919aa182cfdae0147319
 NAME      : 2015.1.35
 ARCHNAME  : linux/x86_64
 FC        : /opt/intel/composer_xe_2015.1.133/bin/intel64/ifort
 BLASLIB   : -Wl,-_start-group /opt/intel/mkl/lib/intel64/libmkl_intel_ilp64.a /opt/intel/mkl/lib/intel64/libmkl_intel_thread.a /opt/intel/mkl/lib/intel64/libmkl_core.a -Wl,-_end-group
 id        : olemiss

 Nodes     nprocs
 cn031        1

 Using customized tuning parameters: mindgm=1; mindgv=20; mindgc=4; mindgr=1; noblas=0; minvec=7
 default implementation of scratch files=df  

 ***,hno CCSD(T)/TZ-F12 QFF
 memory, 995, m;
 gthresh,energy=1.d-12,zero=1.d-22,oneint=1.d-22,twoint=1.d-22;
 gthresh,optgrad=1.d-8,optstep=1.d-8;
 nocompress;
 geomtyp=xyz
 bohr
 geometry={
 3
        111       111
 N        0.0000000000       -0.1742268671       -1.1393007636
 H        0.0000000000        1.6735748911       -1.9225576965
 O        0.0000000000        0.0424197660        1.1112688691
 }
 
 basis=vtz-dk
 dkroll=1
   {hf,maxit=500;accu,20;}
 {ccsd(t),nocheck,maxit=250;orbital,IGNORE_ERROR;}

 Variables initialized (889), CPU time= 0.00 sec
 Commands  initialized (702), CPU time= 0.01 sec, 572 directives.
 Default parameters read. Elapsed time= 0.06 sec

 Checking input...
 Passed
1


                                         ***  PROGRAM SYSTEM MOLPRO  ***
                                       Copyright, TTI GmbH Stuttgart, 2015
                                    Version 2015.1 linked Jul  9 2018 13:16:40


 **********************************************************************************************************************************
 LABEL *   hno CCSD(T)/TZ-F12 QFF                                                        
  64 bit serial version                                                                  DATE: 08-Feb-20          TIME: 17:57:24  
 **********************************************************************************************************************************

 SHA1:             d5ffa45e93fdbca01ffc919aa182cfdae0147319
 **********************************************************************************************************************************

 THRESHOLDS:

 ZERO    =  1.00D-22  ONEINT  =  1.00D-22  TWOINT  =  1.00D-22  PREFAC  =  1.00D-14  LOCALI  =  1.00D-09  EORDER  =  1.00D-04
 ENERGY  =  1.00D-12  ETEST   =  0.00D+00  EDENS   =  0.00D+00  THRDEDEF=  1.00D-06  GRADIENT=  1.00D-02  STEP    =  1.00D-03
 ORBITAL =  1.00D-05  CIVEC   =  1.00D-05  COEFF   =  1.00D-04  PRINTCI =  5.00D-02  PUNCHCI =  9.90D+01  OPTGRAD =  3.00D-04
 OPTENERG=  1.00D-06  OPTSTEP =  3.00D-04  THRGRAD =  1.00D-10  COMPRESS=  1.00D-11  VARMIN  =  1.00D-07  VARMAX  =  1.00D-03
 THRDOUB =  0.00D+00  THRDIV  =  1.00D-05  THRRED  =  1.00D-07  THRPSP  =  1.00D+00  THRDC   =  1.00D-10  THRCS   =  1.00D-10
 THRNRM  =  1.00D-08  THREQ   =  0.00D+00  THRDE   =  1.00D+00  THRREF  =  1.00D-05  SPARFAC =  1.00D+00  THRDLP  =  1.00D-07
 THRDIA  =  1.00D-10  THRDLS  =  1.00D-07  THRGPS  =  0.00D+00  THRKEX  =  0.00D+00  THRDIS  =  2.00D-01  THRVAR  =  1.00D-10
 THRLOC  =  1.00D-06  THRGAP  =  1.00D-06  THRLOCT = -1.00D+00  THRGAPT = -1.00D+00  THRORB  =  1.00D-06  THRMLTP =  0.00D+00
 THRCPQCI=  1.00D-10  KEXTA   =  0.00D+00  THRCOARS=  0.00D+00  SYMTOL  =  1.00D-06  GRADTOL =  1.00D-06  THROVL  =  1.00D-08
 THRORTH =  1.00D-08  GRID    =  1.00D-06  GRIDMAX =  1.00D-03  DTMAX   =  0.00D+00  THROCCDE=  1.00D-01  THROCCDE=  1.00D-01



 THRESHOLDS:

 ZERO    =  1.00D-22  ONEINT  =  1.00D-22  TWOINT  =  1.00D-22  PREFAC  =  1.00D-14  LOCALI  =  1.00D-09  EORDER  =  1.00D-04
 ENERGY  =  1.00D-12  ETEST   =  0.00D+00  EDENS   =  0.00D+00  THRDEDEF=  1.00D-06  GRADIENT=  1.00D-02  STEP    =  1.00D-03
 ORBITAL =  1.00D-05  CIVEC   =  1.00D-05  COEFF   =  1.00D-04  PRINTCI =  5.00D-02  PUNCHCI =  9.90D+01  OPTGRAD =  1.00D-08
 OPTENERG=  1.00D-06  OPTSTEP =  1.00D-08  THRGRAD =  1.00D-10  COMPRESS=  1.00D-11  VARMIN  =  1.00D-07  VARMAX  =  1.00D-03
 THRDOUB =  0.00D+00  THRDIV  =  1.00D-05  THRRED  =  1.00D-07  THRPSP  =  1.00D+00  THRDC   =  1.00D-10  THRCS   =  1.00D-10
 THRNRM  =  1.00D-08  THREQ   =  0.00D+00  THRDE   =  1.00D+00  THRREF  =  1.00D-05  SPARFAC =  1.00D+00  THRDLP  =  1.00D-07
 THRDIA  =  1.00D-10  THRDLS  =  1.00D-07  THRGPS  =  0.00D+00  THRKEX  =  0.00D+00  THRDIS  =  2.00D-01  THRVAR  =  1.00D-10
 THRLOC  =  1.00D-06  THRGAP  =  1.00D-06  THRLOCT = -1.00D+00  THRGAPT = -1.00D+00  THRORB  =  1.00D-06  THRMLTP =  0.00D+00
 THRCPQCI=  1.00D-10  KEXTA   =  0.00D+00  THRCOARS=  0.00D+00  SYMTOL  =  1.00D-06  GRADTOL =  1.00D-06  THROVL  =  1.00D-08
 THRORTH =  1.00D-08  GRID    =  1.00D-06  GRIDMAX =  1.00D-03  DTMAX   =  0.00D+00  THROCCDE=  1.00D-01  THROCCDE=  1.00D-01



 Input parameters for SORTINT:

 COMPRESS =    0.000000
 C_FINAL  =    1.000000
 DEBUG    =   -1.000000
 C_SORT1  =    0.000000
 C_SEWARD =    0.000000
 THRESH   =    0.000000
 IO       =  molpro                                                          
 SPRI     =    0.000000
 SETTING GEOMTYP        =    XYZ
 ZUNIT=BOHR
 

 Variable memory set to  995000000 words,  buffer space   230000 words

 SETTING BASIS          =    VTZ-DK
 SETTING DKROLL         =         1.00000000                                  


 Recomputing integrals since basis changed


 Using spherical harmonics

 Library entry N      S cc-pVTZ-DK           selected for orbital group  1
 Library entry N      P cc-pVTZ-DK           selected for orbital group  1
 Library entry N      D cc-pVTZ-DK           selected for orbital group  1
 Library entry N      F cc-pVTZ-DK           selected for orbital group  1
 Library entry H      S cc-pVTZ-DK           selected for orbital group  2
 Library entry H      P cc-pVTZ-DK           selected for orbital group  2
 Library entry H      D cc-pVTZ-DK           selected for orbital group  2
 Library entry O      S cc-pVTZ-DK           selected for orbital group  3
 Library entry O      P cc-pVTZ-DK           selected for orbital group  3
 Library entry O      D cc-pVTZ-DK           selected for orbital group  3
 Library entry O      F cc-pVTZ-DK           selected for orbital group  3


 PROGRAM * SEWARD (Integral evaluation for generally contracted gaussian basis sets)     Author: Roland Lindh, 1990

 Geometry written to block  1 of record 700


 Point group  Cs  



 ATOMIC COORDINATES

 NR  ATOM    CHARGE       X              Y              Z

   1  N       7.00    0.000000000   -0.174226867   -1.139300764
   2  H       1.00    0.000000000    1.673574891   -1.922557696
   3  O       8.00    0.000000000    0.042419766    1.111268869

 Bond lengths in Bohr (Angstrom)

 1-2  2.006953602  1-3  2.260973117
     ( 1.062034110)     ( 1.196455448)

 Bond angles

  2-1-3  107.47287585

 NUCLEAR CHARGE:                   16
 NUMBER OF PRIMITIVE AOS:         111
 NUMBER OF SYMMETRY AOS:          100
 NUMBER OF CONTRACTIONS:           74   (  50A'  +  24A"  )
 NUMBER OF CORE ORBITALS:           2   (   2A'  +   0A"  )
 NUMBER OF VALENCE ORBITALS:        9   (   7A'  +   2A"  )


 NUCLEAR REPULSION ENERGY   30.57849425

 One-electron integrals computed with SEWARD

 2nd-order Douglas-Kroll-Hess method activated. Optimal DKH parametrization is used.

 Computing Douglas-Kroll / X2C integrals


        1874283. INTEGRALS WRITTEN OUT IN     458 BLOCKS ON RECORD 1290 OF FILE 1


 NUMBER OF SORTED TWO-ELECTRON INTEGRALS:    2006100.     BUFFER LENGTH:  32768
 NUMBER OF SEGMENTS:   1  SEGMENT LENGTH:    2006100      RECORD LENGTH: 524288

 Memory used in sort:       2.56 MW

 SORT1 READ     1874283. AND WROTE     1914195. INTEGRALS IN      6 RECORDS. CPU TIME:     0.08 SEC, REAL TIME:     0.08 SEC
 SORT2 READ     1914195. AND WROTE     2006100. INTEGRALS IN      1 RECORDS. CPU TIME:     0.08 SEC, REAL TIME:     0.09 SEC

 FILE SIZES:   FILE 1:    50.2 MBYTE,  FILE 4:    25.2 MBYTE,   TOTAL:     75.4 MBYTE

 OPERATOR DM      FOR CENTER  0  COORDINATES:    0.000000    0.000000    0.000000

 Eigenvalues of metric

         1 0.244E-02 0.392E-02 0.406E-02 0.846E-02 0.132E-01 0.322E-01 0.419E-01 0.464E-01
         2 0.338E-01 0.465E-01 0.100E+00 0.114E+00 0.232E+00 0.344E+00 0.394E+00 0.447E+00


 **********************************************************************************************************************************
 DATASETS  * FILE   NREC   LENGTH (MB)   RECORD NAMES
              1      23       36.03       500      610      700      900      950      970     1000      129      960     1700   
                                          VAR    BASINP    GEOM    SYMINP    ZMAT    AOBASIS   BASIS     P2S    ABASIS    OPER   
                                         1101     1401     1411     1412     1650     1100     1400     1410     1200     1210   
                                          SR      EKINR    POTR     PVPR    MOLCAS      S      EKIN      POT      H0       H01  
                                         1300     1080     1600   
                                         ERIS     AOSYM     SMH  

 PROGRAMS   *        TOTAL       INT
 CPU TIMES  *         0.80      0.69
 REAL TIME  *         1.60 SEC
 DISK USED  *        75.75 MB      
 **********************************************************************************************************************************


 PROGRAM * RHF-SCF (CLOSED SHELL)       Authors: W. Meyer, H.-J. Werner


 NUMBER OF ELECTRONS:       8+    8-
 CONVERGENCE THRESHOLDS:    1.00E-10 (Density)    1.00E-13 (Energy)
 MAX. NUMBER OF ITERATIONS:      500
 INTERPOLATION TYPE:            DIIS
 INTERPOLATION STEPS:              2 (START)      1 (STEP)
 LEVEL SHIFTS:                  0.00 (CLOSED)  0.00 (OPEN) 



 Orbital guess generated from atomic densities. Full valence occupancy:    9   2

 Molecular orbital dump at record        2100.2

 Initial occupancy:   7   1

 ITERATION    DDIFF          GRAD             ENERGY        2-EL.EN.            DIPOLE MOMENTS         DIIS   ORB.
    1      0.000D+00      0.000D+00      -129.86963604    154.594968    0.00000    0.57216   -1.00315    0    start
    2      0.000D+00      0.135D-01      -129.89667514    155.734403    0.00000    0.60580   -0.21860    1    diag
    3      0.183D-01      0.101D-01      -129.91775689    155.838946    0.00000    0.55047   -0.57988    2    diag
    4      0.880D-02      0.153D-02      -129.91847178    155.580217    0.00000    0.55938   -0.52261    3    diag
    5      0.164D-02      0.508D-03      -129.91858421    155.665426    0.00000    0.56482   -0.52385    4    diag
    6      0.709D-03      0.153D-03      -129.91860289    155.650465    0.00000    0.56538   -0.51982    5    diag
    7      0.276D-03      0.754D-04      -129.91860819    155.652918    0.00000    0.56666   -0.51745    6    diag
    8      0.189D-03      0.234D-04      -129.91860865    155.652263    0.00000    0.56668   -0.51671    7    diag
    9      0.605D-04      0.423D-05      -129.91860867    155.652156    0.00000    0.56663   -0.51657    8    diag
   10      0.116D-04      0.951D-06      -129.91860867    155.652138    0.00000    0.56660   -0.51654    9    orth
   11      0.269D-05      0.189D-06      -129.91860867    155.652133    0.00000    0.56659   -0.51654    9    diag
   12      0.504D-06      0.390D-07      -129.91860867    155.652132    0.00000    0.56659   -0.51654    9    diag
   13      0.112D-06      0.957D-08      -129.91860867    155.652131    0.00000    0.56659   -0.51654    9    diag
   14      0.277D-07      0.179D-08      -129.91860867    155.652131    0.00000    0.56659   -0.51654    9    diag
   15      0.473D-08      0.490D-09      -129.91860867    155.652131    0.00000    0.56659   -0.51654    9    diag
   16      0.114D-08      0.134D-09      -129.91860867    155.652131    0.00000    0.56659   -0.51654    9    diag
   17      0.242D-09      0.411D-10      -129.91860867    155.652131    0.00000    0.56659   -0.51654    9    diag
   18      0.828D-10      0.129D-10      -129.91860867    155.652131    0.00000    0.56659   -0.51654    9    diag
   19      0.299D-10      0.280D-11      -129.91860867    155.652131    0.00000    0.56659   -0.51654    9    fixocc
   20      0.686D-11      0.442D-12      -129.91860867    155.652131    0.00000    0.56659   -0.51654    0    orth

 Final occupancy:   7   1

 !RHF STATE 1.1 Energy               -129.918608666773
 Nuclear energy                        30.57849425
 One-electron energy                 -238.32316862
 Two-electron energy                   77.82606570
 Virial quotient                       -0.99729812
 !RHF STATE 1.1 Dipole moment           0.00000000     0.56658699    -0.51653812
 Dipole moment /Debye                   0.00000000     1.44002615    -1.31282296

 Orbital energies:

         1.1          2.1          3.1          4.1          5.1          6.1          7.1          8.1          9.1
    -20.664014   -15.716375    -1.537228    -0.986581    -0.745615    -0.664960    -0.423096     0.144225     0.371054

         1.2          2.2          3.2
     -0.597650     0.090810     0.611660

 HOMO      7.1    -0.423096 =     -11.5130eV
 LUMO      2.2     0.090810 =       2.4711eV
 LUMO-HOMO         0.513906 =      13.9841eV


 **********************************************************************************************************************************
 DATASETS  * FILE   NREC   LENGTH (MB)   RECORD NAMES
              1      23       36.03       500      610      700      900      950      970     1000      129      960     1700   
                                          VAR    BASINP    GEOM    SYMINP    ZMAT    AOBASIS   BASIS     P2S    ABASIS    OPER   
                                         1101     1401     1411     1412     1650     1100     1400     1410     1200     1210   
                                          SR      EKINR    POTR     PVPR    MOLCAS      S      EKIN      POT      H0       H01  
                                         1300     1080     1600   
                                         ERIS     AOSYM     SMH  

              2       4        2.85       700     1000      520     2100   
                                         GEOM     BASIS   MCVARS     RHF  

 PROGRAMS   *        TOTAL        HF       INT
 CPU TIMES  *         1.10      0.30      0.69
 REAL TIME  *         2.00 SEC
 DISK USED  *        75.75 MB      
 **********************************************************************************************************************************


 PROGRAM * CCSD (Closed-shell coupled cluster)     Authors: C. Hampel, H.-J. Werner, 1991, M. Deegan, P.J. Knowles, 1992


 Convergence thresholds:  THRVAR = 1.00D-08  THRDEN = 1.00D-12

 CCSD(T)     terms to be evaluated (factor= 1.000)


 Number of core orbitals:           2 (   2   0 )
 Number of closed-shell orbitals:   6 (   5   1 )
 Number of external orbitals:      66 (  43  23 )

 Molecular orbitals read from record     2100.2  Type=RHF/CANONICAL (state 1.1)

 Number of N-1 electron functions:               6
 Number of N-2 electron functions:              21
 Number of singly external CSFs:               238
 Number of doubly external CSFs:             41002
 Total number of CSFs:                       41241

 Length of J-op  integral file:               0.00 MB
 Length of K-op  integral file:               0.25 MB
 Length of 3-ext integral record:             0.00 MB

 Memory could be reduced to 1.65 Mwords without degradation in triples

 Integral transformation finished. Total CPU:   0.04 sec, npass=  1  Memory used:   0.55 MW

 Reference energy:                   -129.91860867

 MP2 singlet pair energy:              -0.27280231
 MP2 triplet pair energy:              -0.16193736
 MP2 correlation energy:               -0.43473967
 MP2 total energy:                   -130.35334833

 SCS-MP2 correlation energy:           -0.42812380   (PS=  1.200000  PT=  0.333333)
 SCS-MP2 total energy:               -130.34673246

 ITER.      SQ.NORM     CORR.ENERGY   TOTAL ENERGY   ENERGY CHANGE        DEN1      VAR(S)    VAR(P)  DIIS     TIME  TIME/IT
   1      1.11755199    -0.44021592  -130.35882459    -0.00547625     0.00992482  0.28D-02  0.29D-02  1  1     0.10     0.06
   2      1.12817536    -0.44054899  -130.35915765    -0.00033306    -0.01206368  0.83D-04  0.49D-03  2  2     0.16     0.07
   3      1.13426784    -0.44092217  -130.35953084    -0.00037318    -0.00292098  0.45D-04  0.48D-04  3  3     0.22     0.07
   4      1.13695085    -0.44094692  -130.35955559    -0.00002475    -0.00092677  0.39D-05  0.84D-05  4  4     0.28     0.07
   5      1.13789075    -0.44097488  -130.35958355    -0.00002796    -0.00019499  0.14D-05  0.16D-05  5  5     0.35     0.07
   6      1.13823604    -0.44095952  -130.35956818     0.00001536    -0.00003888  0.11D-06  0.39D-06  6  6     0.41     0.07
   7      1.13832219    -0.44096116  -130.35956982    -0.00000164    -0.00000254  0.13D-07  0.80D-07  6  1     0.46     0.07
   8      1.13835272    -0.44096120  -130.35956987    -0.00000004     0.00000173  0.39D-08  0.92D-08  6  2     0.53     0.07
   9      1.13836016    -0.44096100  -130.35956966     0.00000021    -0.00000215  0.23D-08  0.10D-08  6  3     0.58     0.07
  10      1.13835903    -0.44096147  -130.35957014    -0.00000048     0.00000057  0.45D-09  0.18D-09  6  4     0.64     0.07
  11      1.13835734    -0.44096153  -130.35957019    -0.00000006     0.00000020  0.14D-09  0.21D-10  6  5     0.70     0.07
  12      1.13835600    -0.44096169  -130.35957036    -0.00000016     0.00000041  0.15D-10  0.71D-11  6  6     0.76     0.07
  13      1.13835541    -0.44096170  -130.35957037    -0.00000001     0.00000012  0.65D-11  0.11D-11  6  1     0.81     0.07
  14      1.13835504    -0.44096172  -130.35957038    -0.00000002     0.00000007  0.91D-12  0.39D-12  6  2     0.87     0.07
  15      1.13835491    -0.44096172  -130.35957039    -0.00000000     0.00000001  0.23D-12  0.13D-12  6  3     0.93     0.07
  16      1.13835482    -0.44096172  -130.35957039    -0.00000000     0.00000001  0.24D-13  0.14D-13  6  5     0.99     0.07
  17      1.13835480    -0.44096172  -130.35957039    -0.00000000     0.00000000  0.66D-15  0.21D-14  6  4     1.05     0.07
  18      1.13835479    -0.44096172  -130.35957039     0.00000000    -0.00000000  0.45D-15  0.30D-15  6  1     1.12     0.07
  19      1.13835479    -0.44096172  -130.35957039    -0.00000000     0.00000000  0.36D-16  0.52D-16  6  6     1.18     0.07
  20      1.13835479    -0.44096172  -130.35957039    -0.00000000     0.00000000  0.75D-17  0.12D-16  6  2     1.25     0.07
  21      1.13835479    -0.44096172  -130.35957039    -0.00000000     0.00000000  0.16D-17  0.92D-18  6  5     1.30     0.07
  22      1.13835479    -0.44096172  -130.35957039     0.00000000     0.00000000  0.99D-19  0.68D-19  6  3     1.36     0.07
  23      1.13835479    -0.44096172  -130.35957039     0.00000000    -0.00000000  0.28D-19  0.15D-19  6  4     1.42     0.07
  24      1.13835479    -0.44096172  -130.35957039     0.00000000    -0.00000000  0.42D-20  0.40D-20  6  1     1.48     0.07
  25      1.13835479    -0.44096172  -130.35957039     0.00000000    -0.00000000  0.50D-21  0.71D-21  6  6     1.55     0.07

 Norm of t1 vector:      0.07364754      S-energy:     0.00000000      T1 diagnostic:  0.01503324
                                                                       D1 diagnostic:  0.04094689

 Doubles amplitudes (print threshold =  0.500E-01):

         I         J         SYM. A    SYM. B    A         B      T(IJ, AB)

         6         6         2         2         1         1     -0.14039923


 Total CPU time for triples:      0.45 sec


 RESULTS
 =======

  Reference energy                   -129.918608666773
  CCSD singlet pair energy             -0.302122753681
  CCSD triplet pair energy             -0.138838968131
  CCSD correlation energy              -0.440961721812

  Triples (T) contribution             -0.019509297746
  Total correlation energy             -0.460471019558

  CCSD total energy                  -130.359570388584
  CCSD[T] energy                     -130.380058539931
  CCSD-T energy                      -130.378690255267
 !CCSD(T) total energy               -130.379079686331

 Timing summary (sec):

 STEP                 CPU(USER)    SYS     CPU(TOT)    WALL
 Transformation          0.05      0.01      0.06      0.06
 CCSD iterations         1.50      0.24      1.74      1.77
 Triples                 0.45      0.01      0.46      0.46

 Program statistics:

 Available memory in ccsd:               994999756
 Min. memory needed in ccsd:                154850
 Max. memory used in ccsd:                  184802
 Max. memory used in cckext:                238416 (25 integral passes)



 **********************************************************************************************************************************
 DATASETS  * FILE   NREC   LENGTH (MB)   RECORD NAMES
              1      24       40.41       500      610      700      900      950      970     1000      129      960     1700   
                                          VAR    BASINP    GEOM    SYMINP    ZMAT    AOBASIS   BASIS     P2S    ABASIS    OPER   
                                         1101     1401     1411     1412     1650     1100     1400     1410     1200     1210   
                                          SR      EKINR    POTR     PVPR    MOLCAS      S      EKIN      POT      H0       H01  
                                         1300     1080     1600     1380   
                                         ERIS     AOSYM     SMH     JKOP   

              2       4        2.85       700     1000      520     2100   
                                         GEOM     BASIS   MCVARS     RHF  

 PROGRAMS   *        TOTAL   CCSD(T)        HF       INT
 CPU TIMES  *         3.13      2.03      0.30      0.69
 REAL TIME  *         4.33 SEC
 DISK USED  *        75.75 MB      
 **********************************************************************************************************************************

 CCSD(T)/cc-pVTZ-DK energy=   -130.379079686331

        CCSD(T)         HF-SCF  
   -130.37907969   -129.91860867
 **********************************************************************************************************************************
 Molpro calculation terminated
 Variable memory released
