
 Primary working directories    : /tmp/r2666/235190.maple
 Secondary working directories  : /tmp/r2666/235190.maple
 Wavefunction directory         : /ddn/home4/r2666/wfu/
 Main file repository           : /tmp/r2666/235190.maple/

 SHA1      : d5ffa45e93fdbca01ffc919aa182cfdae0147319
 NAME      : 2015.1.35
 ARCHNAME  : linux/x86_64
 FC        : /opt/intel/composer_xe_2015.1.133/bin/intel64/ifort
 BLASLIB   : -Wl,-_start-group /opt/intel/mkl/lib/intel64/libmkl_intel_ilp64.a /opt/intel/mkl/lib/intel64/libmkl_intel_thread.a /opt/intel/mkl/lib/intel64/libmkl_core.a -Wl,-_end-group
 id        : olemiss

 Nodes     nprocs
 cn043        1

 Using customized tuning parameters: mindgm=1; mindgv=20; mindgc=4; mindgr=1; noblas=0; minvec=7
 default implementation of scratch files=df  

 ***,hno CCSD(T)/TZ-F12 QFF
 memory, 995, m;
 gthresh,energy=1.d-12,zero=1.d-22,oneint=1.d-22,twoint=1.d-22;
 gthresh,optgrad=1.d-8,optstep=1.d-8;
 nocompress;
 geomtyp=xyz
 bohr
 geometry={
 3
         45        45
 N        0.0000000000       -0.1522579308       -1.1567714609
 H        0.0000000000        1.6650318528       -1.9392970650
 O        0.0000000000        0.0289938680        1.1454789349
 }
 
 basis=vtz-dk
 dkroll=1
   {hf,maxit=500;accu,20;}
 {ccsd(t),nocheck,maxit=250;orbital,IGNORE_ERROR;}

 Variables initialized (889), CPU time= 0.00 sec
 Commands  initialized (702), CPU time= 0.01 sec, 572 directives.
 Default parameters read. Elapsed time= 0.04 sec

 Checking input...
 Passed
1


                                         ***  PROGRAM SYSTEM MOLPRO  ***
                                       Copyright, TTI GmbH Stuttgart, 2015
                                    Version 2015.1 linked Jul  9 2018 13:16:40


 **********************************************************************************************************************************
 LABEL *   hno CCSD(T)/TZ-F12 QFF                                                        
  64 bit serial version                                                                  DATE: 08-Feb-20          TIME: 17:57:18  
 **********************************************************************************************************************************

 SHA1:             d5ffa45e93fdbca01ffc919aa182cfdae0147319
 **********************************************************************************************************************************

 THRESHOLDS:

 ZERO    =  1.00D-22  ONEINT  =  1.00D-22  TWOINT  =  1.00D-22  PREFAC  =  1.00D-14  LOCALI  =  1.00D-09  EORDER  =  1.00D-04
 ENERGY  =  1.00D-12  ETEST   =  0.00D+00  EDENS   =  0.00D+00  THRDEDEF=  1.00D-06  GRADIENT=  1.00D-02  STEP    =  1.00D-03
 ORBITAL =  1.00D-05  CIVEC   =  1.00D-05  COEFF   =  1.00D-04  PRINTCI =  5.00D-02  PUNCHCI =  9.90D+01  OPTGRAD =  3.00D-04
 OPTENERG=  1.00D-06  OPTSTEP =  3.00D-04  THRGRAD =  1.00D-10  COMPRESS=  1.00D-11  VARMIN  =  1.00D-07  VARMAX  =  1.00D-03
 THRDOUB =  0.00D+00  THRDIV  =  1.00D-05  THRRED  =  1.00D-07  THRPSP  =  1.00D+00  THRDC   =  1.00D-10  THRCS   =  1.00D-10
 THRNRM  =  1.00D-08  THREQ   =  0.00D+00  THRDE   =  1.00D+00  THRREF  =  1.00D-05  SPARFAC =  1.00D+00  THRDLP  =  1.00D-07
 THRDIA  =  1.00D-10  THRDLS  =  1.00D-07  THRGPS  =  0.00D+00  THRKEX  =  0.00D+00  THRDIS  =  2.00D-01  THRVAR  =  1.00D-10
 THRLOC  =  1.00D-06  THRGAP  =  1.00D-06  THRLOCT = -1.00D+00  THRGAPT = -1.00D+00  THRORB  =  1.00D-06  THRMLTP =  0.00D+00
 THRCPQCI=  1.00D-10  KEXTA   =  0.00D+00  THRCOARS=  0.00D+00  SYMTOL  =  1.00D-06  GRADTOL =  1.00D-06  THROVL  =  1.00D-08
 THRORTH =  1.00D-08  GRID    =  1.00D-06  GRIDMAX =  1.00D-03  DTMAX   =  0.00D+00  THROCCDE=  1.00D-01  THROCCDE=  1.00D-01



 THRESHOLDS:

 ZERO    =  1.00D-22  ONEINT  =  1.00D-22  TWOINT  =  1.00D-22  PREFAC  =  1.00D-14  LOCALI  =  1.00D-09  EORDER  =  1.00D-04
 ENERGY  =  1.00D-12  ETEST   =  0.00D+00  EDENS   =  0.00D+00  THRDEDEF=  1.00D-06  GRADIENT=  1.00D-02  STEP    =  1.00D-03
 ORBITAL =  1.00D-05  CIVEC   =  1.00D-05  COEFF   =  1.00D-04  PRINTCI =  5.00D-02  PUNCHCI =  9.90D+01  OPTGRAD =  1.00D-08
 OPTENERG=  1.00D-06  OPTSTEP =  1.00D-08  THRGRAD =  1.00D-10  COMPRESS=  1.00D-11  VARMIN  =  1.00D-07  VARMAX  =  1.00D-03
 THRDOUB =  0.00D+00  THRDIV  =  1.00D-05  THRRED  =  1.00D-07  THRPSP  =  1.00D+00  THRDC   =  1.00D-10  THRCS   =  1.00D-10
 THRNRM  =  1.00D-08  THREQ   =  0.00D+00  THRDE   =  1.00D+00  THRREF  =  1.00D-05  SPARFAC =  1.00D+00  THRDLP  =  1.00D-07
 THRDIA  =  1.00D-10  THRDLS  =  1.00D-07  THRGPS  =  0.00D+00  THRKEX  =  0.00D+00  THRDIS  =  2.00D-01  THRVAR  =  1.00D-10
 THRLOC  =  1.00D-06  THRGAP  =  1.00D-06  THRLOCT = -1.00D+00  THRGAPT = -1.00D+00  THRORB  =  1.00D-06  THRMLTP =  0.00D+00
 THRCPQCI=  1.00D-10  KEXTA   =  0.00D+00  THRCOARS=  0.00D+00  SYMTOL  =  1.00D-06  GRADTOL =  1.00D-06  THROVL  =  1.00D-08
 THRORTH =  1.00D-08  GRID    =  1.00D-06  GRIDMAX =  1.00D-03  DTMAX   =  0.00D+00  THROCCDE=  1.00D-01  THROCCDE=  1.00D-01



 Input parameters for SORTINT:

 COMPRESS =    0.000000
 C_FINAL  =    1.000000
 DEBUG    =   -1.000000
 C_SORT1  =    0.000000
 C_SEWARD =    0.000000
 THRESH   =    0.000000
 IO       =  molpro                                                          
 SPRI     =    0.000000
 SETTING GEOMTYP        =    XYZ
 ZUNIT=BOHR
 

 Variable memory set to  995000000 words,  buffer space   230000 words

 SETTING BASIS          =    VTZ-DK
 SETTING DKROLL         =         1.00000000                                  


 Recomputing integrals since basis changed


 Using spherical harmonics

 Library entry N      S cc-pVTZ-DK           selected for orbital group  1
 Library entry N      P cc-pVTZ-DK           selected for orbital group  1
 Library entry N      D cc-pVTZ-DK           selected for orbital group  1
 Library entry N      F cc-pVTZ-DK           selected for orbital group  1
 Library entry H      S cc-pVTZ-DK           selected for orbital group  2
 Library entry H      P cc-pVTZ-DK           selected for orbital group  2
 Library entry H      D cc-pVTZ-DK           selected for orbital group  2
 Library entry O      S cc-pVTZ-DK           selected for orbital group  3
 Library entry O      P cc-pVTZ-DK           selected for orbital group  3
 Library entry O      D cc-pVTZ-DK           selected for orbital group  3
 Library entry O      F cc-pVTZ-DK           selected for orbital group  3


 PROGRAM * SEWARD (Integral evaluation for generally contracted gaussian basis sets)     Author: Roland Lindh, 1990

 Geometry written to block  1 of record 700


 Point group  Cs  



 ATOMIC COORDINATES

 NR  ATOM    CHARGE       X              Y              Z

   1  N       7.00    0.000000000   -0.152257931   -1.156771461
   2  H       1.00    0.000000000    1.665031853   -1.939297065
   3  O       8.00    0.000000000    0.028993868    1.145478935

 Bond lengths in Bohr (Angstrom)

 1-2  1.978607712  1-3  2.309374179
     ( 1.047034111)     ( 1.222068187)

 Bond angles

  2-1-3  108.79522515

 NUCLEAR CHARGE:                   16
 NUMBER OF PRIMITIVE AOS:         111
 NUMBER OF SYMMETRY AOS:          100
 NUMBER OF CONTRACTIONS:           74   (  50A'  +  24A"  )
 NUMBER OF CORE ORBITALS:           2   (   2A'  +   0A"  )
 NUMBER OF VALENCE ORBITALS:        9   (   7A'  +   2A"  )


 NUCLEAR REPULSION ENERGY   30.07793612

 One-electron integrals computed with SEWARD

 2nd-order Douglas-Kroll-Hess method activated. Optimal DKH parametrization is used.

 Computing Douglas-Kroll / X2C integrals


        1874283. INTEGRALS WRITTEN OUT IN     458 BLOCKS ON RECORD 1290 OF FILE 1


 NUMBER OF SORTED TWO-ELECTRON INTEGRALS:    2006100.     BUFFER LENGTH:  32768
 NUMBER OF SEGMENTS:   1  SEGMENT LENGTH:    2006100      RECORD LENGTH: 524288

 Memory used in sort:       2.56 MW

 SORT1 READ     1874283. AND WROTE     1914195. INTEGRALS IN      6 RECORDS. CPU TIME:     0.05 SEC, REAL TIME:     0.07 SEC
 SORT2 READ     1914195. AND WROTE     2006100. INTEGRALS IN      1 RECORDS. CPU TIME:     0.05 SEC, REAL TIME:     0.05 SEC

 FILE SIZES:   FILE 1:    50.2 MBYTE,  FILE 4:    25.2 MBYTE,   TOTAL:     75.4 MBYTE

 OPERATOR DM      FOR CENTER  0  COORDINATES:    0.000000    0.000000    0.000000

 Eigenvalues of metric

         1 0.247E-02 0.399E-02 0.437E-02 0.836E-02 0.129E-01 0.334E-01 0.433E-01 0.464E-01
         2 0.349E-01 0.466E-01 0.103E+00 0.111E+00 0.238E+00 0.341E+00 0.398E+00 0.453E+00


 **********************************************************************************************************************************
 DATASETS  * FILE   NREC   LENGTH (MB)   RECORD NAMES
              1      23       36.03       500      610      700      900      950      970     1000      129      960     1700   
                                          VAR    BASINP    GEOM    SYMINP    ZMAT    AOBASIS   BASIS     P2S    ABASIS    OPER   
                                         1101     1401     1411     1412     1650     1100     1400     1410     1200     1210   
                                          SR      EKINR    POTR     PVPR    MOLCAS      S      EKIN      POT      H0       H01  
                                         1300     1080     1600   
                                         ERIS     AOSYM     SMH  

 PROGRAMS   *        TOTAL       INT
 CPU TIMES  *         0.70      0.61
 REAL TIME  *         1.28 SEC
 DISK USED  *        75.75 MB      
 **********************************************************************************************************************************


 PROGRAM * RHF-SCF (CLOSED SHELL)       Authors: W. Meyer, H.-J. Werner


 NUMBER OF ELECTRONS:       8+    8-
 CONVERGENCE THRESHOLDS:    1.00E-10 (Density)    1.00E-13 (Energy)
 MAX. NUMBER OF ITERATIONS:      500
 INTERPOLATION TYPE:            DIIS
 INTERPOLATION STEPS:              2 (START)      1 (STEP)
 LEVEL SHIFTS:                  0.00 (CLOSED)  0.00 (OPEN) 



 Orbital guess generated from atomic densities. Full valence occupancy:    9   2

 Molecular orbital dump at record        2100.2

 Initial occupancy:   7   1

 ITERATION    DDIFF          GRAD             ENERGY        2-EL.EN.            DIPOLE MOMENTS         DIIS   ORB.
    1      0.000D+00      0.000D+00      -129.86368219    153.704486    0.00000    0.60536   -1.08569    0    start
    2      0.000D+00      0.137D-01      -129.88989219    154.784203    0.00000    0.62405   -0.21612    1    diag
    3      0.190D-01      0.108D-01      -129.91447641    154.945480    0.00000    0.57404   -0.62303    2    diag
    4      0.935D-02      0.158D-02      -129.91523746    154.670819    0.00000    0.58199   -0.56138    3    diag
    5      0.168D-02      0.523D-03      -129.91535562    154.757460    0.00000    0.58736   -0.56220    4    diag
    6      0.730D-03      0.156D-03      -129.91537519    154.742399    0.00000    0.58784   -0.55779    5    diag
    7      0.282D-03      0.792D-04      -129.91538122    154.744525    0.00000    0.58902   -0.55509    6    diag
    8      0.198D-03      0.267D-04      -129.91538187    154.743782    0.00000    0.58902   -0.55417    7    diag
    9      0.729D-04      0.490D-05      -129.91538190    154.743650    0.00000    0.58897   -0.55400    8    diag
   10      0.143D-04      0.105D-05      -129.91538190    154.743632    0.00000    0.58893   -0.55398    9    orth
   11      0.297D-05      0.205D-06      -129.91538190    154.743628    0.00000    0.58893   -0.55397    9    diag
   12      0.530D-06      0.447D-07      -129.91538190    154.743627    0.00000    0.58892   -0.55397    9    diag
   13      0.117D-06      0.117D-07      -129.91538190    154.743627    0.00000    0.58892   -0.55397    9    diag
   14      0.304D-07      0.215D-08      -129.91538190    154.743627    0.00000    0.58892   -0.55397    9    diag
   15      0.450D-08      0.560D-09      -129.91538190    154.743627    0.00000    0.58892   -0.55397    9    diag
   16      0.119D-08      0.148D-09      -129.91538190    154.743627    0.00000    0.58892   -0.55397    9    diag
   17      0.218D-09      0.440D-10      -129.91538190    154.743627    0.00000    0.58892   -0.55397    9    diag
   18      0.757D-10      0.155D-10      -129.91538190    154.743627    0.00000    0.58892   -0.55397    0    orth

 Final occupancy:   7   1

 !RHF STATE 1.1 Energy               -129.915381900027
 Nuclear energy                        30.07793612
 One-electron energy                 -237.36513144
 Two-electron energy                   77.37181342
 Virial quotient                       -0.99792255
 !RHF STATE 1.1 Dipole moment           0.00000000     0.58892466    -0.55397024
 Dipole moment /Debye                   0.00000000     1.49679914    -1.40795967

 Orbital energies:

         1.1          2.1          3.1          4.1          5.1          6.1          7.1          8.1          9.1
    -20.666438   -15.718409    -1.515760    -0.997089    -0.739312    -0.657792    -0.430842     0.143409     0.367483

         1.2          2.2          3.2
     -0.585111     0.081227     0.614654

 HOMO      7.1    -0.430842 =     -11.7238eV
 LUMO      2.2     0.081227 =       2.2103eV
 LUMO-HOMO         0.512069 =      13.9341eV


 **********************************************************************************************************************************
 DATASETS  * FILE   NREC   LENGTH (MB)   RECORD NAMES
              1      23       36.03       500      610      700      900      950      970     1000      129      960     1700   
                                          VAR    BASINP    GEOM    SYMINP    ZMAT    AOBASIS   BASIS     P2S    ABASIS    OPER   
                                         1101     1401     1411     1412     1650     1100     1400     1410     1200     1210   
                                          SR      EKINR    POTR     PVPR    MOLCAS      S      EKIN      POT      H0       H01  
                                         1300     1080     1600   
                                         ERIS     AOSYM     SMH  

              2       4        2.85       700     1000      520     2100   
                                         GEOM     BASIS   MCVARS     RHF  

 PROGRAMS   *        TOTAL        HF       INT
 CPU TIMES  *         0.90      0.20      0.61
 REAL TIME  *         1.53 SEC
 DISK USED  *        75.75 MB      
 **********************************************************************************************************************************


 PROGRAM * CCSD (Closed-shell coupled cluster)     Authors: C. Hampel, H.-J. Werner, 1991, M. Deegan, P.J. Knowles, 1992


 Convergence thresholds:  THRVAR = 1.00D-08  THRDEN = 1.00D-12

 CCSD(T)     terms to be evaluated (factor= 1.000)


 Number of core orbitals:           2 (   2   0 )
 Number of closed-shell orbitals:   6 (   5   1 )
 Number of external orbitals:      66 (  43  23 )

 Molecular orbitals read from record     2100.2  Type=RHF/CANONICAL (state 1.1)

 Number of N-1 electron functions:               6
 Number of N-2 electron functions:              21
 Number of singly external CSFs:               238
 Number of doubly external CSFs:             41002
 Total number of CSFs:                       41241

 Length of J-op  integral file:               0.00 MB
 Length of K-op  integral file:               0.25 MB
 Length of 3-ext integral record:             0.00 MB

 Memory could be reduced to 1.65 Mwords without degradation in triples

 Integral transformation finished. Total CPU:   0.04 sec, npass=  1  Memory used:   0.55 MW

 Reference energy:                   -129.91538190

 MP2 singlet pair energy:              -0.27515705
 MP2 triplet pair energy:              -0.16351016
 MP2 correlation energy:               -0.43866721
 MP2 total energy:                   -130.35404911

 SCS-MP2 correlation energy:           -0.43192811   (PS=  1.200000  PT=  0.333333)
 SCS-MP2 total energy:               -130.34731001

 ITER.      SQ.NORM     CORR.ENERGY   TOTAL ENERGY   ENERGY CHANGE        DEN1      VAR(S)    VAR(P)  DIIS     TIME  TIME/IT
   1      1.11985524    -0.44320768  -130.35858958    -0.00454048     0.01182521  0.31D-02  0.32D-02  1  1     0.09     0.06
   2      1.13103329    -0.44334571  -130.35872761    -0.00013803    -0.01261538  0.96D-04  0.52D-03  2  2     0.14     0.06
   3      1.13759748    -0.44375145  -130.35913335    -0.00040575    -0.00306648  0.51D-04  0.54D-04  3  3     0.19     0.05
   4      1.14057386    -0.44377944  -130.35916134    -0.00002798    -0.00100369  0.43D-05  0.95D-05  4  4     0.24     0.05
   5      1.14165702    -0.44381140  -130.35919330    -0.00003196    -0.00022425  0.14D-05  0.17D-05  5  5     0.29     0.05
   6      1.14203793    -0.44379306  -130.35917496     0.00001834    -0.00004379  0.95D-07  0.43D-06  6  6     0.34     0.05
   7      1.14212361    -0.44379546  -130.35917736    -0.00000241    -0.00000154  0.11D-07  0.95D-07  6  1     0.39     0.05
   8      1.14215454    -0.44379534  -130.35917724     0.00000013     0.00000202  0.48D-08  0.12D-07  6  2     0.44     0.05
   9      1.14216290    -0.44379511  -130.35917701     0.00000022    -0.00000239  0.28D-08  0.14D-08  6  3     0.49     0.05
  10      1.14216155    -0.44379566  -130.35917756    -0.00000054     0.00000068  0.53D-09  0.24D-09  6  4     0.54     0.05
  11      1.14215979    -0.44379572  -130.35917762    -0.00000006     0.00000016  0.16D-09  0.25D-10  6  5     0.58     0.05
  12      1.14215835    -0.44379591  -130.35917781    -0.00000019     0.00000046  0.15D-10  0.80D-11  6  6     0.64     0.05
  13      1.14215771    -0.44379592  -130.35917782    -0.00000001     0.00000013  0.67D-11  0.13D-11  6  1     0.69     0.05
  14      1.14215729    -0.44379594  -130.35917784    -0.00000002     0.00000008  0.95D-12  0.47D-12  6  2     0.75     0.05
  15      1.14215713    -0.44379594  -130.35917784    -0.00000000     0.00000002  0.25D-12  0.15D-12  6  3     0.79     0.05
  16      1.14215700    -0.44379595  -130.35917785    -0.00000000     0.00000002  0.85D-14  0.38D-13  6  1     0.84     0.05
  17      1.14215699    -0.44379595  -130.35917785     0.00000000    -0.00000000  0.28D-14  0.25D-14  6  4     0.88     0.05
  18      1.14215698    -0.44379595  -130.35917785    -0.00000000     0.00000000  0.75D-15  0.40D-15  6  5     0.92     0.05
  19      1.14215698    -0.44379595  -130.35917785     0.00000000    -0.00000000  0.15D-15  0.81D-16  6  6     0.98     0.05
  20      1.14215698    -0.44379595  -130.35917785    -0.00000000     0.00000000  0.25D-16  0.21D-16  6  2     1.02     0.05
  21      1.14215698    -0.44379595  -130.35917785    -0.00000000     0.00000000  0.70D-18  0.15D-17  6  4     1.08     0.05
  22      1.14215698    -0.44379595  -130.35917785    -0.00000000     0.00000000  0.91D-19  0.15D-18  6  3     1.13     0.05
  23      1.14215698    -0.44379595  -130.35917785    -0.00000000     0.00000000  0.86D-20  0.16D-19  6  1     1.18     0.05
  24      1.14215698    -0.44379595  -130.35917785     0.00000000     0.00000000  0.43D-20  0.23D-20  6  6     1.22     0.05
  25      1.14215698    -0.44379595  -130.35917785     0.00000000     0.00000000  0.49D-21  0.50D-21  6  5     1.27     0.05

 Norm of t1 vector:      0.07726833      S-energy:     0.00000000      T1 diagnostic:  0.01577233
                                                                       D1 diagnostic:  0.04436977

 Doubles amplitudes (print threshold =  0.500E-01):

         I         J         SYM. A    SYM. B    A         B      T(IJ, AB)

         6         6         2         2         1         1     -0.14778505


 Total CPU time for triples:      0.35 sec


 RESULTS
 =======

  Reference energy                   -129.915381900027
  CCSD singlet pair energy             -0.304602411534
  CCSD triplet pair energy             -0.139193534913
  CCSD correlation energy              -0.443795946444

  Triples (T) contribution             -0.020199041601
  Total correlation energy             -0.463994988045

  CCSD total energy                  -130.359177846471
  CCSD[T] energy                     -130.380456333011
  CCSD-T energy                      -130.378964790757
 !CCSD(T) total energy               -130.379376888072

 Timing summary (sec):

 STEP                 CPU(USER)    SYS     CPU(TOT)    WALL
 Transformation          0.04      0.01      0.05      0.05
 CCSD iterations         1.23      0.11      1.34      1.33
 Triples                 0.35      0.01      0.36      0.37

 Program statistics:

 Available memory in ccsd:               994999756
 Min. memory needed in ccsd:                154850
 Max. memory used in ccsd:                  184802
 Max. memory used in cckext:                238416 (25 integral passes)



 **********************************************************************************************************************************
 DATASETS  * FILE   NREC   LENGTH (MB)   RECORD NAMES
              1      24       40.41       500      610      700      900      950      970     1000      129      960     1700   
                                          VAR    BASINP    GEOM    SYMINP    ZMAT    AOBASIS   BASIS     P2S    ABASIS    OPER   
                                         1101     1401     1411     1412     1650     1100     1400     1410     1200     1210   
                                          SR      EKINR    POTR     PVPR    MOLCAS      S      EKIN      POT      H0       H01  
                                         1300     1080     1600     1380   
                                         ERIS     AOSYM     SMH     JKOP   

              2       4        2.85       700     1000      520     2100   
                                         GEOM     BASIS   MCVARS     RHF  

 PROGRAMS   *        TOTAL   CCSD(T)        HF       INT
 CPU TIMES  *         2.54      1.64      0.20      0.61
 REAL TIME  *         3.33 SEC
 DISK USED  *        75.75 MB      
 **********************************************************************************************************************************

 CCSD(T)/cc-pVTZ-DK energy=   -130.379376888072

        CCSD(T)         HF-SCF  
   -130.37937689   -129.91538190
 **********************************************************************************************************************************
 Molpro calculation terminated
 Variable memory released
