
 Primary working directories    : /tmp/r2666/235163.maple
 Secondary working directories  : /tmp/r2666/235163.maple
 Wavefunction directory         : /ddn/home4/r2666/wfu/
 Main file repository           : /tmp/r2666/235163.maple/

 SHA1      : d5ffa45e93fdbca01ffc919aa182cfdae0147319
 NAME      : 2015.1.35
 ARCHNAME  : linux/x86_64
 FC        : /opt/intel/composer_xe_2015.1.133/bin/intel64/ifort
 BLASLIB   : -Wl,-_start-group /opt/intel/mkl/lib/intel64/libmkl_intel_ilp64.a /opt/intel/mkl/lib/intel64/libmkl_intel_thread.a /opt/intel/mkl/lib/intel64/libmkl_core.a -Wl,-_end-group
 id        : olemiss

 Nodes     nprocs
 cn036        1

 Using customized tuning parameters: mindgm=1; mindgv=20; mindgc=4; mindgr=1; noblas=0; minvec=7
 default implementation of scratch files=df  

 ***,hno CCSD(T)/TZ-F12 QFF
 memory, 995, m;
 gthresh,energy=1.d-12,zero=1.d-22,oneint=1.d-22,twoint=1.d-22;
 gthresh,optgrad=1.d-8,optstep=1.d-8;
 nocompress;
 geomtyp=xyz
 bohr
 geometry={
 3
         18        18
 N        0.0000000000       -0.1493587874       -1.1537834650
 H        0.0000000000        1.6593532507       -1.9323387001
 O        0.0000000000        0.0317733267        1.1355325741
 }
 
 basis=vtz-dk
 dkroll=1
   {hf,maxit=500;accu,20;}
 {ccsd(t),nocheck,maxit=250;orbital,IGNORE_ERROR;}

 Variables initialized (889), CPU time= 0.00 sec
 Commands  initialized (702), CPU time= 0.01 sec, 572 directives.
 Default parameters read. Elapsed time= 0.06 sec

 Checking input...
 Passed
1


                                         ***  PROGRAM SYSTEM MOLPRO  ***
                                       Copyright, TTI GmbH Stuttgart, 2015
                                    Version 2015.1 linked Jul  9 2018 13:16:40


 **********************************************************************************************************************************
 LABEL *   hno CCSD(T)/TZ-F12 QFF                                                        
  64 bit serial version                                                                  DATE: 08-Feb-20          TIME: 17:57:14  
 **********************************************************************************************************************************

 SHA1:             d5ffa45e93fdbca01ffc919aa182cfdae0147319
 **********************************************************************************************************************************

 THRESHOLDS:

 ZERO    =  1.00D-22  ONEINT  =  1.00D-22  TWOINT  =  1.00D-22  PREFAC  =  1.00D-14  LOCALI  =  1.00D-09  EORDER  =  1.00D-04
 ENERGY  =  1.00D-12  ETEST   =  0.00D+00  EDENS   =  0.00D+00  THRDEDEF=  1.00D-06  GRADIENT=  1.00D-02  STEP    =  1.00D-03
 ORBITAL =  1.00D-05  CIVEC   =  1.00D-05  COEFF   =  1.00D-04  PRINTCI =  5.00D-02  PUNCHCI =  9.90D+01  OPTGRAD =  3.00D-04
 OPTENERG=  1.00D-06  OPTSTEP =  3.00D-04  THRGRAD =  1.00D-10  COMPRESS=  1.00D-11  VARMIN  =  1.00D-07  VARMAX  =  1.00D-03
 THRDOUB =  0.00D+00  THRDIV  =  1.00D-05  THRRED  =  1.00D-07  THRPSP  =  1.00D+00  THRDC   =  1.00D-10  THRCS   =  1.00D-10
 THRNRM  =  1.00D-08  THREQ   =  0.00D+00  THRDE   =  1.00D+00  THRREF  =  1.00D-05  SPARFAC =  1.00D+00  THRDLP  =  1.00D-07
 THRDIA  =  1.00D-10  THRDLS  =  1.00D-07  THRGPS  =  0.00D+00  THRKEX  =  0.00D+00  THRDIS  =  2.00D-01  THRVAR  =  1.00D-10
 THRLOC  =  1.00D-06  THRGAP  =  1.00D-06  THRLOCT = -1.00D+00  THRGAPT = -1.00D+00  THRORB  =  1.00D-06  THRMLTP =  0.00D+00
 THRCPQCI=  1.00D-10  KEXTA   =  0.00D+00  THRCOARS=  0.00D+00  SYMTOL  =  1.00D-06  GRADTOL =  1.00D-06  THROVL  =  1.00D-08
 THRORTH =  1.00D-08  GRID    =  1.00D-06  GRIDMAX =  1.00D-03  DTMAX   =  0.00D+00  THROCCDE=  1.00D-01  THROCCDE=  1.00D-01



 THRESHOLDS:

 ZERO    =  1.00D-22  ONEINT  =  1.00D-22  TWOINT  =  1.00D-22  PREFAC  =  1.00D-14  LOCALI  =  1.00D-09  EORDER  =  1.00D-04
 ENERGY  =  1.00D-12  ETEST   =  0.00D+00  EDENS   =  0.00D+00  THRDEDEF=  1.00D-06  GRADIENT=  1.00D-02  STEP    =  1.00D-03
 ORBITAL =  1.00D-05  CIVEC   =  1.00D-05  COEFF   =  1.00D-04  PRINTCI =  5.00D-02  PUNCHCI =  9.90D+01  OPTGRAD =  1.00D-08
 OPTENERG=  1.00D-06  OPTSTEP =  1.00D-08  THRGRAD =  1.00D-10  COMPRESS=  1.00D-11  VARMIN  =  1.00D-07  VARMAX  =  1.00D-03
 THRDOUB =  0.00D+00  THRDIV  =  1.00D-05  THRRED  =  1.00D-07  THRPSP  =  1.00D+00  THRDC   =  1.00D-10  THRCS   =  1.00D-10
 THRNRM  =  1.00D-08  THREQ   =  0.00D+00  THRDE   =  1.00D+00  THRREF  =  1.00D-05  SPARFAC =  1.00D+00  THRDLP  =  1.00D-07
 THRDIA  =  1.00D-10  THRDLS  =  1.00D-07  THRGPS  =  0.00D+00  THRKEX  =  0.00D+00  THRDIS  =  2.00D-01  THRVAR  =  1.00D-10
 THRLOC  =  1.00D-06  THRGAP  =  1.00D-06  THRLOCT = -1.00D+00  THRGAPT = -1.00D+00  THRORB  =  1.00D-06  THRMLTP =  0.00D+00
 THRCPQCI=  1.00D-10  KEXTA   =  0.00D+00  THRCOARS=  0.00D+00  SYMTOL  =  1.00D-06  GRADTOL =  1.00D-06  THROVL  =  1.00D-08
 THRORTH =  1.00D-08  GRID    =  1.00D-06  GRIDMAX =  1.00D-03  DTMAX   =  0.00D+00  THROCCDE=  1.00D-01  THROCCDE=  1.00D-01



 Input parameters for SORTINT:

 COMPRESS =    0.000000
 C_FINAL  =    1.000000
 DEBUG    =   -1.000000
 C_SORT1  =    0.000000
 C_SEWARD =    0.000000
 THRESH   =    0.000000
 IO       =  molpro                                                          
 SPRI     =    0.000000
 SETTING GEOMTYP        =    XYZ
 ZUNIT=BOHR
 

 Variable memory set to  995000000 words,  buffer space   230000 words

 SETTING BASIS          =    VTZ-DK
 SETTING DKROLL         =         1.00000000                                  


 Recomputing integrals since basis changed


 Using spherical harmonics

 Library entry N      S cc-pVTZ-DK           selected for orbital group  1
 Library entry N      P cc-pVTZ-DK           selected for orbital group  1
 Library entry N      D cc-pVTZ-DK           selected for orbital group  1
 Library entry N      F cc-pVTZ-DK           selected for orbital group  1
 Library entry H      S cc-pVTZ-DK           selected for orbital group  2
 Library entry H      P cc-pVTZ-DK           selected for orbital group  2
 Library entry H      D cc-pVTZ-DK           selected for orbital group  2
 Library entry O      S cc-pVTZ-DK           selected for orbital group  3
 Library entry O      P cc-pVTZ-DK           selected for orbital group  3
 Library entry O      D cc-pVTZ-DK           selected for orbital group  3
 Library entry O      F cc-pVTZ-DK           selected for orbital group  3


 PROGRAM * SEWARD (Integral evaluation for generally contracted gaussian basis sets)     Author: Roland Lindh, 1990

 Geometry written to block  1 of record 700


 Point group  Cs  



 ATOMIC COORDINATES

 NR  ATOM    CHARGE       X              Y              Z

   1  N       7.00    0.000000000   -0.149358787   -1.153783465
   2  H       1.00    0.000000000    1.659353251   -1.932338700
   3  O       8.00    0.000000000    0.031773327    1.135532574

 Bond lengths in Bohr (Angstrom)

 1-2  1.969159082  1-3  2.296470503
     ( 1.042034111)     ( 1.215239856)

 Bond angles

  2-1-3  108.76547739

 NUCLEAR CHARGE:                   16
 NUMBER OF PRIMITIVE AOS:         111
 NUMBER OF SYMMETRY AOS:          100
 NUMBER OF CONTRACTIONS:           74   (  50A'  +  24A"  )
 NUMBER OF CORE ORBITALS:           2   (   2A'  +   0A"  )
 NUMBER OF VALENCE ORBITALS:        9   (   7A'  +   2A"  )


 NUCLEAR REPULSION ENERGY   30.24363162

 One-electron integrals computed with SEWARD

 2nd-order Douglas-Kroll-Hess method activated. Optimal DKH parametrization is used.

 Computing Douglas-Kroll / X2C integrals


        1874283. INTEGRALS WRITTEN OUT IN     458 BLOCKS ON RECORD 1290 OF FILE 1


 NUMBER OF SORTED TWO-ELECTRON INTEGRALS:    2006100.     BUFFER LENGTH:  32768
 NUMBER OF SEGMENTS:   1  SEGMENT LENGTH:    2006100      RECORD LENGTH: 524288

 Memory used in sort:       2.56 MW

 SORT1 READ     1874283. AND WROTE     1914195. INTEGRALS IN      6 RECORDS. CPU TIME:     0.05 SEC, REAL TIME:     0.07 SEC
 SORT2 READ     1914195. AND WROTE     2006100. INTEGRALS IN      1 RECORDS. CPU TIME:     0.05 SEC, REAL TIME:     0.06 SEC

 FILE SIZES:   FILE 1:    50.2 MBYTE,  FILE 4:    25.2 MBYTE,   TOTAL:     75.4 MBYTE

 OPERATOR DM      FOR CENTER  0  COORDINATES:    0.000000    0.000000    0.000000

 Eigenvalues of metric

         1 0.244E-02 0.395E-02 0.426E-02 0.822E-02 0.128E-01 0.329E-01 0.429E-01 0.463E-01
         2 0.345E-01 0.465E-01 0.102E+00 0.110E+00 0.235E+00 0.339E+00 0.395E+00 0.451E+00


 **********************************************************************************************************************************
 DATASETS  * FILE   NREC   LENGTH (MB)   RECORD NAMES
              1      23       36.03       500      610      700      900      950      970     1000      129      960     1700   
                                          VAR    BASINP    GEOM    SYMINP    ZMAT    AOBASIS   BASIS     P2S    ABASIS    OPER   
                                         1101     1401     1411     1412     1650     1100     1400     1410     1200     1210   
                                          SR      EKINR    POTR     PVPR    MOLCAS      S      EKIN      POT      H0       H01  
                                         1300     1080     1600   
                                         ERIS     AOSYM     SMH  

 PROGRAMS   *        TOTAL       INT
 CPU TIMES  *         0.64      0.55
 REAL TIME  *         1.21 SEC
 DISK USED  *        75.75 MB      
 **********************************************************************************************************************************


 PROGRAM * RHF-SCF (CLOSED SHELL)       Authors: W. Meyer, H.-J. Werner


 NUMBER OF ELECTRONS:       8+    8-
 CONVERGENCE THRESHOLDS:    1.00E-10 (Density)    1.00E-13 (Energy)
 MAX. NUMBER OF ITERATIONS:      500
 INTERPOLATION TYPE:            DIIS
 INTERPOLATION STEPS:              2 (START)      1 (STEP)
 LEVEL SHIFTS:                  0.00 (CLOSED)  0.00 (OPEN) 



 Orbital guess generated from atomic densities. Full valence occupancy:    9   2

 Molecular orbital dump at record        2100.2

 Initial occupancy:   7   1

 ITERATION    DDIFF          GRAD             ENERGY        2-EL.EN.            DIPOLE MOMENTS         DIIS   ORB.
    1      0.000D+00      0.000D+00      -129.86621437    154.004727    0.00000    0.60510   -1.06286    0    start
    2      0.000D+00      0.136D-01      -129.89270206    155.093409    0.00000    0.62022   -0.22263    1    diag
    3      0.187D-01      0.105D-01      -129.91583838    155.241268    0.00000    0.57241   -0.61394    2    diag
    4      0.913D-02      0.157D-02      -129.91658664    154.971765    0.00000    0.58055   -0.55332    3    diag
    5      0.167D-02      0.517D-03      -129.91670154    155.057443    0.00000    0.58586   -0.55425    4    diag
    6      0.720D-03      0.153D-03      -129.91672047    155.042556    0.00000    0.58637   -0.54998    5    diag
    7      0.278D-03      0.776D-04      -129.91672620    155.044734    0.00000    0.58755   -0.54738    6    diag
    8      0.194D-03      0.255D-04      -129.91672679    155.044026    0.00000    0.58756   -0.54652    7    diag
    9      0.687D-04      0.465D-05      -129.91672681    155.043904    0.00000    0.58751   -0.54635    8    diag
   10      0.134D-04      0.101D-05      -129.91672681    155.043886    0.00000    0.58747   -0.54633    9    orth
   11      0.288D-05      0.197D-06      -129.91672681    155.043883    0.00000    0.58747   -0.54632    9    diag
   12      0.515D-06      0.419D-07      -129.91672681    155.043881    0.00000    0.58747   -0.54632    9    diag
   13      0.112D-06      0.106D-07      -129.91672681    155.043881    0.00000    0.58747   -0.54632    9    diag
   14      0.283D-07      0.194D-08      -129.91672681    155.043881    0.00000    0.58747   -0.54632    9    diag
   15      0.427D-08      0.496D-09      -129.91672681    155.043881    0.00000    0.58747   -0.54632    9    diag
   16      0.108D-08      0.122D-09      -129.91672681    155.043881    0.00000    0.58747   -0.54632    9    diag
   17      0.175D-09      0.344D-10      -129.91672681    155.043881    0.00000    0.58747   -0.54632    9    diag
   18      0.533D-10      0.118D-10      -129.91672681    155.043881    0.00000    0.58747   -0.54632    9    diag
   19      0.234D-10      0.257D-11      -129.91672681    155.043881    0.00000    0.58747   -0.54632    0    orth

 Final occupancy:   7   1

 !RHF STATE 1.1 Energy               -129.916726811637
 Nuclear energy                        30.24363162
 One-electron energy                 -237.68229896
 Two-electron energy                   77.52194053
 Virial quotient                       -0.99766734
 !RHF STATE 1.1 Dipole moment           0.00000000     0.58746578    -0.54632280
 Dipole moment /Debye                   0.00000000     1.49309127    -1.38852310

 Orbital energies:

         1.1          2.1          3.1          4.1          5.1          6.1          7.1          8.1          9.1
    -20.665683   -15.716548    -1.521290    -0.996757    -0.741894    -0.659735    -0.429114     0.144124     0.368541

         1.2          2.2          3.2
     -0.588189     0.083732     0.613938

 HOMO      7.1    -0.429114 =     -11.6768eV
 LUMO      2.2     0.083732 =       2.2785eV
 LUMO-HOMO         0.512846 =      13.9553eV


 **********************************************************************************************************************************
 DATASETS  * FILE   NREC   LENGTH (MB)   RECORD NAMES
              1      23       36.03       500      610      700      900      950      970     1000      129      960     1700   
                                          VAR    BASINP    GEOM    SYMINP    ZMAT    AOBASIS   BASIS     P2S    ABASIS    OPER   
                                         1101     1401     1411     1412     1650     1100     1400     1410     1200     1210   
                                          SR      EKINR    POTR     PVPR    MOLCAS      S      EKIN      POT      H0       H01  
                                         1300     1080     1600   
                                         ERIS     AOSYM     SMH  

              2       4        2.85       700     1000      520     2100   
                                         GEOM     BASIS   MCVARS     RHF  

 PROGRAMS   *        TOTAL        HF       INT
 CPU TIMES  *         0.85      0.21      0.55
 REAL TIME  *         1.50 SEC
 DISK USED  *        75.75 MB      
 **********************************************************************************************************************************


 PROGRAM * CCSD (Closed-shell coupled cluster)     Authors: C. Hampel, H.-J. Werner, 1991, M. Deegan, P.J. Knowles, 1992


 Convergence thresholds:  THRVAR = 1.00D-08  THRDEN = 1.00D-12

 CCSD(T)     terms to be evaluated (factor= 1.000)


 Number of core orbitals:           2 (   2   0 )
 Number of closed-shell orbitals:   6 (   5   1 )
 Number of external orbitals:      66 (  43  23 )

 Molecular orbitals read from record     2100.2  Type=RHF/CANONICAL (state 1.1)

 Number of N-1 electron functions:               6
 Number of N-2 electron functions:              21
 Number of singly external CSFs:               238
 Number of doubly external CSFs:             41002
 Total number of CSFs:                       41241

 Length of J-op  integral file:               0.00 MB
 Length of K-op  integral file:               0.25 MB
 Length of 3-ext integral record:             0.00 MB

 Memory could be reduced to 1.65 Mwords without degradation in triples

 Integral transformation finished. Total CPU:   0.03 sec, npass=  1  Memory used:   0.55 MW

 Reference energy:                   -129.91672681

 MP2 singlet pair energy:              -0.27430752
 MP2 triplet pair energy:              -0.16296102
 MP2 correlation energy:               -0.43726854
 MP2 total energy:                   -130.35399535

 SCS-MP2 correlation energy:           -0.43056699   (PS=  1.200000  PT=  0.333333)
 SCS-MP2 total energy:               -130.34729380

 ITER.      SQ.NORM     CORR.ENERGY   TOTAL ENERGY   ENERGY CHANGE        DEN1      VAR(S)    VAR(P)  DIIS     TIME  TIME/IT
   1      1.11893571    -0.44208667  -130.35881348    -0.00481813     0.01120742  0.30D-02  0.31D-02  1  1     0.09     0.05
   2      1.12990487    -0.44228305  -130.35900986    -0.00019638    -0.01241737  0.91D-04  0.51D-03  2  2     0.14     0.05
   3      1.13628557    -0.44267384  -130.35940065    -0.00039080    -0.00300665  0.48D-04  0.52D-04  3  3     0.18     0.05
   4      1.13916390    -0.44270180  -130.35942861    -0.00002795    -0.00097690  0.40D-05  0.92D-05  4  4     0.23     0.05
   5      1.14019325    -0.44273196  -130.35945877    -0.00003016    -0.00021310  0.13D-05  0.17D-05  5  5     0.28     0.05
   6      1.14055989    -0.44271465  -130.35944147     0.00001730    -0.00004193  0.89D-07  0.43D-06  6  6     0.33     0.05
   7      1.14064459    -0.44271702  -130.35944383    -0.00000236    -0.00000172  0.10D-07  0.93D-07  6  1     0.38     0.05
   8      1.14067495    -0.44271698  -130.35944379     0.00000004     0.00000209  0.49D-08  0.11D-07  6  2     0.44     0.05
   9      1.14068285    -0.44271680  -130.35944361     0.00000018    -0.00000238  0.27D-08  0.12D-08  6  3     0.48     0.05
  10      1.14068151    -0.44271732  -130.35944413    -0.00000052     0.00000068  0.51D-09  0.22D-09  6  4     0.53     0.05
  11      1.14067980    -0.44271737  -130.35944419    -0.00000006     0.00000015  0.15D-09  0.23D-10  6  5     0.57     0.05
  12      1.14067841    -0.44271756  -130.35944437    -0.00000018     0.00000044  0.15D-10  0.74D-11  6  6     0.62     0.05
  13      1.14067780    -0.44271756  -130.35944438    -0.00000001     0.00000012  0.64D-11  0.12D-11  6  1     0.67     0.05
  14      1.14067741    -0.44271758  -130.35944440    -0.00000002     0.00000008  0.90D-12  0.44D-12  6  2     0.72     0.05
  15      1.14067726    -0.44271759  -130.35944440    -0.00000000     0.00000002  0.23D-12  0.14D-12  6  3     0.76     0.05
  16      1.14067718    -0.44271759  -130.35944440    -0.00000000     0.00000001  0.15D-13  0.55D-13  6  4     0.81     0.05
  17      1.14067714    -0.44271759  -130.35944440    -0.00000000     0.00000001  0.25D-14  0.13D-13  6  5     0.86     0.05
  18      1.14067713    -0.44271759  -130.35944440     0.00000000     0.00000000  0.17D-14  0.33D-14  6  6     0.91     0.05
  19      1.14067713    -0.44271759  -130.35944440    -0.00000000    -0.00000000  0.81D-15  0.37D-15  6  1     0.96     0.05
  20      1.14067713    -0.44271759  -130.35944440     0.00000000    -0.00000000  0.66D-16  0.68D-16  6  2     0.99     0.05
  21      1.14067713    -0.44271759  -130.35944440    -0.00000000     0.00000000  0.37D-16  0.12D-16  6  3     1.04     0.05
  22      1.14067713    -0.44271759  -130.35944440    -0.00000000     0.00000000  0.64D-17  0.23D-17  6  4     1.10     0.05
  23      1.14067713    -0.44271759  -130.35944440    -0.00000000     0.00000000  0.23D-17  0.39D-18  6  5     1.14     0.05
  24      1.14067713    -0.44271759  -130.35944440    -0.00000000    -0.00000000  0.25D-18  0.11D-18  6  6     1.20     0.05
  25      1.14067713    -0.44271759  -130.35944440     0.00000000    -0.00000000  0.71D-19  0.26D-19  6  2     1.24     0.05
  26      1.14067713    -0.44271759  -130.35944440     0.00000000    -0.00000000  0.18D-20  0.22D-20  6  1     1.28     0.05
  27      1.14067713    -0.44271759  -130.35944440     0.00000000    -0.00000000  0.36D-21  0.71D-21  6  3     1.33     0.05

 Norm of t1 vector:      0.07586057      S-energy:     0.00000000      T1 diagnostic:  0.01548497
                                                                       D1 diagnostic:  0.04343079

 Doubles amplitudes (print threshold =  0.500E-01):

         I         J         SYM. A    SYM. B    A         B      T(IJ, AB)

         6         6         2         2         1         1     -0.14591918


 Total CPU time for triples:      0.37 sec


 RESULTS
 =======

  Reference energy                   -129.916726811637
  CCSD singlet pair energy             -0.303663235569
  CCSD triplet pair energy             -0.139054354691
  CCSD correlation energy              -0.442717590259

  Triples (T) contribution             -0.019956062157
  Total correlation energy             -0.462673652417

  CCSD total energy                  -130.359444401897
  CCSD[T] energy                     -130.380443518186
  CCSD-T energy                      -130.378997731266
 !CCSD(T) total energy               -130.379400464054

 Timing summary (sec):

 STEP                 CPU(USER)    SYS     CPU(TOT)    WALL
 Transformation          0.04      0.01      0.05      0.06
 CCSD iterations         1.29      0.15      1.44      1.43
 Triples                 0.37      0.01      0.38      0.38

 Program statistics:

 Available memory in ccsd:               994999756
 Min. memory needed in ccsd:                154850
 Max. memory used in ccsd:                  184802
 Max. memory used in cckext:                238416 (27 integral passes)



 **********************************************************************************************************************************
 DATASETS  * FILE   NREC   LENGTH (MB)   RECORD NAMES
              1      24       40.41       500      610      700      900      950      970     1000      129      960     1700   
                                          VAR    BASINP    GEOM    SYMINP    ZMAT    AOBASIS   BASIS     P2S    ABASIS    OPER   
                                         1101     1401     1411     1412     1650     1100     1400     1410     1200     1210   
                                          SR      EKINR    POTR     PVPR    MOLCAS      S      EKIN      POT      H0       H01  
                                         1300     1080     1600     1380   
                                         ERIS     AOSYM     SMH     JKOP   

              2       4        2.85       700     1000      520     2100   
                                         GEOM     BASIS   MCVARS     RHF  

 PROGRAMS   *        TOTAL   CCSD(T)        HF       INT
 CPU TIMES  *         2.58      1.72      0.21      0.55
 REAL TIME  *         3.42 SEC
 DISK USED  *        75.75 MB      
 **********************************************************************************************************************************

 CCSD(T)/cc-pVTZ-DK energy=   -130.379400464054

        CCSD(T)         HF-SCF  
   -130.37940046   -129.91672681
 **********************************************************************************************************************************
 Molpro calculation terminated
 Variable memory released
