
 Primary working directories    : /tmp/r2666/235246.maple
 Secondary working directories  : /tmp/r2666/235246.maple
 Wavefunction directory         : /ddn/home4/r2666/wfu/
 Main file repository           : /tmp/r2666/235246.maple/

 SHA1      : d5ffa45e93fdbca01ffc919aa182cfdae0147319
 NAME      : 2015.1.35
 ARCHNAME  : linux/x86_64
 FC        : /opt/intel/composer_xe_2015.1.133/bin/intel64/ifort
 BLASLIB   : -Wl,-_start-group /opt/intel/mkl/lib/intel64/libmkl_intel_ilp64.a /opt/intel/mkl/lib/intel64/libmkl_intel_thread.a /opt/intel/mkl/lib/intel64/libmkl_core.a -Wl,-_end-group
 id        : olemiss

 Nodes     nprocs
 cn096        1

 Using customized tuning parameters: mindgm=1; mindgv=20; mindgc=4; mindgr=1; noblas=0; minvec=7
 default implementation of scratch files=df  

 ***,hno CCSD(T)/TZ-F12 QFF
 memory, 995, m;
 gthresh,energy=1.d-12,zero=1.d-22,oneint=1.d-22,twoint=1.d-22;
 gthresh,optgrad=1.d-8,optstep=1.d-8;
 nocompress;
 geomtyp=xyz
 bohr
 geometry={
 3
        101       101
 N        0.0000000000       -0.1751165026       -1.1630602634
 H        0.0000000000        1.6725120167       -1.9222012041
 O        0.0000000000        0.0443722760        1.1346718765
 }
 
 basis=vtz-dk
 dkroll=1
   {hf,maxit=500;accu,20;}
 {ccsd(t),nocheck,maxit=250;orbital,IGNORE_ERROR;}

 Variables initialized (889), CPU time= 0.00 sec
 Commands  initialized (702), CPU time= 0.02 sec, 572 directives.
 Default parameters read. Elapsed time= 0.12 sec

 Checking input...
 Passed
1


                                         ***  PROGRAM SYSTEM MOLPRO  ***
                                       Copyright, TTI GmbH Stuttgart, 2015
                                    Version 2015.1 linked Jul  9 2018 13:16:40


 **********************************************************************************************************************************
 LABEL *   hno CCSD(T)/TZ-F12 QFF                                                        
  64 bit serial version                                                                  DATE: 08-Feb-20          TIME: 17:57:24  
 **********************************************************************************************************************************

 SHA1:             d5ffa45e93fdbca01ffc919aa182cfdae0147319
 **********************************************************************************************************************************

 THRESHOLDS:

 ZERO    =  1.00D-22  ONEINT  =  1.00D-22  TWOINT  =  1.00D-22  PREFAC  =  1.00D-14  LOCALI  =  1.00D-09  EORDER  =  1.00D-04
 ENERGY  =  1.00D-12  ETEST   =  0.00D+00  EDENS   =  0.00D+00  THRDEDEF=  1.00D-06  GRADIENT=  1.00D-02  STEP    =  1.00D-03
 ORBITAL =  1.00D-05  CIVEC   =  1.00D-05  COEFF   =  1.00D-04  PRINTCI =  5.00D-02  PUNCHCI =  9.90D+01  OPTGRAD =  3.00D-04
 OPTENERG=  1.00D-06  OPTSTEP =  3.00D-04  THRGRAD =  1.00D-10  COMPRESS=  1.00D-11  VARMIN  =  1.00D-07  VARMAX  =  1.00D-03
 THRDOUB =  0.00D+00  THRDIV  =  1.00D-05  THRRED  =  1.00D-07  THRPSP  =  1.00D+00  THRDC   =  1.00D-10  THRCS   =  1.00D-10
 THRNRM  =  1.00D-08  THREQ   =  0.00D+00  THRDE   =  1.00D+00  THRREF  =  1.00D-05  SPARFAC =  1.00D+00  THRDLP  =  1.00D-07
 THRDIA  =  1.00D-10  THRDLS  =  1.00D-07  THRGPS  =  0.00D+00  THRKEX  =  0.00D+00  THRDIS  =  2.00D-01  THRVAR  =  1.00D-10
 THRLOC  =  1.00D-06  THRGAP  =  1.00D-06  THRLOCT = -1.00D+00  THRGAPT = -1.00D+00  THRORB  =  1.00D-06  THRMLTP =  0.00D+00
 THRCPQCI=  1.00D-10  KEXTA   =  0.00D+00  THRCOARS=  0.00D+00  SYMTOL  =  1.00D-06  GRADTOL =  1.00D-06  THROVL  =  1.00D-08
 THRORTH =  1.00D-08  GRID    =  1.00D-06  GRIDMAX =  1.00D-03  DTMAX   =  0.00D+00  THROCCDE=  1.00D-01  THROCCDE=  1.00D-01



 THRESHOLDS:

 ZERO    =  1.00D-22  ONEINT  =  1.00D-22  TWOINT  =  1.00D-22  PREFAC  =  1.00D-14  LOCALI  =  1.00D-09  EORDER  =  1.00D-04
 ENERGY  =  1.00D-12  ETEST   =  0.00D+00  EDENS   =  0.00D+00  THRDEDEF=  1.00D-06  GRADIENT=  1.00D-02  STEP    =  1.00D-03
 ORBITAL =  1.00D-05  CIVEC   =  1.00D-05  COEFF   =  1.00D-04  PRINTCI =  5.00D-02  PUNCHCI =  9.90D+01  OPTGRAD =  1.00D-08
 OPTENERG=  1.00D-06  OPTSTEP =  1.00D-08  THRGRAD =  1.00D-10  COMPRESS=  1.00D-11  VARMIN  =  1.00D-07  VARMAX  =  1.00D-03
 THRDOUB =  0.00D+00  THRDIV  =  1.00D-05  THRRED  =  1.00D-07  THRPSP  =  1.00D+00  THRDC   =  1.00D-10  THRCS   =  1.00D-10
 THRNRM  =  1.00D-08  THREQ   =  0.00D+00  THRDE   =  1.00D+00  THRREF  =  1.00D-05  SPARFAC =  1.00D+00  THRDLP  =  1.00D-07
 THRDIA  =  1.00D-10  THRDLS  =  1.00D-07  THRGPS  =  0.00D+00  THRKEX  =  0.00D+00  THRDIS  =  2.00D-01  THRVAR  =  1.00D-10
 THRLOC  =  1.00D-06  THRGAP  =  1.00D-06  THRLOCT = -1.00D+00  THRGAPT = -1.00D+00  THRORB  =  1.00D-06  THRMLTP =  0.00D+00
 THRCPQCI=  1.00D-10  KEXTA   =  0.00D+00  THRCOARS=  0.00D+00  SYMTOL  =  1.00D-06  GRADTOL =  1.00D-06  THROVL  =  1.00D-08
 THRORTH =  1.00D-08  GRID    =  1.00D-06  GRIDMAX =  1.00D-03  DTMAX   =  0.00D+00  THROCCDE=  1.00D-01  THROCCDE=  1.00D-01



 Input parameters for SORTINT:

 COMPRESS =    0.000000
 C_FINAL  =    1.000000
 DEBUG    =   -1.000000
 C_SORT1  =    0.000000
 C_SEWARD =    0.000000
 THRESH   =    0.000000
 IO       =  molpro                                                          
 SPRI     =    0.000000
 SETTING GEOMTYP        =    XYZ
 ZUNIT=BOHR
 

 Variable memory set to  995000000 words,  buffer space   230000 words

 SETTING BASIS          =    VTZ-DK
 SETTING DKROLL         =         1.00000000                                  


 Recomputing integrals since basis changed


 Using spherical harmonics

 Library entry N      S cc-pVTZ-DK           selected for orbital group  1
 Library entry N      P cc-pVTZ-DK           selected for orbital group  1
 Library entry N      D cc-pVTZ-DK           selected for orbital group  1
 Library entry N      F cc-pVTZ-DK           selected for orbital group  1
 Library entry H      S cc-pVTZ-DK           selected for orbital group  2
 Library entry H      P cc-pVTZ-DK           selected for orbital group  2
 Library entry H      D cc-pVTZ-DK           selected for orbital group  2
 Library entry O      S cc-pVTZ-DK           selected for orbital group  3
 Library entry O      P cc-pVTZ-DK           selected for orbital group  3
 Library entry O      D cc-pVTZ-DK           selected for orbital group  3
 Library entry O      F cc-pVTZ-DK           selected for orbital group  3


 PROGRAM * SEWARD (Integral evaluation for generally contracted gaussian basis sets)     Author: Roland Lindh, 1990

 Geometry written to block  1 of record 700


 Point group  Cs  



 ATOMIC COORDINATES

 NR  ATOM    CHARGE       X              Y              Z

   1  N       7.00    0.000000000   -0.175116503   -1.163060263
   2  H       1.00    0.000000000    1.672512017   -1.922201204
   3  O       8.00    0.000000000    0.044372276    1.134671876

 Bond lengths in Bohr (Angstrom)

 1-2  1.997504972  1-3  2.308191567
     ( 1.057034110)     ( 1.221442376)

 Bond angles

  2-1-3  106.87987339

 NUCLEAR CHARGE:                   16
 NUMBER OF PRIMITIVE AOS:         111
 NUMBER OF SYMMETRY AOS:          100
 NUMBER OF CONTRACTIONS:           74   (  50A'  +  24A"  )
 NUMBER OF CORE ORBITALS:           2   (   2A'  +   0A"  )
 NUMBER OF VALENCE ORBITALS:        9   (   7A'  +   2A"  )


 NUCLEAR REPULSION ENERGY   30.07564187

 One-electron integrals computed with SEWARD

 2nd-order Douglas-Kroll-Hess method activated. Optimal DKH parametrization is used.

 Computing Douglas-Kroll / X2C integrals


        1874283. INTEGRALS WRITTEN OUT IN     458 BLOCKS ON RECORD 1290 OF FILE 1


 NUMBER OF SORTED TWO-ELECTRON INTEGRALS:    2006100.     BUFFER LENGTH:  32768
 NUMBER OF SEGMENTS:   1  SEGMENT LENGTH:    2006100      RECORD LENGTH: 524288

 Memory used in sort:       2.56 MW

 SORT1 READ     1874283. AND WROTE     1914195. INTEGRALS IN      6 RECORDS. CPU TIME:     0.05 SEC, REAL TIME:     0.04 SEC
 SORT2 READ     1914195. AND WROTE     2006100. INTEGRALS IN      1 RECORDS. CPU TIME:     0.05 SEC, REAL TIME:     0.07 SEC

 FILE SIZES:   FILE 1:    50.2 MBYTE,  FILE 4:    25.2 MBYTE,   TOTAL:     75.4 MBYTE

 OPERATOR DM      FOR CENTER  0  COORDINATES:    0.000000    0.000000    0.000000

 Eigenvalues of metric

         1 0.251E-02 0.403E-02 0.438E-02 0.850E-02 0.131E-01 0.337E-01 0.433E-01 0.466E-01
         2 0.349E-01 0.468E-01 0.103E+00 0.115E+00 0.239E+00 0.344E+00 0.400E+00 0.454E+00


 **********************************************************************************************************************************
 DATASETS  * FILE   NREC   LENGTH (MB)   RECORD NAMES
              1      23       36.03       500      610      700      900      950      970     1000      129      960     1700   
                                          VAR    BASINP    GEOM    SYMINP    ZMAT    AOBASIS   BASIS     P2S    ABASIS    OPER   
                                         1101     1401     1411     1412     1650     1100     1400     1410     1200     1210   
                                          SR      EKINR    POTR     PVPR    MOLCAS      S      EKIN      POT      H0       H01  
                                         1300     1080     1600   
                                         ERIS     AOSYM     SMH  

 PROGRAMS   *        TOTAL       INT
 CPU TIMES  *         0.75      0.63
 REAL TIME  *         1.54 SEC
 DISK USED  *        75.75 MB      
 **********************************************************************************************************************************


 PROGRAM * RHF-SCF (CLOSED SHELL)       Authors: W. Meyer, H.-J. Werner


 NUMBER OF ELECTRONS:       8+    8-
 CONVERGENCE THRESHOLDS:    1.00E-10 (Density)    1.00E-13 (Energy)
 MAX. NUMBER OF ITERATIONS:      500
 INTERPOLATION TYPE:            DIIS
 INTERPOLATION STEPS:              2 (START)      1 (STEP)
 LEVEL SHIFTS:                  0.00 (CLOSED)  0.00 (OPEN) 



 Orbital guess generated from atomic densities. Full valence occupancy:    9   2

 Molecular orbital dump at record        2100.2

 Initial occupancy:   7   1

 ITERATION    DDIFF          GRAD             ENERGY        2-EL.EN.            DIPOLE MOMENTS         DIIS   ORB.
    1      0.000D+00      0.000D+00      -129.86285393    153.701666    0.00000    0.58139   -1.08132    0    start
    2      0.000D+00      0.138D-01      -129.88909289    154.785278    0.00000    0.62435   -0.20434    1    diag
    3      0.192D-01      0.110D-01      -129.91426077    154.943554    0.00000    0.56279   -0.61368    2    diag
    4      0.944D-02      0.157D-02      -129.91501793    154.668970    0.00000    0.57158   -0.55266    3    diag
    5      0.167D-02      0.527D-03      -129.91513860    154.755722    0.00000    0.57691   -0.55333    4    diag
    6      0.735D-03      0.158D-03      -129.91515886    154.740413    0.00000    0.57735   -0.54886    5    diag
    7      0.286D-03      0.804D-04      -129.91516507    154.742569    0.00000    0.57854   -0.54613    6    diag
    8      0.201D-03      0.269D-04      -129.91516574    154.741800    0.00000    0.57855   -0.54521    7    diag
    9      0.737D-04      0.492D-05      -129.91516577    154.741669    0.00000    0.57849   -0.54503    8    diag
   10      0.144D-04      0.104D-05      -129.91516577    154.741651    0.00000    0.57846   -0.54501    9    orth
   11      0.290D-05      0.205D-06      -129.91516577    154.741647    0.00000    0.57845   -0.54500    9    diag
   12      0.528D-06      0.449D-07      -129.91516577    154.741646    0.00000    0.57845   -0.54500    9    diag
   13      0.119D-06      0.117D-07      -129.91516577    154.741646    0.00000    0.57845   -0.54500    9    diag
   14      0.308D-07      0.209D-08      -129.91516577    154.741646    0.00000    0.57845   -0.54500    9    diag
   15      0.452D-08      0.529D-09      -129.91516577    154.741646    0.00000    0.57845   -0.54500    9    diag
   16      0.113D-08      0.129D-09      -129.91516577    154.741646    0.00000    0.57845   -0.54500    9    diag
   17      0.186D-09      0.378D-10      -129.91516577    154.741646    0.00000    0.57845   -0.54500    9    diag
   18      0.595D-10      0.132D-10      -129.91516577    154.741646    0.00000    0.57845   -0.54500    0    orth

 Final occupancy:   7   1

 !RHF STATE 1.1 Energy               -129.915165770289
 Nuclear energy                        30.07564187
 One-electron energy                 -237.36163049
 Two-electron energy                   77.37082285
 Virial quotient                       -0.99796999
 !RHF STATE 1.1 Dipole moment           0.00000000     0.57845005    -0.54500196
 Dipole moment /Debye                   0.00000000     1.47017708    -1.38516608

 Orbital energies:

         1.1          2.1          3.1          4.1          5.1          6.1          7.1          8.1          9.1
    -20.666124   -15.720075    -1.517144    -0.993311    -0.738473    -0.657689    -0.431356     0.143208     0.367425

         1.2          2.2          3.2
     -0.585819     0.081631     0.614409

 HOMO      7.1    -0.431356 =     -11.7378eV
 LUMO      2.2     0.081631 =       2.2213eV
 LUMO-HOMO         0.512987 =      13.9591eV


 **********************************************************************************************************************************
 DATASETS  * FILE   NREC   LENGTH (MB)   RECORD NAMES
              1      23       36.03       500      610      700      900      950      970     1000      129      960     1700   
                                          VAR    BASINP    GEOM    SYMINP    ZMAT    AOBASIS   BASIS     P2S    ABASIS    OPER   
                                         1101     1401     1411     1412     1650     1100     1400     1410     1200     1210   
                                          SR      EKINR    POTR     PVPR    MOLCAS      S      EKIN      POT      H0       H01  
                                         1300     1080     1600   
                                         ERIS     AOSYM     SMH  

              2       4        2.85       700     1000      520     2100   
                                         GEOM     BASIS   MCVARS     RHF  

 PROGRAMS   *        TOTAL        HF       INT
 CPU TIMES  *         0.96      0.21      0.63
 REAL TIME  *         1.86 SEC
 DISK USED  *        75.75 MB      
 **********************************************************************************************************************************


 PROGRAM * CCSD (Closed-shell coupled cluster)     Authors: C. Hampel, H.-J. Werner, 1991, M. Deegan, P.J. Knowles, 1992


 Convergence thresholds:  THRVAR = 1.00D-08  THRDEN = 1.00D-12

 CCSD(T)     terms to be evaluated (factor= 1.000)


 Number of core orbitals:           2 (   2   0 )
 Number of closed-shell orbitals:   6 (   5   1 )
 Number of external orbitals:      66 (  43  23 )

 Molecular orbitals read from record     2100.2  Type=RHF/CANONICAL (state 1.1)

 Number of N-1 electron functions:               6
 Number of N-2 electron functions:              21
 Number of singly external CSFs:               238
 Number of doubly external CSFs:             41002
 Total number of CSFs:                       41241

 Length of J-op  integral file:               0.00 MB
 Length of K-op  integral file:               0.25 MB
 Length of 3-ext integral record:             0.00 MB

 Memory could be reduced to 1.65 Mwords without degradation in triples

 Integral transformation finished. Total CPU:   0.03 sec, npass=  1  Memory used:   0.55 MW

 Reference energy:                   -129.91516577

 MP2 singlet pair energy:              -0.27533234
 MP2 triplet pair energy:              -0.16360742
 MP2 correlation energy:               -0.43893976
 MP2 total energy:                   -130.35410553

 SCS-MP2 correlation energy:           -0.43219898   (PS=  1.200000  PT=  0.333333)
 SCS-MP2 total energy:               -130.34736475

 ITER.      SQ.NORM     CORR.ENERGY   TOTAL ENERGY   ENERGY CHANGE        DEN1      VAR(S)    VAR(P)  DIIS     TIME  TIME/IT
   1      1.12007433    -0.44347059  -130.35863636    -0.00453083     0.01185588  0.31D-02  0.32D-02  1  1     0.07     0.05
   2      1.13127065    -0.44361509  -130.35878086    -0.00014450    -0.01263425  0.95D-04  0.52D-03  2  2     0.12     0.05
   3      1.13784470    -0.44402180  -130.35918757    -0.00040671    -0.00308003  0.50D-04  0.54D-04  3  3     0.16     0.05
   4      1.14080706    -0.44404995  -130.35921572    -0.00002815    -0.00100264  0.44D-05  0.93D-05  4  4     0.21     0.05
   5      1.14187549    -0.44408202  -130.35924779    -0.00003207    -0.00022192  0.14D-05  0.16D-05  5  5     0.25     0.05
   6      1.14224905    -0.44406375  -130.35922952     0.00001827    -0.00004325  0.10D-06  0.40D-06  6  6     0.31     0.05
   7      1.14233217    -0.44406598  -130.35923175    -0.00000222    -0.00000143  0.12D-07  0.89D-07  6  1     0.35     0.05
   8      1.14236272    -0.44406574  -130.35923151     0.00000024     0.00000190  0.42D-08  0.11D-07  6  2     0.40     0.05
   9      1.14237079    -0.44406553  -130.35923130     0.00000021    -0.00000230  0.25D-08  0.13D-08  6  3     0.44     0.05
  10      1.14236954    -0.44406605  -130.35923182    -0.00000052     0.00000066  0.48D-09  0.22D-09  6  4     0.49     0.05
  11      1.14236785    -0.44406610  -130.35923187    -0.00000006     0.00000014  0.15D-09  0.24D-10  6  5     0.54     0.05
  12      1.14236645    -0.44406629  -130.35923206    -0.00000019     0.00000044  0.14D-10  0.75D-11  6  6     0.58     0.05
  13      1.14236584    -0.44406629  -130.35923207    -0.00000001     0.00000012  0.64D-11  0.12D-11  6  1     0.63     0.05
  14      1.14236544    -0.44406632  -130.35923209    -0.00000002     0.00000008  0.93D-12  0.43D-12  6  2     0.68     0.05
  15      1.14236529    -0.44406632  -130.35923209    -0.00000000     0.00000002  0.25D-12  0.13D-12  6  3     0.72     0.05
  16      1.14236520    -0.44406632  -130.35923209    -0.00000000     0.00000001  0.17D-13  0.51D-13  6  4     0.76     0.05
  17      1.14236516    -0.44406632  -130.35923209    -0.00000000     0.00000001  0.22D-14  0.12D-13  6  5     0.82     0.05
  18      1.14236515    -0.44406632  -130.35923209     0.00000000     0.00000000  0.14D-14  0.33D-14  6  6     0.86     0.05
  19      1.14236515    -0.44406632  -130.35923209    -0.00000000    -0.00000000  0.76D-15  0.37D-15  6  1     0.92     0.05
  20      1.14236515    -0.44406632  -130.35923209     0.00000000    -0.00000000  0.64D-16  0.67D-16  6  2     0.97     0.05
  21      1.14236515    -0.44406632  -130.35923209    -0.00000000     0.00000000  0.37D-16  0.12D-16  6  3     1.02     0.05
  22      1.14236515    -0.44406632  -130.35923209     0.00000000     0.00000000  0.65D-17  0.24D-17  6  4     1.06     0.05
  23      1.14236515    -0.44406632  -130.35923209    -0.00000000     0.00000000  0.24D-17  0.38D-18  6  5     1.10     0.05
  24      1.14236515    -0.44406632  -130.35923209    -0.00000000    -0.00000000  0.24D-18  0.99D-19  6  6     1.14     0.05
  25      1.14236515    -0.44406632  -130.35923209     0.00000000    -0.00000000  0.67D-19  0.23D-19  6  2     1.19     0.05
  26      1.14236515    -0.44406632  -130.35923209     0.00000000    -0.00000000  0.16D-20  0.19D-20  6  1     1.24     0.05
  27      1.14236515    -0.44406632  -130.35923209     0.00000000    -0.00000000  0.30D-21  0.64D-21  6  3     1.28     0.05

 Norm of t1 vector:      0.07707663      S-energy:     0.00000000      T1 diagnostic:  0.01573320
                                                                       D1 diagnostic:  0.04412399

 Doubles amplitudes (print threshold =  0.500E-01):

         I         J         SYM. A    SYM. B    A         B      T(IJ, AB)

         6         6         2         2         1         1     -0.14742689


 Total CPU time for triples:      0.30 sec


 RESULTS
 =======

  Reference energy                   -129.915165770289
  CCSD singlet pair energy             -0.304828949904
  CCSD triplet pair energy             -0.139237371975
  CCSD correlation energy              -0.444066321878

  Triples (T) contribution             -0.020225550484
  Total correlation energy             -0.464291872361

  CCSD total energy                  -130.359232092167
  CCSD[T] energy                     -130.380533576698
  CCSD-T energy                      -130.379044958936
 !CCSD(T) total energy               -130.379457642651

 Timing summary (sec):

 STEP                 CPU(USER)    SYS     CPU(TOT)    WALL
 Transformation          0.03      0.02      0.05      0.05
 CCSD iterations         1.26      0.22      1.48      1.48
 Triples                 0.30      0.02      0.32      0.32

 Program statistics:

 Available memory in ccsd:               994999756
 Min. memory needed in ccsd:                154850
 Max. memory used in ccsd:                  184802
 Max. memory used in cckext:                238416 (27 integral passes)



 **********************************************************************************************************************************
 DATASETS  * FILE   NREC   LENGTH (MB)   RECORD NAMES
              1      24       40.41       500      610      700      900      950      970     1000      129      960     1700   
                                          VAR    BASINP    GEOM    SYMINP    ZMAT    AOBASIS   BASIS     P2S    ABASIS    OPER   
                                         1101     1401     1411     1412     1650     1100     1400     1410     1200     1210   
                                          SR      EKINR    POTR     PVPR    MOLCAS      S      EKIN      POT      H0       H01  
                                         1300     1080     1600     1380   
                                         ERIS     AOSYM     SMH     JKOP   

              2       4        2.85       700     1000      520     2100   
                                         GEOM     BASIS   MCVARS     RHF  

 PROGRAMS   *        TOTAL   CCSD(T)        HF       INT
 CPU TIMES  *         2.59      1.62      0.21      0.63
 REAL TIME  *         4.00 SEC
 DISK USED  *        75.75 MB      
 **********************************************************************************************************************************

 CCSD(T)/cc-pVTZ-DK energy=   -130.379457642651

        CCSD(T)         HF-SCF  
   -130.37945764   -129.91516577
 **********************************************************************************************************************************
 Molpro calculation terminated
 Variable memory released
