
 Primary working directories    : /tmp/r2666/235274.maple
 Secondary working directories  : /tmp/r2666/235274.maple
 Wavefunction directory         : /ddn/home4/r2666/wfu/
 Main file repository           : /tmp/r2666/235274.maple/

 SHA1      : d5ffa45e93fdbca01ffc919aa182cfdae0147319
 NAME      : 2015.1.35
 ARCHNAME  : linux/x86_64
 FC        : /opt/intel/composer_xe_2015.1.133/bin/intel64/ifort
 BLASLIB   : -Wl,-_start-group /opt/intel/mkl/lib/intel64/libmkl_intel_ilp64.a /opt/intel/mkl/lib/intel64/libmkl_intel_thread.a /opt/intel/mkl/lib/intel64/libmkl_core.a -Wl,-_end-group
 id        : olemiss

 Nodes     nprocs
 cn031        1

 Using customized tuning parameters: mindgm=1; mindgv=20; mindgc=4; mindgr=1; noblas=0; minvec=7
 default implementation of scratch files=df  

 ***,hno CCSD(T)/TZ-F12 QFF
 memory, 995, m;
 gthresh,energy=1.d-12,zero=1.d-22,oneint=1.d-22,twoint=1.d-22;
 gthresh,optgrad=1.d-8,optstep=1.d-8;
 nocompress;
 geomtyp=xyz
 bohr
 geometry={
 3
        129       129
 N        0.0000000000       -0.1824487036       -1.1404926860
 H        0.0000000000        1.6833874597       -1.9296233002
 O        0.0000000000        0.0408290340        1.1195263952
 }
 
 basis=vtz-dk
 dkroll=1
   {hf,maxit=500;accu,20;}
 {ccsd(t),nocheck,maxit=250;orbital,IGNORE_ERROR;}

 Variables initialized (889), CPU time= 0.00 sec
 Commands  initialized (702), CPU time= 0.01 sec, 572 directives.
 Default parameters read. Elapsed time= 0.06 sec

 Checking input...
 Passed
1


                                         ***  PROGRAM SYSTEM MOLPRO  ***
                                       Copyright, TTI GmbH Stuttgart, 2015
                                    Version 2015.1 linked Jul  9 2018 13:16:40


 **********************************************************************************************************************************
 LABEL *   hno CCSD(T)/TZ-F12 QFF                                                        
  64 bit serial version                                                                  DATE: 08-Feb-20          TIME: 17:57:26  
 **********************************************************************************************************************************

 SHA1:             d5ffa45e93fdbca01ffc919aa182cfdae0147319
 **********************************************************************************************************************************

 THRESHOLDS:

 ZERO    =  1.00D-22  ONEINT  =  1.00D-22  TWOINT  =  1.00D-22  PREFAC  =  1.00D-14  LOCALI  =  1.00D-09  EORDER  =  1.00D-04
 ENERGY  =  1.00D-12  ETEST   =  0.00D+00  EDENS   =  0.00D+00  THRDEDEF=  1.00D-06  GRADIENT=  1.00D-02  STEP    =  1.00D-03
 ORBITAL =  1.00D-05  CIVEC   =  1.00D-05  COEFF   =  1.00D-04  PRINTCI =  5.00D-02  PUNCHCI =  9.90D+01  OPTGRAD =  3.00D-04
 OPTENERG=  1.00D-06  OPTSTEP =  3.00D-04  THRGRAD =  1.00D-10  COMPRESS=  1.00D-11  VARMIN  =  1.00D-07  VARMAX  =  1.00D-03
 THRDOUB =  0.00D+00  THRDIV  =  1.00D-05  THRRED  =  1.00D-07  THRPSP  =  1.00D+00  THRDC   =  1.00D-10  THRCS   =  1.00D-10
 THRNRM  =  1.00D-08  THREQ   =  0.00D+00  THRDE   =  1.00D+00  THRREF  =  1.00D-05  SPARFAC =  1.00D+00  THRDLP  =  1.00D-07
 THRDIA  =  1.00D-10  THRDLS  =  1.00D-07  THRGPS  =  0.00D+00  THRKEX  =  0.00D+00  THRDIS  =  2.00D-01  THRVAR  =  1.00D-10
 THRLOC  =  1.00D-06  THRGAP  =  1.00D-06  THRLOCT = -1.00D+00  THRGAPT = -1.00D+00  THRORB  =  1.00D-06  THRMLTP =  0.00D+00
 THRCPQCI=  1.00D-10  KEXTA   =  0.00D+00  THRCOARS=  0.00D+00  SYMTOL  =  1.00D-06  GRADTOL =  1.00D-06  THROVL  =  1.00D-08
 THRORTH =  1.00D-08  GRID    =  1.00D-06  GRIDMAX =  1.00D-03  DTMAX   =  0.00D+00  THROCCDE=  1.00D-01  THROCCDE=  1.00D-01



 THRESHOLDS:

 ZERO    =  1.00D-22  ONEINT  =  1.00D-22  TWOINT  =  1.00D-22  PREFAC  =  1.00D-14  LOCALI  =  1.00D-09  EORDER  =  1.00D-04
 ENERGY  =  1.00D-12  ETEST   =  0.00D+00  EDENS   =  0.00D+00  THRDEDEF=  1.00D-06  GRADIENT=  1.00D-02  STEP    =  1.00D-03
 ORBITAL =  1.00D-05  CIVEC   =  1.00D-05  COEFF   =  1.00D-04  PRINTCI =  5.00D-02  PUNCHCI =  9.90D+01  OPTGRAD =  1.00D-08
 OPTENERG=  1.00D-06  OPTSTEP =  1.00D-08  THRGRAD =  1.00D-10  COMPRESS=  1.00D-11  VARMIN  =  1.00D-07  VARMAX  =  1.00D-03
 THRDOUB =  0.00D+00  THRDIV  =  1.00D-05  THRRED  =  1.00D-07  THRPSP  =  1.00D+00  THRDC   =  1.00D-10  THRCS   =  1.00D-10
 THRNRM  =  1.00D-08  THREQ   =  0.00D+00  THRDE   =  1.00D+00  THRREF  =  1.00D-05  SPARFAC =  1.00D+00  THRDLP  =  1.00D-07
 THRDIA  =  1.00D-10  THRDLS  =  1.00D-07  THRGPS  =  0.00D+00  THRKEX  =  0.00D+00  THRDIS  =  2.00D-01  THRVAR  =  1.00D-10
 THRLOC  =  1.00D-06  THRGAP  =  1.00D-06  THRLOCT = -1.00D+00  THRGAPT = -1.00D+00  THRORB  =  1.00D-06  THRMLTP =  0.00D+00
 THRCPQCI=  1.00D-10  KEXTA   =  0.00D+00  THRCOARS=  0.00D+00  SYMTOL  =  1.00D-06  GRADTOL =  1.00D-06  THROVL  =  1.00D-08
 THRORTH =  1.00D-08  GRID    =  1.00D-06  GRIDMAX =  1.00D-03  DTMAX   =  0.00D+00  THROCCDE=  1.00D-01  THROCCDE=  1.00D-01



 Input parameters for SORTINT:

 COMPRESS =    0.000000
 C_FINAL  =    1.000000
 DEBUG    =   -1.000000
 C_SORT1  =    0.000000
 C_SEWARD =    0.000000
 THRESH   =    0.000000
 IO       =  molpro                                                          
 SPRI     =    0.000000
 SETTING GEOMTYP        =    XYZ
 ZUNIT=BOHR
 

 Variable memory set to  995000000 words,  buffer space   230000 words

 SETTING BASIS          =    VTZ-DK
 SETTING DKROLL         =         1.00000000                                  


 Recomputing integrals since basis changed


 Using spherical harmonics

 Library entry N      S cc-pVTZ-DK           selected for orbital group  1
 Library entry N      P cc-pVTZ-DK           selected for orbital group  1
 Library entry N      D cc-pVTZ-DK           selected for orbital group  1
 Library entry N      F cc-pVTZ-DK           selected for orbital group  1
 Library entry H      S cc-pVTZ-DK           selected for orbital group  2
 Library entry H      P cc-pVTZ-DK           selected for orbital group  2
 Library entry H      D cc-pVTZ-DK           selected for orbital group  2
 Library entry O      S cc-pVTZ-DK           selected for orbital group  3
 Library entry O      P cc-pVTZ-DK           selected for orbital group  3
 Library entry O      D cc-pVTZ-DK           selected for orbital group  3
 Library entry O      F cc-pVTZ-DK           selected for orbital group  3


 PROGRAM * SEWARD (Integral evaluation for generally contracted gaussian basis sets)     Author: Roland Lindh, 1990

 Geometry written to block  1 of record 700


 Point group  Cs  



 ATOMIC COORDINATES

 NR  ATOM    CHARGE       X              Y              Z

   1  N       7.00    0.000000000   -0.182448704   -1.140492686
   2  H       1.00    0.000000000    1.683387460   -1.929623300
   3  O       8.00    0.000000000    0.040829034    1.119526395

 Bond lengths in Bohr (Angstrom)

 1-2  2.025850862  1-3  2.271021619
     ( 1.072034109)     ( 1.201772886)

 Bond angles

  2-1-3  107.28308039

 NUCLEAR CHARGE:                   16
 NUMBER OF PRIMITIVE AOS:         111
 NUMBER OF SYMMETRY AOS:          100
 NUMBER OF CONTRACTIONS:           74   (  50A'  +  24A"  )
 NUMBER OF CORE ORBITALS:           2   (   2A'  +   0A"  )
 NUMBER OF VALENCE ORBITALS:        9   (   7A'  +   2A"  )


 NUCLEAR REPULSION ENERGY   30.42369647

 One-electron integrals computed with SEWARD

 2nd-order Douglas-Kroll-Hess method activated. Optimal DKH parametrization is used.

 Computing Douglas-Kroll / X2C integrals


        1874283. INTEGRALS WRITTEN OUT IN     458 BLOCKS ON RECORD 1290 OF FILE 1


 NUMBER OF SORTED TWO-ELECTRON INTEGRALS:    2006100.     BUFFER LENGTH:  32768
 NUMBER OF SEGMENTS:   1  SEGMENT LENGTH:    2006100      RECORD LENGTH: 524288

 Memory used in sort:       2.56 MW

 SORT1 READ     1874283. AND WROTE     1914195. INTEGRALS IN      6 RECORDS. CPU TIME:     0.08 SEC, REAL TIME:     0.08 SEC
 SORT2 READ     1914195. AND WROTE     2006100. INTEGRALS IN      1 RECORDS. CPU TIME:     0.06 SEC, REAL TIME:     0.09 SEC

 FILE SIZES:   FILE 1:    50.2 MBYTE,  FILE 4:    25.2 MBYTE,   TOTAL:     75.4 MBYTE

 OPERATOR DM      FOR CENTER  0  COORDINATES:    0.000000    0.000000    0.000000

 Eigenvalues of metric

         1 0.249E-02 0.399E-02 0.413E-02 0.866E-02 0.135E-01 0.327E-01 0.423E-01 0.465E-01
         2 0.341E-01 0.466E-01 0.101E+00 0.117E+00 0.235E+00 0.349E+00 0.397E+00 0.450E+00


 **********************************************************************************************************************************
 DATASETS  * FILE   NREC   LENGTH (MB)   RECORD NAMES
              1      23       36.03       500      610      700      900      950      970     1000      129      960     1700   
                                          VAR    BASINP    GEOM    SYMINP    ZMAT    AOBASIS   BASIS     P2S    ABASIS    OPER   
                                         1101     1401     1411     1412     1650     1100     1400     1410     1200     1210   
                                          SR      EKINR    POTR     PVPR    MOLCAS      S      EKIN      POT      H0       H01  
                                         1300     1080     1600   
                                         ERIS     AOSYM     SMH  

 PROGRAMS   *        TOTAL       INT
 CPU TIMES  *         0.74      0.63
 REAL TIME  *         1.60 SEC
 DISK USED  *        75.75 MB      
 **********************************************************************************************************************************


 PROGRAM * RHF-SCF (CLOSED SHELL)       Authors: W. Meyer, H.-J. Werner


 NUMBER OF ELECTRONS:       8+    8-
 CONVERGENCE THRESHOLDS:    1.00E-10 (Density)    1.00E-13 (Energy)
 MAX. NUMBER OF ITERATIONS:      500
 INTERPOLATION TYPE:            DIIS
 INTERPOLATION STEPS:              2 (START)      1 (STEP)
 LEVEL SHIFTS:                  0.00 (CLOSED)  0.00 (OPEN) 



 Orbital guess generated from atomic densities. Full valence occupancy:    9   2

 Molecular orbital dump at record        2100.2

 Initial occupancy:   7   1

 ITERATION    DDIFF          GRAD             ENERGY        2-EL.EN.            DIPOLE MOMENTS         DIIS   ORB.
    1      0.000D+00      0.000D+00      -129.86731617    154.309096    0.00000    0.56606   -1.02031    0    start
    2      0.000D+00      0.136D-01      -129.89421622    155.451071    0.00000    0.60835   -0.21130    1    diag
    3      0.185D-01      0.104D-01      -129.91657774    155.563118    0.00000    0.54856   -0.58545    2    diag
    4      0.901D-02      0.154D-02      -129.91730461    155.299412    0.00000    0.55737   -0.52734    3    diag
    5      0.164D-02      0.515D-03      -129.91742099    155.385764    0.00000    0.56291   -0.52848    4    diag
    6      0.720D-03      0.156D-03      -129.91744050    155.370556    0.00000    0.56344   -0.52432    5    diag
    7      0.282D-03      0.772D-04      -129.91744611    155.372991    0.00000    0.56473   -0.52186    6    diag
    8      0.194D-03      0.244D-04      -129.91744662    155.372304    0.00000    0.56475   -0.52108    7    diag
    9      0.638D-04      0.445D-05      -129.91744664    155.372189    0.00000    0.56471   -0.52093    8    diag
   10      0.123D-04      0.985D-06      -129.91744664    155.372170    0.00000    0.56467   -0.52090    9    orth
   11      0.276D-05      0.196D-06      -129.91744664    155.372166    0.00000    0.56466   -0.52090    9    diag
   12      0.518D-06      0.410D-07      -129.91744664    155.372164    0.00000    0.56466   -0.52090    9    diag
   13      0.117D-06      0.102D-07      -129.91744664    155.372164    0.00000    0.56466   -0.52090    9    diag
   14      0.294D-07      0.189D-08      -129.91744664    155.372164    0.00000    0.56466   -0.52090    9    diag
   15      0.487D-08      0.507D-09      -129.91744664    155.372164    0.00000    0.56466   -0.52090    9    diag
   16      0.117D-08      0.135D-09      -129.91744664    155.372164    0.00000    0.56466   -0.52090    9    diag
   17      0.238D-09      0.419D-10      -129.91744664    155.372164    0.00000    0.56466   -0.52090    9    diag
   18      0.821D-10      0.136D-10      -129.91744664    155.372164    0.00000    0.56466   -0.52090    9    diag
   19      0.316D-10      0.291D-11      -129.91744664    155.372164    0.00000    0.56466   -0.52090    9    fixocc
   20      0.717D-11      0.476D-12      -129.91744664    155.372164    0.00000    0.56466   -0.52090    9    orth
   21      0.896D-12      0.145D-12      -129.91744664    155.372164    0.00000    0.56466   -0.52090    0    orth

 Final occupancy:   7   1

 !RHF STATE 1.1 Energy               -129.917446639636
 Nuclear energy                        30.42369647
 One-electron energy                 -238.02722491
 Two-electron energy                   77.68608180
 Virial quotient                       -0.99757217
 !RHF STATE 1.1 Dipole moment           0.00000000     0.56466023    -0.52089844
 Dipole moment /Debye                   0.00000000     1.43512916    -1.32390506

 Orbital energies:

         1.1          2.1          3.1          4.1          5.1          6.1          7.1          8.1          9.1
    -20.664734   -15.718717    -1.532833    -0.985366    -0.742880    -0.663432    -0.424275     0.143257     0.370407

         1.2          2.2          3.2
     -0.595294     0.088799     0.612175

 HOMO      7.1    -0.424275 =     -11.5451eV
 LUMO      2.2     0.088799 =       2.4164eV
 LUMO-HOMO         0.513075 =      13.9615eV


 **********************************************************************************************************************************
 DATASETS  * FILE   NREC   LENGTH (MB)   RECORD NAMES
              1      23       36.03       500      610      700      900      950      970     1000      129      960     1700   
                                          VAR    BASINP    GEOM    SYMINP    ZMAT    AOBASIS   BASIS     P2S    ABASIS    OPER   
                                         1101     1401     1411     1412     1650     1100     1400     1410     1200     1210   
                                          SR      EKINR    POTR     PVPR    MOLCAS      S      EKIN      POT      H0       H01  
                                         1300     1080     1600   
                                         ERIS     AOSYM     SMH  

              2       4        2.85       700     1000      520     2100   
                                         GEOM     BASIS   MCVARS     RHF  

 PROGRAMS   *        TOTAL        HF       INT
 CPU TIMES  *         1.04      0.30      0.63
 REAL TIME  *         2.02 SEC
 DISK USED  *        75.75 MB      
 **********************************************************************************************************************************


 PROGRAM * CCSD (Closed-shell coupled cluster)     Authors: C. Hampel, H.-J. Werner, 1991, M. Deegan, P.J. Knowles, 1992


 Convergence thresholds:  THRVAR = 1.00D-08  THRDEN = 1.00D-12

 CCSD(T)     terms to be evaluated (factor= 1.000)


 Number of core orbitals:           2 (   2   0 )
 Number of closed-shell orbitals:   6 (   5   1 )
 Number of external orbitals:      66 (  43  23 )

 Molecular orbitals read from record     2100.2  Type=RHF/CANONICAL (state 1.1)

 Number of N-1 electron functions:               6
 Number of N-2 electron functions:              21
 Number of singly external CSFs:               238
 Number of doubly external CSFs:             41002
 Total number of CSFs:                       41241

 Length of J-op  integral file:               0.00 MB
 Length of K-op  integral file:               0.25 MB
 Length of 3-ext integral record:             0.00 MB

 Memory could be reduced to 1.65 Mwords without degradation in triples

 Integral transformation finished. Total CPU:   0.06 sec, npass=  1  Memory used:   0.55 MW

 Reference energy:                   -129.91744664

 MP2 singlet pair energy:              -0.27360134
 MP2 triplet pair energy:              -0.16243771
 MP2 correlation energy:               -0.43603905
 MP2 total energy:                   -130.35348569

 SCS-MP2 correlation energy:           -0.42939396   (PS=  1.200000  PT=  0.333333)
 SCS-MP2 total energy:               -130.34684060

 ITER.      SQ.NORM     CORR.ENERGY   TOTAL ENERGY   ENERGY CHANGE        DEN1      VAR(S)    VAR(P)  DIIS     TIME  TIME/IT
   1      1.11846954    -0.44129591  -130.35874255    -0.00525687     0.01044470  0.29D-02  0.30D-02  1  1     0.12     0.06
   2      1.12928864    -0.44158747  -130.35903411    -0.00029155    -0.01224229  0.87D-04  0.50D-03  2  2     0.18     0.07
   3      1.13555633    -0.44197601  -130.35942265    -0.00038854    -0.00298159  0.48D-04  0.50D-04  3  3     0.24     0.07
   4      1.13832241    -0.44200017  -130.35944681    -0.00002416    -0.00095088  0.42D-05  0.87D-05  4  4     0.31     0.07
   5      1.13930681    -0.44202973  -130.35947637    -0.00002956    -0.00020442  0.15D-05  0.16D-05  5  5     0.36     0.07
   6      1.13966410    -0.44201356  -130.35946020     0.00001617    -0.00004041  0.12D-06  0.39D-06  6  6     0.42     0.07
   7      1.13975177    -0.44201510  -130.35946174    -0.00000154    -0.00000248  0.15D-07  0.80D-07  6  1     0.48     0.07
   8      1.13978325    -0.44201507  -130.35946170     0.00000004     0.00000157  0.37D-08  0.99D-08  6  2     0.54     0.07
   9      1.13979124    -0.44201481  -130.35946145     0.00000026    -0.00000214  0.23D-08  0.11D-08  6  3     0.59     0.07
  10      1.13979017    -0.44201531  -130.35946195    -0.00000050     0.00000054  0.45D-09  0.20D-09  6  4     0.66     0.07
  11      1.13978845    -0.44201536  -130.35946200    -0.00000006     0.00000021  0.14D-09  0.22D-10  6  5     0.71     0.07
  12      1.13978705    -0.44201553  -130.35946217    -0.00000017     0.00000043  0.16D-10  0.76D-11  6  6     0.78     0.07
  13      1.13978642    -0.44201554  -130.35946218    -0.00000001     0.00000012  0.69D-11  0.12D-11  6  1     0.83     0.07
  14      1.13978603    -0.44201556  -130.35946220    -0.00000002     0.00000008  0.99D-12  0.41D-12  6  2     0.89     0.07
  15      1.13978589    -0.44201556  -130.35946220    -0.00000000     0.00000001  0.26D-12  0.13D-12  6  3     0.95     0.07
  16      1.13978579    -0.44201556  -130.35946220    -0.00000000     0.00000001  0.25D-13  0.14D-13  6  5     1.01     0.07
  17      1.13978576    -0.44201557  -130.35946221    -0.00000000     0.00000000  0.55D-15  0.19D-14  6  4     1.06     0.07
  18      1.13978576    -0.44201557  -130.35946221     0.00000000    -0.00000000  0.41D-15  0.27D-15  6  1     1.13     0.07
  19      1.13978575    -0.44201557  -130.35946221    -0.00000000     0.00000000  0.35D-16  0.48D-16  6  6     1.19     0.07
  20      1.13978575    -0.44201557  -130.35946221    -0.00000000     0.00000000  0.76D-17  0.12D-16  6  2     1.25     0.07
  21      1.13978575    -0.44201557  -130.35946221    -0.00000000     0.00000000  0.17D-17  0.96D-18  6  5     1.31     0.07
  22      1.13978575    -0.44201557  -130.35946221     0.00000000     0.00000000  0.93D-19  0.70D-19  6  3     1.36     0.07
  23      1.13978575    -0.44201557  -130.35946221     0.00000000    -0.00000000  0.25D-19  0.15D-19  6  4     1.43     0.07
  24      1.13978575    -0.44201557  -130.35946221     0.00000000    -0.00000000  0.37D-20  0.38D-20  6  1     1.48     0.07
  25      1.13978575    -0.44201557  -130.35946221     0.00000000    -0.00000000  0.54D-21  0.66D-21  6  6     1.55     0.07

 Norm of t1 vector:      0.07495962      S-energy:     0.00000000      T1 diagnostic:  0.01530107
                                                                       D1 diagnostic:  0.04162877

 Doubles amplitudes (print threshold =  0.500E-01):

         I         J         SYM. A    SYM. B    A         B      T(IJ, AB)

         6         6         2         2         1         1     -0.14176299


 Total CPU time for triples:      0.43 sec


 RESULTS
 =======

  Reference energy                   -129.917446639636
  CCSD singlet pair energy             -0.303036939413
  CCSD triplet pair energy             -0.138978627201
  CCSD correlation energy              -0.442015566614

  Triples (T) contribution             -0.019731514639
  Total correlation energy             -0.461747081253

  CCSD total energy                  -130.359462206250
  CCSD[T] energy                     -130.380204338344
  CCSD-T energy                      -130.378794682912
 !CCSD(T) total energy               -130.379193720889

 Timing summary (sec):

 STEP                 CPU(USER)    SYS     CPU(TOT)    WALL
 Transformation          0.06      0.01      0.07      0.14
 CCSD iterations         1.49      0.24      1.73      1.73
 Triples                 0.43      0.02      0.45      0.45

 Program statistics:

 Available memory in ccsd:               994999756
 Min. memory needed in ccsd:                154850
 Max. memory used in ccsd:                  184802
 Max. memory used in cckext:                238416 (25 integral passes)



 **********************************************************************************************************************************
 DATASETS  * FILE   NREC   LENGTH (MB)   RECORD NAMES
              1      24       40.41       500      610      700      900      950      970     1000      129      960     1700   
                                          VAR    BASINP    GEOM    SYMINP    ZMAT    AOBASIS   BASIS     P2S    ABASIS    OPER   
                                         1101     1401     1411     1412     1650     1100     1400     1410     1200     1210   
                                          SR      EKINR    POTR     PVPR    MOLCAS      S      EKIN      POT      H0       H01  
                                         1300     1080     1600     1380   
                                         ERIS     AOSYM     SMH     JKOP   

              2       4        2.85       700     1000      520     2100   
                                         GEOM     BASIS   MCVARS     RHF  

 PROGRAMS   *        TOTAL   CCSD(T)        HF       INT
 CPU TIMES  *         3.05      2.00      0.30      0.63
 REAL TIME  *         4.38 SEC
 DISK USED  *        75.75 MB      
 **********************************************************************************************************************************

 CCSD(T)/cc-pVTZ-DK energy=   -130.379193720889

        CCSD(T)         HF-SCF  
   -130.37919372   -129.91744664
 **********************************************************************************************************************************
 Molpro calculation terminated
 Variable memory released
