
 Primary working directories    : /tmp/r2666/235565.maple
 Secondary working directories  : /tmp/r2666/235565.maple
 Wavefunction directory         : /ddn/home4/r2666/wfu/
 Main file repository           : /tmp/r2666/235565.maple/

 SHA1      : d5ffa45e93fdbca01ffc919aa182cfdae0147319
 NAME      : 2015.1.35
 ARCHNAME  : linux/x86_64
 FC        : /opt/intel/composer_xe_2015.1.133/bin/intel64/ifort
 BLASLIB   : -Wl,-_start-group /opt/intel/mkl/lib/intel64/libmkl_intel_ilp64.a /opt/intel/mkl/lib/intel64/libmkl_intel_thread.a /opt/intel/mkl/lib/intel64/libmkl_core.a -Wl,-_end-group
 id        : olemiss

 Nodes     nprocs
 cn095        1

 Using customized tuning parameters: mindgm=1; mindgv=20; mindgc=4; mindgr=1; noblas=0; minvec=7
 default implementation of scratch files=df  

 ***,hno CCSD(T)/TZ-F12 QFF
 memory, 995, m;
 gthresh,energy=1.d-12,zero=1.d-22,oneint=1.d-22,twoint=1.d-22;
 gthresh,optgrad=1.d-8,optstep=1.d-8;
 nocompress;
 geomtyp=xyz
 bohr
 geometry={
 3
        125       125
 N        0.0000000000       -0.1741867926       -1.1365174315
 H        0.0000000000        1.6787134164       -1.9319033608
 O        0.0000000000        0.0372411662        1.1178312013
 }
 
 basis=vtz-dk
 dkroll=1
   {hf,maxit=500;accu,20;}
 {ccsd(t),nocheck,maxit=250;orbital,IGNORE_ERROR;}

 Variables initialized (889), CPU time= 0.01 sec
 Commands  initialized (702), CPU time= 0.01 sec, 572 directives.
 Default parameters read. Elapsed time= 0.05 sec

 Checking input...
 Passed
1


                                         ***  PROGRAM SYSTEM MOLPRO  ***
                                       Copyright, TTI GmbH Stuttgart, 2015
                                    Version 2015.1 linked Jul  9 2018 13:16:40


 **********************************************************************************************************************************
 LABEL *   hno CCSD(T)/TZ-F12 QFF                                                        
  64 bit serial version                                                                  DATE: 09-Feb-20          TIME: 14:34:00  
 **********************************************************************************************************************************

 SHA1:             d5ffa45e93fdbca01ffc919aa182cfdae0147319
 **********************************************************************************************************************************

 THRESHOLDS:

 ZERO    =  1.00D-22  ONEINT  =  1.00D-22  TWOINT  =  1.00D-22  PREFAC  =  1.00D-14  LOCALI  =  1.00D-09  EORDER  =  1.00D-04
 ENERGY  =  1.00D-12  ETEST   =  0.00D+00  EDENS   =  0.00D+00  THRDEDEF=  1.00D-06  GRADIENT=  1.00D-02  STEP    =  1.00D-03
 ORBITAL =  1.00D-05  CIVEC   =  1.00D-05  COEFF   =  1.00D-04  PRINTCI =  5.00D-02  PUNCHCI =  9.90D+01  OPTGRAD =  3.00D-04
 OPTENERG=  1.00D-06  OPTSTEP =  3.00D-04  THRGRAD =  1.00D-10  COMPRESS=  1.00D-11  VARMIN  =  1.00D-07  VARMAX  =  1.00D-03
 THRDOUB =  0.00D+00  THRDIV  =  1.00D-05  THRRED  =  1.00D-07  THRPSP  =  1.00D+00  THRDC   =  1.00D-10  THRCS   =  1.00D-10
 THRNRM  =  1.00D-08  THREQ   =  0.00D+00  THRDE   =  1.00D+00  THRREF  =  1.00D-05  SPARFAC =  1.00D+00  THRDLP  =  1.00D-07
 THRDIA  =  1.00D-10  THRDLS  =  1.00D-07  THRGPS  =  0.00D+00  THRKEX  =  0.00D+00  THRDIS  =  2.00D-01  THRVAR  =  1.00D-10
 THRLOC  =  1.00D-06  THRGAP  =  1.00D-06  THRLOCT = -1.00D+00  THRGAPT = -1.00D+00  THRORB  =  1.00D-06  THRMLTP =  0.00D+00
 THRCPQCI=  1.00D-10  KEXTA   =  0.00D+00  THRCOARS=  0.00D+00  SYMTOL  =  1.00D-06  GRADTOL =  1.00D-06  THROVL  =  1.00D-08
 THRORTH =  1.00D-08  GRID    =  1.00D-06  GRIDMAX =  1.00D-03  DTMAX   =  0.00D+00  THROCCDE=  1.00D-01  THROCCDE=  1.00D-01



 THRESHOLDS:

 ZERO    =  1.00D-22  ONEINT  =  1.00D-22  TWOINT  =  1.00D-22  PREFAC  =  1.00D-14  LOCALI  =  1.00D-09  EORDER  =  1.00D-04
 ENERGY  =  1.00D-12  ETEST   =  0.00D+00  EDENS   =  0.00D+00  THRDEDEF=  1.00D-06  GRADIENT=  1.00D-02  STEP    =  1.00D-03
 ORBITAL =  1.00D-05  CIVEC   =  1.00D-05  COEFF   =  1.00D-04  PRINTCI =  5.00D-02  PUNCHCI =  9.90D+01  OPTGRAD =  1.00D-08
 OPTENERG=  1.00D-06  OPTSTEP =  1.00D-08  THRGRAD =  1.00D-10  COMPRESS=  1.00D-11  VARMIN  =  1.00D-07  VARMAX  =  1.00D-03
 THRDOUB =  0.00D+00  THRDIV  =  1.00D-05  THRRED  =  1.00D-07  THRPSP  =  1.00D+00  THRDC   =  1.00D-10  THRCS   =  1.00D-10
 THRNRM  =  1.00D-08  THREQ   =  0.00D+00  THRDE   =  1.00D+00  THRREF  =  1.00D-05  SPARFAC =  1.00D+00  THRDLP  =  1.00D-07
 THRDIA  =  1.00D-10  THRDLS  =  1.00D-07  THRGPS  =  0.00D+00  THRKEX  =  0.00D+00  THRDIS  =  2.00D-01  THRVAR  =  1.00D-10
 THRLOC  =  1.00D-06  THRGAP  =  1.00D-06  THRLOCT = -1.00D+00  THRGAPT = -1.00D+00  THRORB  =  1.00D-06  THRMLTP =  0.00D+00
 THRCPQCI=  1.00D-10  KEXTA   =  0.00D+00  THRCOARS=  0.00D+00  SYMTOL  =  1.00D-06  GRADTOL =  1.00D-06  THROVL  =  1.00D-08
 THRORTH =  1.00D-08  GRID    =  1.00D-06  GRIDMAX =  1.00D-03  DTMAX   =  0.00D+00  THROCCDE=  1.00D-01  THROCCDE=  1.00D-01



 Input parameters for SORTINT:

 COMPRESS =    0.000000
 C_FINAL  =    1.000000
 DEBUG    =   -1.000000
 C_SORT1  =    0.000000
 C_SEWARD =    0.000000
 THRESH   =    0.000000
 IO       =  molpro                                                          
 SPRI     =    0.000000
 SETTING GEOMTYP        =    XYZ
 ZUNIT=BOHR
 

 Variable memory set to  995000000 words,  buffer space   230000 words

 SETTING BASIS          =    VTZ-DK
 SETTING DKROLL         =         1.00000000                                  


 Recomputing integrals since basis changed


 Using spherical harmonics

 Library entry N      S cc-pVTZ-DK           selected for orbital group  1
 Library entry N      P cc-pVTZ-DK           selected for orbital group  1
 Library entry N      D cc-pVTZ-DK           selected for orbital group  1
 Library entry N      F cc-pVTZ-DK           selected for orbital group  1
 Library entry H      S cc-pVTZ-DK           selected for orbital group  2
 Library entry H      P cc-pVTZ-DK           selected for orbital group  2
 Library entry H      D cc-pVTZ-DK           selected for orbital group  2
 Library entry O      S cc-pVTZ-DK           selected for orbital group  3
 Library entry O      P cc-pVTZ-DK           selected for orbital group  3
 Library entry O      D cc-pVTZ-DK           selected for orbital group  3
 Library entry O      F cc-pVTZ-DK           selected for orbital group  3


 PROGRAM * SEWARD (Integral evaluation for generally contracted gaussian basis sets)     Author: Roland Lindh, 1990

 Geometry written to block  1 of record 700


 Point group  Cs  



 ATOMIC COORDINATES

 NR  ATOM    CHARGE       X              Y              Z

   1  N       7.00    0.000000000   -0.174186793   -1.136517431
   2  H       1.00    0.000000000    1.678713416   -1.931903361
   3  O       8.00    0.000000000    0.037241166    1.117831201

 Bond lengths in Bohr (Angstrom)

 1-2  2.016402232  1-3  2.264241493
     ( 1.067034109)     ( 1.198184998)

 Bond angles

  2-1-3  107.87426280

 NUCLEAR CHARGE:                   16
 NUMBER OF PRIMITIVE AOS:         111
 NUMBER OF SYMMETRY AOS:          100
 NUMBER OF CONTRACTIONS:           74   (  50A'  +  24A"  )
 NUMBER OF CORE ORBITALS:           2   (   2A'  +   0A"  )
 NUMBER OF VALENCE ORBITALS:        9   (   7A'  +   2A"  )


 NUCLEAR REPULSION ENERGY   30.51372611

 One-electron integrals computed with SEWARD

 2nd-order Douglas-Kroll-Hess method activated. Optimal DKH parametrization is used.

 Computing Douglas-Kroll / X2C integrals


        1874283. INTEGRALS WRITTEN OUT IN     458 BLOCKS ON RECORD 1290 OF FILE 1


 NUMBER OF SORTED TWO-ELECTRON INTEGRALS:    2006100.     BUFFER LENGTH:  32768
 NUMBER OF SEGMENTS:   1  SEGMENT LENGTH:    2006100      RECORD LENGTH: 524288

 Memory used in sort:       2.56 MW

 SORT1 READ     1874283. AND WROTE     1914195. INTEGRALS IN      6 RECORDS. CPU TIME:     0.04 SEC, REAL TIME:     0.04 SEC
 SORT2 READ     1914195. AND WROTE     2006100. INTEGRALS IN      1 RECORDS. CPU TIME:     0.05 SEC, REAL TIME:     0.06 SEC

 FILE SIZES:   FILE 1:    50.2 MBYTE,  FILE 4:    25.2 MBYTE,   TOTAL:     75.4 MBYTE

 OPERATOR DM      FOR CENTER  0  COORDINATES:    0.000000    0.000000    0.000000

 Eigenvalues of metric

         1 0.246E-02 0.395E-02 0.408E-02 0.857E-02 0.133E-01 0.324E-01 0.421E-01 0.464E-01
         2 0.339E-01 0.465E-01 0.101E+00 0.115E+00 0.233E+00 0.347E+00 0.395E+00 0.449E+00


 **********************************************************************************************************************************
 DATASETS  * FILE   NREC   LENGTH (MB)   RECORD NAMES
              1      23       36.03       500      610      700      900      950      970     1000      129      960     1700   
                                          VAR    BASINP    GEOM    SYMINP    ZMAT    AOBASIS   BASIS     P2S    ABASIS    OPER   
                                         1101     1401     1411     1412     1650     1100     1400     1410     1200     1210   
                                          SR      EKINR    POTR     PVPR    MOLCAS      S      EKIN      POT      H0       H01  
                                         1300     1080     1600   
                                         ERIS     AOSYM     SMH  

 PROGRAMS   *        TOTAL       INT
 CPU TIMES  *         0.66      0.56
 REAL TIME  *         1.14 SEC
 DISK USED  *        75.75 MB      
 **********************************************************************************************************************************


 PROGRAM * RHF-SCF (CLOSED SHELL)       Authors: W. Meyer, H.-J. Werner


 NUMBER OF ELECTRONS:       8+    8-
 CONVERGENCE THRESHOLDS:    1.00E-10 (Density)    1.00E-13 (Energy)
 MAX. NUMBER OF ITERATIONS:      500
 INTERPOLATION TYPE:            DIIS
 INTERPOLATION STEPS:              2 (START)      1 (STEP)
 LEVEL SHIFTS:                  0.00 (CLOSED)  0.00 (OPEN) 



 Orbital guess generated from atomic densities. Full valence occupancy:    9   2

 Molecular orbital dump at record        2100.2

 Initial occupancy:   7   1

 ITERATION    DDIFF          GRAD             ENERGY        2-EL.EN.            DIPOLE MOMENTS         DIIS   ORB.
    1      0.000D+00      0.000D+00      -129.86883509    154.472521    0.00000    0.57301   -1.00983    0    start
    2      0.000D+00      0.135D-01      -129.89582000    155.616885    0.00000    0.60602   -0.21746    1    diag
    3      0.183D-01      0.102D-01      -129.91733692    155.723088    0.00000    0.55086   -0.58327    2    diag
    4      0.887D-02      0.153D-02      -129.91805725    155.462251    0.00000    0.55950   -0.52560    3    diag
    5      0.164D-02      0.510D-03      -129.91817116    155.548105    0.00000    0.56503   -0.52685    4    diag
    6      0.713D-03      0.154D-03      -129.91819014    155.533060    0.00000    0.56559   -0.52278    5    diag
    7      0.279D-03      0.760D-04      -129.91819554    155.535519    0.00000    0.56688   -0.52039    6    diag
    8      0.191D-03      0.238D-04      -129.91819602    155.534857    0.00000    0.56691   -0.51963    7    diag
    9      0.616D-04      0.432D-05      -129.91819604    155.534745    0.00000    0.56686   -0.51949    8    diag
   10      0.118D-04      0.969D-06      -129.91819604    155.534727    0.00000    0.56682   -0.51946    9    orth
   11      0.273D-05      0.192D-06      -129.91819604    155.534722    0.00000    0.56682   -0.51946    9    diag
   12      0.512D-06      0.398D-07      -129.91819604    155.534721    0.00000    0.56681   -0.51946    9    diag
   13      0.114D-06      0.981D-08      -129.91819604    155.534720    0.00000    0.56681   -0.51946    9    diag
   14      0.284D-07      0.183D-08      -129.91819604    155.534720    0.00000    0.56681   -0.51946    9    diag
   15      0.481D-08      0.498D-09      -129.91819604    155.534720    0.00000    0.56681   -0.51946    9    diag
   16      0.116D-08      0.135D-09      -129.91819604    155.534720    0.00000    0.56681   -0.51946    9    diag
   17      0.242D-09      0.414D-10      -129.91819604    155.534720    0.00000    0.56681   -0.51946    9    diag
   18      0.831D-10      0.132D-10      -129.91819604    155.534720    0.00000    0.56681   -0.51946    0    orth

 Final occupancy:   7   1

 !RHF STATE 1.1 Energy               -129.918196040202
 Nuclear energy                        30.51372611
 One-electron energy                 -238.19928235
 Two-electron energy                   77.76736020
 Virial quotient                       -0.99742164
 !RHF STATE 1.1 Dipole moment           0.00000000     0.56681428    -0.51945679
 Dipole moment /Debye                   0.00000000     1.44060383    -1.32024098

 Orbital energies:

         1.1          2.1          3.1          4.1          5.1          6.1          7.1          8.1          9.1
    -20.664413   -15.717287    -1.535548    -0.986033    -0.744497    -0.664567    -0.423087     0.143708     0.370888

         1.2          2.2          3.2
     -0.596851     0.090102     0.611850

 HOMO      7.1    -0.423087 =     -11.5128eV
 LUMO      2.2     0.090102 =       2.4518eV
 LUMO-HOMO         0.513188 =      13.9646eV


 **********************************************************************************************************************************
 DATASETS  * FILE   NREC   LENGTH (MB)   RECORD NAMES
              1      23       36.03       500      610      700      900      950      970     1000      129      960     1700   
                                          VAR    BASINP    GEOM    SYMINP    ZMAT    AOBASIS   BASIS     P2S    ABASIS    OPER   
                                         1101     1401     1411     1412     1650     1100     1400     1410     1200     1210   
                                          SR      EKINR    POTR     PVPR    MOLCAS      S      EKIN      POT      H0       H01  
                                         1300     1080     1600   
                                         ERIS     AOSYM     SMH  

              2       4        2.85       700     1000      520     2100   
                                         GEOM     BASIS   MCVARS     RHF  

 PROGRAMS   *        TOTAL        HF       INT
 CPU TIMES  *         0.86      0.20      0.56
 REAL TIME  *         1.38 SEC
 DISK USED  *        75.75 MB      
 **********************************************************************************************************************************


 PROGRAM * CCSD (Closed-shell coupled cluster)     Authors: C. Hampel, H.-J. Werner, 1991, M. Deegan, P.J. Knowles, 1992


 Convergence thresholds:  THRVAR = 1.00D-08  THRDEN = 1.00D-12

 CCSD(T)     terms to be evaluated (factor= 1.000)


 Number of core orbitals:           2 (   2   0 )
 Number of closed-shell orbitals:   6 (   5   1 )
 Number of external orbitals:      66 (  43  23 )

 Molecular orbitals read from record     2100.2  Type=RHF/CANONICAL (state 1.1)

 Number of N-1 electron functions:               6
 Number of N-2 electron functions:              21
 Number of singly external CSFs:               238
 Number of doubly external CSFs:             41002
 Total number of CSFs:                       41241

 Length of J-op  integral file:               0.00 MB
 Length of K-op  integral file:               0.25 MB
 Length of 3-ext integral record:             0.00 MB

 Memory could be reduced to 1.65 Mwords without degradation in triples

 Integral transformation finished. Total CPU:   0.03 sec, npass=  1  Memory used:   0.55 MW

 Reference energy:                   -129.91819604

 MP2 singlet pair energy:              -0.27310284
 MP2 triplet pair energy:              -0.16212450
 MP2 correlation energy:               -0.43522733
 MP2 total energy:                   -130.35342337

 SCS-MP2 correlation energy:           -0.42860087   (PS=  1.200000  PT=  0.333333)
 SCS-MP2 total energy:               -130.34679691

 ITER.      SQ.NORM     CORR.ENERGY   TOTAL ENERGY   ENERGY CHANGE        DEN1      VAR(S)    VAR(P)  DIIS     TIME  TIME/IT
   1      1.11792261    -0.44062954  -130.35882558    -0.00540221     0.01012203  0.29D-02  0.29D-02  1  1     0.06     0.04
   2      1.12862920    -0.44094661  -130.35914265    -0.00031706    -0.01213624  0.85D-04  0.49D-03  2  2     0.09     0.04
   3      1.13479978    -0.44132730  -130.35952334    -0.00038069    -0.00294611  0.47D-04  0.49D-04  3  3     0.13     0.04
   4      1.13751991    -0.44135126  -130.35954730    -0.00002396    -0.00093728  0.40D-05  0.86D-05  4  4     0.16     0.04
   5      1.13848394    -0.44137998  -130.35957602    -0.00002872    -0.00019999  0.14D-05  0.16D-05  5  5     0.19     0.04
   6      1.13883713    -0.44136427  -130.35956031     0.00001571    -0.00003972  0.11D-06  0.39D-06  6  6     0.22     0.04
   7      1.13892522    -0.44136583  -130.35956187    -0.00000156    -0.00000262  0.14D-07  0.81D-07  6  1     0.26     0.04
   8      1.13895644    -0.44136587  -130.35956191    -0.00000004     0.00000164  0.38D-08  0.96D-08  6  2     0.29     0.04
   9      1.13896424    -0.44136562  -130.35956166     0.00000024    -0.00000215  0.23D-08  0.11D-08  6  3     0.33     0.04
  10      1.13896313    -0.44136612  -130.35956216    -0.00000049     0.00000055  0.46D-09  0.19D-09  6  4     0.37     0.04
  11      1.13896139    -0.44136617  -130.35956222    -0.00000006     0.00000021  0.14D-09  0.22D-10  6  5     0.40     0.04
  12      1.13896000    -0.44136635  -130.35956239    -0.00000017     0.00000042  0.16D-10  0.76D-11  6  6     0.43     0.04
  13      1.13895938    -0.44136635  -130.35956239    -0.00000001     0.00000012  0.69D-11  0.12D-11  6  1     0.46     0.04
  14      1.13895900    -0.44136637  -130.35956241    -0.00000002     0.00000008  0.97D-12  0.41D-12  6  2     0.49     0.04
  15      1.13895886    -0.44136637  -130.35956241    -0.00000000     0.00000001  0.25D-12  0.13D-12  6  3     0.53     0.04
  16      1.13895876    -0.44136637  -130.35956241    -0.00000000     0.00000001  0.25D-13  0.14D-13  6  5     0.55     0.04
  17      1.13895874    -0.44136638  -130.35956242    -0.00000000     0.00000000  0.66D-15  0.21D-14  6  4     0.59     0.04
  18      1.13895873    -0.44136638  -130.35956242     0.00000000    -0.00000000  0.45D-15  0.30D-15  6  1     0.62     0.04
  19      1.13895873    -0.44136638  -130.35956242    -0.00000000     0.00000000  0.38D-16  0.52D-16  6  6     0.65     0.04
  20      1.13895873    -0.44136638  -130.35956242    -0.00000000     0.00000000  0.78D-17  0.13D-16  6  2     0.69     0.04
  21      1.13895873    -0.44136638  -130.35956242    -0.00000000     0.00000000  0.17D-17  0.98D-18  6  5     0.72     0.04
  22      1.13895873    -0.44136638  -130.35956242     0.00000000     0.00000000  0.10D-18  0.70D-19  6  3     0.76     0.04
  23      1.13895873    -0.44136638  -130.35956242     0.00000000    -0.00000000  0.28D-19  0.15D-19  6  4     0.80     0.04
  24      1.13895873    -0.44136638  -130.35956242     0.00000000    -0.00000000  0.41D-20  0.40D-20  6  1     0.83     0.04
  25      1.13895873    -0.44136638  -130.35956242     0.00000000    -0.00000000  0.52D-21  0.71D-21  6  6     0.86     0.04

 Norm of t1 vector:      0.07432356      S-energy:     0.00000000      T1 diagnostic:  0.01517123
                                                                       D1 diagnostic:  0.04121150

 Doubles amplitudes (print threshold =  0.500E-01):

         I         J         SYM. A    SYM. B    A         B      T(IJ, AB)

         6         6         2         2         1         1     -0.14083510


 Total CPU time for triples:      0.23 sec


 RESULTS
 =======

  Reference energy                   -129.918196040202
  CCSD singlet pair energy             -0.302473226515
  CCSD triplet pair energy             -0.138893150181
  CCSD correlation energy              -0.441366376694

  Triples (T) contribution             -0.019597661360
  Total correlation energy             -0.460964038054

  CCSD total energy                  -130.359562416896
  CCSD[T] energy                     -130.380153996857
  CCSD-T energy                      -130.378766011778
 !CCSD(T) total energy               -130.379160078255

 Timing summary (sec):

 STEP                 CPU(USER)    SYS     CPU(TOT)    WALL
 Transformation          0.03      0.01      0.04      0.04
 CCSD iterations         0.83      0.13      0.96      0.95
 Triples                 0.23      0.01      0.24      0.24

 Program statistics:

 Available memory in ccsd:               994999756
 Min. memory needed in ccsd:                154850
 Max. memory used in ccsd:                  184802
 Max. memory used in cckext:                238416 (25 integral passes)



 **********************************************************************************************************************************
 DATASETS  * FILE   NREC   LENGTH (MB)   RECORD NAMES
              1      24       40.41       500      610      700      900      950      970     1000      129      960     1700   
                                          VAR    BASINP    GEOM    SYMINP    ZMAT    AOBASIS   BASIS     P2S    ABASIS    OPER   
                                         1101     1401     1411     1412     1650     1100     1400     1410     1200     1210   
                                          SR      EKINR    POTR     PVPR    MOLCAS      S      EKIN      POT      H0       H01  
                                         1300     1080     1600     1380   
                                         ERIS     AOSYM     SMH     JKOP   

              2       4        2.85       700     1000      520     2100   
                                         GEOM     BASIS   MCVARS     RHF  

 PROGRAMS   *        TOTAL   CCSD(T)        HF       INT
 CPU TIMES  *         1.99      1.13      0.20      0.56
 REAL TIME  *         2.66 SEC
 DISK USED  *        75.75 MB      
 **********************************************************************************************************************************

 CCSD(T)/cc-pVTZ-DK energy=   -130.379160078255

        CCSD(T)         HF-SCF  
   -130.37916008   -129.91819604
 **********************************************************************************************************************************
 Molpro calculation terminated
 Variable memory released
