
 Primary working directories    : /tmp/r2666/235180.maple
 Secondary working directories  : /tmp/r2666/235180.maple
 Wavefunction directory         : /ddn/home4/r2666/wfu/
 Main file repository           : /tmp/r2666/235180.maple/

 SHA1      : d5ffa45e93fdbca01ffc919aa182cfdae0147319
 NAME      : 2015.1.35
 ARCHNAME  : linux/x86_64
 FC        : /opt/intel/composer_xe_2015.1.133/bin/intel64/ifort
 BLASLIB   : -Wl,-_start-group /opt/intel/mkl/lib/intel64/libmkl_intel_ilp64.a /opt/intel/mkl/lib/intel64/libmkl_intel_thread.a /opt/intel/mkl/lib/intel64/libmkl_core.a -Wl,-_end-group
 id        : olemiss

 Nodes     nprocs
 cn092        1

 Using customized tuning parameters: mindgm=1; mindgv=20; mindgc=4; mindgr=1; noblas=0; minvec=7
 default implementation of scratch files=df  

 ***,hno CCSD(T)/TZ-F12 QFF
 memory, 995, m;
 gthresh,energy=1.d-12,zero=1.d-22,oneint=1.d-22,twoint=1.d-22;
 gthresh,optgrad=1.d-8,optstep=1.d-8;
 nocompress;
 geomtyp=xyz
 bohr
 geometry={
 3
         35        35
 N        0.0000000000       -0.1616113701       -1.1608694315
 H        0.0000000000        1.6637565394       -1.9243617192
 O        0.0000000000        0.0396226207        1.1346415597
 }
 
 basis=vtz-dk
 dkroll=1
   {hf,maxit=500;accu,20;}
 {ccsd(t),nocheck,maxit=250;orbital,IGNORE_ERROR;}

 Variables initialized (889), CPU time= 0.01 sec
 Commands  initialized (702), CPU time= 0.01 sec, 572 directives.
 Default parameters read. Elapsed time= 0.06 sec

 Checking input...
 Passed
1


                                         ***  PROGRAM SYSTEM MOLPRO  ***
                                       Copyright, TTI GmbH Stuttgart, 2015
                                    Version 2015.1 linked Jul  9 2018 13:16:40


 **********************************************************************************************************************************
 LABEL *   hno CCSD(T)/TZ-F12 QFF                                                        
  64 bit serial version                                                                  DATE: 08-Feb-20          TIME: 17:57:17  
 **********************************************************************************************************************************

 SHA1:             d5ffa45e93fdbca01ffc919aa182cfdae0147319
 **********************************************************************************************************************************

 THRESHOLDS:

 ZERO    =  1.00D-22  ONEINT  =  1.00D-22  TWOINT  =  1.00D-22  PREFAC  =  1.00D-14  LOCALI  =  1.00D-09  EORDER  =  1.00D-04
 ENERGY  =  1.00D-12  ETEST   =  0.00D+00  EDENS   =  0.00D+00  THRDEDEF=  1.00D-06  GRADIENT=  1.00D-02  STEP    =  1.00D-03
 ORBITAL =  1.00D-05  CIVEC   =  1.00D-05  COEFF   =  1.00D-04  PRINTCI =  5.00D-02  PUNCHCI =  9.90D+01  OPTGRAD =  3.00D-04
 OPTENERG=  1.00D-06  OPTSTEP =  3.00D-04  THRGRAD =  1.00D-10  COMPRESS=  1.00D-11  VARMIN  =  1.00D-07  VARMAX  =  1.00D-03
 THRDOUB =  0.00D+00  THRDIV  =  1.00D-05  THRRED  =  1.00D-07  THRPSP  =  1.00D+00  THRDC   =  1.00D-10  THRCS   =  1.00D-10
 THRNRM  =  1.00D-08  THREQ   =  0.00D+00  THRDE   =  1.00D+00  THRREF  =  1.00D-05  SPARFAC =  1.00D+00  THRDLP  =  1.00D-07
 THRDIA  =  1.00D-10  THRDLS  =  1.00D-07  THRGPS  =  0.00D+00  THRKEX  =  0.00D+00  THRDIS  =  2.00D-01  THRVAR  =  1.00D-10
 THRLOC  =  1.00D-06  THRGAP  =  1.00D-06  THRLOCT = -1.00D+00  THRGAPT = -1.00D+00  THRORB  =  1.00D-06  THRMLTP =  0.00D+00
 THRCPQCI=  1.00D-10  KEXTA   =  0.00D+00  THRCOARS=  0.00D+00  SYMTOL  =  1.00D-06  GRADTOL =  1.00D-06  THROVL  =  1.00D-08
 THRORTH =  1.00D-08  GRID    =  1.00D-06  GRIDMAX =  1.00D-03  DTMAX   =  0.00D+00  THROCCDE=  1.00D-01  THROCCDE=  1.00D-01



 THRESHOLDS:

 ZERO    =  1.00D-22  ONEINT  =  1.00D-22  TWOINT  =  1.00D-22  PREFAC  =  1.00D-14  LOCALI  =  1.00D-09  EORDER  =  1.00D-04
 ENERGY  =  1.00D-12  ETEST   =  0.00D+00  EDENS   =  0.00D+00  THRDEDEF=  1.00D-06  GRADIENT=  1.00D-02  STEP    =  1.00D-03
 ORBITAL =  1.00D-05  CIVEC   =  1.00D-05  COEFF   =  1.00D-04  PRINTCI =  5.00D-02  PUNCHCI =  9.90D+01  OPTGRAD =  1.00D-08
 OPTENERG=  1.00D-06  OPTSTEP =  1.00D-08  THRGRAD =  1.00D-10  COMPRESS=  1.00D-11  VARMIN  =  1.00D-07  VARMAX  =  1.00D-03
 THRDOUB =  0.00D+00  THRDIV  =  1.00D-05  THRRED  =  1.00D-07  THRPSP  =  1.00D+00  THRDC   =  1.00D-10  THRCS   =  1.00D-10
 THRNRM  =  1.00D-08  THREQ   =  0.00D+00  THRDE   =  1.00D+00  THRREF  =  1.00D-05  SPARFAC =  1.00D+00  THRDLP  =  1.00D-07
 THRDIA  =  1.00D-10  THRDLS  =  1.00D-07  THRGPS  =  0.00D+00  THRKEX  =  0.00D+00  THRDIS  =  2.00D-01  THRVAR  =  1.00D-10
 THRLOC  =  1.00D-06  THRGAP  =  1.00D-06  THRLOCT = -1.00D+00  THRGAPT = -1.00D+00  THRORB  =  1.00D-06  THRMLTP =  0.00D+00
 THRCPQCI=  1.00D-10  KEXTA   =  0.00D+00  THRCOARS=  0.00D+00  SYMTOL  =  1.00D-06  GRADTOL =  1.00D-06  THROVL  =  1.00D-08
 THRORTH =  1.00D-08  GRID    =  1.00D-06  GRIDMAX =  1.00D-03  DTMAX   =  0.00D+00  THROCCDE=  1.00D-01  THROCCDE=  1.00D-01



 Input parameters for SORTINT:

 COMPRESS =    0.000000
 C_FINAL  =    1.000000
 DEBUG    =   -1.000000
 C_SORT1  =    0.000000
 C_SEWARD =    0.000000
 THRESH   =    0.000000
 IO       =  molpro                                                          
 SPRI     =    0.000000
 SETTING GEOMTYP        =    XYZ
 ZUNIT=BOHR
 

 Variable memory set to  995000000 words,  buffer space   230000 words

 SETTING BASIS          =    VTZ-DK
 SETTING DKROLL         =         1.00000000                                  


 Recomputing integrals since basis changed


 Using spherical harmonics

 Library entry N      S cc-pVTZ-DK           selected for orbital group  1
 Library entry N      P cc-pVTZ-DK           selected for orbital group  1
 Library entry N      D cc-pVTZ-DK           selected for orbital group  1
 Library entry N      F cc-pVTZ-DK           selected for orbital group  1
 Library entry H      S cc-pVTZ-DK           selected for orbital group  2
 Library entry H      P cc-pVTZ-DK           selected for orbital group  2
 Library entry H      D cc-pVTZ-DK           selected for orbital group  2
 Library entry O      S cc-pVTZ-DK           selected for orbital group  3
 Library entry O      P cc-pVTZ-DK           selected for orbital group  3
 Library entry O      D cc-pVTZ-DK           selected for orbital group  3
 Library entry O      F cc-pVTZ-DK           selected for orbital group  3


 PROGRAM * SEWARD (Integral evaluation for generally contracted gaussian basis sets)     Author: Roland Lindh, 1990

 Geometry written to block  1 of record 700


 Point group  Cs  



 ATOMIC COORDINATES

 NR  ATOM    CHARGE       X              Y              Z

   1  N       7.00    0.000000000   -0.161611370   -1.160869432
   2  H       1.00    0.000000000    1.663756539   -1.924361719
   3  O       8.00    0.000000000    0.039622621    1.134641560

 Bond lengths in Bohr (Angstrom)

 1-2  1.978607712  1-3  2.304314612
     ( 1.047034111)     ( 1.219390779)

 Bond angles

  2-1-3  107.68800168

 NUCLEAR CHARGE:                   16
 NUMBER OF PRIMITIVE AOS:         111
 NUMBER OF SYMMETRY AOS:          100
 NUMBER OF CONTRACTIONS:           74   (  50A'  +  24A"  )
 NUMBER OF CORE ORBITALS:           2   (   2A'  +   0A"  )
 NUMBER OF VALENCE ORBITALS:        9   (   7A'  +   2A"  )


 NUCLEAR REPULSION ENERGY   30.14993065

 One-electron integrals computed with SEWARD

 2nd-order Douglas-Kroll-Hess method activated. Optimal DKH parametrization is used.

 Computing Douglas-Kroll / X2C integrals


        1874283. INTEGRALS WRITTEN OUT IN     458 BLOCKS ON RECORD 1290 OF FILE 1


 NUMBER OF SORTED TWO-ELECTRON INTEGRALS:    2006100.     BUFFER LENGTH:  32768
 NUMBER OF SEGMENTS:   1  SEGMENT LENGTH:    2006100      RECORD LENGTH: 524288

 Memory used in sort:       2.56 MW

 SORT1 READ     1874283. AND WROTE     1914195. INTEGRALS IN      6 RECORDS. CPU TIME:     0.04 SEC, REAL TIME:     0.04 SEC
 SORT2 READ     1914195. AND WROTE     2006100. INTEGRALS IN      1 RECORDS. CPU TIME:     0.05 SEC, REAL TIME:     0.06 SEC

 FILE SIZES:   FILE 1:    50.2 MBYTE,  FILE 4:    25.2 MBYTE,   TOTAL:     75.4 MBYTE

 OPERATOR DM      FOR CENTER  0  COORDINATES:    0.000000    0.000000    0.000000

 Eigenvalues of metric

         1 0.247E-02 0.398E-02 0.434E-02 0.832E-02 0.129E-01 0.333E-01 0.431E-01 0.465E-01
         2 0.347E-01 0.466E-01 0.103E+00 0.112E+00 0.237E+00 0.340E+00 0.398E+00 0.452E+00


 **********************************************************************************************************************************
 DATASETS  * FILE   NREC   LENGTH (MB)   RECORD NAMES
              1      23       36.03       500      610      700      900      950      970     1000      129      960     1700   
                                          VAR    BASINP    GEOM    SYMINP    ZMAT    AOBASIS   BASIS     P2S    ABASIS    OPER   
                                         1101     1401     1411     1412     1650     1100     1400     1410     1200     1210   
                                          SR      EKINR    POTR     PVPR    MOLCAS      S      EKIN      POT      H0       H01  
                                         1300     1080     1600   
                                         ERIS     AOSYM     SMH  

 PROGRAMS   *        TOTAL       INT
 CPU TIMES  *         0.65      0.56
 REAL TIME  *         1.29 SEC
 DISK USED  *        75.75 MB      
 **********************************************************************************************************************************


 PROGRAM * RHF-SCF (CLOSED SHELL)       Authors: W. Meyer, H.-J. Werner


 NUMBER OF ELECTRONS:       8+    8-
 CONVERGENCE THRESHOLDS:    1.00E-10 (Density)    1.00E-13 (Energy)
 MAX. NUMBER OF ITERATIONS:      500
 INTERPOLATION TYPE:            DIIS
 INTERPOLATION STEPS:              2 (START)      1 (STEP)
 LEVEL SHIFTS:                  0.00 (CLOSED)  0.00 (OPEN) 



 Orbital guess generated from atomic densities. Full valence occupancy:    9   2

 Molecular orbital dump at record        2100.2

 Initial occupancy:   7   1

 ITERATION    DDIFF          GRAD             ENERGY        2-EL.EN.            DIPOLE MOMENTS         DIIS   ORB.
    1      0.000D+00      0.000D+00      -129.86448662    153.837500    0.00000    0.59413   -1.07461    0    start
    2      0.000D+00      0.137D-01      -129.89082762    154.918684    0.00000    0.62308   -0.21326    1    diag
    3      0.190D-01      0.108D-01      -129.91504112    155.074757    0.00000    0.56840   -0.61494    2    diag
    4      0.930D-02      0.157D-02      -129.91579498    154.802362    0.00000    0.57694   -0.55399    3    diag
    5      0.168D-02      0.522D-03      -129.91591270    154.888450    0.00000    0.58222   -0.55475    4    diag
    6      0.728D-03      0.156D-03      -129.91593226    154.873376    0.00000    0.58269   -0.55037    5    diag
    7      0.282D-03      0.791D-04      -129.91593825    154.875524    0.00000    0.58387   -0.54769    6    diag
    8      0.198D-03      0.263D-04      -129.91593888    154.874782    0.00000    0.58387   -0.54679    7    diag
    9      0.716D-04      0.479D-05      -129.91593891    154.874655    0.00000    0.58382   -0.54662    8    diag
   10      0.139D-04      0.103D-05      -129.91593891    154.874638    0.00000    0.58379   -0.54660    9    orth
   11      0.289D-05      0.201D-06      -129.91593891    154.874634    0.00000    0.58378   -0.54659    9    diag
   12      0.520D-06      0.435D-07      -129.91593891    154.874633    0.00000    0.58378   -0.54659    9    diag
   13      0.115D-06      0.112D-07      -129.91593891    154.874633    0.00000    0.58378   -0.54659    9    diag
   14      0.295D-07      0.203D-08      -129.91593891    154.874633    0.00000    0.58378   -0.54659    9    diag
   15      0.437D-08      0.519D-09      -129.91593891    154.874633    0.00000    0.58378   -0.54659    9    diag
   16      0.111D-08      0.130D-09      -129.91593891    154.874633    0.00000    0.58378   -0.54659    9    diag
   17      0.187D-09      0.379D-10      -129.91593891    154.874633    0.00000    0.58378   -0.54659    9    diag
   18      0.606D-10      0.132D-10      -129.91593891    154.874633    0.00000    0.58378   -0.54659    0    orth

 Final occupancy:   7   1

 !RHF STATE 1.1 Energy               -129.915938908657
 Nuclear energy                        30.14993065
 One-electron energy                 -237.50318595
 Two-electron energy                   77.43731640
 Virial quotient                       -0.99781722
 !RHF STATE 1.1 Dipole moment           0.00000000     0.58377704    -0.54658989
 Dipole moment /Debye                   0.00000000     1.48371604    -1.38920193

 Orbital energies:

         1.1          2.1          3.1          4.1          5.1          6.1          7.1          8.1          9.1
    -20.665933   -15.718192    -1.518483    -0.995800    -0.740154    -0.658391    -0.430820     0.143818     0.367826

         1.2          2.2          3.2
     -0.586503     0.082306     0.614284

 HOMO      7.1    -0.430820 =     -11.7232eV
 LUMO      2.2     0.082306 =       2.2397eV
 LUMO-HOMO         0.513126 =      13.9629eV


 **********************************************************************************************************************************
 DATASETS  * FILE   NREC   LENGTH (MB)   RECORD NAMES
              1      23       36.03       500      610      700      900      950      970     1000      129      960     1700   
                                          VAR    BASINP    GEOM    SYMINP    ZMAT    AOBASIS   BASIS     P2S    ABASIS    OPER   
                                         1101     1401     1411     1412     1650     1100     1400     1410     1200     1210   
                                          SR      EKINR    POTR     PVPR    MOLCAS      S      EKIN      POT      H0       H01  
                                         1300     1080     1600   
                                         ERIS     AOSYM     SMH  

              2       4        2.85       700     1000      520     2100   
                                         GEOM     BASIS   MCVARS     RHF  

 PROGRAMS   *        TOTAL        HF       INT
 CPU TIMES  *         0.87      0.22      0.56
 REAL TIME  *         1.55 SEC
 DISK USED  *        75.75 MB      
 **********************************************************************************************************************************


 PROGRAM * CCSD (Closed-shell coupled cluster)     Authors: C. Hampel, H.-J. Werner, 1991, M. Deegan, P.J. Knowles, 1992


 Convergence thresholds:  THRVAR = 1.00D-08  THRDEN = 1.00D-12

 CCSD(T)     terms to be evaluated (factor= 1.000)


 Number of core orbitals:           2 (   2   0 )
 Number of closed-shell orbitals:   6 (   5   1 )
 Number of external orbitals:      66 (  43  23 )

 Molecular orbitals read from record     2100.2  Type=RHF/CANONICAL (state 1.1)

 Number of N-1 electron functions:               6
 Number of N-2 electron functions:              21
 Number of singly external CSFs:               238
 Number of doubly external CSFs:             41002
 Total number of CSFs:                       41241

 Length of J-op  integral file:               0.00 MB
 Length of K-op  integral file:               0.25 MB
 Length of 3-ext integral record:             0.00 MB

 Memory could be reduced to 1.65 Mwords without degradation in triples

 Integral transformation finished. Total CPU:   0.03 sec, npass=  1  Memory used:   0.55 MW

 Reference energy:                   -129.91593891

 MP2 singlet pair energy:              -0.27487235
 MP2 triplet pair energy:              -0.16332330
 MP2 correlation energy:               -0.43819565
 MP2 total energy:                   -130.35413456

 SCS-MP2 correlation energy:           -0.43147020   (PS=  1.200000  PT=  0.333333)
 SCS-MP2 total energy:               -130.34740911

 ITER.      SQ.NORM     CORR.ENERGY   TOTAL ENERGY   ENERGY CHANGE        DEN1      VAR(S)    VAR(P)  DIIS     TIME  TIME/IT
   1      1.11953119    -0.44283483  -130.35877374    -0.00463919     0.01158653  0.31D-02  0.31D-02  1  1     0.07     0.04
   2      1.13062128    -0.44299862  -130.35893753    -0.00016379    -0.01253659  0.93D-04  0.52D-03  2  2     0.11     0.04
   3      1.13710164    -0.44339667  -130.35933558    -0.00039805    -0.00304422  0.49D-04  0.53D-04  3  3     0.14     0.04
   4      1.14002712    -0.44342517  -130.35936408    -0.00002850    -0.00099092  0.42D-05  0.92D-05  4  4     0.17     0.04
   5      1.14107586    -0.44345623  -130.35939514    -0.00003106    -0.00021749  0.14D-05  0.17D-05  5  5     0.20     0.04
   6      1.14144502    -0.44343838  -130.35937729     0.00001785    -0.00004256  0.93D-07  0.41D-06  6  6     0.24     0.04
   7      1.14152806    -0.44344074  -130.35937965    -0.00000236    -0.00000147  0.10D-07  0.91D-07  6  1     0.28     0.04
   8      1.14155828    -0.44344059  -130.35937949     0.00000015     0.00000204  0.46D-08  0.11D-07  6  2     0.31     0.04
   9      1.14156617    -0.44344040  -130.35937931     0.00000018    -0.00000236  0.26D-08  0.13D-08  6  3     0.35     0.04
  10      1.14156485    -0.44344092  -130.35937983    -0.00000051     0.00000069  0.49D-09  0.22D-09  6  4     0.39     0.04
  11      1.14156317    -0.44344098  -130.35937988    -0.00000006     0.00000013  0.15D-09  0.23D-10  6  5     0.42     0.04
  12      1.14156179    -0.44344116  -130.35938007    -0.00000018     0.00000044  0.14D-10  0.73D-11  6  6     0.46     0.04
  13      1.14156119    -0.44344117  -130.35938007    -0.00000001     0.00000012  0.62D-11  0.12D-11  6  1     0.50     0.04
  14      1.14156080    -0.44344119  -130.35938010    -0.00000002     0.00000008  0.89D-12  0.43D-12  6  2     0.54     0.04
  15      1.14156065    -0.44344119  -130.35938010    -0.00000000     0.00000002  0.23D-12  0.13D-12  6  3     0.57     0.04
  16      1.14156054    -0.44344119  -130.35938010    -0.00000000     0.00000002  0.76D-14  0.34D-13  6  1     0.61     0.04
  17      1.14156053    -0.44344119  -130.35938010     0.00000000    -0.00000000  0.25D-14  0.23D-14  6  4     0.65     0.04
  18      1.14156052    -0.44344119  -130.35938010    -0.00000000     0.00000000  0.67D-15  0.38D-15  6  5     0.68     0.04
  19      1.14156052    -0.44344119  -130.35938010     0.00000000    -0.00000000  0.13D-15  0.74D-16  6  6     0.72     0.04
  20      1.14156052    -0.44344119  -130.35938010    -0.00000000     0.00000000  0.20D-16  0.19D-16  6  2     0.75     0.04
  21      1.14156052    -0.44344119  -130.35938010    -0.00000000     0.00000000  0.59D-18  0.13D-17  6  4     0.78     0.04
  22      1.14156052    -0.44344119  -130.35938010    -0.00000000     0.00000000  0.79D-19  0.14D-18  6  3     0.82     0.04
  23      1.14156052    -0.44344119  -130.35938010    -0.00000000     0.00000000  0.76D-20  0.15D-19  6  1     0.85     0.04
  24      1.14156052    -0.44344119  -130.35938010     0.00000000     0.00000000  0.38D-20  0.20D-20  6  6     0.88     0.04
  25      1.14156052    -0.44344119  -130.35938010     0.00000000     0.00000000  0.43D-21  0.43D-21  6  5     0.92     0.04

 Norm of t1 vector:      0.07646637      S-energy:     0.00000000      T1 diagnostic:  0.01560863
                                                                       D1 diagnostic:  0.04389290

 Doubles amplitudes (print threshold =  0.500E-01):

         I         J         SYM. A    SYM. B    A         B      T(IJ, AB)

         6         6         2         2         1         1     -0.14699205


 Total CPU time for triples:      0.23 sec


 RESULTS
 =======

  Reference energy                   -129.915938908657
  CCSD singlet pair energy             -0.304289641322
  CCSD triplet pair energy             -0.139151550865
  CCSD correlation energy              -0.443441192184

  Triples (T) contribution             -0.020105482796
  Total correlation energy             -0.463546674980

  CCSD total energy                  -130.359380100841
  CCSD[T] energy                     -130.380546173850
  CCSD-T energy                      -130.379077953389
 !CCSD(T) total energy               -130.379485583637

 Timing summary (sec):

 STEP                 CPU(USER)    SYS     CPU(TOT)    WALL
 Transformation          0.03      0.01      0.04      0.04
 CCSD iterations         0.89      0.12      1.01      1.01
 Triples                 0.23      0.00      0.23      0.24

 Program statistics:

 Available memory in ccsd:               994999756
 Min. memory needed in ccsd:                154850
 Max. memory used in ccsd:                  184802
 Max. memory used in cckext:                238416 (25 integral passes)



 **********************************************************************************************************************************
 DATASETS  * FILE   NREC   LENGTH (MB)   RECORD NAMES
              1      24       40.41       500      610      700      900      950      970     1000      129      960     1700   
                                          VAR    BASINP    GEOM    SYMINP    ZMAT    AOBASIS   BASIS     P2S    ABASIS    OPER   
                                         1101     1401     1411     1412     1650     1100     1400     1410     1200     1210   
                                          SR      EKINR    POTR     PVPR    MOLCAS      S      EKIN      POT      H0       H01  
                                         1300     1080     1600     1380   
                                         ERIS     AOSYM     SMH     JKOP   

              2       4        2.85       700     1000      520     2100   
                                         GEOM     BASIS   MCVARS     RHF  

 PROGRAMS   *        TOTAL   CCSD(T)        HF       INT
 CPU TIMES  *         2.08      1.20      0.22      0.56
 REAL TIME  *         2.95 SEC
 DISK USED  *        75.75 MB      
 **********************************************************************************************************************************

 CCSD(T)/cc-pVTZ-DK energy=   -130.379485583637

        CCSD(T)         HF-SCF  
   -130.37948558   -129.91593891
 **********************************************************************************************************************************
 Molpro calculation terminated
 Variable memory released
