
 Primary working directories    : /tmp/r2666/235194.maple
 Secondary working directories  : /tmp/r2666/235194.maple
 Wavefunction directory         : /ddn/home4/r2666/wfu/
 Main file repository           : /tmp/r2666/235194.maple/

 SHA1      : d5ffa45e93fdbca01ffc919aa182cfdae0147319
 NAME      : 2015.1.35
 ARCHNAME  : linux/x86_64
 FC        : /opt/intel/composer_xe_2015.1.133/bin/intel64/ifort
 BLASLIB   : -Wl,-_start-group /opt/intel/mkl/lib/intel64/libmkl_intel_ilp64.a /opt/intel/mkl/lib/intel64/libmkl_intel_thread.a /opt/intel/mkl/lib/intel64/libmkl_core.a -Wl,-_end-group
 id        : olemiss

 Nodes     nprocs
 cn040        1

 Using customized tuning parameters: mindgm=1; mindgv=20; mindgc=4; mindgr=1; noblas=0; minvec=7
 default implementation of scratch files=df  

 ***,hno CCSD(T)/TZ-F12 QFF
 memory, 995, m;
 gthresh,energy=1.d-12,zero=1.d-22,oneint=1.d-22,twoint=1.d-22;
 gthresh,optgrad=1.d-8,optstep=1.d-8;
 nocompress;
 geomtyp=xyz
 bohr
 geometry={
 3
         49        49
 N        0.0000000000       -0.1676771826       -1.1461977774
 H        0.0000000000        1.6650551726       -1.9165614146
 O        0.0000000000        0.0443898000        1.1121696010
 }
 
 basis=vtz-dk
 dkroll=1
   {hf,maxit=500;accu,20;}
 {ccsd(t),nocheck,maxit=250;orbital,IGNORE_ERROR;}

 Variables initialized (889), CPU time= 0.01 sec
 Commands  initialized (702), CPU time= 0.00 sec, 572 directives.
 Default parameters read. Elapsed time= 0.07 sec

 Checking input...
 Passed
1


                                         ***  PROGRAM SYSTEM MOLPRO  ***
                                       Copyright, TTI GmbH Stuttgart, 2015
                                    Version 2015.1 linked Jul  9 2018 13:16:40


 **********************************************************************************************************************************
 LABEL *   hno CCSD(T)/TZ-F12 QFF                                                        
  64 bit serial version                                                                  DATE: 08-Feb-20          TIME: 17:57:18  
 **********************************************************************************************************************************

 SHA1:             d5ffa45e93fdbca01ffc919aa182cfdae0147319
 **********************************************************************************************************************************

 THRESHOLDS:

 ZERO    =  1.00D-22  ONEINT  =  1.00D-22  TWOINT  =  1.00D-22  PREFAC  =  1.00D-14  LOCALI  =  1.00D-09  EORDER  =  1.00D-04
 ENERGY  =  1.00D-12  ETEST   =  0.00D+00  EDENS   =  0.00D+00  THRDEDEF=  1.00D-06  GRADIENT=  1.00D-02  STEP    =  1.00D-03
 ORBITAL =  1.00D-05  CIVEC   =  1.00D-05  COEFF   =  1.00D-04  PRINTCI =  5.00D-02  PUNCHCI =  9.90D+01  OPTGRAD =  3.00D-04
 OPTENERG=  1.00D-06  OPTSTEP =  3.00D-04  THRGRAD =  1.00D-10  COMPRESS=  1.00D-11  VARMIN  =  1.00D-07  VARMAX  =  1.00D-03
 THRDOUB =  0.00D+00  THRDIV  =  1.00D-05  THRRED  =  1.00D-07  THRPSP  =  1.00D+00  THRDC   =  1.00D-10  THRCS   =  1.00D-10
 THRNRM  =  1.00D-08  THREQ   =  0.00D+00  THRDE   =  1.00D+00  THRREF  =  1.00D-05  SPARFAC =  1.00D+00  THRDLP  =  1.00D-07
 THRDIA  =  1.00D-10  THRDLS  =  1.00D-07  THRGPS  =  0.00D+00  THRKEX  =  0.00D+00  THRDIS  =  2.00D-01  THRVAR  =  1.00D-10
 THRLOC  =  1.00D-06  THRGAP  =  1.00D-06  THRLOCT = -1.00D+00  THRGAPT = -1.00D+00  THRORB  =  1.00D-06  THRMLTP =  0.00D+00
 THRCPQCI=  1.00D-10  KEXTA   =  0.00D+00  THRCOARS=  0.00D+00  SYMTOL  =  1.00D-06  GRADTOL =  1.00D-06  THROVL  =  1.00D-08
 THRORTH =  1.00D-08  GRID    =  1.00D-06  GRIDMAX =  1.00D-03  DTMAX   =  0.00D+00  THROCCDE=  1.00D-01  THROCCDE=  1.00D-01



 THRESHOLDS:

 ZERO    =  1.00D-22  ONEINT  =  1.00D-22  TWOINT  =  1.00D-22  PREFAC  =  1.00D-14  LOCALI  =  1.00D-09  EORDER  =  1.00D-04
 ENERGY  =  1.00D-12  ETEST   =  0.00D+00  EDENS   =  0.00D+00  THRDEDEF=  1.00D-06  GRADIENT=  1.00D-02  STEP    =  1.00D-03
 ORBITAL =  1.00D-05  CIVEC   =  1.00D-05  COEFF   =  1.00D-04  PRINTCI =  5.00D-02  PUNCHCI =  9.90D+01  OPTGRAD =  1.00D-08
 OPTENERG=  1.00D-06  OPTSTEP =  1.00D-08  THRGRAD =  1.00D-10  COMPRESS=  1.00D-11  VARMIN  =  1.00D-07  VARMAX  =  1.00D-03
 THRDOUB =  0.00D+00  THRDIV  =  1.00D-05  THRRED  =  1.00D-07  THRPSP  =  1.00D+00  THRDC   =  1.00D-10  THRCS   =  1.00D-10
 THRNRM  =  1.00D-08  THREQ   =  0.00D+00  THRDE   =  1.00D+00  THRREF  =  1.00D-05  SPARFAC =  1.00D+00  THRDLP  =  1.00D-07
 THRDIA  =  1.00D-10  THRDLS  =  1.00D-07  THRGPS  =  0.00D+00  THRKEX  =  0.00D+00  THRDIS  =  2.00D-01  THRVAR  =  1.00D-10
 THRLOC  =  1.00D-06  THRGAP  =  1.00D-06  THRLOCT = -1.00D+00  THRGAPT = -1.00D+00  THRORB  =  1.00D-06  THRMLTP =  0.00D+00
 THRCPQCI=  1.00D-10  KEXTA   =  0.00D+00  THRCOARS=  0.00D+00  SYMTOL  =  1.00D-06  GRADTOL =  1.00D-06  THROVL  =  1.00D-08
 THRORTH =  1.00D-08  GRID    =  1.00D-06  GRIDMAX =  1.00D-03  DTMAX   =  0.00D+00  THROCCDE=  1.00D-01  THROCCDE=  1.00D-01



 Input parameters for SORTINT:

 COMPRESS =    0.000000
 C_FINAL  =    1.000000
 DEBUG    =   -1.000000
 C_SORT1  =    0.000000
 C_SEWARD =    0.000000
 THRESH   =    0.000000
 IO       =  molpro                                                          
 SPRI     =    0.000000
 SETTING GEOMTYP        =    XYZ
 ZUNIT=BOHR
 

 Variable memory set to  995000000 words,  buffer space   230000 words

 SETTING BASIS          =    VTZ-DK
 SETTING DKROLL         =         1.00000000                                  


 Recomputing integrals since basis changed


 Using spherical harmonics

 Library entry N      S cc-pVTZ-DK           selected for orbital group  1
 Library entry N      P cc-pVTZ-DK           selected for orbital group  1
 Library entry N      D cc-pVTZ-DK           selected for orbital group  1
 Library entry N      F cc-pVTZ-DK           selected for orbital group  1
 Library entry H      S cc-pVTZ-DK           selected for orbital group  2
 Library entry H      P cc-pVTZ-DK           selected for orbital group  2
 Library entry H      D cc-pVTZ-DK           selected for orbital group  2
 Library entry O      S cc-pVTZ-DK           selected for orbital group  3
 Library entry O      P cc-pVTZ-DK           selected for orbital group  3
 Library entry O      D cc-pVTZ-DK           selected for orbital group  3
 Library entry O      F cc-pVTZ-DK           selected for orbital group  3


 PROGRAM * SEWARD (Integral evaluation for generally contracted gaussian basis sets)     Author: Roland Lindh, 1990

 Geometry written to block  1 of record 700


 Point group  Cs  



 ATOMIC COORDINATES

 NR  ATOM    CHARGE       X              Y              Z

   1  N       7.00    0.000000000   -0.167677183   -1.146197777
   2  H       1.00    0.000000000    1.665055173   -1.916561415
   3  O       8.00    0.000000000    0.044389800    1.112169601

 Bond lengths in Bohr (Angstrom)

 1-2  1.988056342  1-3  2.268302365
     ( 1.052034110)     ( 1.200333919)

 Bond angles

  2-1-3  107.43427257

 NUCLEAR CHARGE:                   16
 NUMBER OF PRIMITIVE AOS:         111
 NUMBER OF SYMMETRY AOS:          100
 NUMBER OF CONTRACTIONS:           74   (  50A'  +  24A"  )
 NUMBER OF CORE ORBITALS:           2   (   2A'  +   0A"  )
 NUMBER OF VALENCE ORBITALS:        9   (   7A'  +   2A"  )


 NUCLEAR REPULSION ENERGY   30.53800658

 One-electron integrals computed with SEWARD

 2nd-order Douglas-Kroll-Hess method activated. Optimal DKH parametrization is used.

 Computing Douglas-Kroll / X2C integrals


        1874283. INTEGRALS WRITTEN OUT IN     458 BLOCKS ON RECORD 1290 OF FILE 1


 NUMBER OF SORTED TWO-ELECTRON INTEGRALS:    2006100.     BUFFER LENGTH:  32768
 NUMBER OF SEGMENTS:   1  SEGMENT LENGTH:    2006100      RECORD LENGTH: 524288

 Memory used in sort:       2.56 MW

 SORT1 READ     1874283. AND WROTE     1914195. INTEGRALS IN      6 RECORDS. CPU TIME:     0.06 SEC, REAL TIME:     0.08 SEC
 SORT2 READ     1914195. AND WROTE     2006100. INTEGRALS IN      1 RECORDS. CPU TIME:     0.06 SEC, REAL TIME:     0.07 SEC

 FILE SIZES:   FILE 1:    50.2 MBYTE,  FILE 4:    25.2 MBYTE,   TOTAL:     75.4 MBYTE

 OPERATOR DM      FOR CENTER  0  COORDINATES:    0.000000    0.000000    0.000000

 Eigenvalues of metric

         1 0.242E-02 0.393E-02 0.406E-02 0.830E-02 0.130E-01 0.322E-01 0.421E-01 0.464E-01
         2 0.339E-01 0.464E-01 0.101E+00 0.112E+00 0.231E+00 0.341E+00 0.393E+00 0.447E+00


 **********************************************************************************************************************************
 DATASETS  * FILE   NREC   LENGTH (MB)   RECORD NAMES
              1      23       36.03       500      610      700      900      950      970     1000      129      960     1700   
                                          VAR    BASINP    GEOM    SYMINP    ZMAT    AOBASIS   BASIS     P2S    ABASIS    OPER   
                                         1101     1401     1411     1412     1650     1100     1400     1410     1200     1210   
                                          SR      EKINR    POTR     PVPR    MOLCAS      S      EKIN      POT      H0       H01  
                                         1300     1080     1600   
                                         ERIS     AOSYM     SMH  

 PROGRAMS   *        TOTAL       INT
 CPU TIMES  *         0.79      0.68
 REAL TIME  *         1.55 SEC
 DISK USED  *        75.75 MB      
 **********************************************************************************************************************************


 PROGRAM * RHF-SCF (CLOSED SHELL)       Authors: W. Meyer, H.-J. Werner


 NUMBER OF ELECTRONS:       8+    8-
 CONVERGENCE THRESHOLDS:    1.00E-10 (Density)    1.00E-13 (Energy)
 MAX. NUMBER OF ITERATIONS:      500
 INTERPOLATION TYPE:            DIIS
 INTERPOLATION STEPS:              2 (START)      1 (STEP)
 LEVEL SHIFTS:                  0.00 (CLOSED)  0.00 (OPEN) 



 Orbital guess generated from atomic densities. Full valence occupancy:    9   2

 Molecular orbital dump at record        2100.2

 Initial occupancy:   7   1

 ITERATION    DDIFF          GRAD             ENERGY        2-EL.EN.            DIPOLE MOMENTS         DIIS   ORB.
    1      0.000D+00      0.000D+00      -129.86948662    154.531492    0.00000    0.58042   -1.01451    0    start
    2      0.000D+00      0.135D-01      -129.89643893    155.652430    0.00000    0.61003   -0.22106    1    diag
    3      0.183D-01      0.102D-01      -129.91771245    155.767798    0.00000    0.55633   -0.58678    2    diag
    4      0.884D-02      0.154D-02      -129.91843227    155.507742    0.00000    0.56530   -0.52890    3    diag
    5      0.164D-02      0.509D-03      -129.91854427    155.592518    0.00000    0.57060   -0.53001    4    diag
    6      0.710D-03      0.152D-03      -129.91856279    155.577640    0.00000    0.57115   -0.52595    5    diag
    7      0.275D-03      0.756D-04      -129.91856814    155.580009    0.00000    0.57239   -0.52353    6    diag
    8      0.189D-03      0.237D-04      -129.91856861    155.579345    0.00000    0.57240   -0.52276    7    diag
    9      0.618D-04      0.427D-05      -129.91856863    155.579236    0.00000    0.57235   -0.52262    8    diag
   10      0.118D-04      0.952D-06      -129.91856864    155.579219    0.00000    0.57232   -0.52260    9    orth
   11      0.270D-05      0.188D-06      -129.91856864    155.579215    0.00000    0.57231   -0.52259    9    diag
   12      0.500D-06      0.388D-07      -129.91856864    155.579214    0.00000    0.57231   -0.52259    9    diag
   13      0.110D-06      0.951D-08      -129.91856864    155.579214    0.00000    0.57231   -0.52259    9    diag
   14      0.270D-07      0.174D-08      -129.91856864    155.579213    0.00000    0.57231   -0.52259    9    diag
   15      0.447D-08      0.462D-09      -129.91856864    155.579213    0.00000    0.57231   -0.52259    9    diag
   16      0.107D-08      0.120D-09      -129.91856864    155.579213    0.00000    0.57231   -0.52259    9    diag
   17      0.210D-09      0.358D-10      -129.91856864    155.579213    0.00000    0.57231   -0.52259    9    diag
   18      0.688D-10      0.118D-10      -129.91856864    155.579213    0.00000    0.57231   -0.52259    9    diag
   19      0.279D-10      0.258D-11      -129.91856864    155.579213    0.00000    0.57231   -0.52259    9    fixocc
   20      0.652D-11      0.452D-12      -129.91856864    155.579213    0.00000    0.57231   -0.52259    0    orth

 Final occupancy:   7   1

 !RHF STATE 1.1 Energy               -129.918568635095
 Nuclear energy                        30.53800658
 One-electron energy                 -238.24618195
 Two-electron energy                   77.78960673
 Virial quotient                       -0.99730225
 !RHF STATE 1.1 Dipole moment           0.00000000     0.57231175    -0.52258929
 Dipole moment /Debye                   0.00000000     1.45457610    -1.32820249

 Orbital energies:

         1.1          2.1          3.1          4.1          5.1          6.1          7.1          8.1          9.1
    -20.664125   -15.715642    -1.534075    -0.989903    -0.745459    -0.663786    -0.424907     0.144647     0.370551

         1.2          2.2          3.2
     -0.595587     0.089392     0.612159

 HOMO      7.1    -0.424907 =     -11.5623eV
 LUMO      2.2     0.089392 =       2.4325eV
 LUMO-HOMO         0.514299 =      13.9948eV


 **********************************************************************************************************************************
 DATASETS  * FILE   NREC   LENGTH (MB)   RECORD NAMES
              1      23       36.03       500      610      700      900      950      970     1000      129      960     1700   
                                          VAR    BASINP    GEOM    SYMINP    ZMAT    AOBASIS   BASIS     P2S    ABASIS    OPER   
                                         1101     1401     1411     1412     1650     1100     1400     1410     1200     1210   
                                          SR      EKINR    POTR     PVPR    MOLCAS      S      EKIN      POT      H0       H01  
                                         1300     1080     1600   
                                         ERIS     AOSYM     SMH  

              2       4        2.85       700     1000      520     2100   
                                         GEOM     BASIS   MCVARS     RHF  

 PROGRAMS   *        TOTAL        HF       INT
 CPU TIMES  *         1.08      0.29      0.68
 REAL TIME  *         1.94 SEC
 DISK USED  *        75.75 MB      
 **********************************************************************************************************************************


 PROGRAM * CCSD (Closed-shell coupled cluster)     Authors: C. Hampel, H.-J. Werner, 1991, M. Deegan, P.J. Knowles, 1992


 Convergence thresholds:  THRVAR = 1.00D-08  THRDEN = 1.00D-12

 CCSD(T)     terms to be evaluated (factor= 1.000)


 Number of core orbitals:           2 (   2   0 )
 Number of closed-shell orbitals:   6 (   5   1 )
 Number of external orbitals:      66 (  43  23 )

 Molecular orbitals read from record     2100.2  Type=RHF/CANONICAL (state 1.1)

 Number of N-1 electron functions:               6
 Number of N-2 electron functions:              21
 Number of singly external CSFs:               238
 Number of doubly external CSFs:             41002
 Total number of CSFs:                       41241

 Length of J-op  integral file:               0.00 MB
 Length of K-op  integral file:               0.25 MB
 Length of 3-ext integral record:             0.00 MB

 Memory could be reduced to 1.65 Mwords without degradation in triples

 Integral transformation finished. Total CPU:   0.05 sec, npass=  1  Memory used:   0.55 MW

 Reference energy:                   -129.91856864

 MP2 singlet pair energy:              -0.27296769
 MP2 triplet pair energy:              -0.16206439
 MP2 correlation energy:               -0.43503208
 MP2 total energy:                   -130.35360071

 SCS-MP2 correlation energy:           -0.42840129   (PS=  1.200000  PT=  0.333333)
 SCS-MP2 total energy:               -130.34696992

 ITER.      SQ.NORM     CORR.ENERGY   TOTAL ENERGY   ENERGY CHANGE        DEN1      VAR(S)    VAR(P)  DIIS     TIME  TIME/IT
   1      1.11761918    -0.44038727  -130.35895591    -0.00535520     0.01011136  0.28D-02  0.29D-02  1  1     0.12     0.06
   2      1.12826443    -0.44069657  -130.35926520    -0.00030929    -0.01209847  0.84D-04  0.49D-03  2  2     0.19     0.07
   3      1.13436712    -0.44106789  -130.35963653    -0.00037132    -0.00292307  0.44D-04  0.49D-04  3  3     0.26     0.07
   4      1.13706999    -0.44109420  -130.35966283    -0.00002631    -0.00093130  0.37D-05  0.85D-05  4  4     0.30     0.07
   5      1.13801170    -0.44112204  -130.35969067    -0.00002784    -0.00019535  0.13D-05  0.16D-05  5  5     0.37     0.07
   6      1.13835512    -0.44110646  -130.35967510     0.00001558    -0.00003890  0.95D-07  0.40D-06  6  6     0.43     0.07
   7      1.13843892    -0.44110837  -130.35967700    -0.00000191    -0.00000222  0.12D-07  0.82D-07  6  1     0.49     0.07
   8      1.13846875    -0.44110840  -130.35967703    -0.00000003     0.00000191  0.42D-08  0.94D-08  6  2     0.55     0.07
   9      1.13847599    -0.44110823  -130.35967686     0.00000017    -0.00000222  0.23D-08  0.10D-08  6  3     0.61     0.07
  10      1.13847479    -0.44110870  -130.35967734    -0.00000047     0.00000062  0.45D-09  0.18D-09  6  4     0.67     0.07
  11      1.13847314    -0.44110876  -130.35967739    -0.00000005     0.00000017  0.14D-09  0.21D-10  6  5     0.74     0.07
  12      1.13847182    -0.44110892  -130.35967756    -0.00000016     0.00000041  0.14D-10  0.68D-11  6  6     0.79     0.07
  13      1.13847126    -0.44110893  -130.35967756    -0.00000001     0.00000011  0.62D-11  0.11D-11  6  1     0.86     0.07
  14      1.13847090    -0.44110895  -130.35967758    -0.00000002     0.00000007  0.87D-12  0.38D-12  6  2     0.93     0.07
  15      1.13847078    -0.44110895  -130.35967758    -0.00000000     0.00000001  0.22D-12  0.13D-12  6  3     0.98     0.07
  16      1.13847069    -0.44110895  -130.35967758    -0.00000000     0.00000001  0.22D-13  0.14D-13  6  5     1.04     0.07
  17      1.13847066    -0.44110895  -130.35967759    -0.00000000     0.00000000  0.67D-15  0.20D-14  6  4     1.09     0.07
  18      1.13847066    -0.44110895  -130.35967759     0.00000000    -0.00000000  0.45D-15  0.29D-15  6  1     1.16     0.07
  19      1.13847066    -0.44110895  -130.35967759    -0.00000000     0.00000000  0.39D-16  0.51D-16  6  6     1.21     0.07
  20      1.13847065    -0.44110895  -130.35967759    -0.00000000     0.00000000  0.83D-17  0.12D-16  6  2     1.27     0.07
  21      1.13847065    -0.44110895  -130.35967759    -0.00000000     0.00000000  0.16D-17  0.92D-18  6  5     1.33     0.07
  22      1.13847065    -0.44110895  -130.35967759     0.00000000     0.00000000  0.97D-19  0.71D-19  6  3     1.40     0.07
  23      1.13847065    -0.44110895  -130.35967759     0.00000000    -0.00000000  0.28D-19  0.15D-19  6  4     1.46     0.07
  24      1.13847065    -0.44110895  -130.35967759     0.00000000    -0.00000000  0.42D-20  0.42D-20  6  1     1.53     0.07
  25      1.13847065    -0.44110895  -130.35967759     0.00000000    -0.00000000  0.50D-21  0.72D-21  6  6     1.59     0.07

 Norm of t1 vector:      0.07364525      S-energy:     0.00000000      T1 diagnostic:  0.01503277
                                                                       D1 diagnostic:  0.04140545

 Doubles amplitudes (print threshold =  0.500E-01):

         I         J         SYM. A    SYM. B    A         B      T(IJ, AB)

         6         6         2         2         1         1     -0.14158768


 Total CPU time for triples:      0.44 sec


 RESULTS
 =======

  Reference energy                   -129.918568635095
  CCSD singlet pair energy             -0.302254825367
  CCSD triplet pair energy             -0.138854125318
  CCSD correlation energy              -0.441108950685

  Triples (T) contribution             -0.019557419710
  Total correlation energy             -0.460666370395

  CCSD total energy                  -130.359677585780
  CCSD[T] energy                     -130.380218149974
  CCSD-T energy                      -130.378845842249
 !CCSD(T) total energy               -130.379235005491

 Timing summary (sec):

 STEP                 CPU(USER)    SYS     CPU(TOT)    WALL
 Transformation          0.05      0.02      0.07      0.07
 CCSD iterations         1.54      0.21      1.75      1.75
 Triples                 0.44      0.01      0.45      0.45

 Program statistics:

 Available memory in ccsd:               994999756
 Min. memory needed in ccsd:                154850
 Max. memory used in ccsd:                  184802
 Max. memory used in cckext:                238416 (25 integral passes)



 **********************************************************************************************************************************
 DATASETS  * FILE   NREC   LENGTH (MB)   RECORD NAMES
              1      24       40.41       500      610      700      900      950      970     1000      129      960     1700   
                                          VAR    BASINP    GEOM    SYMINP    ZMAT    AOBASIS   BASIS     P2S    ABASIS    OPER   
                                         1101     1401     1411     1412     1650     1100     1400     1410     1200     1210   
                                          SR      EKINR    POTR     PVPR    MOLCAS      S      EKIN      POT      H0       H01  
                                         1300     1080     1600     1380   
                                         ERIS     AOSYM     SMH     JKOP   

              2       4        2.85       700     1000      520     2100   
                                         GEOM     BASIS   MCVARS     RHF  

 PROGRAMS   *        TOTAL   CCSD(T)        HF       INT
 CPU TIMES  *         3.13      2.05      0.29      0.68
 REAL TIME  *         4.26 SEC
 DISK USED  *        75.75 MB      
 **********************************************************************************************************************************

 CCSD(T)/cc-pVTZ-DK energy=   -130.379235005491

        CCSD(T)         HF-SCF  
   -130.37923501   -129.91856864
 **********************************************************************************************************************************
 Molpro calculation terminated
 Variable memory released
