
 Primary working directories    : /tmp/r2666/235564.maple
 Secondary working directories  : /tmp/r2666/235564.maple
 Wavefunction directory         : /ddn/home4/r2666/wfu/
 Main file repository           : /tmp/r2666/235564.maple/

 SHA1      : d5ffa45e93fdbca01ffc919aa182cfdae0147319
 NAME      : 2015.1.35
 ARCHNAME  : linux/x86_64
 FC        : /opt/intel/composer_xe_2015.1.133/bin/intel64/ifort
 BLASLIB   : -Wl,-_start-group /opt/intel/mkl/lib/intel64/libmkl_intel_ilp64.a /opt/intel/mkl/lib/intel64/libmkl_intel_thread.a /opt/intel/mkl/lib/intel64/libmkl_core.a -Wl,-_end-group
 id        : olemiss

 Nodes     nprocs
 cn096        1

 Using customized tuning parameters: mindgm=1; mindgv=20; mindgc=4; mindgr=1; noblas=0; minvec=7
 default implementation of scratch files=df  

 ***,hno CCSD(T)/TZ-F12 QFF
 memory, 995, m;
 gthresh,energy=1.d-12,zero=1.d-22,oneint=1.d-22,twoint=1.d-22;
 gthresh,optgrad=1.d-8,optstep=1.d-8;
 nocompress;
 geomtyp=xyz
 bohr
 geometry={
 3
        115       115
 N        0.0000000000       -0.1659220968       -1.1326108582
 H        0.0000000000        1.6740190126       -1.9341590317
 O        0.0000000000        0.0336708741        1.1161802988
 }
 
 basis=vtz-dk
 dkroll=1
   {hf,maxit=500;accu,20;}
 {ccsd(t),nocheck,maxit=250;orbital,IGNORE_ERROR;}

 Variables initialized (889), CPU time= 0.01 sec
 Commands  initialized (702), CPU time= 0.01 sec, 572 directives.
 Default parameters read. Elapsed time= 0.05 sec

 Checking input...
 Passed
1


                                         ***  PROGRAM SYSTEM MOLPRO  ***
                                       Copyright, TTI GmbH Stuttgart, 2015
                                    Version 2015.1 linked Jul  9 2018 13:16:40


 **********************************************************************************************************************************
 LABEL *   hno CCSD(T)/TZ-F12 QFF                                                        
  64 bit serial version                                                                  DATE: 09-Feb-20          TIME: 14:34:08  
 **********************************************************************************************************************************

 SHA1:             d5ffa45e93fdbca01ffc919aa182cfdae0147319
 **********************************************************************************************************************************

 THRESHOLDS:

 ZERO    =  1.00D-22  ONEINT  =  1.00D-22  TWOINT  =  1.00D-22  PREFAC  =  1.00D-14  LOCALI  =  1.00D-09  EORDER  =  1.00D-04
 ENERGY  =  1.00D-12  ETEST   =  0.00D+00  EDENS   =  0.00D+00  THRDEDEF=  1.00D-06  GRADIENT=  1.00D-02  STEP    =  1.00D-03
 ORBITAL =  1.00D-05  CIVEC   =  1.00D-05  COEFF   =  1.00D-04  PRINTCI =  5.00D-02  PUNCHCI =  9.90D+01  OPTGRAD =  3.00D-04
 OPTENERG=  1.00D-06  OPTSTEP =  3.00D-04  THRGRAD =  1.00D-10  COMPRESS=  1.00D-11  VARMIN  =  1.00D-07  VARMAX  =  1.00D-03
 THRDOUB =  0.00D+00  THRDIV  =  1.00D-05  THRRED  =  1.00D-07  THRPSP  =  1.00D+00  THRDC   =  1.00D-10  THRCS   =  1.00D-10
 THRNRM  =  1.00D-08  THREQ   =  0.00D+00  THRDE   =  1.00D+00  THRREF  =  1.00D-05  SPARFAC =  1.00D+00  THRDLP  =  1.00D-07
 THRDIA  =  1.00D-10  THRDLS  =  1.00D-07  THRGPS  =  0.00D+00  THRKEX  =  0.00D+00  THRDIS  =  2.00D-01  THRVAR  =  1.00D-10
 THRLOC  =  1.00D-06  THRGAP  =  1.00D-06  THRLOCT = -1.00D+00  THRGAPT = -1.00D+00  THRORB  =  1.00D-06  THRMLTP =  0.00D+00
 THRCPQCI=  1.00D-10  KEXTA   =  0.00D+00  THRCOARS=  0.00D+00  SYMTOL  =  1.00D-06  GRADTOL =  1.00D-06  THROVL  =  1.00D-08
 THRORTH =  1.00D-08  GRID    =  1.00D-06  GRIDMAX =  1.00D-03  DTMAX   =  0.00D+00  THROCCDE=  1.00D-01  THROCCDE=  1.00D-01



 THRESHOLDS:

 ZERO    =  1.00D-22  ONEINT  =  1.00D-22  TWOINT  =  1.00D-22  PREFAC  =  1.00D-14  LOCALI  =  1.00D-09  EORDER  =  1.00D-04
 ENERGY  =  1.00D-12  ETEST   =  0.00D+00  EDENS   =  0.00D+00  THRDEDEF=  1.00D-06  GRADIENT=  1.00D-02  STEP    =  1.00D-03
 ORBITAL =  1.00D-05  CIVEC   =  1.00D-05  COEFF   =  1.00D-04  PRINTCI =  5.00D-02  PUNCHCI =  9.90D+01  OPTGRAD =  1.00D-08
 OPTENERG=  1.00D-06  OPTSTEP =  1.00D-08  THRGRAD =  1.00D-10  COMPRESS=  1.00D-11  VARMIN  =  1.00D-07  VARMAX  =  1.00D-03
 THRDOUB =  0.00D+00  THRDIV  =  1.00D-05  THRRED  =  1.00D-07  THRPSP  =  1.00D+00  THRDC   =  1.00D-10  THRCS   =  1.00D-10
 THRNRM  =  1.00D-08  THREQ   =  0.00D+00  THRDE   =  1.00D+00  THRREF  =  1.00D-05  SPARFAC =  1.00D+00  THRDLP  =  1.00D-07
 THRDIA  =  1.00D-10  THRDLS  =  1.00D-07  THRGPS  =  0.00D+00  THRKEX  =  0.00D+00  THRDIS  =  2.00D-01  THRVAR  =  1.00D-10
 THRLOC  =  1.00D-06  THRGAP  =  1.00D-06  THRLOCT = -1.00D+00  THRGAPT = -1.00D+00  THRORB  =  1.00D-06  THRMLTP =  0.00D+00
 THRCPQCI=  1.00D-10  KEXTA   =  0.00D+00  THRCOARS=  0.00D+00  SYMTOL  =  1.00D-06  GRADTOL =  1.00D-06  THROVL  =  1.00D-08
 THRORTH =  1.00D-08  GRID    =  1.00D-06  GRIDMAX =  1.00D-03  DTMAX   =  0.00D+00  THROCCDE=  1.00D-01  THROCCDE=  1.00D-01



 Input parameters for SORTINT:

 COMPRESS =    0.000000
 C_FINAL  =    1.000000
 DEBUG    =   -1.000000
 C_SORT1  =    0.000000
 C_SEWARD =    0.000000
 THRESH   =    0.000000
 IO       =  molpro                                                          
 SPRI     =    0.000000
 SETTING GEOMTYP        =    XYZ
 ZUNIT=BOHR
 

 Variable memory set to  995000000 words,  buffer space   230000 words

 SETTING BASIS          =    VTZ-DK
 SETTING DKROLL         =         1.00000000                                  


 Recomputing integrals since basis changed


 Using spherical harmonics

 Library entry N      S cc-pVTZ-DK           selected for orbital group  1
 Library entry N      P cc-pVTZ-DK           selected for orbital group  1
 Library entry N      D cc-pVTZ-DK           selected for orbital group  1
 Library entry N      F cc-pVTZ-DK           selected for orbital group  1
 Library entry H      S cc-pVTZ-DK           selected for orbital group  2
 Library entry H      P cc-pVTZ-DK           selected for orbital group  2
 Library entry H      D cc-pVTZ-DK           selected for orbital group  2
 Library entry O      S cc-pVTZ-DK           selected for orbital group  3
 Library entry O      P cc-pVTZ-DK           selected for orbital group  3
 Library entry O      D cc-pVTZ-DK           selected for orbital group  3
 Library entry O      F cc-pVTZ-DK           selected for orbital group  3


 PROGRAM * SEWARD (Integral evaluation for generally contracted gaussian basis sets)     Author: Roland Lindh, 1990

 Geometry written to block  1 of record 700


 Point group  Cs  



 ATOMIC COORDINATES

 NR  ATOM    CHARGE       X              Y              Z

   1  N       7.00    0.000000000   -0.165922097   -1.132610858
   2  H       1.00    0.000000000    1.674019013   -1.934159032
   3  O       8.00    0.000000000    0.033670874    1.116180299

 Bond lengths in Bohr (Angstrom)

 1-2  2.006953602  1-3  2.257631286
     ( 1.062034110)     ( 1.194687027)

 Bond angles

  2-1-3  108.46773406

 NUCLEAR CHARGE:                   16
 NUMBER OF PRIMITIVE AOS:         111
 NUMBER OF SYMMETRY AOS:          100
 NUMBER OF CONTRACTIONS:           74   (  50A'  +  24A"  )
 NUMBER OF CORE ORBITALS:           2   (   2A'  +   0A"  )
 NUMBER OF VALENCE ORBITALS:        9   (   7A'  +   2A"  )


 NUCLEAR REPULSION ENERGY   30.60248469

 One-electron integrals computed with SEWARD

 2nd-order Douglas-Kroll-Hess method activated. Optimal DKH parametrization is used.

 Computing Douglas-Kroll / X2C integrals


        1874283. INTEGRALS WRITTEN OUT IN     458 BLOCKS ON RECORD 1290 OF FILE 1


 NUMBER OF SORTED TWO-ELECTRON INTEGRALS:    2006100.     BUFFER LENGTH:  32768
 NUMBER OF SEGMENTS:   1  SEGMENT LENGTH:    2006100      RECORD LENGTH: 524288

 Memory used in sort:       2.56 MW

 SORT1 READ     1874283. AND WROTE     1914195. INTEGRALS IN      6 RECORDS. CPU TIME:     0.05 SEC, REAL TIME:     0.05 SEC
 SORT2 READ     1914195. AND WROTE     2006100. INTEGRALS IN      1 RECORDS. CPU TIME:     0.05 SEC, REAL TIME:     0.06 SEC

 FILE SIZES:   FILE 1:    50.2 MBYTE,  FILE 4:    25.2 MBYTE,   TOTAL:     75.4 MBYTE

 OPERATOR DM      FOR CENTER  0  COORDINATES:    0.000000    0.000000    0.000000

 Eigenvalues of metric

         1 0.243E-02 0.390E-02 0.404E-02 0.847E-02 0.132E-01 0.320E-01 0.418E-01 0.463E-01
         2 0.337E-01 0.464E-01 0.100E+00 0.113E+00 0.231E+00 0.345E+00 0.393E+00 0.447E+00


 **********************************************************************************************************************************
 DATASETS  * FILE   NREC   LENGTH (MB)   RECORD NAMES
              1      23       36.03       500      610      700      900      950      970     1000      129      960     1700   
                                          VAR    BASINP    GEOM    SYMINP    ZMAT    AOBASIS   BASIS     P2S    ABASIS    OPER   
                                         1101     1401     1411     1412     1650     1100     1400     1410     1200     1210   
                                          SR      EKINR    POTR     PVPR    MOLCAS      S      EKIN      POT      H0       H01  
                                         1300     1080     1600   
                                         ERIS     AOSYM     SMH  

 PROGRAMS   *        TOTAL       INT
 CPU TIMES  *         0.73      0.63
 REAL TIME  *         2.20 SEC
 DISK USED  *        75.75 MB      
 **********************************************************************************************************************************


 PROGRAM * RHF-SCF (CLOSED SHELL)       Authors: W. Meyer, H.-J. Werner


 NUMBER OF ELECTRONS:       8+    8-
 CONVERGENCE THRESHOLDS:    1.00E-10 (Density)    1.00E-13 (Energy)
 MAX. NUMBER OF ITERATIONS:      500
 INTERPOLATION TYPE:            DIIS
 INTERPOLATION STEPS:              2 (START)      1 (STEP)
 LEVEL SHIFTS:                  0.00 (CLOSED)  0.00 (OPEN) 



 Orbital guess generated from atomic densities. Full valence occupancy:    9   2

 Molecular orbital dump at record        2100.2

 Initial occupancy:   7   1

 ITERATION    DDIFF          GRAD             ENERGY        2-EL.EN.            DIPOLE MOMENTS         DIIS   ORB.
    1      0.000D+00      0.000D+00      -129.87022172    154.634012    0.00000    0.57990   -0.99971    0    start
    2      0.000D+00      0.134D-01      -129.89727164    155.780165    0.00000    0.60394   -0.22341    1    diag
    3      0.182D-01      0.100D-01      -129.91798750    155.880713    0.00000    0.55323   -0.58120    2    diag
    4      0.874D-02      0.153D-02      -129.91870133    155.622736    0.00000    0.56170   -0.52395    3    diag
    5      0.164D-02      0.506D-03      -129.91881282    155.708094    0.00000    0.56721   -0.52532    4    diag
    6      0.707D-03      0.152D-03      -129.91883129    155.693206    0.00000    0.56781   -0.52134    5    diag
    7      0.275D-03      0.748D-04      -129.91883650    155.695685    0.00000    0.56910   -0.51901    6    diag
    8      0.188D-03      0.231D-04      -129.91883694    155.695046    0.00000    0.56912   -0.51828    7    diag
    9      0.596D-04      0.419D-05      -129.91883696    155.694939    0.00000    0.56908   -0.51814    8    diag
   10      0.114D-04      0.953D-06      -129.91883696    155.694921    0.00000    0.56904   -0.51811    9    orth
   11      0.270D-05      0.189D-06      -129.91883696    155.694916    0.00000    0.56904   -0.51811    9    diag
   12      0.507D-06      0.387D-07      -129.91883696    155.694915    0.00000    0.56903   -0.51811    9    diag
   13      0.111D-06      0.945D-08      -129.91883696    155.694914    0.00000    0.56903   -0.51811    9    diag
   14      0.275D-07      0.179D-08      -129.91883696    155.694914    0.00000    0.56903   -0.51811    9    diag
   15      0.474D-08      0.488D-09      -129.91883696    155.694914    0.00000    0.56903   -0.51811    9    diag
   16      0.115D-08      0.134D-09      -129.91883696    155.694914    0.00000    0.56903   -0.51811    9    diag
   17      0.244D-09      0.407D-10      -129.91883696    155.694914    0.00000    0.56903   -0.51811    9    diag
   18      0.835D-10      0.129D-10      -129.91883696    155.694914    0.00000    0.56903   -0.51811    0    orth

 Final occupancy:   7   1

 !RHF STATE 1.1 Energy               -129.918836964091
 Nuclear energy                        30.60248469
 One-electron energy                 -238.36877879
 Two-electron energy                   77.84745714
 Virial quotient                       -0.99727064
 !RHF STATE 1.1 Dipole moment           0.00000000     0.56903351    -0.51810843
 Dipole moment /Debye                   0.00000000     1.44624419    -1.31681402

 Orbital energies:

         1.1          2.1          3.1          4.1          5.1          6.1          7.1          8.1          9.1
    -20.664093   -15.715859    -1.538202    -0.986751    -0.746080    -0.665685    -0.421890     0.144138     0.371314

         1.2          2.2          3.2
     -0.598373     0.091376     0.611529

 HOMO      7.1    -0.421890 =     -11.4802eV
 LUMO      2.2     0.091376 =       2.4865eV
 LUMO-HOMO         0.513266 =      13.9667eV


 **********************************************************************************************************************************
 DATASETS  * FILE   NREC   LENGTH (MB)   RECORD NAMES
              1      23       36.03       500      610      700      900      950      970     1000      129      960     1700   
                                          VAR    BASINP    GEOM    SYMINP    ZMAT    AOBASIS   BASIS     P2S    ABASIS    OPER   
                                         1101     1401     1411     1412     1650     1100     1400     1410     1200     1210   
                                          SR      EKINR    POTR     PVPR    MOLCAS      S      EKIN      POT      H0       H01  
                                         1300     1080     1600   
                                         ERIS     AOSYM     SMH  

              2       4        2.85       700     1000      520     2100   
                                         GEOM     BASIS   MCVARS     RHF  

 PROGRAMS   *        TOTAL        HF       INT
 CPU TIMES  *         0.91      0.18      0.63
 REAL TIME  *         2.47 SEC
 DISK USED  *        75.75 MB      
 **********************************************************************************************************************************


 PROGRAM * CCSD (Closed-shell coupled cluster)     Authors: C. Hampel, H.-J. Werner, 1991, M. Deegan, P.J. Knowles, 1992


 Convergence thresholds:  THRVAR = 1.00D-08  THRDEN = 1.00D-12

 CCSD(T)     terms to be evaluated (factor= 1.000)


 Number of core orbitals:           2 (   2   0 )
 Number of closed-shell orbitals:   6 (   5   1 )
 Number of external orbitals:      66 (  43  23 )

 Molecular orbitals read from record     2100.2  Type=RHF/CANONICAL (state 1.1)

 Number of N-1 electron functions:               6
 Number of N-2 electron functions:              21
 Number of singly external CSFs:               238
 Number of doubly external CSFs:             41002
 Total number of CSFs:                       41241

 Length of J-op  integral file:               0.00 MB
 Length of K-op  integral file:               0.25 MB
 Length of 3-ext integral record:             0.00 MB

 Memory could be reduced to 1.65 Mwords without degradation in triples

 Integral transformation finished. Total CPU:   0.02 sec, npass=  1  Memory used:   0.55 MW

 Reference energy:                   -129.91883696

 MP2 singlet pair energy:              -0.27261741
 MP2 triplet pair energy:              -0.16182097
 MP2 correlation energy:               -0.43443838
 MP2 total energy:                   -130.35327534

 SCS-MP2 correlation energy:           -0.42782950   (PS=  1.200000  PT=  0.333333)
 SCS-MP2 total energy:               -130.34666646

 ITER.      SQ.NORM     CORR.ENERGY   TOTAL ENERGY   ENERGY CHANGE        DEN1      VAR(S)    VAR(P)  DIIS     TIME  TIME/IT
   1      1.11738875    -0.43998051  -130.35881748    -0.00554213     0.00981094  0.28D-02  0.29D-02  1  1     0.08     0.05
   2      1.12798649    -0.44032175  -130.35915872    -0.00034124    -0.01203365  0.82D-04  0.49D-03  2  2     0.12     0.05
   3      1.13406338    -0.44069495  -130.35953191    -0.00037319    -0.00291159  0.46D-04  0.48D-04  3  3     0.16     0.05
   4      1.13673976    -0.44071877  -130.35955574    -0.00002383    -0.00092425  0.39D-05  0.85D-05  4  4     0.20     0.04
   5      1.13768473    -0.44074671  -130.35958367    -0.00002794    -0.00019582  0.14D-05  0.16D-05  5  5     0.24     0.04
   6      1.13803429    -0.44073144  -130.35956840     0.00001527    -0.00003909  0.11D-06  0.40D-06  6  6     0.28     0.04
   7      1.13812288    -0.44073303  -130.35956999    -0.00000158    -0.00000277  0.13D-07  0.81D-07  6  1     0.31     0.04
   8      1.13815384    -0.44073314  -130.35957010    -0.00000011     0.00000170  0.40D-08  0.94D-08  6  2     0.36     0.04
   9      1.13816148    -0.44073291  -130.35956987     0.00000023    -0.00000215  0.24D-08  0.10D-08  6  3     0.39     0.04
  10      1.13816032    -0.44073340  -130.35957036    -0.00000049     0.00000055  0.47D-09  0.19D-09  6  4     0.43     0.04
  11      1.13815858    -0.44073345  -130.35957042    -0.00000006     0.00000022  0.14D-09  0.22D-10  6  5     0.46     0.04
  12      1.13815719    -0.44073362  -130.35957059    -0.00000017     0.00000042  0.16D-10  0.75D-11  6  6     0.49     0.04
  13      1.13815658    -0.44073363  -130.35957059    -0.00000001     0.00000012  0.68D-11  0.12D-11  6  1     0.54     0.04
  14      1.13815620    -0.44073365  -130.35957061    -0.00000002     0.00000007  0.94D-12  0.41D-12  6  2     0.57     0.04
  15      1.13815607    -0.44073365  -130.35957061    -0.00000000     0.00000001  0.24D-12  0.13D-12  6  3     0.59     0.04
  16      1.13815597    -0.44073365  -130.35957062    -0.00000000     0.00000002  0.67D-14  0.36D-13  6  1     0.63     0.04
  17      1.13815596    -0.44073365  -130.35957062     0.00000000    -0.00000000  0.33D-14  0.28D-14  6  4     0.67     0.04
  18      1.13815594    -0.44073365  -130.35957062    -0.00000000     0.00000000  0.73D-15  0.50D-15  6  5     0.71     0.04
  19      1.13815594    -0.44073365  -130.35957062     0.00000000    -0.00000000  0.12D-15  0.82D-16  6  6     0.75     0.04
  20      1.13815594    -0.44073365  -130.35957062    -0.00000000     0.00000000  0.15D-16  0.18D-16  6  4     0.78     0.04
  21      1.13815594    -0.44073365  -130.35957062    -0.00000000     0.00000000  0.65D-18  0.16D-17  6  2     0.82     0.04
  22      1.13815594    -0.44073365  -130.35957062    -0.00000000     0.00000000  0.60D-19  0.78D-19  6  3     0.85     0.04
  23      1.13815594    -0.44073365  -130.35957062    -0.00000000     0.00000000  0.98D-20  0.11D-19  6  1     0.89     0.04
  24      1.13815594    -0.44073365  -130.35957062     0.00000000     0.00000000  0.37D-20  0.11D-20  6  4     0.93     0.04
  25      1.13815594    -0.44073365  -130.35957062     0.00000000    -0.00000000  0.36D-21  0.38D-21  6  5     0.97     0.04

 Norm of t1 vector:      0.07370506      S-energy:     0.00000000      T1 diagnostic:  0.01504498
                                                                       D1 diagnostic:  0.04081050

 Doubles amplitudes (print threshold =  0.500E-01):

         I         J         SYM. A    SYM. B    A         B      T(IJ, AB)

         6         6         2         2         1         1     -0.13993384


 Total CPU time for triples:      0.25 sec


 RESULTS
 =======

  Reference energy                   -129.918836964091
  CCSD singlet pair energy             -0.301923702027
  CCSD triplet pair energy             -0.138809950479
  CCSD correlation energy              -0.440733652505

  Triples (T) contribution             -0.019467751244
  Total correlation energy             -0.460201403748

  CCSD total energy                  -130.359570616595
  CCSD[T] energy                     -130.380016176014
  CCSD-T energy                      -130.378649179574
 !CCSD(T) total energy               -130.379038367839

 Timing summary (sec):

 STEP                 CPU(USER)    SYS     CPU(TOT)    WALL
 Transformation          0.03      0.02      0.05      0.13
 CCSD iterations         0.94      0.11      1.05      1.07
 Triples                 0.25      0.00      0.25      0.24

 Program statistics:

 Available memory in ccsd:               994999756
 Min. memory needed in ccsd:                154850
 Max. memory used in ccsd:                  184802
 Max. memory used in cckext:                238416 (25 integral passes)



 **********************************************************************************************************************************
 DATASETS  * FILE   NREC   LENGTH (MB)   RECORD NAMES
              1      24       40.41       500      610      700      900      950      970     1000      129      960     1700   
                                          VAR    BASINP    GEOM    SYMINP    ZMAT    AOBASIS   BASIS     P2S    ABASIS    OPER   
                                         1101     1401     1411     1412     1650     1100     1400     1410     1200     1210   
                                          SR      EKINR    POTR     PVPR    MOLCAS      S      EKIN      POT      H0       H01  
                                         1300     1080     1600     1380   
                                         ERIS     AOSYM     SMH     JKOP   

              2       4        2.85       700     1000      520     2100   
                                         GEOM     BASIS   MCVARS     RHF  

 PROGRAMS   *        TOTAL   CCSD(T)        HF       INT
 CPU TIMES  *         2.17      1.26      0.18      0.63
 REAL TIME  *         4.64 SEC
 DISK USED  *        75.75 MB      
 **********************************************************************************************************************************

 CCSD(T)/cc-pVTZ-DK energy=   -130.379038367839

        CCSD(T)         HF-SCF  
   -130.37903837   -129.91883696
 **********************************************************************************************************************************
 Molpro calculation terminated
 Variable memory released
