
 Primary working directories    : /tmp/r2666/235165.maple
 Secondary working directories  : /tmp/r2666/235165.maple
 Wavefunction directory         : /ddn/home4/r2666/wfu/
 Main file repository           : /tmp/r2666/235165.maple/

 SHA1      : d5ffa45e93fdbca01ffc919aa182cfdae0147319
 NAME      : 2015.1.35
 ARCHNAME  : linux/x86_64
 FC        : /opt/intel/composer_xe_2015.1.133/bin/intel64/ifort
 BLASLIB   : -Wl,-_start-group /opt/intel/mkl/lib/intel64/libmkl_intel_ilp64.a /opt/intel/mkl/lib/intel64/libmkl_intel_thread.a /opt/intel/mkl/lib/intel64/libmkl_core.a -Wl,-_end-group
 id        : olemiss

 Nodes     nprocs
 cn091        1

 Using customized tuning parameters: mindgm=1; mindgv=20; mindgc=4; mindgr=1; noblas=0; minvec=7
 default implementation of scratch files=df  

 ***,hno CCSD(T)/TZ-F12 QFF
 memory, 995, m;
 gthresh,energy=1.d-12,zero=1.d-22,oneint=1.d-22,twoint=1.d-22;
 gthresh,optgrad=1.d-8,optstep=1.d-8;
 nocompress;
 geomtyp=xyz
 bohr
 geometry={
 3
         20        20
 N        0.0000000000       -0.1481600244       -1.1562031038
 H        0.0000000000        1.6601252549       -1.9357490228
 O        0.0000000000        0.0298025595        1.1413625356
 }
 
 basis=vtz-dk
 dkroll=1
   {hf,maxit=500;accu,20;}
 {ccsd(t),nocheck,maxit=250;orbital,IGNORE_ERROR;}

 Variables initialized (889), CPU time= 0.01 sec
 Commands  initialized (702), CPU time= 0.01 sec, 572 directives.
 Default parameters read. Elapsed time= 0.06 sec

 Checking input...
 Passed
1


                                         ***  PROGRAM SYSTEM MOLPRO  ***
                                       Copyright, TTI GmbH Stuttgart, 2015
                                    Version 2015.1 linked Jul  9 2018 13:16:40


 **********************************************************************************************************************************
 LABEL *   hno CCSD(T)/TZ-F12 QFF                                                        
  64 bit serial version                                                                  DATE: 08-Feb-20          TIME: 17:57:15  
 **********************************************************************************************************************************

 SHA1:             d5ffa45e93fdbca01ffc919aa182cfdae0147319
 **********************************************************************************************************************************

 THRESHOLDS:

 ZERO    =  1.00D-22  ONEINT  =  1.00D-22  TWOINT  =  1.00D-22  PREFAC  =  1.00D-14  LOCALI  =  1.00D-09  EORDER  =  1.00D-04
 ENERGY  =  1.00D-12  ETEST   =  0.00D+00  EDENS   =  0.00D+00  THRDEDEF=  1.00D-06  GRADIENT=  1.00D-02  STEP    =  1.00D-03
 ORBITAL =  1.00D-05  CIVEC   =  1.00D-05  COEFF   =  1.00D-04  PRINTCI =  5.00D-02  PUNCHCI =  9.90D+01  OPTGRAD =  3.00D-04
 OPTENERG=  1.00D-06  OPTSTEP =  3.00D-04  THRGRAD =  1.00D-10  COMPRESS=  1.00D-11  VARMIN  =  1.00D-07  VARMAX  =  1.00D-03
 THRDOUB =  0.00D+00  THRDIV  =  1.00D-05  THRRED  =  1.00D-07  THRPSP  =  1.00D+00  THRDC   =  1.00D-10  THRCS   =  1.00D-10
 THRNRM  =  1.00D-08  THREQ   =  0.00D+00  THRDE   =  1.00D+00  THRREF  =  1.00D-05  SPARFAC =  1.00D+00  THRDLP  =  1.00D-07
 THRDIA  =  1.00D-10  THRDLS  =  1.00D-07  THRGPS  =  0.00D+00  THRKEX  =  0.00D+00  THRDIS  =  2.00D-01  THRVAR  =  1.00D-10
 THRLOC  =  1.00D-06  THRGAP  =  1.00D-06  THRLOCT = -1.00D+00  THRGAPT = -1.00D+00  THRORB  =  1.00D-06  THRMLTP =  0.00D+00
 THRCPQCI=  1.00D-10  KEXTA   =  0.00D+00  THRCOARS=  0.00D+00  SYMTOL  =  1.00D-06  GRADTOL =  1.00D-06  THROVL  =  1.00D-08
 THRORTH =  1.00D-08  GRID    =  1.00D-06  GRIDMAX =  1.00D-03  DTMAX   =  0.00D+00  THROCCDE=  1.00D-01  THROCCDE=  1.00D-01



 THRESHOLDS:

 ZERO    =  1.00D-22  ONEINT  =  1.00D-22  TWOINT  =  1.00D-22  PREFAC  =  1.00D-14  LOCALI  =  1.00D-09  EORDER  =  1.00D-04
 ENERGY  =  1.00D-12  ETEST   =  0.00D+00  EDENS   =  0.00D+00  THRDEDEF=  1.00D-06  GRADIENT=  1.00D-02  STEP    =  1.00D-03
 ORBITAL =  1.00D-05  CIVEC   =  1.00D-05  COEFF   =  1.00D-04  PRINTCI =  5.00D-02  PUNCHCI =  9.90D+01  OPTGRAD =  1.00D-08
 OPTENERG=  1.00D-06  OPTSTEP =  1.00D-08  THRGRAD =  1.00D-10  COMPRESS=  1.00D-11  VARMIN  =  1.00D-07  VARMAX  =  1.00D-03
 THRDOUB =  0.00D+00  THRDIV  =  1.00D-05  THRRED  =  1.00D-07  THRPSP  =  1.00D+00  THRDC   =  1.00D-10  THRCS   =  1.00D-10
 THRNRM  =  1.00D-08  THREQ   =  0.00D+00  THRDE   =  1.00D+00  THRREF  =  1.00D-05  SPARFAC =  1.00D+00  THRDLP  =  1.00D-07
 THRDIA  =  1.00D-10  THRDLS  =  1.00D-07  THRGPS  =  0.00D+00  THRKEX  =  0.00D+00  THRDIS  =  2.00D-01  THRVAR  =  1.00D-10
 THRLOC  =  1.00D-06  THRGAP  =  1.00D-06  THRLOCT = -1.00D+00  THRGAPT = -1.00D+00  THRORB  =  1.00D-06  THRMLTP =  0.00D+00
 THRCPQCI=  1.00D-10  KEXTA   =  0.00D+00  THRCOARS=  0.00D+00  SYMTOL  =  1.00D-06  GRADTOL =  1.00D-06  THROVL  =  1.00D-08
 THRORTH =  1.00D-08  GRID    =  1.00D-06  GRIDMAX =  1.00D-03  DTMAX   =  0.00D+00  THROCCDE=  1.00D-01  THROCCDE=  1.00D-01



 Input parameters for SORTINT:

 COMPRESS =    0.000000
 C_FINAL  =    1.000000
 DEBUG    =   -1.000000
 C_SORT1  =    0.000000
 C_SEWARD =    0.000000
 THRESH   =    0.000000
 IO       =  molpro                                                          
 SPRI     =    0.000000
 SETTING GEOMTYP        =    XYZ
 ZUNIT=BOHR
 

 Variable memory set to  995000000 words,  buffer space   230000 words

 SETTING BASIS          =    VTZ-DK
 SETTING DKROLL         =         1.00000000                                  


 Recomputing integrals since basis changed


 Using spherical harmonics

 Library entry N      S cc-pVTZ-DK           selected for orbital group  1
 Library entry N      P cc-pVTZ-DK           selected for orbital group  1
 Library entry N      D cc-pVTZ-DK           selected for orbital group  1
 Library entry N      F cc-pVTZ-DK           selected for orbital group  1
 Library entry H      S cc-pVTZ-DK           selected for orbital group  2
 Library entry H      P cc-pVTZ-DK           selected for orbital group  2
 Library entry H      D cc-pVTZ-DK           selected for orbital group  2
 Library entry O      S cc-pVTZ-DK           selected for orbital group  3
 Library entry O      P cc-pVTZ-DK           selected for orbital group  3
 Library entry O      D cc-pVTZ-DK           selected for orbital group  3
 Library entry O      F cc-pVTZ-DK           selected for orbital group  3


 PROGRAM * SEWARD (Integral evaluation for generally contracted gaussian basis sets)     Author: Roland Lindh, 1990

 Geometry written to block  1 of record 700


 Point group  Cs  



 ATOMIC COORDINATES

 NR  ATOM    CHARGE       X              Y              Z

   1  N       7.00    0.000000000   -0.148160024   -1.156203104
   2  H       1.00    0.000000000    1.660125255   -1.935749023
   3  O       8.00    0.000000000    0.029802559    1.141362536

 Bond lengths in Bohr (Angstrom)

 1-2  1.969159082  1-3  2.304447558
     ( 1.042034111)     ( 1.219461132)

 Bond angles

  2-1-3  108.89160056

 NUCLEAR CHARGE:                   16
 NUMBER OF PRIMITIVE AOS:         111
 NUMBER OF SYMMETRY AOS:          100
 NUMBER OF CONTRACTIONS:           74   (  50A'  +  24A"  )
 NUMBER OF CORE ORBITALS:           2   (   2A'  +   0A"  )
 NUMBER OF VALENCE ORBITALS:        9   (   7A'  +   2A"  )


 NUCLEAR REPULSION ENERGY   30.15296956

 One-electron integrals computed with SEWARD

 2nd-order Douglas-Kroll-Hess method activated. Optimal DKH parametrization is used.

 Computing Douglas-Kroll / X2C integrals


        1874283. INTEGRALS WRITTEN OUT IN     458 BLOCKS ON RECORD 1290 OF FILE 1


 NUMBER OF SORTED TWO-ELECTRON INTEGRALS:    2006100.     BUFFER LENGTH:  32768
 NUMBER OF SEGMENTS:   1  SEGMENT LENGTH:    2006100      RECORD LENGTH: 524288

 Memory used in sort:       2.56 MW

 SORT1 READ     1874283. AND WROTE     1914195. INTEGRALS IN      6 RECORDS. CPU TIME:     0.02 SEC, REAL TIME:     0.04 SEC
 SORT2 READ     1914195. AND WROTE     2006100. INTEGRALS IN      1 RECORDS. CPU TIME:     0.06 SEC, REAL TIME:     0.06 SEC

 FILE SIZES:   FILE 1:    50.2 MBYTE,  FILE 4:    25.2 MBYTE,   TOTAL:     75.4 MBYTE

 OPERATOR DM      FOR CENTER  0  COORDINATES:    0.000000    0.000000    0.000000

 Eigenvalues of metric

         1 0.245E-02 0.396E-02 0.433E-02 0.825E-02 0.128E-01 0.332E-01 0.432E-01 0.463E-01
         2 0.347E-01 0.465E-01 0.103E+00 0.110E+00 0.236E+00 0.339E+00 0.396E+00 0.452E+00


 **********************************************************************************************************************************
 DATASETS  * FILE   NREC   LENGTH (MB)   RECORD NAMES
              1      23       36.03       500      610      700      900      950      970     1000      129      960     1700   
                                          VAR    BASINP    GEOM    SYMINP    ZMAT    AOBASIS   BASIS     P2S    ABASIS    OPER   
                                         1101     1401     1411     1412     1650     1100     1400     1410     1200     1210   
                                          SR      EKINR    POTR     PVPR    MOLCAS      S      EKIN      POT      H0       H01  
                                         1300     1080     1600   
                                         ERIS     AOSYM     SMH  

 PROGRAMS   *        TOTAL       INT
 CPU TIMES  *         0.66      0.56
 REAL TIME  *         1.27 SEC
 DISK USED  *        75.75 MB      
 **********************************************************************************************************************************


 PROGRAM * RHF-SCF (CLOSED SHELL)       Authors: W. Meyer, H.-J. Werner


 NUMBER OF ELECTRONS:       8+    8-
 CONVERGENCE THRESHOLDS:    1.00E-10 (Density)    1.00E-13 (Energy)
 MAX. NUMBER OF ITERATIONS:      500
 INTERPOLATION TYPE:            DIIS
 INTERPOLATION STEPS:              2 (START)      1 (STEP)
 LEVEL SHIFTS:                  0.00 (CLOSED)  0.00 (OPEN) 



 Orbital guess generated from atomic densities. Full valence occupancy:    9   2

 Molecular orbital dump at record        2100.2

 Initial occupancy:   7   1

 ITERATION    DDIFF          GRAD             ENERGY        2-EL.EN.            DIPOLE MOMENTS         DIIS   ORB.
    1      0.000D+00      0.000D+00      -129.86490382    153.841391    0.00000    0.60807   -1.07647    0    start
    2      0.000D+00      0.137D-01      -129.89123151    154.922178    0.00000    0.62276   -0.22034    1    diag
    3      0.189D-01      0.107D-01      -129.91508983    155.078910    0.00000    0.57487   -0.62019    2    diag
    4      0.924D-02      0.158D-02      -129.91584582    154.806554    0.00000    0.58287   -0.55889    3    diag
    5      0.168D-02      0.520D-03      -129.91596209    154.892630    0.00000    0.58819   -0.55975    4    diag
    6      0.725D-03      0.154D-03      -129.91598126    154.877689    0.00000    0.58869   -0.55541    5    diag
    7      0.279D-03      0.784D-04      -129.91598714    154.879824    0.00000    0.58986   -0.55276    6    diag
    8      0.196D-03      0.261D-04      -129.91598776    154.879098    0.00000    0.58987   -0.55187    7    diag
    9      0.710D-04      0.478D-05      -129.91598779    154.878971    0.00000    0.58981   -0.55169    8    diag
   10      0.139D-04      0.103D-05      -129.91598779    154.878953    0.00000    0.58978   -0.55167    9    orth
   11      0.293D-05      0.201D-06      -129.91598779    154.878950    0.00000    0.58977   -0.55167    9    diag
   12      0.522D-06      0.433D-07      -129.91598779    154.878948    0.00000    0.58977   -0.55167    9    diag
   13      0.114D-06      0.112D-07      -129.91598779    154.878948    0.00000    0.58977   -0.55167    9    diag
   14      0.293D-07      0.206D-08      -129.91598779    154.878948    0.00000    0.58977   -0.55167    9    diag
   15      0.436D-08      0.534D-09      -129.91598779    154.878948    0.00000    0.58977   -0.55167    9    diag
   16      0.114D-08      0.139D-09      -129.91598779    154.878948    0.00000    0.58977   -0.55167    9    diag
   17      0.202D-09      0.408D-10      -129.91598779    154.878948    0.00000    0.58977   -0.55167    9    diag
   18      0.683D-10      0.144D-10      -129.91598779    154.878948    0.00000    0.58977   -0.55167    0    orth

 Final occupancy:   7   1

 !RHF STATE 1.1 Energy               -129.915987786879
 Nuclear energy                        30.15296956
 One-electron energy                 -237.50843137
 Two-electron energy                   77.43947402
 Virial quotient                       -0.99779135
 !RHF STATE 1.1 Dipole moment           0.00000000     0.58977049    -0.55166623
 Dipole moment /Debye                   0.00000000     1.49894888    -1.40210385

 Orbital energies:

         1.1          2.1          3.1          4.1          5.1          6.1          7.1          8.1          9.1
    -20.666122   -15.717254    -1.517847    -0.997825    -0.740635    -0.658551    -0.430284     0.143855     0.367890

         1.2          2.2          3.2
     -0.586223     0.082168     0.614396

 HOMO      7.1    -0.430284 =     -11.7086eV
 LUMO      2.2     0.082168 =       2.2359eV
 LUMO-HOMO         0.512452 =      13.9445eV


 **********************************************************************************************************************************
 DATASETS  * FILE   NREC   LENGTH (MB)   RECORD NAMES
              1      23       36.03       500      610      700      900      950      970     1000      129      960     1700   
                                          VAR    BASINP    GEOM    SYMINP    ZMAT    AOBASIS   BASIS     P2S    ABASIS    OPER   
                                         1101     1401     1411     1412     1650     1100     1400     1410     1200     1210   
                                          SR      EKINR    POTR     PVPR    MOLCAS      S      EKIN      POT      H0       H01  
                                         1300     1080     1600   
                                         ERIS     AOSYM     SMH  

              2       4        2.85       700     1000      520     2100   
                                         GEOM     BASIS   MCVARS     RHF  

 PROGRAMS   *        TOTAL        HF       INT
 CPU TIMES  *         0.85      0.19      0.56
 REAL TIME  *         1.51 SEC
 DISK USED  *        75.75 MB      
 **********************************************************************************************************************************


 PROGRAM * CCSD (Closed-shell coupled cluster)     Authors: C. Hampel, H.-J. Werner, 1991, M. Deegan, P.J. Knowles, 1992


 Convergence thresholds:  THRVAR = 1.00D-08  THRDEN = 1.00D-12

 CCSD(T)     terms to be evaluated (factor= 1.000)


 Number of core orbitals:           2 (   2   0 )
 Number of closed-shell orbitals:   6 (   5   1 )
 Number of external orbitals:      66 (  43  23 )

 Molecular orbitals read from record     2100.2  Type=RHF/CANONICAL (state 1.1)

 Number of N-1 electron functions:               6
 Number of N-2 electron functions:              21
 Number of singly external CSFs:               238
 Number of doubly external CSFs:             41002
 Total number of CSFs:                       41241

 Length of J-op  integral file:               0.00 MB
 Length of K-op  integral file:               0.25 MB
 Length of 3-ext integral record:             0.00 MB

 Memory could be reduced to 1.65 Mwords without degradation in triples

 Integral transformation finished. Total CPU:   0.02 sec, npass=  1  Memory used:   0.55 MW

 Reference energy:                   -129.91598779

 MP2 singlet pair energy:              -0.27476016
 MP2 triplet pair energy:              -0.16325847
 MP2 correlation energy:               -0.43801862
 MP2 total energy:                   -130.35400641

 SCS-MP2 correlation energy:           -0.43129523   (PS=  1.200000  PT=  0.333333)
 SCS-MP2 total energy:               -130.34728302

 ITER.      SQ.NORM     CORR.ENERGY   TOTAL ENERGY   ENERGY CHANGE        DEN1      VAR(S)    VAR(P)  DIIS     TIME  TIME/IT
   1      1.11940423    -0.44267335  -130.35866114    -0.00465473     0.01155531  0.31D-02  0.31D-02  1  1     0.08     0.05
   2      1.13048387    -0.44283538  -130.35882316    -0.00016203    -0.01252386  0.94D-04  0.52D-03  2  2     0.11     0.04
   3      1.13696022    -0.44323341  -130.35922120    -0.00039803    -0.00303678  0.49D-04  0.53D-04  3  3     0.14     0.04
   4      1.13989393    -0.44326170  -130.35924949    -0.00002829    -0.00099160  0.42D-05  0.94D-05  4  4     0.18     0.04
   5      1.14095220    -0.44329275  -130.35928053    -0.00003105    -0.00021902  0.14D-05  0.17D-05  5  5     0.21     0.04
   6      1.14132640    -0.44327487  -130.35926266     0.00001787    -0.00004293  0.90D-07  0.43D-06  6  6     0.25     0.04
   7      1.14141140    -0.44327732  -130.35926511    -0.00000245    -0.00000158  0.10D-07  0.95D-07  6  1     0.29     0.04
   8      1.14144198    -0.44327724  -130.35926503     0.00000008     0.00000210  0.50D-08  0.12D-07  6  2     0.32     0.04
   9      1.14145010    -0.44327705  -130.35926483     0.00000020    -0.00000241  0.27D-08  0.13D-08  6  3     0.36     0.04
  10      1.14144873    -0.44327758  -130.35926536    -0.00000053     0.00000069  0.52D-09  0.23D-09  6  4     0.39     0.04
  11      1.14144701    -0.44327764  -130.35926542    -0.00000006     0.00000015  0.15D-09  0.24D-10  6  5     0.43     0.04
  12      1.14144559    -0.44327782  -130.35926561    -0.00000019     0.00000045  0.15D-10  0.77D-11  6  6     0.46     0.04
  13      1.14144497    -0.44327783  -130.35926562    -0.00000001     0.00000013  0.64D-11  0.13D-11  6  1     0.50     0.04
  14      1.14144457    -0.44327785  -130.35926564    -0.00000002     0.00000008  0.91D-12  0.46D-12  6  2     0.54     0.04
  15      1.14144442    -0.44327785  -130.35926564    -0.00000000     0.00000002  0.24D-12  0.15D-12  6  3     0.57     0.04
  16      1.14144433    -0.44327786  -130.35926564    -0.00000000     0.00000001  0.16D-13  0.56D-13  6  4     0.61     0.04
  17      1.14144429    -0.44327786  -130.35926565    -0.00000000     0.00000001  0.26D-14  0.13D-13  6  5     0.64     0.04
  18      1.14144428    -0.44327786  -130.35926565     0.00000000     0.00000000  0.18D-14  0.34D-14  6  6     0.68     0.04
  19      1.14144427    -0.44327786  -130.35926565     0.00000000    -0.00000000  0.85D-15  0.39D-15  6  1     0.71     0.04
  20      1.14144427    -0.44327786  -130.35926565     0.00000000    -0.00000000  0.70D-16  0.70D-16  6  2     0.75     0.04
  21      1.14144427    -0.44327786  -130.35926565    -0.00000000     0.00000000  0.39D-16  0.12D-16  6  3     0.78     0.04
  22      1.14144427    -0.44327786  -130.35926565     0.00000000     0.00000000  0.67D-17  0.24D-17  6  4     0.82     0.04
  23      1.14144427    -0.44327786  -130.35926565    -0.00000000     0.00000000  0.25D-17  0.40D-18  6  5     0.85     0.04
  24      1.14144427    -0.44327786  -130.35926565    -0.00000000    -0.00000000  0.26D-18  0.11D-18  6  6     0.88     0.04
  25      1.14144427    -0.44327786  -130.35926565     0.00000000    -0.00000000  0.72D-19  0.27D-19  6  2     0.92     0.04
  26      1.14144427    -0.44327786  -130.35926565     0.00000000    -0.00000000  0.17D-20  0.23D-20  6  1     0.96     0.04
  27      1.14144427    -0.44327786  -130.35926565     0.00000000    -0.00000000  0.35D-21  0.73D-21  6  3     1.00     0.04

 Norm of t1 vector:      0.07659824      S-energy:     0.00000000      T1 diagnostic:  0.01563555
                                                                       D1 diagnostic:  0.04400881

 Doubles amplitudes (print threshold =  0.500E-01):

         I         J         SYM. A    SYM. B    A         B      T(IJ, AB)

         6         6         2         2         1         1     -0.14711211


 Total CPU time for triples:      0.23 sec


 RESULTS
 =======

  Reference energy                   -129.915987786878
  CCSD singlet pair energy             -0.304152307793
  CCSD triplet pair energy             -0.139125551244
  CCSD correlation energy              -0.443277859034

  Triples (T) contribution             -0.020087580836
  Total correlation energy             -0.463365439869

  CCSD total energy                  -130.359265645912
  CCSD[T] energy                     -130.380415855164
  CCSD-T energy                      -130.378945820973
 !CCSD(T) total energy               -130.379353226748

 Timing summary (sec):

 STEP                 CPU(USER)    SYS     CPU(TOT)    WALL
 Transformation          0.02      0.01      0.03      0.05
 CCSD iterations         0.98      0.12      1.10      1.10
 Triples                 0.23      0.02      0.25      0.25

 Program statistics:

 Available memory in ccsd:               994999756
 Min. memory needed in ccsd:                154850
 Max. memory used in ccsd:                  184802
 Max. memory used in cckext:                238416 (27 integral passes)



 **********************************************************************************************************************************
 DATASETS  * FILE   NREC   LENGTH (MB)   RECORD NAMES
              1      24       40.41       500      610      700      900      950      970     1000      129      960     1700   
                                          VAR    BASINP    GEOM    SYMINP    ZMAT    AOBASIS   BASIS     P2S    ABASIS    OPER   
                                         1101     1401     1411     1412     1650     1100     1400     1410     1200     1210   
                                          SR      EKINR    POTR     PVPR    MOLCAS      S      EKIN      POT      H0       H01  
                                         1300     1080     1600     1380   
                                         ERIS     AOSYM     SMH     JKOP   

              2       4        2.85       700     1000      520     2100   
                                         GEOM     BASIS   MCVARS     RHF  

 PROGRAMS   *        TOTAL   CCSD(T)        HF       INT
 CPU TIMES  *         2.11      1.26      0.19      0.56
 REAL TIME  *         2.94 SEC
 DISK USED  *        75.75 MB      
 **********************************************************************************************************************************

 CCSD(T)/cc-pVTZ-DK energy=   -130.379353226748

        CCSD(T)         HF-SCF  
   -130.37935323   -129.91598779
 **********************************************************************************************************************************
 Molpro calculation terminated
 Variable memory released
