
 Primary working directories    : /tmp/r2666/235268.maple
 Secondary working directories  : /tmp/r2666/235268.maple
 Wavefunction directory         : /ddn/home4/r2666/wfu/
 Main file repository           : /tmp/r2666/235268.maple/

 SHA1      : d5ffa45e93fdbca01ffc919aa182cfdae0147319
 NAME      : 2015.1.35
 ARCHNAME  : linux/x86_64
 FC        : /opt/intel/composer_xe_2015.1.133/bin/intel64/ifort
 BLASLIB   : -Wl,-_start-group /opt/intel/mkl/lib/intel64/libmkl_intel_ilp64.a /opt/intel/mkl/lib/intel64/libmkl_intel_thread.a /opt/intel/mkl/lib/intel64/libmkl_core.a -Wl,-_end-group
 id        : olemiss

 Nodes     nprocs
 cn030        1

 Using customized tuning parameters: mindgm=1; mindgv=20; mindgc=4; mindgr=1; noblas=0; minvec=7
 default implementation of scratch files=df  

 ***,hno CCSD(T)/TZ-F12 QFF
 memory, 995, m;
 gthresh,energy=1.d-12,zero=1.d-22,oneint=1.d-22,twoint=1.d-22;
 gthresh,optgrad=1.d-8,optstep=1.d-8;
 nocompress;
 geomtyp=xyz
 bohr
 geometry={
 3
        123       123
 N        0.0000000000       -0.1693794287       -1.1488679041
 H        0.0000000000        1.6766636941       -1.9362607852
 O        0.0000000000        0.0344835246        1.1345390983
 }
 
 basis=vtz-dk
 dkroll=1
   {hf,maxit=500;accu,20;}
 {ccsd(t),nocheck,maxit=250;orbital,IGNORE_ERROR;}

 Variables initialized (889), CPU time= 0.00 sec
 Commands  initialized (702), CPU time= 0.01 sec, 572 directives.
 Default parameters read. Elapsed time= 0.05 sec

 Checking input...
 Passed
1


                                         ***  PROGRAM SYSTEM MOLPRO  ***
                                       Copyright, TTI GmbH Stuttgart, 2015
                                    Version 2015.1 linked Jul  9 2018 13:16:40


 **********************************************************************************************************************************
 LABEL *   hno CCSD(T)/TZ-F12 QFF                                                        
  64 bit serial version                                                                  DATE: 08-Feb-20          TIME: 17:57:25  
 **********************************************************************************************************************************

 SHA1:             d5ffa45e93fdbca01ffc919aa182cfdae0147319
 **********************************************************************************************************************************

 THRESHOLDS:

 ZERO    =  1.00D-22  ONEINT  =  1.00D-22  TWOINT  =  1.00D-22  PREFAC  =  1.00D-14  LOCALI  =  1.00D-09  EORDER  =  1.00D-04
 ENERGY  =  1.00D-12  ETEST   =  0.00D+00  EDENS   =  0.00D+00  THRDEDEF=  1.00D-06  GRADIENT=  1.00D-02  STEP    =  1.00D-03
 ORBITAL =  1.00D-05  CIVEC   =  1.00D-05  COEFF   =  1.00D-04  PRINTCI =  5.00D-02  PUNCHCI =  9.90D+01  OPTGRAD =  3.00D-04
 OPTENERG=  1.00D-06  OPTSTEP =  3.00D-04  THRGRAD =  1.00D-10  COMPRESS=  1.00D-11  VARMIN  =  1.00D-07  VARMAX  =  1.00D-03
 THRDOUB =  0.00D+00  THRDIV  =  1.00D-05  THRRED  =  1.00D-07  THRPSP  =  1.00D+00  THRDC   =  1.00D-10  THRCS   =  1.00D-10
 THRNRM  =  1.00D-08  THREQ   =  0.00D+00  THRDE   =  1.00D+00  THRREF  =  1.00D-05  SPARFAC =  1.00D+00  THRDLP  =  1.00D-07
 THRDIA  =  1.00D-10  THRDLS  =  1.00D-07  THRGPS  =  0.00D+00  THRKEX  =  0.00D+00  THRDIS  =  2.00D-01  THRVAR  =  1.00D-10
 THRLOC  =  1.00D-06  THRGAP  =  1.00D-06  THRLOCT = -1.00D+00  THRGAPT = -1.00D+00  THRORB  =  1.00D-06  THRMLTP =  0.00D+00
 THRCPQCI=  1.00D-10  KEXTA   =  0.00D+00  THRCOARS=  0.00D+00  SYMTOL  =  1.00D-06  GRADTOL =  1.00D-06  THROVL  =  1.00D-08
 THRORTH =  1.00D-08  GRID    =  1.00D-06  GRIDMAX =  1.00D-03  DTMAX   =  0.00D+00  THROCCDE=  1.00D-01  THROCCDE=  1.00D-01



 THRESHOLDS:

 ZERO    =  1.00D-22  ONEINT  =  1.00D-22  TWOINT  =  1.00D-22  PREFAC  =  1.00D-14  LOCALI  =  1.00D-09  EORDER  =  1.00D-04
 ENERGY  =  1.00D-12  ETEST   =  0.00D+00  EDENS   =  0.00D+00  THRDEDEF=  1.00D-06  GRADIENT=  1.00D-02  STEP    =  1.00D-03
 ORBITAL =  1.00D-05  CIVEC   =  1.00D-05  COEFF   =  1.00D-04  PRINTCI =  5.00D-02  PUNCHCI =  9.90D+01  OPTGRAD =  1.00D-08
 OPTENERG=  1.00D-06  OPTSTEP =  1.00D-08  THRGRAD =  1.00D-10  COMPRESS=  1.00D-11  VARMIN  =  1.00D-07  VARMAX  =  1.00D-03
 THRDOUB =  0.00D+00  THRDIV  =  1.00D-05  THRRED  =  1.00D-07  THRPSP  =  1.00D+00  THRDC   =  1.00D-10  THRCS   =  1.00D-10
 THRNRM  =  1.00D-08  THREQ   =  0.00D+00  THRDE   =  1.00D+00  THRREF  =  1.00D-05  SPARFAC =  1.00D+00  THRDLP  =  1.00D-07
 THRDIA  =  1.00D-10  THRDLS  =  1.00D-07  THRGPS  =  0.00D+00  THRKEX  =  0.00D+00  THRDIS  =  2.00D-01  THRVAR  =  1.00D-10
 THRLOC  =  1.00D-06  THRGAP  =  1.00D-06  THRLOCT = -1.00D+00  THRGAPT = -1.00D+00  THRORB  =  1.00D-06  THRMLTP =  0.00D+00
 THRCPQCI=  1.00D-10  KEXTA   =  0.00D+00  THRCOARS=  0.00D+00  SYMTOL  =  1.00D-06  GRADTOL =  1.00D-06  THROVL  =  1.00D-08
 THRORTH =  1.00D-08  GRID    =  1.00D-06  GRIDMAX =  1.00D-03  DTMAX   =  0.00D+00  THROCCDE=  1.00D-01  THROCCDE=  1.00D-01



 Input parameters for SORTINT:

 COMPRESS =    0.000000
 C_FINAL  =    1.000000
 DEBUG    =   -1.000000
 C_SORT1  =    0.000000
 C_SEWARD =    0.000000
 THRESH   =    0.000000
 IO       =  molpro                                                          
 SPRI     =    0.000000
 SETTING GEOMTYP        =    XYZ
 ZUNIT=BOHR
 

 Variable memory set to  995000000 words,  buffer space   230000 words

 SETTING BASIS          =    VTZ-DK
 SETTING DKROLL         =         1.00000000                                  


 Recomputing integrals since basis changed


 Using spherical harmonics

 Library entry N      S cc-pVTZ-DK           selected for orbital group  1
 Library entry N      P cc-pVTZ-DK           selected for orbital group  1
 Library entry N      D cc-pVTZ-DK           selected for orbital group  1
 Library entry N      F cc-pVTZ-DK           selected for orbital group  1
 Library entry H      S cc-pVTZ-DK           selected for orbital group  2
 Library entry H      P cc-pVTZ-DK           selected for orbital group  2
 Library entry H      D cc-pVTZ-DK           selected for orbital group  2
 Library entry O      S cc-pVTZ-DK           selected for orbital group  3
 Library entry O      P cc-pVTZ-DK           selected for orbital group  3
 Library entry O      D cc-pVTZ-DK           selected for orbital group  3
 Library entry O      F cc-pVTZ-DK           selected for orbital group  3


 PROGRAM * SEWARD (Integral evaluation for generally contracted gaussian basis sets)     Author: Roland Lindh, 1990

 Geometry written to block  1 of record 700


 Point group  Cs  



 ATOMIC COORDINATES

 NR  ATOM    CHARGE       X              Y              Z

   1  N       7.00    0.000000000   -0.169379429   -1.148867904
   2  H       1.00    0.000000000    1.676663694   -1.936260785
   3  O       8.00    0.000000000    0.034483525    1.134539098

 Bond lengths in Bohr (Angstrom)

 1-2  2.006953602  1-3  2.292489399
     ( 1.062034110)     ( 1.213133146)

 Bond angles

  2-1-3  107.99785509

 NUCLEAR CHARGE:                   16
 NUMBER OF PRIMITIVE AOS:         111
 NUMBER OF SYMMETRY AOS:          100
 NUMBER OF CONTRACTIONS:           74   (  50A'  +  24A"  )
 NUMBER OF CORE ORBITALS:           2   (   2A'  +   0A"  )
 NUMBER OF VALENCE ORBITALS:        9   (   7A'  +   2A"  )


 NUCLEAR REPULSION ENERGY   30.21278484

 One-electron integrals computed with SEWARD

 2nd-order Douglas-Kroll-Hess method activated. Optimal DKH parametrization is used.

 Computing Douglas-Kroll / X2C integrals


        1874283. INTEGRALS WRITTEN OUT IN     458 BLOCKS ON RECORD 1290 OF FILE 1


 NUMBER OF SORTED TWO-ELECTRON INTEGRALS:    2006100.     BUFFER LENGTH:  32768
 NUMBER OF SEGMENTS:   1  SEGMENT LENGTH:    2006100      RECORD LENGTH: 524288

 Memory used in sort:       2.56 MW

 SORT1 READ     1874283. AND WROTE     1914195. INTEGRALS IN      6 RECORDS. CPU TIME:     0.04 SEC, REAL TIME:     0.06 SEC
 SORT2 READ     1914195. AND WROTE     2006100. INTEGRALS IN      1 RECORDS. CPU TIME:     0.04 SEC, REAL TIME:     0.06 SEC

 FILE SIZES:   FILE 1:    50.2 MBYTE,  FILE 4:    25.2 MBYTE,   TOTAL:     75.4 MBYTE

 OPERATOR DM      FOR CENTER  0  COORDINATES:    0.000000    0.000000    0.000000

 Eigenvalues of metric

         1 0.250E-02 0.403E-02 0.423E-02 0.857E-02 0.132E-01 0.332E-01 0.429E-01 0.465E-01
         2 0.346E-01 0.467E-01 0.103E+00 0.115E+00 0.238E+00 0.346E+00 0.398E+00 0.452E+00


 **********************************************************************************************************************************
 DATASETS  * FILE   NREC   LENGTH (MB)   RECORD NAMES
              1      23       36.03       500      610      700      900      950      970     1000      129      960     1700   
                                          VAR    BASINP    GEOM    SYMINP    ZMAT    AOBASIS   BASIS     P2S    ABASIS    OPER   
                                         1101     1401     1411     1412     1650     1100     1400     1410     1200     1210   
                                          SR      EKINR    POTR     PVPR    MOLCAS      S      EKIN      POT      H0       H01  
                                         1300     1080     1600   
                                         ERIS     AOSYM     SMH  

 PROGRAMS   *        TOTAL       INT
 CPU TIMES  *         0.64      0.55
 REAL TIME  *         1.29 SEC
 DISK USED  *        75.75 MB      
 **********************************************************************************************************************************


 PROGRAM * RHF-SCF (CLOSED SHELL)       Authors: W. Meyer, H.-J. Werner


 NUMBER OF ELECTRONS:       8+    8-
 CONVERGENCE THRESHOLDS:    1.00E-10 (Density)    1.00E-13 (Energy)
 MAX. NUMBER OF ITERATIONS:      500
 INTERPOLATION TYPE:            DIIS
 INTERPOLATION STEPS:              2 (START)      1 (STEP)
 LEVEL SHIFTS:                  0.00 (CLOSED)  0.00 (OPEN) 



 Orbital guess generated from atomic densities. Full valence occupancy:    9   2

 Molecular orbital dump at record        2100.2

 Initial occupancy:   7   1

 ITERATION    DDIFF          GRAD             ENERGY        2-EL.EN.            DIPOLE MOMENTS         DIIS   ORB.
    1      0.000D+00      0.000D+00      -129.86515942    153.938889    0.00000    0.58470   -1.05787    0    start
    2      0.000D+00      0.137D-01      -129.89169776    155.049658    0.00000    0.61735   -0.21263    1    diag
    3      0.188D-01      0.107D-01      -129.91548200    155.188309    0.00000    0.56126   -0.60612    2    diag
    4      0.923D-02      0.156D-02      -129.91622857    154.917930    0.00000    0.56961   -0.54606    3    diag
    5      0.166D-02      0.521D-03      -129.91634689    155.004692    0.00000    0.57509   -0.54700    4    diag
    6      0.727D-03      0.156D-03      -129.91636668    154.989489    0.00000    0.57559   -0.54267    5    diag
    7      0.283D-03      0.787D-04      -129.91637257    154.991763    0.00000    0.57682   -0.54007    6    diag
    8      0.197D-03      0.258D-04      -129.91637317    154.991040    0.00000    0.57684   -0.53922    7    diag
    9      0.690D-04      0.472D-05      -129.91637319    154.990915    0.00000    0.57679   -0.53905    8    diag
   10      0.135D-04      0.103D-05      -129.91637319    154.990897    0.00000    0.57675   -0.53903    9    orth
   11      0.288D-05      0.202D-06      -129.91637319    154.990892    0.00000    0.57674   -0.53902    9    diag
   12      0.526D-06      0.428D-07      -129.91637319    154.990891    0.00000    0.57674   -0.53902    9    diag
   13      0.117D-06      0.109D-07      -129.91637319    154.990891    0.00000    0.57674   -0.53902    9    diag
   14      0.298D-07      0.195D-08      -129.91637319    154.990891    0.00000    0.57674   -0.53902    9    diag
   15      0.457D-08      0.493D-09      -129.91637319    154.990891    0.00000    0.57674   -0.53902    9    diag
   16      0.110D-08      0.114D-09      -129.91637319    154.990891    0.00000    0.57674   -0.53902    9    diag
   17      0.175D-09      0.313D-10      -129.91637319    154.990891    0.00000    0.57674   -0.53902    9    diag
   18      0.498D-10      0.100D-10      -129.91637319    154.990891    0.00000    0.57674   -0.53902    9    diag
   19      0.207D-10      0.187D-11      -129.91637319    154.990891    0.00000    0.57674   -0.53902    9    fixocc
   20      0.435D-11      0.246D-12      -129.91637319    154.990891    0.00000    0.57674   -0.53902    9    orth
   21      0.553D-12      0.737D-13      -129.91637319    154.990891    0.00000    0.57674   -0.53902    9    diag
   22      0.186D-12      0.293D-13      -129.91637319    154.990891    0.00000    0.57674   -0.53902    9    diag
   23      0.650D-13      0.295D-13      -129.91637319    154.990891    0.00000    0.57674   -0.53902    9    diag
   24      0.300D-13      0.252D-13      -129.91637319    154.990891    0.00000    0.57674   -0.53902    0    orth

 Final occupancy:   7   1

 !RHF STATE 1.1 Energy               -129.916373190677
 Nuclear energy                        30.21278484
 One-electron energy                 -237.62460330
 Two-electron energy                   77.49544527
 Virial quotient                       -0.99782164
 !RHF STATE 1.1 Dipole moment           0.00000000     0.57674033    -0.53902187
 Dipole moment /Debye                   0.00000000     1.46583170    -1.36996721

 Orbital energies:

         1.1          2.1          3.1          4.1          5.1          6.1          7.1          8.1          9.1
    -20.665710   -15.719102    -1.523181    -0.990796    -0.740375    -0.660238    -0.427863     0.143110     0.368881

         1.2          2.2          3.2
     -0.589593     0.084566     0.613574

 HOMO      7.1    -0.427863 =     -11.6427eV
 LUMO      2.2     0.084566 =       2.3012eV
 LUMO-HOMO         0.512429 =      13.9439eV


 **********************************************************************************************************************************
 DATASETS  * FILE   NREC   LENGTH (MB)   RECORD NAMES
              1      23       36.03       500      610      700      900      950      970     1000      129      960     1700   
                                          VAR    BASINP    GEOM    SYMINP    ZMAT    AOBASIS   BASIS     P2S    ABASIS    OPER   
                                         1101     1401     1411     1412     1650     1100     1400     1410     1200     1210   
                                          SR      EKINR    POTR     PVPR    MOLCAS      S      EKIN      POT      H0       H01  
                                         1300     1080     1600   
                                         ERIS     AOSYM     SMH  

              2       4        2.85       700     1000      520     2100   
                                         GEOM     BASIS   MCVARS     RHF  

 PROGRAMS   *        TOTAL        HF       INT
 CPU TIMES  *         0.92      0.28      0.55
 REAL TIME  *         1.66 SEC
 DISK USED  *        75.75 MB      
 **********************************************************************************************************************************


 PROGRAM * CCSD (Closed-shell coupled cluster)     Authors: C. Hampel, H.-J. Werner, 1991, M. Deegan, P.J. Knowles, 1992


 Convergence thresholds:  THRVAR = 1.00D-08  THRDEN = 1.00D-12

 CCSD(T)     terms to be evaluated (factor= 1.000)


 Number of core orbitals:           2 (   2   0 )
 Number of closed-shell orbitals:   6 (   5   1 )
 Number of external orbitals:      66 (  43  23 )

 Molecular orbitals read from record     2100.2  Type=RHF/CANONICAL (state 1.1)

 Number of N-1 electron functions:               6
 Number of N-2 electron functions:              21
 Number of singly external CSFs:               238
 Number of doubly external CSFs:             41002
 Total number of CSFs:                       41241

 Length of J-op  integral file:               0.00 MB
 Length of K-op  integral file:               0.25 MB
 Length of 3-ext integral record:             0.00 MB

 Memory could be reduced to 1.65 Mwords without degradation in triples

 Integral transformation finished. Total CPU:   0.02 sec, npass=  1  Memory used:   0.55 MW

 Reference energy:                   -129.91637319

 MP2 singlet pair energy:              -0.27455545
 MP2 triplet pair energy:              -0.16308418
 MP2 correlation energy:               -0.43763963
 MP2 total energy:                   -130.35401282

 SCS-MP2 correlation energy:           -0.43094114   (PS=  1.200000  PT=  0.333333)
 SCS-MP2 total energy:               -130.34731433

 ITER.      SQ.NORM     CORR.ENERGY   TOTAL ENERGY   ENERGY CHANGE        DEN1      VAR(S)    VAR(P)  DIIS     TIME  TIME/IT
   1      1.11936154    -0.44249031  -130.35886350    -0.00485068     0.01124637  0.30D-02  0.31D-02  1  1     0.08     0.05
   2      1.13039896    -0.44269602  -130.35906921    -0.00020571    -0.01246648  0.92D-04  0.52D-03  2  2     0.13     0.05
   3      1.13684954    -0.44309630  -130.35946949    -0.00040028    -0.00303700  0.50D-04  0.52D-04  3  3     0.17     0.05
   4      1.13973531    -0.44312212  -130.35949531    -0.00002582    -0.00098197  0.43D-05  0.92D-05  4  4     0.23     0.05
   5      1.14077687    -0.44315320  -130.35952639    -0.00003108    -0.00021612  0.15D-05  0.17D-05  5  5     0.27     0.05
   6      1.14114773    -0.44313578  -130.35950897     0.00001742    -0.00004236  0.11D-06  0.40D-06  6  6     0.32     0.05
   7      1.14123448    -0.44313772  -130.35951091    -0.00000194    -0.00000199  0.13D-07  0.88D-07  6  1     0.36     0.05
   8      1.14126578    -0.44313763  -130.35951082     0.00000009     0.00000176  0.42D-08  0.11D-07  6  2     0.41     0.05
   9      1.14127405    -0.44313737  -130.35951057     0.00000025    -0.00000225  0.26D-08  0.13D-08  6  3     0.46     0.05
  10      1.14127286    -0.44313790  -130.35951109    -0.00000053     0.00000060  0.50D-09  0.22D-09  6  4     0.52     0.05
  11      1.14127109    -0.44313796  -130.35951115    -0.00000006     0.00000020  0.15D-09  0.24D-10  6  5     0.56     0.05
  12      1.14126965    -0.44313814  -130.35951134    -0.00000019     0.00000045  0.16D-10  0.80D-11  6  6     0.60     0.05
  13      1.14126900    -0.44313815  -130.35951134    -0.00000001     0.00000013  0.70D-11  0.13D-11  6  1     0.65     0.05
  14      1.14126859    -0.44313817  -130.35951136    -0.00000002     0.00000008  0.10D-11  0.45D-12  6  2     0.70     0.05
  15      1.14126843    -0.44313818  -130.35951137    -0.00000000     0.00000001  0.26D-12  0.14D-12  6  3     0.75     0.05
  16      1.14126831    -0.44313818  -130.35951137    -0.00000000     0.00000002  0.79D-14  0.37D-13  6  1     0.80     0.05
  17      1.14126830    -0.44313818  -130.35951137     0.00000000    -0.00000000  0.30D-14  0.25D-14  6  4     0.85     0.05
  18      1.14126829    -0.44313818  -130.35951137    -0.00000000     0.00000000  0.71D-15  0.44D-15  6  5     0.90     0.05
  19      1.14126829    -0.44313818  -130.35951137     0.00000000    -0.00000000  0.14D-15  0.85D-16  6  6     0.94     0.05
  20      1.14126829    -0.44313818  -130.35951137    -0.00000000     0.00000000  0.22D-16  0.21D-16  6  2     0.99     0.05
  21      1.14126829    -0.44313818  -130.35951137    -0.00000000     0.00000000  0.57D-18  0.15D-17  6  4     1.04     0.05
  22      1.14126829    -0.44313818  -130.35951137    -0.00000000     0.00000000  0.93D-19  0.15D-18  6  3     1.09     0.05
  23      1.14126829    -0.44313818  -130.35951137    -0.00000000     0.00000000  0.84D-20  0.15D-19  6  1     1.14     0.05
  24      1.14126829    -0.44313818  -130.35951137     0.00000000     0.00000000  0.45D-20  0.19D-20  6  6     1.19     0.05
  25      1.14126829    -0.44313818  -130.35951137     0.00000000    -0.00000000  0.28D-21  0.46D-21  6  4     1.23     0.05

 Norm of t1 vector:      0.07636694      S-energy:    -0.00000000      T1 diagnostic:  0.01558834
                                                                       D1 diagnostic:  0.04314098

 Doubles amplitudes (print threshold =  0.500E-01):

         I         J         SYM. A    SYM. B    A         B      T(IJ, AB)

         6         6         2         2         1         1     -0.14507126


 Total CPU time for triples:      0.35 sec


 RESULTS
 =======

  Reference energy                   -129.916373190677
  CCSD singlet pair energy             -0.304020976208
  CCSD triplet pair energy             -0.139117203393
  CCSD correlation energy              -0.443138179602

  Triples (T) contribution             -0.020012513184
  Total correlation energy             -0.463150692785

  CCSD total energy                  -130.359511370278
  CCSD[T] energy                     -130.380575472602
  CCSD-T energy                      -130.379116141669
 !CCSD(T) total energy               -130.379523883462

 Timing summary (sec):

 STEP                 CPU(USER)    SYS     CPU(TOT)    WALL
 Transformation          0.03      0.02      0.05      0.06
 CCSD iterations         1.20      0.10      1.30      1.32
 Triples                 0.35      0.02      0.37      0.36

 Program statistics:

 Available memory in ccsd:               994999756
 Min. memory needed in ccsd:                154850
 Max. memory used in ccsd:                  184802
 Max. memory used in cckext:                238416 (25 integral passes)



 **********************************************************************************************************************************
 DATASETS  * FILE   NREC   LENGTH (MB)   RECORD NAMES
              1      24       40.41       500      610      700      900      950      970     1000      129      960     1700   
                                          VAR    BASINP    GEOM    SYMINP    ZMAT    AOBASIS   BASIS     P2S    ABASIS    OPER   
                                         1101     1401     1411     1412     1650     1100     1400     1410     1200     1210   
                                          SR      EKINR    POTR     PVPR    MOLCAS      S      EKIN      POT      H0       H01  
                                         1300     1080     1600     1380   
                                         ERIS     AOSYM     SMH     JKOP   

              2       4        2.85       700     1000      520     2100   
                                         GEOM     BASIS   MCVARS     RHF  

 PROGRAMS   *        TOTAL   CCSD(T)        HF       INT
 CPU TIMES  *         2.53      1.60      0.28      0.55
 REAL TIME  *         3.44 SEC
 DISK USED  *        75.75 MB      
 **********************************************************************************************************************************

 CCSD(T)/cc-pVTZ-DK energy=   -130.379523883462

        CCSD(T)         HF-SCF  
   -130.37952388   -129.91637319
 **********************************************************************************************************************************
 Molpro calculation terminated
 Variable memory released
