
 Primary working directories    : /tmp/r2666/235207.maple
 Secondary working directories  : /tmp/r2666/235207.maple
 Wavefunction directory         : /ddn/home4/r2666/wfu/
 Main file repository           : /tmp/r2666/235207.maple/

 SHA1      : d5ffa45e93fdbca01ffc919aa182cfdae0147319
 NAME      : 2015.1.35
 ARCHNAME  : linux/x86_64
 FC        : /opt/intel/composer_xe_2015.1.133/bin/intel64/ifort
 BLASLIB   : -Wl,-_start-group /opt/intel/mkl/lib/intel64/libmkl_intel_ilp64.a /opt/intel/mkl/lib/intel64/libmkl_intel_thread.a /opt/intel/mkl/lib/intel64/libmkl_core.a -Wl,-_end-group
 id        : olemiss

 Nodes     nprocs
 cn037        1

 Using customized tuning parameters: mindgm=1; mindgv=20; mindgc=4; mindgr=1; noblas=0; minvec=7
 default implementation of scratch files=df  

 ***,hno CCSD(T)/TZ-F12 QFF
 memory, 995, m;
 gthresh,energy=1.d-12,zero=1.d-22,oneint=1.d-22,twoint=1.d-22;
 gthresh,optgrad=1.d-8,optstep=1.d-8;
 nocompress;
 geomtyp=xyz
 bohr
 geometry={
 3
         62        62
 N        0.0000000000       -0.1493853931       -1.1250058691
 H        0.0000000000        1.6645718866       -1.9385948359
 O        0.0000000000        0.0265812965        1.1130111140
 }
 
 basis=vtz-dk
 dkroll=1
   {hf,maxit=500;accu,20;}
 {ccsd(t),nocheck,maxit=250;orbital,IGNORE_ERROR;}

 Variables initialized (889), CPU time= 0.00 sec
 Commands  initialized (702), CPU time= 0.01 sec, 572 directives.
 Default parameters read. Elapsed time= 0.05 sec

 Checking input...
 Passed
1


                                         ***  PROGRAM SYSTEM MOLPRO  ***
                                       Copyright, TTI GmbH Stuttgart, 2015
                                    Version 2015.1 linked Jul  9 2018 13:16:40


 **********************************************************************************************************************************
 LABEL *   hno CCSD(T)/TZ-F12 QFF                                                        
  64 bit serial version                                                                  DATE: 08-Feb-20          TIME: 17:57:19  
 **********************************************************************************************************************************

 SHA1:             d5ffa45e93fdbca01ffc919aa182cfdae0147319
 **********************************************************************************************************************************

 THRESHOLDS:

 ZERO    =  1.00D-22  ONEINT  =  1.00D-22  TWOINT  =  1.00D-22  PREFAC  =  1.00D-14  LOCALI  =  1.00D-09  EORDER  =  1.00D-04
 ENERGY  =  1.00D-12  ETEST   =  0.00D+00  EDENS   =  0.00D+00  THRDEDEF=  1.00D-06  GRADIENT=  1.00D-02  STEP    =  1.00D-03
 ORBITAL =  1.00D-05  CIVEC   =  1.00D-05  COEFF   =  1.00D-04  PRINTCI =  5.00D-02  PUNCHCI =  9.90D+01  OPTGRAD =  3.00D-04
 OPTENERG=  1.00D-06  OPTSTEP =  3.00D-04  THRGRAD =  1.00D-10  COMPRESS=  1.00D-11  VARMIN  =  1.00D-07  VARMAX  =  1.00D-03
 THRDOUB =  0.00D+00  THRDIV  =  1.00D-05  THRRED  =  1.00D-07  THRPSP  =  1.00D+00  THRDC   =  1.00D-10  THRCS   =  1.00D-10
 THRNRM  =  1.00D-08  THREQ   =  0.00D+00  THRDE   =  1.00D+00  THRREF  =  1.00D-05  SPARFAC =  1.00D+00  THRDLP  =  1.00D-07
 THRDIA  =  1.00D-10  THRDLS  =  1.00D-07  THRGPS  =  0.00D+00  THRKEX  =  0.00D+00  THRDIS  =  2.00D-01  THRVAR  =  1.00D-10
 THRLOC  =  1.00D-06  THRGAP  =  1.00D-06  THRLOCT = -1.00D+00  THRGAPT = -1.00D+00  THRORB  =  1.00D-06  THRMLTP =  0.00D+00
 THRCPQCI=  1.00D-10  KEXTA   =  0.00D+00  THRCOARS=  0.00D+00  SYMTOL  =  1.00D-06  GRADTOL =  1.00D-06  THROVL  =  1.00D-08
 THRORTH =  1.00D-08  GRID    =  1.00D-06  GRIDMAX =  1.00D-03  DTMAX   =  0.00D+00  THROCCDE=  1.00D-01  THROCCDE=  1.00D-01



 THRESHOLDS:

 ZERO    =  1.00D-22  ONEINT  =  1.00D-22  TWOINT  =  1.00D-22  PREFAC  =  1.00D-14  LOCALI  =  1.00D-09  EORDER  =  1.00D-04
 ENERGY  =  1.00D-12  ETEST   =  0.00D+00  EDENS   =  0.00D+00  THRDEDEF=  1.00D-06  GRADIENT=  1.00D-02  STEP    =  1.00D-03
 ORBITAL =  1.00D-05  CIVEC   =  1.00D-05  COEFF   =  1.00D-04  PRINTCI =  5.00D-02  PUNCHCI =  9.90D+01  OPTGRAD =  1.00D-08
 OPTENERG=  1.00D-06  OPTSTEP =  1.00D-08  THRGRAD =  1.00D-10  COMPRESS=  1.00D-11  VARMIN  =  1.00D-07  VARMAX  =  1.00D-03
 THRDOUB =  0.00D+00  THRDIV  =  1.00D-05  THRRED  =  1.00D-07  THRPSP  =  1.00D+00  THRDC   =  1.00D-10  THRCS   =  1.00D-10
 THRNRM  =  1.00D-08  THREQ   =  0.00D+00  THRDE   =  1.00D+00  THRREF  =  1.00D-05  SPARFAC =  1.00D+00  THRDLP  =  1.00D-07
 THRDIA  =  1.00D-10  THRDLS  =  1.00D-07  THRGPS  =  0.00D+00  THRKEX  =  0.00D+00  THRDIS  =  2.00D-01  THRVAR  =  1.00D-10
 THRLOC  =  1.00D-06  THRGAP  =  1.00D-06  THRLOCT = -1.00D+00  THRGAPT = -1.00D+00  THRORB  =  1.00D-06  THRMLTP =  0.00D+00
 THRCPQCI=  1.00D-10  KEXTA   =  0.00D+00  THRCOARS=  0.00D+00  SYMTOL  =  1.00D-06  GRADTOL =  1.00D-06  THROVL  =  1.00D-08
 THRORTH =  1.00D-08  GRID    =  1.00D-06  GRIDMAX =  1.00D-03  DTMAX   =  0.00D+00  THROCCDE=  1.00D-01  THROCCDE=  1.00D-01



 Input parameters for SORTINT:

 COMPRESS =    0.000000
 C_FINAL  =    1.000000
 DEBUG    =   -1.000000
 C_SORT1  =    0.000000
 C_SEWARD =    0.000000
 THRESH   =    0.000000
 IO       =  molpro                                                          
 SPRI     =    0.000000
 SETTING GEOMTYP        =    XYZ
 ZUNIT=BOHR
 

 Variable memory set to  995000000 words,  buffer space   230000 words

 SETTING BASIS          =    VTZ-DK
 SETTING DKROLL         =         1.00000000                                  


 Recomputing integrals since basis changed


 Using spherical harmonics

 Library entry N      S cc-pVTZ-DK           selected for orbital group  1
 Library entry N      P cc-pVTZ-DK           selected for orbital group  1
 Library entry N      D cc-pVTZ-DK           selected for orbital group  1
 Library entry N      F cc-pVTZ-DK           selected for orbital group  1
 Library entry H      S cc-pVTZ-DK           selected for orbital group  2
 Library entry H      P cc-pVTZ-DK           selected for orbital group  2
 Library entry H      D cc-pVTZ-DK           selected for orbital group  2
 Library entry O      S cc-pVTZ-DK           selected for orbital group  3
 Library entry O      P cc-pVTZ-DK           selected for orbital group  3
 Library entry O      D cc-pVTZ-DK           selected for orbital group  3
 Library entry O      F cc-pVTZ-DK           selected for orbital group  3


 PROGRAM * SEWARD (Integral evaluation for generally contracted gaussian basis sets)     Author: Roland Lindh, 1990

 Geometry written to block  1 of record 700


 Point group  Cs  



 ATOMIC COORDINATES

 NR  ATOM    CHARGE       X              Y              Z

   1  N       7.00    0.000000000   -0.149385393   -1.125005869
   2  H       1.00    0.000000000    1.664571887   -1.938594836
   3  O       8.00    0.000000000    0.026581297    1.113011114

 Bond lengths in Bohr (Angstrom)

 1-2  1.988056342  1-3  2.244924117
     ( 1.052034110)     ( 1.187962683)

 Bond angles

  2-1-3  109.66130200

 NUCLEAR CHARGE:                   16
 NUMBER OF PRIMITIVE AOS:         111
 NUMBER OF SYMMETRY AOS:          100
 NUMBER OF CONTRACTIONS:           74   (  50A'  +  24A"  )
 NUMBER OF CORE ORBITALS:           2   (   2A'  +   0A"  )
 NUMBER OF VALENCE ORBITALS:        9   (   7A'  +   2A"  )


 NUCLEAR REPULSION ENERGY   30.77604316

 One-electron integrals computed with SEWARD

 2nd-order Douglas-Kroll-Hess method activated. Optimal DKH parametrization is used.

 Computing Douglas-Kroll / X2C integrals


        1874283. INTEGRALS WRITTEN OUT IN     458 BLOCKS ON RECORD 1290 OF FILE 1


 NUMBER OF SORTED TWO-ELECTRON INTEGRALS:    2006100.     BUFFER LENGTH:  32768
 NUMBER OF SEGMENTS:   1  SEGMENT LENGTH:    2006100      RECORD LENGTH: 524288

 Memory used in sort:       2.56 MW

 SORT1 READ     1874283. AND WROTE     1914195. INTEGRALS IN      6 RECORDS. CPU TIME:     0.05 SEC, REAL TIME:     0.06 SEC
 SORT2 READ     1914195. AND WROTE     2006100. INTEGRALS IN      1 RECORDS. CPU TIME:     0.04 SEC, REAL TIME:     0.06 SEC

 FILE SIZES:   FILE 1:    50.2 MBYTE,  FILE 4:    25.2 MBYTE,   TOTAL:     75.4 MBYTE

 OPERATOR DM      FOR CENTER  0  COORDINATES:    0.000000    0.000000    0.000000

 Eigenvalues of metric

         1 0.237E-02 0.381E-02 0.396E-02 0.828E-02 0.130E-01 0.314E-01 0.414E-01 0.460E-01
         2 0.333E-01 0.462E-01 0.992E-01 0.110E+00 0.228E+00 0.341E+00 0.388E+00 0.444E+00


 **********************************************************************************************************************************
 DATASETS  * FILE   NREC   LENGTH (MB)   RECORD NAMES
              1      23       36.03       500      610      700      900      950      970     1000      129      960     1700   
                                          VAR    BASINP    GEOM    SYMINP    ZMAT    AOBASIS   BASIS     P2S    ABASIS    OPER   
                                         1101     1401     1411     1412     1650     1100     1400     1410     1200     1210   
                                          SR      EKINR    POTR     PVPR    MOLCAS      S      EKIN      POT      H0       H01  
                                         1300     1080     1600   
                                         ERIS     AOSYM     SMH  

 PROGRAMS   *        TOTAL       INT
 CPU TIMES  *         0.62      0.52
 REAL TIME  *         1.21 SEC
 DISK USED  *        75.75 MB      
 **********************************************************************************************************************************


 PROGRAM * RHF-SCF (CLOSED SHELL)       Authors: W. Meyer, H.-J. Werner


 NUMBER OF ELECTRONS:       8+    8-
 CONVERGENCE THRESHOLDS:    1.00E-10 (Density)    1.00E-13 (Energy)
 MAX. NUMBER OF ITERATIONS:      500
 INTERPOLATION TYPE:            DIIS
 INTERPOLATION STEPS:              2 (START)      1 (STEP)
 LEVEL SHIFTS:                  0.00 (CLOSED)  0.00 (OPEN) 



 Orbital guess generated from atomic densities. Full valence occupancy:    9   2

 Molecular orbital dump at record        2100.2

 Initial occupancy:   7   1

 ITERATION    DDIFF          GRAD             ENERGY        2-EL.EN.            DIPOLE MOMENTS         DIIS   ORB.
    1      0.000D+00      0.000D+00      -129.87260230    154.950856    0.00000    0.59347   -0.98057    0    start
    2      0.000D+00      0.132D-01      -129.89972956    156.098877    0.00000    0.60046   -0.23476    1    diag
    3      0.178D-01      0.968D-02      -129.91896448    156.188681    0.00000    0.55818   -0.57738    2    diag
    4      0.849D-02      0.152D-02      -129.91966550    155.936384    0.00000    0.56631   -0.52098    3    diag
    5      0.163D-02      0.497D-03      -129.91977230    156.020757    0.00000    0.57178   -0.52255    4    diag
    6      0.695D-03      0.148D-03      -129.91978977    156.006157    0.00000    0.57243   -0.51875    5    diag
    7      0.269D-03      0.726D-04      -129.91979462    156.008670    0.00000    0.57372   -0.51654    6    diag
    8      0.183D-03      0.220D-04      -129.91979501    156.008074    0.00000    0.57375   -0.51586    7    diag
    9      0.558D-04      0.395D-05      -129.91979503    156.007973    0.00000    0.57370   -0.51572    8    diag
   10      0.106D-04      0.921D-06      -129.91979503    156.007956    0.00000    0.57367   -0.51570    9    orth
   11      0.265D-05      0.183D-06      -129.91979503    156.007951    0.00000    0.57366   -0.51569    9    diag
   12      0.497D-06      0.365D-07      -129.91979503    156.007950    0.00000    0.57366   -0.51569    9    diag
   13      0.105D-06      0.878D-08      -129.91979503    156.007949    0.00000    0.57366   -0.51569    9    diag
   14      0.257D-07      0.169D-08      -129.91979503    156.007949    0.00000    0.57366   -0.51569    9    diag
   15      0.459D-08      0.466D-09      -129.91979503    156.007949    0.00000    0.57366   -0.51569    9    diag
   16      0.111D-08      0.132D-09      -129.91979503    156.007949    0.00000    0.57366   -0.51569    9    diag
   17      0.245D-09      0.387D-10      -129.91979503    156.007949    0.00000    0.57366   -0.51569    9    diag
   18      0.828D-10      0.120D-10      -129.91979503    156.007949    0.00000    0.57366   -0.51569    9    diag
   19      0.281D-10      0.266D-11      -129.91979503    156.007949    0.00000    0.57366   -0.51569    9    fixocc
   20      0.638D-11      0.410D-12      -129.91979503    156.007949    0.00000    0.57366   -0.51569    9    orth
   21      0.772D-12      0.125D-12      -129.91979503    156.007949    0.00000    0.57366   -0.51569    9    diag
   22      0.349D-12      0.412D-13      -129.91979503    156.007949    0.00000    0.57366   -0.51569    9    diag
   23      0.998D-13      0.272D-13      -129.91979503    156.007949    0.00000    0.57366   -0.51569    9    diag
   24      0.892D-13      0.183D-13      -129.91979503    156.007949    0.00000    0.57366   -0.51569    0    orth

 Final occupancy:   7   1

 !RHF STATE 1.1 Energy               -129.919795030246
 Nuclear energy                        30.77604316
 One-electron energy                 -238.69981282
 Two-electron energy                   78.00397464
 Virial quotient                       -0.99696763
 !RHF STATE 1.1 Dipole moment           0.00000000     0.57366044    -0.51569263
 Dipole moment /Debye                   0.00000000     1.45800390    -1.31067407

 Orbital energies:

         1.1          2.1          3.1          4.1          5.1          6.1          7.1          8.1          9.1
    -20.663461   -15.713016    -1.543314    -0.988345    -0.749145    -0.667869    -0.419473     0.144933     0.372010

         1.2          2.2          3.2
     -0.601309     0.093841     0.610898

 HOMO      7.1    -0.419473 =     -11.4144eV
 LUMO      2.2     0.093841 =       2.5535eV
 LUMO-HOMO         0.513314 =      13.9680eV


 **********************************************************************************************************************************
 DATASETS  * FILE   NREC   LENGTH (MB)   RECORD NAMES
              1      23       36.03       500      610      700      900      950      970     1000      129      960     1700   
                                          VAR    BASINP    GEOM    SYMINP    ZMAT    AOBASIS   BASIS     P2S    ABASIS    OPER   
                                         1101     1401     1411     1412     1650     1100     1400     1410     1200     1210   
                                          SR      EKINR    POTR     PVPR    MOLCAS      S      EKIN      POT      H0       H01  
                                         1300     1080     1600   
                                         ERIS     AOSYM     SMH  

              2       4        2.85       700     1000      520     2100   
                                         GEOM     BASIS   MCVARS     RHF  

 PROGRAMS   *        TOTAL        HF       INT
 CPU TIMES  *         0.89      0.27      0.52
 REAL TIME  *         1.56 SEC
 DISK USED  *        75.75 MB      
 **********************************************************************************************************************************


 PROGRAM * CCSD (Closed-shell coupled cluster)     Authors: C. Hampel, H.-J. Werner, 1991, M. Deegan, P.J. Knowles, 1992


 Convergence thresholds:  THRVAR = 1.00D-08  THRDEN = 1.00D-12

 CCSD(T)     terms to be evaluated (factor= 1.000)


 Number of core orbitals:           2 (   2   0 )
 Number of closed-shell orbitals:   6 (   5   1 )
 Number of external orbitals:      66 (  43  23 )

 Molecular orbitals read from record     2100.2  Type=RHF/CANONICAL (state 1.1)

 Number of N-1 electron functions:               6
 Number of N-2 electron functions:              21
 Number of singly external CSFs:               238
 Number of doubly external CSFs:             41002
 Total number of CSFs:                       41241

 Length of J-op  integral file:               0.00 MB
 Length of K-op  integral file:               0.25 MB
 Length of 3-ext integral record:             0.00 MB

 Memory could be reduced to 1.65 Mwords without degradation in triples

 Integral transformation finished. Total CPU:   0.04 sec, npass=  1  Memory used:   0.55 MW

 Reference energy:                   -129.91979503

 MP2 singlet pair energy:              -0.27168538
 MP2 triplet pair energy:              -0.16124241
 MP2 correlation energy:               -0.43292779
 MP2 total energy:                   -130.35272282

 SCS-MP2 correlation energy:           -0.42635107   (PS=  1.200000  PT=  0.333333)
 SCS-MP2 total energy:               -130.34614610

 ITER.      SQ.NORM     CORR.ENERGY   TOTAL ENERGY   ENERGY CHANGE        DEN1      VAR(S)    VAR(P)  DIIS     TIME  TIME/IT
   1      1.11636010    -0.43873408  -130.35852911    -0.00580629     0.00922217  0.27D-02  0.28D-02  1  1     0.08     0.05
   2      1.12675076    -0.43911997  -130.35891500    -0.00038590    -0.01183845  0.79D-04  0.47D-03  2  2     0.14     0.05
   3      1.13265025    -0.43947916  -130.35927419    -0.00035918    -0.00284540  0.44D-04  0.47D-04  3  3     0.18     0.05
   4      1.13524548    -0.43950289  -130.35929792    -0.00002373    -0.00089980  0.36D-05  0.84D-05  4  4     0.22     0.05
   5      1.13615599    -0.43952944  -130.35932447    -0.00002655    -0.00018821  0.13D-05  0.17D-05  5  5     0.27     0.05
   6      1.13649959    -0.43951502  -130.35931005     0.00001442    -0.00003798  0.99D-07  0.41D-06  6  6     0.32     0.05
   7      1.13658943    -0.43951667  -130.35931170    -0.00000165    -0.00000306  0.12D-07  0.81D-07  6  1     0.38     0.05
   8      1.13661995    -0.43951692  -130.35931195    -0.00000025     0.00000182  0.43D-08  0.90D-08  6  2     0.42     0.05
   9      1.13662727    -0.43951671  -130.35931174     0.00000020    -0.00000217  0.24D-08  0.99D-09  6  3     0.47     0.05
  10      1.13662603    -0.43951720  -130.35931223    -0.00000048     0.00000057  0.48D-09  0.18D-09  6  4     0.51     0.05
  11      1.13662428    -0.43951725  -130.35931228    -0.00000006     0.00000022  0.15D-09  0.22D-10  6  5     0.56     0.05
  12      1.13662292    -0.43951742  -130.35931245    -0.00000016     0.00000042  0.16D-10  0.74D-11  6  6     0.61     0.05
  13      1.13662232    -0.43951743  -130.35931246    -0.00000001     0.00000012  0.67D-11  0.12D-11  6  1     0.65     0.05
  14      1.13662195    -0.43951744  -130.35931247    -0.00000002     0.00000007  0.90D-12  0.41D-12  6  2     0.70     0.05
  15      1.13662183    -0.43951744  -130.35931247    -0.00000000     0.00000001  0.22D-12  0.14D-12  6  3     0.75     0.05
  16      1.13662174    -0.43951744  -130.35931248    -0.00000000     0.00000001  0.26D-13  0.16D-13  6  5     0.80     0.05
  17      1.13662171    -0.43951745  -130.35931248    -0.00000000     0.00000000  0.10D-14  0.26D-14  6  4     0.84     0.05
  18      1.13662171    -0.43951745  -130.35931248     0.00000000    -0.00000000  0.57D-15  0.38D-15  6  1     0.89     0.05
  19      1.13662170    -0.43951745  -130.35931248    -0.00000000     0.00000000  0.43D-16  0.63D-16  6  6     0.95     0.05
  20      1.13662170    -0.43951745  -130.35931248    -0.00000000     0.00000000  0.84D-17  0.14D-16  6  2     0.99     0.05
  21      1.13662170    -0.43951745  -130.35931248    -0.00000000     0.00000000  0.19D-17  0.10D-17  6  5     1.05     0.05
  22      1.13662170    -0.43951745  -130.35931248     0.00000000     0.00000000  0.12D-18  0.75D-19  6  3     1.11     0.05
  23      1.13662170    -0.43951745  -130.35931248     0.00000000    -0.00000000  0.34D-19  0.17D-19  6  4     1.16     0.05
  24      1.13662170    -0.43951745  -130.35931248     0.00000000    -0.00000000  0.50D-20  0.48D-20  6  1     1.21     0.05
  25      1.13662170    -0.43951745  -130.35931248     0.00000000    -0.00000000  0.44D-21  0.86D-21  6  6     1.26     0.05

 Norm of t1 vector:      0.07251867      S-energy:     0.00000000      T1 diagnostic:  0.01480281
                                                                       D1 diagnostic:  0.04005572

 Doubles amplitudes (print threshold =  0.500E-01):

         I         J         SYM. A    SYM. B    A         B      T(IJ, AB)

         6         6         2         2         1         1     -0.13821147


 Total CPU time for triples:      0.38 sec


 RESULTS
 =======

  Reference energy                   -129.919795030246
  CCSD singlet pair energy             -0.300866991933
  CCSD triplet pair energy             -0.138650455440
  CCSD correlation energy              -0.439517447372

  Triples (T) contribution             -0.019219535582
  Total correlation energy             -0.458736982954

  CCSD total energy                  -130.359312477618
  CCSD[T] energy                     -130.379479280637
  CCSD-T energy                      -130.378152295415
 !CCSD(T) total energy               -130.378532013200

 Timing summary (sec):

 STEP                 CPU(USER)    SYS     CPU(TOT)    WALL
 Transformation          0.04      0.01      0.05      0.06
 CCSD iterations         1.22      0.13      1.35      1.36
 Triples                 0.38      0.01      0.39      0.38

 Program statistics:

 Available memory in ccsd:               994999756
 Min. memory needed in ccsd:                154850
 Max. memory used in ccsd:                  184802
 Max. memory used in cckext:                238416 (25 integral passes)



 **********************************************************************************************************************************
 DATASETS  * FILE   NREC   LENGTH (MB)   RECORD NAMES
              1      24       40.41       500      610      700      900      950      970     1000      129      960     1700   
                                          VAR    BASINP    GEOM    SYMINP    ZMAT    AOBASIS   BASIS     P2S    ABASIS    OPER   
                                         1101     1401     1411     1412     1650     1100     1400     1410     1200     1210   
                                          SR      EKINR    POTR     PVPR    MOLCAS      S      EKIN      POT      H0       H01  
                                         1300     1080     1600     1380   
                                         ERIS     AOSYM     SMH     JKOP   

              2       4        2.85       700     1000      520     2100   
                                         GEOM     BASIS   MCVARS     RHF  

 PROGRAMS   *        TOTAL   CCSD(T)        HF       INT
 CPU TIMES  *         2.55      1.65      0.27      0.52
 REAL TIME  *         3.42 SEC
 DISK USED  *        75.75 MB      
 **********************************************************************************************************************************

 CCSD(T)/cc-pVTZ-DK energy=   -130.378532013200

        CCSD(T)         HF-SCF  
   -130.37853201   -129.91979503
 **********************************************************************************************************************************
 Molpro calculation terminated
 Variable memory released
