
 Primary working directories    : /tmp/r2666/235177.maple
 Secondary working directories  : /tmp/r2666/235177.maple
 Wavefunction directory         : /ddn/home4/r2666/wfu/
 Main file repository           : /tmp/r2666/235177.maple/

 SHA1      : d5ffa45e93fdbca01ffc919aa182cfdae0147319
 NAME      : 2015.1.35
 ARCHNAME  : linux/x86_64
 FC        : /opt/intel/composer_xe_2015.1.133/bin/intel64/ifort
 BLASLIB   : -Wl,-_start-group /opt/intel/mkl/lib/intel64/libmkl_intel_ilp64.a /opt/intel/mkl/lib/intel64/libmkl_intel_thread.a /opt/intel/mkl/lib/intel64/libmkl_core.a -Wl,-_end-group
 id        : olemiss

 Nodes     nprocs
 cn035        1

 Using customized tuning parameters: mindgm=1; mindgv=20; mindgc=4; mindgr=1; noblas=0; minvec=7
 default implementation of scratch files=df  

 ***,hno CCSD(T)/TZ-F12 QFF
 memory, 995, m;
 gthresh,energy=1.d-12,zero=1.d-22,oneint=1.d-22,twoint=1.d-22;
 gthresh,optgrad=1.d-8,optstep=1.d-8;
 nocompress;
 geomtyp=xyz
 bohr
 geometry={
 3
         32        32
 N        0.0000000000       -0.1529555792       -1.1438704330
 H        0.0000000000        1.6621702593       -1.9314024444
 O        0.0000000000        0.0325531099        1.1246832863
 }
 
 basis=vtz-dk
 dkroll=1
   {hf,maxit=500;accu,20;}
 {ccsd(t),nocheck,maxit=250;orbital,IGNORE_ERROR;}

 Variables initialized (889), CPU time= 0.00 sec
 Commands  initialized (702), CPU time= 0.01 sec, 572 directives.
 Default parameters read. Elapsed time= 0.06 sec

 Checking input...
 Passed
1


                                         ***  PROGRAM SYSTEM MOLPRO  ***
                                       Copyright, TTI GmbH Stuttgart, 2015
                                    Version 2015.1 linked Jul  9 2018 13:16:40


 **********************************************************************************************************************************
 LABEL *   hno CCSD(T)/TZ-F12 QFF                                                        
  64 bit serial version                                                                  DATE: 08-Feb-20          TIME: 17:57:16  
 **********************************************************************************************************************************

 SHA1:             d5ffa45e93fdbca01ffc919aa182cfdae0147319
 **********************************************************************************************************************************

 THRESHOLDS:

 ZERO    =  1.00D-22  ONEINT  =  1.00D-22  TWOINT  =  1.00D-22  PREFAC  =  1.00D-14  LOCALI  =  1.00D-09  EORDER  =  1.00D-04
 ENERGY  =  1.00D-12  ETEST   =  0.00D+00  EDENS   =  0.00D+00  THRDEDEF=  1.00D-06  GRADIENT=  1.00D-02  STEP    =  1.00D-03
 ORBITAL =  1.00D-05  CIVEC   =  1.00D-05  COEFF   =  1.00D-04  PRINTCI =  5.00D-02  PUNCHCI =  9.90D+01  OPTGRAD =  3.00D-04
 OPTENERG=  1.00D-06  OPTSTEP =  3.00D-04  THRGRAD =  1.00D-10  COMPRESS=  1.00D-11  VARMIN  =  1.00D-07  VARMAX  =  1.00D-03
 THRDOUB =  0.00D+00  THRDIV  =  1.00D-05  THRRED  =  1.00D-07  THRPSP  =  1.00D+00  THRDC   =  1.00D-10  THRCS   =  1.00D-10
 THRNRM  =  1.00D-08  THREQ   =  0.00D+00  THRDE   =  1.00D+00  THRREF  =  1.00D-05  SPARFAC =  1.00D+00  THRDLP  =  1.00D-07
 THRDIA  =  1.00D-10  THRDLS  =  1.00D-07  THRGPS  =  0.00D+00  THRKEX  =  0.00D+00  THRDIS  =  2.00D-01  THRVAR  =  1.00D-10
 THRLOC  =  1.00D-06  THRGAP  =  1.00D-06  THRLOCT = -1.00D+00  THRGAPT = -1.00D+00  THRORB  =  1.00D-06  THRMLTP =  0.00D+00
 THRCPQCI=  1.00D-10  KEXTA   =  0.00D+00  THRCOARS=  0.00D+00  SYMTOL  =  1.00D-06  GRADTOL =  1.00D-06  THROVL  =  1.00D-08
 THRORTH =  1.00D-08  GRID    =  1.00D-06  GRIDMAX =  1.00D-03  DTMAX   =  0.00D+00  THROCCDE=  1.00D-01  THROCCDE=  1.00D-01



 THRESHOLDS:

 ZERO    =  1.00D-22  ONEINT  =  1.00D-22  TWOINT  =  1.00D-22  PREFAC  =  1.00D-14  LOCALI  =  1.00D-09  EORDER  =  1.00D-04
 ENERGY  =  1.00D-12  ETEST   =  0.00D+00  EDENS   =  0.00D+00  THRDEDEF=  1.00D-06  GRADIENT=  1.00D-02  STEP    =  1.00D-03
 ORBITAL =  1.00D-05  CIVEC   =  1.00D-05  COEFF   =  1.00D-04  PRINTCI =  5.00D-02  PUNCHCI =  9.90D+01  OPTGRAD =  1.00D-08
 OPTENERG=  1.00D-06  OPTSTEP =  1.00D-08  THRGRAD =  1.00D-10  COMPRESS=  1.00D-11  VARMIN  =  1.00D-07  VARMAX  =  1.00D-03
 THRDOUB =  0.00D+00  THRDIV  =  1.00D-05  THRRED  =  1.00D-07  THRPSP  =  1.00D+00  THRDC   =  1.00D-10  THRCS   =  1.00D-10
 THRNRM  =  1.00D-08  THREQ   =  0.00D+00  THRDE   =  1.00D+00  THRREF  =  1.00D-05  SPARFAC =  1.00D+00  THRDLP  =  1.00D-07
 THRDIA  =  1.00D-10  THRDLS  =  1.00D-07  THRGPS  =  0.00D+00  THRKEX  =  0.00D+00  THRDIS  =  2.00D-01  THRVAR  =  1.00D-10
 THRLOC  =  1.00D-06  THRGAP  =  1.00D-06  THRLOCT = -1.00D+00  THRGAPT = -1.00D+00  THRORB  =  1.00D-06  THRMLTP =  0.00D+00
 THRCPQCI=  1.00D-10  KEXTA   =  0.00D+00  THRCOARS=  0.00D+00  SYMTOL  =  1.00D-06  GRADTOL =  1.00D-06  THROVL  =  1.00D-08
 THRORTH =  1.00D-08  GRID    =  1.00D-06  GRIDMAX =  1.00D-03  DTMAX   =  0.00D+00  THROCCDE=  1.00D-01  THROCCDE=  1.00D-01



 Input parameters for SORTINT:

 COMPRESS =    0.000000
 C_FINAL  =    1.000000
 DEBUG    =   -1.000000
 C_SORT1  =    0.000000
 C_SEWARD =    0.000000
 THRESH   =    0.000000
 IO       =  molpro                                                          
 SPRI     =    0.000000
 SETTING GEOMTYP        =    XYZ
 ZUNIT=BOHR
 

 Variable memory set to  995000000 words,  buffer space   230000 words

 SETTING BASIS          =    VTZ-DK
 SETTING DKROLL         =         1.00000000                                  


 Recomputing integrals since basis changed


 Using spherical harmonics

 Library entry N      S cc-pVTZ-DK           selected for orbital group  1
 Library entry N      P cc-pVTZ-DK           selected for orbital group  1
 Library entry N      D cc-pVTZ-DK           selected for orbital group  1
 Library entry N      F cc-pVTZ-DK           selected for orbital group  1
 Library entry H      S cc-pVTZ-DK           selected for orbital group  2
 Library entry H      P cc-pVTZ-DK           selected for orbital group  2
 Library entry H      D cc-pVTZ-DK           selected for orbital group  2
 Library entry O      S cc-pVTZ-DK           selected for orbital group  3
 Library entry O      P cc-pVTZ-DK           selected for orbital group  3
 Library entry O      D cc-pVTZ-DK           selected for orbital group  3
 Library entry O      F cc-pVTZ-DK           selected for orbital group  3


 PROGRAM * SEWARD (Integral evaluation for generally contracted gaussian basis sets)     Author: Roland Lindh, 1990

 Geometry written to block  1 of record 700


 Point group  Cs  



 ATOMIC COORDINATES

 NR  ATOM    CHARGE       X              Y              Z

   1  N       7.00    0.000000000   -0.152955579   -1.143870433
   2  H       1.00    0.000000000    1.662170259   -1.931402444
   3  O       8.00    0.000000000    0.032553110    1.124683286

 Bond lengths in Bohr (Angstrom)

 1-2  1.978607712  1-3  2.276125974
     ( 1.047034111)     ( 1.204473995)

 Bond angles

  2-1-3  108.77976204

 NUCLEAR CHARGE:                   16
 NUMBER OF PRIMITIVE AOS:         111
 NUMBER OF SYMMETRY AOS:          100
 NUMBER OF CONTRACTIONS:           74   (  50A'  +  24A"  )
 NUMBER OF CORE ORBITALS:           2   (   2A'  +   0A"  )
 NUMBER OF VALENCE ORBITALS:        9   (   7A'  +   2A"  )


 NUCLEAR REPULSION ENERGY   30.45090122

 One-electron integrals computed with SEWARD

 2nd-order Douglas-Kroll-Hess method activated. Optimal DKH parametrization is used.

 Computing Douglas-Kroll / X2C integrals


        1874283. INTEGRALS WRITTEN OUT IN     458 BLOCKS ON RECORD 1290 OF FILE 1


 NUMBER OF SORTED TWO-ELECTRON INTEGRALS:    2006100.     BUFFER LENGTH:  32768
 NUMBER OF SEGMENTS:   1  SEGMENT LENGTH:    2006100      RECORD LENGTH: 524288

 Memory used in sort:       2.56 MW

 SORT1 READ     1874283. AND WROTE     1914195. INTEGRALS IN      6 RECORDS. CPU TIME:     0.04 SEC, REAL TIME:     0.07 SEC
 SORT2 READ     1914195. AND WROTE     2006100. INTEGRALS IN      1 RECORDS. CPU TIME:     0.04 SEC, REAL TIME:     0.05 SEC

 FILE SIZES:   FILE 1:    50.2 MBYTE,  FILE 4:    25.2 MBYTE,   TOTAL:     75.4 MBYTE

 OPERATOR DM      FOR CENTER  0  COORDINATES:    0.000000    0.000000    0.000000

 Eigenvalues of metric

         1 0.242E-02 0.394E-02 0.410E-02 0.826E-02 0.129E-01 0.324E-01 0.424E-01 0.462E-01
         2 0.341E-01 0.464E-01 0.101E+00 0.110E+00 0.232E+00 0.340E+00 0.393E+00 0.448E+00


 **********************************************************************************************************************************
 DATASETS  * FILE   NREC   LENGTH (MB)   RECORD NAMES
              1      23       36.03       500      610      700      900      950      970     1000      129      960     1700   
                                          VAR    BASINP    GEOM    SYMINP    ZMAT    AOBASIS   BASIS     P2S    ABASIS    OPER   
                                         1101     1401     1411     1412     1650     1100     1400     1410     1200     1210   
                                          SR      EKINR    POTR     PVPR    MOLCAS      S      EKIN      POT      H0       H01  
                                         1300     1080     1600   
                                         ERIS     AOSYM     SMH  

 PROGRAMS   *        TOTAL       INT
 CPU TIMES  *         0.68      0.59
 REAL TIME  *         1.29 SEC
 DISK USED  *        75.75 MB      
 **********************************************************************************************************************************


 PROGRAM * RHF-SCF (CLOSED SHELL)       Authors: W. Meyer, H.-J. Werner


 NUMBER OF ELECTRONS:       8+    8-
 CONVERGENCE THRESHOLDS:    1.00E-10 (Density)    1.00E-13 (Energy)
 MAX. NUMBER OF ITERATIONS:      500
 INTERPOLATION TYPE:            DIIS
 INTERPOLATION STEPS:              2 (START)      1 (STEP)
 LEVEL SHIFTS:                  0.00 (CLOSED)  0.00 (OPEN) 



 Orbital guess generated from atomic densities. Full valence occupancy:    9   2

 Molecular orbital dump at record        2100.2

 Initial occupancy:   7   1

 ITERATION    DDIFF          GRAD             ENERGY        2-EL.EN.            DIPOLE MOMENTS         DIIS   ORB.
    1      0.000D+00      0.000D+00      -129.86893961    154.374050    0.00000    0.59731   -1.02993    0    start
    2      0.000D+00      0.135D-01      -129.89575565    155.487545    0.00000    0.61281   -0.22682    1    diag
    3      0.184D-01      0.102D-01      -129.91734166    155.611920    0.00000    0.56548   -0.59856    2    diag
    4      0.889D-02      0.155D-02      -129.91807124    155.349057    0.00000    0.57377   -0.53967    3    diag
    5      0.166D-02      0.510D-03      -129.91818334    155.434195    0.00000    0.57913   -0.54080    4    diag
    6      0.711D-03      0.152D-03      -129.91820179    155.419387    0.00000    0.57969   -0.53671    5    diag
    7      0.275D-03      0.758D-04      -129.91820718    155.421699    0.00000    0.58091   -0.53425    6    diag
    8      0.190D-03      0.241D-04      -129.91820769    155.421033    0.00000    0.58093   -0.53346    7    diag
    9      0.634D-04      0.437D-05      -129.91820771    155.420920    0.00000    0.58088   -0.53331    8    diag
   10      0.122D-04      0.975D-06      -129.91820771    155.420903    0.00000    0.58084   -0.53329    9    orth
   11      0.278D-05      0.191D-06      -129.91820771    155.420898    0.00000    0.58084   -0.53328    9    diag
   12      0.506D-06      0.393D-07      -129.91820771    155.420897    0.00000    0.58083   -0.53328    9    diag
   13      0.109D-06      0.968D-08      -129.91820771    155.420897    0.00000    0.58083   -0.53328    9    diag
   14      0.270D-07      0.176D-08      -129.91820771    155.420897    0.00000    0.58083   -0.53328    9    diag
   15      0.433D-08      0.454D-09      -129.91820771    155.420897    0.00000    0.58083   -0.53328    9    diag
   16      0.104D-08      0.110D-09      -129.91820771    155.420897    0.00000    0.58083   -0.53328    9    diag
   17      0.181D-09      0.301D-10      -129.91820771    155.420897    0.00000    0.58083   -0.53328    9    diag
   18      0.532D-10      0.991D-11      -129.91820771    155.420897    0.00000    0.58083   -0.53328    0    orth

 Final occupancy:   7   1

 !RHF STATE 1.1 Energy               -129.918207708552
 Nuclear energy                        30.45090122
 One-electron energy                 -238.07955732
 Two-electron energy                   77.71044839
 Virial quotient                       -0.99740869
 !RHF STATE 1.1 Dipole moment           0.00000000     0.58083323    -0.53328000
 Dipole moment /Debye                   0.00000000     1.47623411    -1.35537379

 Orbital energies:

         1.1          2.1          3.1          4.1          5.1          6.1          7.1          8.1          9.1
    -20.664733   -15.715365    -1.529976    -0.992947    -0.744605    -0.662833    -0.425551     0.144431     0.370082

         1.2          2.2          3.2
     -0.593320     0.087724     0.612752

 HOMO      7.1    -0.425551 =     -11.5798eV
 LUMO      2.2     0.087724 =       2.3871eV
 LUMO-HOMO         0.513275 =      13.9669eV


 **********************************************************************************************************************************
 DATASETS  * FILE   NREC   LENGTH (MB)   RECORD NAMES
              1      23       36.03       500      610      700      900      950      970     1000      129      960     1700   
                                          VAR    BASINP    GEOM    SYMINP    ZMAT    AOBASIS   BASIS     P2S    ABASIS    OPER   
                                         1101     1401     1411     1412     1650     1100     1400     1410     1200     1210   
                                          SR      EKINR    POTR     PVPR    MOLCAS      S      EKIN      POT      H0       H01  
                                         1300     1080     1600   
                                         ERIS     AOSYM     SMH  

              2       4        2.85       700     1000      520     2100   
                                         GEOM     BASIS   MCVARS     RHF  

 PROGRAMS   *        TOTAL        HF       INT
 CPU TIMES  *         0.89      0.21      0.59
 REAL TIME  *         1.55 SEC
 DISK USED  *        75.75 MB      
 **********************************************************************************************************************************


 PROGRAM * CCSD (Closed-shell coupled cluster)     Authors: C. Hampel, H.-J. Werner, 1991, M. Deegan, P.J. Knowles, 1992


 Convergence thresholds:  THRVAR = 1.00D-08  THRDEN = 1.00D-12

 CCSD(T)     terms to be evaluated (factor= 1.000)


 Number of core orbitals:           2 (   2   0 )
 Number of closed-shell orbitals:   6 (   5   1 )
 Number of external orbitals:      66 (  43  23 )

 Molecular orbitals read from record     2100.2  Type=RHF/CANONICAL (state 1.1)

 Number of N-1 electron functions:               6
 Number of N-2 electron functions:              21
 Number of singly external CSFs:               238
 Number of doubly external CSFs:             41002
 Total number of CSFs:                       41241

 Length of J-op  integral file:               0.00 MB
 Length of K-op  integral file:               0.25 MB
 Length of 3-ext integral record:             0.00 MB

 Memory could be reduced to 1.65 Mwords without degradation in triples

 Integral transformation finished. Total CPU:   0.03 sec, npass=  1  Memory used:   0.55 MW

 Reference energy:                   -129.91820771

 MP2 singlet pair energy:              -0.27328141
 MP2 triplet pair energy:              -0.16228064
 MP2 correlation energy:               -0.43556205
 MP2 total energy:                   -130.35376976

 SCS-MP2 correlation energy:           -0.42891231   (PS=  1.200000  PT=  0.333333)
 SCS-MP2 total energy:               -130.34712002

 ITER.      SQ.NORM     CORR.ENERGY   TOTAL ENERGY   ENERGY CHANGE        DEN1      VAR(S)    VAR(P)  DIIS     TIME  TIME/IT
   1      1.11792900    -0.44077816  -130.35898587    -0.00521611     0.01040298  0.29D-02  0.30D-02  1  1     0.08     0.05
   2      1.12866248    -0.44105441  -130.35926212    -0.00027625    -0.01218307  0.86D-04  0.50D-03  2  2     0.13     0.05
   3      1.13484546    -0.44143197  -130.35963967    -0.00037756    -0.00294335  0.46D-04  0.50D-04  3  3     0.19     0.05
   4      1.13760369    -0.44145829  -130.35966600    -0.00002632    -0.00094502  0.38D-05  0.88D-05  4  4     0.23     0.05
   5      1.13857821    -0.44148684  -130.35969455    -0.00002855    -0.00020182  0.13D-05  0.17D-05  5  5     0.27     0.05
   6      1.13893249    -0.44147076  -130.35967847     0.00001608    -0.00004007  0.93D-07  0.42D-06  6  6     0.32     0.05
   7      1.13901834    -0.44147282  -130.35968053    -0.00000206    -0.00000220  0.11D-07  0.88D-07  6  1     0.37     0.05
   8      1.13904867    -0.44147289  -130.35968060    -0.00000007     0.00000197  0.46D-08  0.10D-07  6  2     0.42     0.05
   9      1.13905628    -0.44147270  -130.35968041     0.00000019    -0.00000229  0.25D-08  0.11D-08  6  3     0.46     0.05
  10      1.13905501    -0.44147320  -130.35968091    -0.00000050     0.00000063  0.49D-09  0.20D-09  6  4     0.50     0.05
  11      1.13905329    -0.44147326  -130.35968097    -0.00000006     0.00000018  0.15D-09  0.22D-10  6  5     0.53     0.05
  12      1.13905192    -0.44147343  -130.35968114    -0.00000017     0.00000043  0.15D-10  0.74D-11  6  6     0.58     0.05
  13      1.13905132    -0.44147344  -130.35968115    -0.00000001     0.00000012  0.65D-11  0.12D-11  6  1     0.63     0.05
  14      1.13905095    -0.44147346  -130.35968117    -0.00000002     0.00000007  0.91D-12  0.42D-12  6  2     0.68     0.05
  15      1.13905081    -0.44147346  -130.35968117    -0.00000000     0.00000001  0.23D-12  0.14D-12  6  3     0.73     0.05
  16      1.13905071    -0.44147346  -130.35968117    -0.00000000     0.00000001  0.25D-13  0.16D-13  6  5     0.78     0.05
  17      1.13905068    -0.44147347  -130.35968117    -0.00000000     0.00000000  0.78D-15  0.22D-14  6  4     0.82     0.05
  18      1.13905068    -0.44147347  -130.35968117     0.00000000    -0.00000000  0.51D-15  0.31D-15  6  1     0.87     0.05
  19      1.13905068    -0.44147347  -130.35968117    -0.00000000     0.00000000  0.48D-16  0.56D-16  6  6     0.91     0.05
  20      1.13905068    -0.44147347  -130.35968117    -0.00000000     0.00000000  0.10D-16  0.14D-16  6  2     0.96     0.05
  21      1.13905067    -0.44147347  -130.35968117    -0.00000000     0.00000000  0.18D-17  0.11D-17  6  5     1.00     0.05
  22      1.13905067    -0.44147347  -130.35968117    -0.00000000     0.00000000  0.11D-18  0.80D-19  6  3     1.05     0.05
  23      1.13905067    -0.44147347  -130.35968117     0.00000000    -0.00000000  0.30D-19  0.17D-19  6  4     1.09     0.05
  24      1.13905067    -0.44147347  -130.35968117     0.00000000    -0.00000000  0.45D-20  0.48D-20  6  1     1.14     0.05
  25      1.13905067    -0.44147347  -130.35968117     0.00000000    -0.00000000  0.53D-21  0.82D-21  6  6     1.19     0.05

 Norm of t1 vector:      0.07441994      S-energy:     0.00000000      T1 diagnostic:  0.01519091
                                                                       D1 diagnostic:  0.04204059

 Doubles amplitudes (print threshold =  0.500E-01):

         I         J         SYM. A    SYM. B    A         B      T(IJ, AB)

         6         6         2         2         1         1     -0.14284202


 Total CPU time for triples:      0.35 sec


 RESULTS
 =======

  Reference energy                   -129.918207708552
  CCSD singlet pair energy             -0.302576209483
  CCSD triplet pair energy             -0.138897256334
  CCSD correlation energy              -0.441473465816

  Triples (T) contribution             -0.019661413465
  Total correlation energy             -0.461134879281

  CCSD total energy                  -130.359681174368
  CCSD[T] energy                     -130.380345086769
  CCSD-T energy                      -130.378949153466
 !CCSD(T) total energy               -130.379342587833

 Timing summary (sec):

 STEP                 CPU(USER)    SYS     CPU(TOT)    WALL
 Transformation          0.03      0.01      0.04      0.05
 CCSD iterations         1.16      0.16      1.32      1.32
 Triples                 0.35      0.01      0.36      0.36

 Program statistics:

 Available memory in ccsd:               994999756
 Min. memory needed in ccsd:                154850
 Max. memory used in ccsd:                  184802
 Max. memory used in cckext:                238416 (25 integral passes)



 **********************************************************************************************************************************
 DATASETS  * FILE   NREC   LENGTH (MB)   RECORD NAMES
              1      24       40.41       500      610      700      900      950      970     1000      129      960     1700   
                                          VAR    BASINP    GEOM    SYMINP    ZMAT    AOBASIS   BASIS     P2S    ABASIS    OPER   
                                         1101     1401     1411     1412     1650     1100     1400     1410     1200     1210   
                                          SR      EKINR    POTR     PVPR    MOLCAS      S      EKIN      POT      H0       H01  
                                         1300     1080     1600     1380   
                                         ERIS     AOSYM     SMH     JKOP   

              2       4        2.85       700     1000      520     2100   
                                         GEOM     BASIS   MCVARS     RHF  

 PROGRAMS   *        TOTAL   CCSD(T)        HF       INT
 CPU TIMES  *         2.46      1.56      0.21      0.59
 REAL TIME  *         3.32 SEC
 DISK USED  *        75.75 MB      
 **********************************************************************************************************************************

 CCSD(T)/cc-pVTZ-DK energy=   -130.379342587833

        CCSD(T)         HF-SCF  
   -130.37934259   -129.91820771
 **********************************************************************************************************************************
 Molpro calculation terminated
 Variable memory released
