
 Primary working directories    : /tmp/r2666/235166.maple
 Secondary working directories  : /tmp/r2666/235166.maple
 Wavefunction directory         : /ddn/home4/r2666/wfu/
 Main file repository           : /tmp/r2666/235166.maple/

 SHA1      : d5ffa45e93fdbca01ffc919aa182cfdae0147319
 NAME      : 2015.1.35
 ARCHNAME  : linux/x86_64
 FC        : /opt/intel/composer_xe_2015.1.133/bin/intel64/ifort
 BLASLIB   : -Wl,-_start-group /opt/intel/mkl/lib/intel64/libmkl_intel_ilp64.a /opt/intel/mkl/lib/intel64/libmkl_intel_thread.a /opt/intel/mkl/lib/intel64/libmkl_core.a -Wl,-_end-group
 id        : olemiss

 Nodes     nprocs
 cn076        1

 Using customized tuning parameters: mindgm=1; mindgv=20; mindgc=4; mindgr=1; noblas=0; minvec=7
 default implementation of scratch files=df  

 ***,hno CCSD(T)/TZ-F12 QFF
 memory, 995, m;
 gthresh,energy=1.d-12,zero=1.d-22,oneint=1.d-22,twoint=1.d-22;
 gthresh,optgrad=1.d-8,optstep=1.d-8;
 nocompress;
 geomtyp=xyz
 bohr
 geometry={
 3
         21        21
 N        0.0000000000       -0.1594803621       -1.1423174213
 H        0.0000000000        1.6603998966       -1.9187994383
 O        0.0000000000        0.0408482555        1.1105272686
 }
 
 basis=vtz-dk
 dkroll=1
   {hf,maxit=500;accu,20;}
 {ccsd(t),nocheck,maxit=250;orbital,IGNORE_ERROR;}

 Variables initialized (889), CPU time= 0.01 sec
 Commands  initialized (702), CPU time= 0.01 sec, 572 directives.
 Default parameters read. Elapsed time= 0.04 sec

 Checking input...
 Passed
1


                                         ***  PROGRAM SYSTEM MOLPRO  ***
                                       Copyright, TTI GmbH Stuttgart, 2015
                                    Version 2015.1 linked Jul  9 2018 13:16:40


 **********************************************************************************************************************************
 LABEL *   hno CCSD(T)/TZ-F12 QFF                                                        
  64 bit serial version                                                                  DATE: 08-Feb-20          TIME: 17:57:15  
 **********************************************************************************************************************************

 SHA1:             d5ffa45e93fdbca01ffc919aa182cfdae0147319
 **********************************************************************************************************************************

 THRESHOLDS:

 ZERO    =  1.00D-22  ONEINT  =  1.00D-22  TWOINT  =  1.00D-22  PREFAC  =  1.00D-14  LOCALI  =  1.00D-09  EORDER  =  1.00D-04
 ENERGY  =  1.00D-12  ETEST   =  0.00D+00  EDENS   =  0.00D+00  THRDEDEF=  1.00D-06  GRADIENT=  1.00D-02  STEP    =  1.00D-03
 ORBITAL =  1.00D-05  CIVEC   =  1.00D-05  COEFF   =  1.00D-04  PRINTCI =  5.00D-02  PUNCHCI =  9.90D+01  OPTGRAD =  3.00D-04
 OPTENERG=  1.00D-06  OPTSTEP =  3.00D-04  THRGRAD =  1.00D-10  COMPRESS=  1.00D-11  VARMIN  =  1.00D-07  VARMAX  =  1.00D-03
 THRDOUB =  0.00D+00  THRDIV  =  1.00D-05  THRRED  =  1.00D-07  THRPSP  =  1.00D+00  THRDC   =  1.00D-10  THRCS   =  1.00D-10
 THRNRM  =  1.00D-08  THREQ   =  0.00D+00  THRDE   =  1.00D+00  THRREF  =  1.00D-05  SPARFAC =  1.00D+00  THRDLP  =  1.00D-07
 THRDIA  =  1.00D-10  THRDLS  =  1.00D-07  THRGPS  =  0.00D+00  THRKEX  =  0.00D+00  THRDIS  =  2.00D-01  THRVAR  =  1.00D-10
 THRLOC  =  1.00D-06  THRGAP  =  1.00D-06  THRLOCT = -1.00D+00  THRGAPT = -1.00D+00  THRORB  =  1.00D-06  THRMLTP =  0.00D+00
 THRCPQCI=  1.00D-10  KEXTA   =  0.00D+00  THRCOARS=  0.00D+00  SYMTOL  =  1.00D-06  GRADTOL =  1.00D-06  THROVL  =  1.00D-08
 THRORTH =  1.00D-08  GRID    =  1.00D-06  GRIDMAX =  1.00D-03  DTMAX   =  0.00D+00  THROCCDE=  1.00D-01  THROCCDE=  1.00D-01



 THRESHOLDS:

 ZERO    =  1.00D-22  ONEINT  =  1.00D-22  TWOINT  =  1.00D-22  PREFAC  =  1.00D-14  LOCALI  =  1.00D-09  EORDER  =  1.00D-04
 ENERGY  =  1.00D-12  ETEST   =  0.00D+00  EDENS   =  0.00D+00  THRDEDEF=  1.00D-06  GRADIENT=  1.00D-02  STEP    =  1.00D-03
 ORBITAL =  1.00D-05  CIVEC   =  1.00D-05  COEFF   =  1.00D-04  PRINTCI =  5.00D-02  PUNCHCI =  9.90D+01  OPTGRAD =  1.00D-08
 OPTENERG=  1.00D-06  OPTSTEP =  1.00D-08  THRGRAD =  1.00D-10  COMPRESS=  1.00D-11  VARMIN  =  1.00D-07  VARMAX  =  1.00D-03
 THRDOUB =  0.00D+00  THRDIV  =  1.00D-05  THRRED  =  1.00D-07  THRPSP  =  1.00D+00  THRDC   =  1.00D-10  THRCS   =  1.00D-10
 THRNRM  =  1.00D-08  THREQ   =  0.00D+00  THRDE   =  1.00D+00  THRREF  =  1.00D-05  SPARFAC =  1.00D+00  THRDLP  =  1.00D-07
 THRDIA  =  1.00D-10  THRDLS  =  1.00D-07  THRGPS  =  0.00D+00  THRKEX  =  0.00D+00  THRDIS  =  2.00D-01  THRVAR  =  1.00D-10
 THRLOC  =  1.00D-06  THRGAP  =  1.00D-06  THRLOCT = -1.00D+00  THRGAPT = -1.00D+00  THRORB  =  1.00D-06  THRMLTP =  0.00D+00
 THRCPQCI=  1.00D-10  KEXTA   =  0.00D+00  THRCOARS=  0.00D+00  SYMTOL  =  1.00D-06  GRADTOL =  1.00D-06  THROVL  =  1.00D-08
 THRORTH =  1.00D-08  GRID    =  1.00D-06  GRIDMAX =  1.00D-03  DTMAX   =  0.00D+00  THROCCDE=  1.00D-01  THROCCDE=  1.00D-01



 Input parameters for SORTINT:

 COMPRESS =    0.000000
 C_FINAL  =    1.000000
 DEBUG    =   -1.000000
 C_SORT1  =    0.000000
 C_SEWARD =    0.000000
 THRESH   =    0.000000
 IO       =  molpro                                                          
 SPRI     =    0.000000
 SETTING GEOMTYP        =    XYZ
 ZUNIT=BOHR
 

 Variable memory set to  995000000 words,  buffer space   230000 words

 SETTING BASIS          =    VTZ-DK
 SETTING DKROLL         =         1.00000000                                  


 Recomputing integrals since basis changed


 Using spherical harmonics

 Library entry N      S cc-pVTZ-DK           selected for orbital group  1
 Library entry N      P cc-pVTZ-DK           selected for orbital group  1
 Library entry N      D cc-pVTZ-DK           selected for orbital group  1
 Library entry N      F cc-pVTZ-DK           selected for orbital group  1
 Library entry H      S cc-pVTZ-DK           selected for orbital group  2
 Library entry H      P cc-pVTZ-DK           selected for orbital group  2
 Library entry H      D cc-pVTZ-DK           selected for orbital group  2
 Library entry O      S cc-pVTZ-DK           selected for orbital group  3
 Library entry O      P cc-pVTZ-DK           selected for orbital group  3
 Library entry O      D cc-pVTZ-DK           selected for orbital group  3
 Library entry O      F cc-pVTZ-DK           selected for orbital group  3


 PROGRAM * SEWARD (Integral evaluation for generally contracted gaussian basis sets)     Author: Roland Lindh, 1990

 Geometry written to block  1 of record 700


 Point group  Cs  



 ATOMIC COORDINATES

 NR  ATOM    CHARGE       X              Y              Z

   1  N       7.00    0.000000000   -0.159480362   -1.142317421
   2  H       1.00    0.000000000    1.660399897   -1.918799438
   3  O       8.00    0.000000000    0.040848255    1.110527269

 Bond lengths in Bohr (Angstrom)

 1-2  1.978607712  1-3  2.261734014
     ( 1.047034111)     ( 1.196858098)

 Bond angles

  2-1-3  108.02480139

 NUCLEAR CHARGE:                   16
 NUMBER OF PRIMITIVE AOS:         111
 NUMBER OF SYMMETRY AOS:          100
 NUMBER OF CONTRACTIONS:           74   (  50A'  +  24A"  )
 NUMBER OF CORE ORBITALS:           2   (   2A'  +   0A"  )
 NUMBER OF VALENCE ORBITALS:        9   (   7A'  +   2A"  )


 NUCLEAR REPULSION ENERGY   30.62651802

 One-electron integrals computed with SEWARD

 2nd-order Douglas-Kroll-Hess method activated. Optimal DKH parametrization is used.

 Computing Douglas-Kroll / X2C integrals


        1874283. INTEGRALS WRITTEN OUT IN     458 BLOCKS ON RECORD 1290 OF FILE 1


 NUMBER OF SORTED TWO-ELECTRON INTEGRALS:    2006100.     BUFFER LENGTH:  32768
 NUMBER OF SEGMENTS:   1  SEGMENT LENGTH:    2006100      RECORD LENGTH: 524288

 Memory used in sort:       2.56 MW

 SORT1 READ     1874283. AND WROTE     1914195. INTEGRALS IN      6 RECORDS. CPU TIME:     0.03 SEC, REAL TIME:     0.04 SEC
 SORT2 READ     1914195. AND WROTE     2006100. INTEGRALS IN      1 RECORDS. CPU TIME:     0.06 SEC, REAL TIME:     0.07 SEC

 FILE SIZES:   FILE 1:    50.2 MBYTE,  FILE 4:    25.2 MBYTE,   TOTAL:     75.4 MBYTE

 OPERATOR DM      FOR CENTER  0  COORDINATES:    0.000000    0.000000    0.000000

 Eigenvalues of metric

         1 0.239E-02 0.389E-02 0.401E-02 0.820E-02 0.129E-01 0.319E-01 0.419E-01 0.463E-01
         2 0.337E-01 0.463E-01 0.100E+00 0.110E+00 0.230E+00 0.339E+00 0.391E+00 0.446E+00


 **********************************************************************************************************************************
 DATASETS  * FILE   NREC   LENGTH (MB)   RECORD NAMES
              1      23       36.03       500      610      700      900      950      970     1000      129      960     1700   
                                          VAR    BASINP    GEOM    SYMINP    ZMAT    AOBASIS   BASIS     P2S    ABASIS    OPER   
                                         1101     1401     1411     1412     1650     1100     1400     1410     1200     1210   
                                          SR      EKINR    POTR     PVPR    MOLCAS      S      EKIN      POT      H0       H01  
                                         1300     1080     1600   
                                         ERIS     AOSYM     SMH  

 PROGRAMS   *        TOTAL       INT
 CPU TIMES  *         0.65      0.56
 REAL TIME  *         1.28 SEC
 DISK USED  *        75.75 MB      
 **********************************************************************************************************************************


 PROGRAM * RHF-SCF (CLOSED SHELL)       Authors: W. Meyer, H.-J. Werner


 NUMBER OF ELECTRONS:       8+    8-
 CONVERGENCE THRESHOLDS:    1.00E-10 (Density)    1.00E-13 (Energy)
 MAX. NUMBER OF ITERATIONS:      500
 INTERPOLATION TYPE:            DIIS
 INTERPOLATION STEPS:              2 (START)      1 (STEP)
 LEVEL SHIFTS:                  0.00 (CLOSED)  0.00 (OPEN) 



 Orbital guess generated from atomic densities. Full valence occupancy:    9   2

 Molecular orbital dump at record        2100.2

 Initial occupancy:   7   1

 ITERATION    DDIFF          GRAD             ENERGY        2-EL.EN.            DIPOLE MOMENTS         DIIS   ORB.
    1      0.000D+00      0.000D+00      -129.87081519    154.692184    0.00000    0.58718   -1.00435    0    start
    2      0.000D+00      0.134D-01      -129.89782880    155.815271    0.00000    0.60805   -0.22705    1    diag
    3      0.181D-01      0.997D-02      -129.91830616    155.924782    0.00000    0.55873   -0.58472    2    diag
    4      0.871D-02      0.153D-02      -129.91901972    155.667549    0.00000    0.56753   -0.52726    3    diag
    5      0.164D-02      0.505D-03      -129.91912935    155.751836    0.00000    0.57282   -0.52848    4    diag
    6      0.703D-03      0.150D-03      -129.91914738    155.737110    0.00000    0.57339   -0.52452    5    diag
    7      0.272D-03      0.745D-04      -129.91915253    155.739498    0.00000    0.57463   -0.52215    6    diag
    8      0.187D-03      0.231D-04      -129.91915297    155.738857    0.00000    0.57465   -0.52141    7    diag
    9      0.597D-04      0.415D-05      -129.91915299    155.738752    0.00000    0.57460   -0.52127    8    diag
   10      0.114D-04      0.937D-06      -129.91915299    155.738735    0.00000    0.57457   -0.52125    9    orth
   11      0.268D-05      0.185D-06      -129.91915299    155.738731    0.00000    0.57456   -0.52124    9    diag
   12      0.495D-06      0.377D-07      -129.91915299    155.738729    0.00000    0.57456   -0.52124    9    diag
   13      0.107D-06      0.914D-08      -129.91915299    155.738729    0.00000    0.57456   -0.52124    9    diag
   14      0.261D-07      0.169D-08      -129.91915299    155.738729    0.00000    0.57456   -0.52124    9    diag
   15      0.441D-08      0.453D-09      -129.91915299    155.738729    0.00000    0.57456   -0.52124    9    diag
   16      0.106D-08      0.120D-09      -129.91915299    155.738729    0.00000    0.57456   -0.52124    9    diag
   17      0.214D-09      0.356D-10      -129.91915299    155.738729    0.00000    0.57456   -0.52124    9    diag
   18      0.706D-10      0.116D-10      -129.91915299    155.738729    0.00000    0.57456   -0.52124    9    diag
   19      0.275D-10      0.256D-11      -129.91915299    155.738729    0.00000    0.57456   -0.52124    9    fixocc
   20      0.643D-11      0.435D-12      -129.91915299    155.738729    0.00000    0.57456   -0.52124    0    orth

 Final occupancy:   7   1

 !RHF STATE 1.1 Energy               -129.919152992459
 Nuclear energy                        30.62651802
 One-electron energy                 -238.41503559
 Two-electron energy                   77.86936458
 Virial quotient                       -0.99715013
 !RHF STATE 1.1 Dipole moment           0.00000000     0.57455847    -0.52124098
 Dipole moment /Debye                   0.00000000     1.46028631    -1.32477565

 Orbital energies:

         1.1          2.1          3.1          4.1          5.1          6.1          7.1          8.1          9.1
    -20.663809   -15.714215    -1.536696    -0.990703    -0.747018    -0.664896    -0.423724     0.145042     0.371000

         1.2          2.2          3.2
     -0.597091     0.090651     0.611826

 HOMO      7.1    -0.423724 =     -11.5301eV
 LUMO      2.2     0.090651 =       2.4667eV
 LUMO-HOMO         0.514374 =      13.9968eV


 **********************************************************************************************************************************
 DATASETS  * FILE   NREC   LENGTH (MB)   RECORD NAMES
              1      23       36.03       500      610      700      900      950      970     1000      129      960     1700   
                                          VAR    BASINP    GEOM    SYMINP    ZMAT    AOBASIS   BASIS     P2S    ABASIS    OPER   
                                         1101     1401     1411     1412     1650     1100     1400     1410     1200     1210   
                                          SR      EKINR    POTR     PVPR    MOLCAS      S      EKIN      POT      H0       H01  
                                         1300     1080     1600   
                                         ERIS     AOSYM     SMH  

              2       4        2.85       700     1000      520     2100   
                                         GEOM     BASIS   MCVARS     RHF  

 PROGRAMS   *        TOTAL        HF       INT
 CPU TIMES  *         0.87      0.22      0.56
 REAL TIME  *         1.53 SEC
 DISK USED  *        75.75 MB      
 **********************************************************************************************************************************


 PROGRAM * CCSD (Closed-shell coupled cluster)     Authors: C. Hampel, H.-J. Werner, 1991, M. Deegan, P.J. Knowles, 1992


 Convergence thresholds:  THRVAR = 1.00D-08  THRDEN = 1.00D-12

 CCSD(T)     terms to be evaluated (factor= 1.000)


 Number of core orbitals:           2 (   2   0 )
 Number of closed-shell orbitals:   6 (   5   1 )
 Number of external orbitals:      66 (  43  23 )

 Molecular orbitals read from record     2100.2  Type=RHF/CANONICAL (state 1.1)

 Number of N-1 electron functions:               6
 Number of N-2 electron functions:              21
 Number of singly external CSFs:               238
 Number of doubly external CSFs:             41002
 Total number of CSFs:                       41241

 Length of J-op  integral file:               0.00 MB
 Length of K-op  integral file:               0.25 MB
 Length of 3-ext integral record:             0.00 MB

 Memory could be reduced to 1.65 Mwords without degradation in triples

 Integral transformation finished. Total CPU:   0.02 sec, npass=  1  Memory used:   0.55 MW

 Reference energy:                   -129.91915299

 MP2 singlet pair energy:              -0.27248554
 MP2 triplet pair energy:              -0.16176081
 MP2 correlation energy:               -0.43424635
 MP2 total energy:                   -130.35339934

 SCS-MP2 correlation energy:           -0.42763382   (PS=  1.200000  PT=  0.333333)
 SCS-MP2 total energy:               -130.34678681

 ITER.      SQ.NORM     CORR.ENERGY   TOTAL ENERGY   ENERGY CHANGE        DEN1      VAR(S)    VAR(P)  DIIS     TIME  TIME/IT
   1      1.11709092    -0.43974255  -130.35889554    -0.00549619     0.00980039  0.28D-02  0.29D-02  1  1     0.09     0.06
   2      1.12762887    -0.44007629  -130.35922928    -0.00033374    -0.01199664  0.82D-04  0.48D-03  2  2     0.13     0.05
   3      1.13364006    -0.44044040  -130.35959339    -0.00036411    -0.00288921  0.43D-04  0.48D-04  3  3     0.16     0.05
   4      1.13630025    -0.44046657  -130.35961957    -0.00002618    -0.00091858  0.36D-05  0.84D-05  4  4     0.20     0.04
   5      1.13722321    -0.44049365  -130.35964664    -0.00002708    -0.00019122  0.13D-05  0.16D-05  5  5     0.23     0.04
   6      1.13756305    -0.44047853  -130.35963152     0.00001513    -0.00003828  0.92D-07  0.40D-06  6  6     0.27     0.04
   7      1.13764739    -0.44048046  -130.35963345    -0.00000193    -0.00000237  0.11D-07  0.82D-07  6  1     0.30     0.04
   8      1.13767702    -0.44048056  -130.35963355    -0.00000010     0.00000196  0.44D-08  0.91D-08  6  2     0.33     0.04
   9      1.13768412    -0.44048040  -130.35963339     0.00000016    -0.00000222  0.23D-08  0.10D-08  6  3     0.37     0.04
  10      1.13768289    -0.44048087  -130.35963386    -0.00000047     0.00000062  0.45D-09  0.18D-09  6  4     0.41     0.04
  11      1.13768124    -0.44048093  -130.35963392    -0.00000006     0.00000017  0.14D-09  0.20D-10  6  5     0.45     0.04
  12      1.13767994    -0.44048109  -130.35963408    -0.00000016     0.00000040  0.14D-10  0.67D-11  6  6     0.49     0.04
  13      1.13767938    -0.44048109  -130.35963409    -0.00000001     0.00000011  0.61D-11  0.11D-11  6  1     0.52     0.04
  14      1.13767903    -0.44048111  -130.35963410    -0.00000002     0.00000007  0.85D-12  0.38D-12  6  2     0.56     0.04
  15      1.13767891    -0.44048111  -130.35963411    -0.00000000     0.00000001  0.21D-12  0.13D-12  6  3     0.58     0.04
  16      1.13767882    -0.44048111  -130.35963411    -0.00000000     0.00000001  0.23D-13  0.15D-13  6  5     0.62     0.04
  17      1.13767879    -0.44048112  -130.35963411    -0.00000000     0.00000000  0.78D-15  0.22D-14  6  4     0.65     0.04
  18      1.13767879    -0.44048112  -130.35963411     0.00000000    -0.00000000  0.49D-15  0.32D-15  6  1     0.69     0.04
  19      1.13767878    -0.44048112  -130.35963411    -0.00000000     0.00000000  0.41D-16  0.55D-16  6  6     0.73     0.04
  20      1.13767878    -0.44048112  -130.35963411    -0.00000000     0.00000000  0.85D-17  0.13D-16  6  2     0.76     0.04
  21      1.13767878    -0.44048112  -130.35963411    -0.00000000     0.00000000  0.17D-17  0.93D-18  6  5     0.80     0.04
  22      1.13767878    -0.44048112  -130.35963411     0.00000000     0.00000000  0.10D-18  0.72D-19  6  3     0.84     0.04
  23      1.13767878    -0.44048112  -130.35963411     0.00000000    -0.00000000  0.31D-19  0.16D-19  6  4     0.88     0.04
  24      1.13767878    -0.44048112  -130.35963411     0.00000000    -0.00000000  0.45D-20  0.44D-20  6  1     0.91     0.04
  25      1.13767878    -0.44048112  -130.35963411     0.00000000    -0.00000000  0.47D-21  0.77D-21  6  6     0.95     0.04

 Norm of t1 vector:      0.07302907      S-energy:     0.00000000      T1 diagnostic:  0.01490700
                                                                       D1 diagnostic:  0.04100580

 Doubles amplitudes (print threshold =  0.500E-01):

         I         J         SYM. A    SYM. B    A         B      T(IJ, AB)

         6         6         2         2         1         1     -0.14069554


 Total CPU time for triples:      0.23 sec


 RESULTS
 =======

  Reference energy                   -129.919152992459
  CCSD singlet pair energy             -0.301711110712
  CCSD triplet pair energy             -0.138770005410
  CCSD correlation energy              -0.440481116121

  Triples (T) contribution             -0.019428323225
  Total correlation energy             -0.459909439346

  CCSD total energy                  -130.359634108580
  CCSD[T] energy                     -130.380029583527
  CCSD-T energy                      -130.378678074041
 !CCSD(T) total energy               -130.379062431805

 Timing summary (sec):

 STEP                 CPU(USER)    SYS     CPU(TOT)    WALL
 Transformation          0.03      0.01      0.04      0.04
 CCSD iterations         0.92      0.10      1.02      1.00
 Triples                 0.23      0.00      0.23      0.24

 Program statistics:

 Available memory in ccsd:               994999756
 Min. memory needed in ccsd:                154850
 Max. memory used in ccsd:                  184802
 Max. memory used in cckext:                238416 (25 integral passes)



 **********************************************************************************************************************************
 DATASETS  * FILE   NREC   LENGTH (MB)   RECORD NAMES
              1      24       40.41       500      610      700      900      950      970     1000      129      960     1700   
                                          VAR    BASINP    GEOM    SYMINP    ZMAT    AOBASIS   BASIS     P2S    ABASIS    OPER   
                                         1101     1401     1411     1412     1650     1100     1400     1410     1200     1210   
                                          SR      EKINR    POTR     PVPR    MOLCAS      S      EKIN      POT      H0       H01  
                                         1300     1080     1600     1380   
                                         ERIS     AOSYM     SMH     JKOP   

              2       4        2.85       700     1000      520     2100   
                                         GEOM     BASIS   MCVARS     RHF  

 PROGRAMS   *        TOTAL   CCSD(T)        HF       INT
 CPU TIMES  *         2.08      1.21      0.22      0.56
 REAL TIME  *         2.88 SEC
 DISK USED  *        75.75 MB      
 **********************************************************************************************************************************

 CCSD(T)/cc-pVTZ-DK energy=   -130.379062431805

        CCSD(T)         HF-SCF  
   -130.37906243   -129.91915299
 **********************************************************************************************************************************
 Molpro calculation terminated
 Variable memory released
