
 Primary working directories    : /tmp/r2666/235232.maple
 Secondary working directories  : /tmp/r2666/235232.maple
 Wavefunction directory         : /ddn/home4/r2666/wfu/
 Main file repository           : /tmp/r2666/235232.maple/

 SHA1      : d5ffa45e93fdbca01ffc919aa182cfdae0147319
 NAME      : 2015.1.35
 ARCHNAME  : linux/x86_64
 FC        : /opt/intel/composer_xe_2015.1.133/bin/intel64/ifort
 BLASLIB   : -Wl,-_start-group /opt/intel/mkl/lib/intel64/libmkl_intel_ilp64.a /opt/intel/mkl/lib/intel64/libmkl_intel_thread.a /opt/intel/mkl/lib/intel64/libmkl_core.a -Wl,-_end-group
 id        : olemiss

 Nodes     nprocs
 cn089        1

 Using customized tuning parameters: mindgm=1; mindgv=20; mindgc=4; mindgr=1; noblas=0; minvec=7
 default implementation of scratch files=df  

 ***,hno CCSD(T)/TZ-F12 QFF
 memory, 995, m;
 gthresh,energy=1.d-12,zero=1.d-22,oneint=1.d-22,twoint=1.d-22;
 gthresh,optgrad=1.d-8,optstep=1.d-8;
 nocompress;
 geomtyp=xyz
 bohr
 geometry={
 3
         87        87
 N        0.0000000000       -0.1659908857       -1.1353867055
 H        0.0000000000        1.6689021527       -1.9248128583
 O        0.0000000000        0.0388565230        1.1096099727
 }
 
 basis=vtz-dk
 dkroll=1
   {hf,maxit=500;accu,20;}
 {ccsd(t),nocheck,maxit=250;orbital,IGNORE_ERROR;}

 Variables initialized (889), CPU time= 0.00 sec
 Commands  initialized (702), CPU time= 0.01 sec, 572 directives.
 Default parameters read. Elapsed time= 0.08 sec

 Checking input...
 Passed
1


                                         ***  PROGRAM SYSTEM MOLPRO  ***
                                       Copyright, TTI GmbH Stuttgart, 2015
                                    Version 2015.1 linked Jul  9 2018 13:16:40


 **********************************************************************************************************************************
 LABEL *   hno CCSD(T)/TZ-F12 QFF                                                        
  64 bit serial version                                                                  DATE: 08-Feb-20          TIME: 17:57:23  
 **********************************************************************************************************************************

 SHA1:             d5ffa45e93fdbca01ffc919aa182cfdae0147319
 **********************************************************************************************************************************

 THRESHOLDS:

 ZERO    =  1.00D-22  ONEINT  =  1.00D-22  TWOINT  =  1.00D-22  PREFAC  =  1.00D-14  LOCALI  =  1.00D-09  EORDER  =  1.00D-04
 ENERGY  =  1.00D-12  ETEST   =  0.00D+00  EDENS   =  0.00D+00  THRDEDEF=  1.00D-06  GRADIENT=  1.00D-02  STEP    =  1.00D-03
 ORBITAL =  1.00D-05  CIVEC   =  1.00D-05  COEFF   =  1.00D-04  PRINTCI =  5.00D-02  PUNCHCI =  9.90D+01  OPTGRAD =  3.00D-04
 OPTENERG=  1.00D-06  OPTSTEP =  3.00D-04  THRGRAD =  1.00D-10  COMPRESS=  1.00D-11  VARMIN  =  1.00D-07  VARMAX  =  1.00D-03
 THRDOUB =  0.00D+00  THRDIV  =  1.00D-05  THRRED  =  1.00D-07  THRPSP  =  1.00D+00  THRDC   =  1.00D-10  THRCS   =  1.00D-10
 THRNRM  =  1.00D-08  THREQ   =  0.00D+00  THRDE   =  1.00D+00  THRREF  =  1.00D-05  SPARFAC =  1.00D+00  THRDLP  =  1.00D-07
 THRDIA  =  1.00D-10  THRDLS  =  1.00D-07  THRGPS  =  0.00D+00  THRKEX  =  0.00D+00  THRDIS  =  2.00D-01  THRVAR  =  1.00D-10
 THRLOC  =  1.00D-06  THRGAP  =  1.00D-06  THRLOCT = -1.00D+00  THRGAPT = -1.00D+00  THRORB  =  1.00D-06  THRMLTP =  0.00D+00
 THRCPQCI=  1.00D-10  KEXTA   =  0.00D+00  THRCOARS=  0.00D+00  SYMTOL  =  1.00D-06  GRADTOL =  1.00D-06  THROVL  =  1.00D-08
 THRORTH =  1.00D-08  GRID    =  1.00D-06  GRIDMAX =  1.00D-03  DTMAX   =  0.00D+00  THROCCDE=  1.00D-01  THROCCDE=  1.00D-01



 THRESHOLDS:

 ZERO    =  1.00D-22  ONEINT  =  1.00D-22  TWOINT  =  1.00D-22  PREFAC  =  1.00D-14  LOCALI  =  1.00D-09  EORDER  =  1.00D-04
 ENERGY  =  1.00D-12  ETEST   =  0.00D+00  EDENS   =  0.00D+00  THRDEDEF=  1.00D-06  GRADIENT=  1.00D-02  STEP    =  1.00D-03
 ORBITAL =  1.00D-05  CIVEC   =  1.00D-05  COEFF   =  1.00D-04  PRINTCI =  5.00D-02  PUNCHCI =  9.90D+01  OPTGRAD =  1.00D-08
 OPTENERG=  1.00D-06  OPTSTEP =  1.00D-08  THRGRAD =  1.00D-10  COMPRESS=  1.00D-11  VARMIN  =  1.00D-07  VARMAX  =  1.00D-03
 THRDOUB =  0.00D+00  THRDIV  =  1.00D-05  THRRED  =  1.00D-07  THRPSP  =  1.00D+00  THRDC   =  1.00D-10  THRCS   =  1.00D-10
 THRNRM  =  1.00D-08  THREQ   =  0.00D+00  THRDE   =  1.00D+00  THRREF  =  1.00D-05  SPARFAC =  1.00D+00  THRDLP  =  1.00D-07
 THRDIA  =  1.00D-10  THRDLS  =  1.00D-07  THRGPS  =  0.00D+00  THRKEX  =  0.00D+00  THRDIS  =  2.00D-01  THRVAR  =  1.00D-10
 THRLOC  =  1.00D-06  THRGAP  =  1.00D-06  THRLOCT = -1.00D+00  THRGAPT = -1.00D+00  THRORB  =  1.00D-06  THRMLTP =  0.00D+00
 THRCPQCI=  1.00D-10  KEXTA   =  0.00D+00  THRCOARS=  0.00D+00  SYMTOL  =  1.00D-06  GRADTOL =  1.00D-06  THROVL  =  1.00D-08
 THRORTH =  1.00D-08  GRID    =  1.00D-06  GRIDMAX =  1.00D-03  DTMAX   =  0.00D+00  THROCCDE=  1.00D-01  THROCCDE=  1.00D-01



 Input parameters for SORTINT:

 COMPRESS =    0.000000
 C_FINAL  =    1.000000
 DEBUG    =   -1.000000
 C_SORT1  =    0.000000
 C_SEWARD =    0.000000
 THRESH   =    0.000000
 IO       =  molpro                                                          
 SPRI     =    0.000000
 SETTING GEOMTYP        =    XYZ
 ZUNIT=BOHR
 

 Variable memory set to  995000000 words,  buffer space   230000 words

 SETTING BASIS          =    VTZ-DK
 SETTING DKROLL         =         1.00000000                                  


 Recomputing integrals since basis changed


 Using spherical harmonics

 Library entry N      S cc-pVTZ-DK           selected for orbital group  1
 Library entry N      P cc-pVTZ-DK           selected for orbital group  1
 Library entry N      D cc-pVTZ-DK           selected for orbital group  1
 Library entry N      F cc-pVTZ-DK           selected for orbital group  1
 Library entry H      S cc-pVTZ-DK           selected for orbital group  2
 Library entry H      P cc-pVTZ-DK           selected for orbital group  2
 Library entry H      D cc-pVTZ-DK           selected for orbital group  2
 Library entry O      S cc-pVTZ-DK           selected for orbital group  3
 Library entry O      P cc-pVTZ-DK           selected for orbital group  3
 Library entry O      D cc-pVTZ-DK           selected for orbital group  3
 Library entry O      F cc-pVTZ-DK           selected for orbital group  3


 PROGRAM * SEWARD (Integral evaluation for generally contracted gaussian basis sets)     Author: Roland Lindh, 1990

 Geometry written to block  1 of record 700


 Point group  Cs  



 ATOMIC COORDINATES

 NR  ATOM    CHARGE       X              Y              Z

   1  N       7.00    0.000000000   -0.165990886   -1.135386705
   2  H       1.00    0.000000000    1.668902153   -1.924812858
   3  O       8.00    0.000000000    0.038856523    1.109609973

 Bond lengths in Bohr (Angstrom)

 1-2  1.997504972  1-3  2.254323079
     ( 1.057034110)     ( 1.192936400)

 Bond angles

  2-1-3  108.06524395

 NUCLEAR CHARGE:                   16
 NUMBER OF PRIMITIVE AOS:         111
 NUMBER OF SYMMETRY AOS:          100
 NUMBER OF CONTRACTIONS:           74   (  50A'  +  24A"  )
 NUMBER OF CORE ORBITALS:           2   (   2A'  +   0A"  )
 NUMBER OF VALENCE ORBITALS:        9   (   7A'  +   2A"  )


 NUCLEAR REPULSION ENERGY   30.66805616

 One-electron integrals computed with SEWARD

 2nd-order Douglas-Kroll-Hess method activated. Optimal DKH parametrization is used.

 Computing Douglas-Kroll / X2C integrals


        1874283. INTEGRALS WRITTEN OUT IN     458 BLOCKS ON RECORD 1290 OF FILE 1


 NUMBER OF SORTED TWO-ELECTRON INTEGRALS:    2006100.     BUFFER LENGTH:  32768
 NUMBER OF SEGMENTS:   1  SEGMENT LENGTH:    2006100      RECORD LENGTH: 524288

 Memory used in sort:       2.56 MW

 SORT1 READ     1874283. AND WROTE     1914195. INTEGRALS IN      6 RECORDS. CPU TIME:     0.02 SEC, REAL TIME:     0.04 SEC
 SORT2 READ     1914195. AND WROTE     2006100. INTEGRALS IN      1 RECORDS. CPU TIME:     0.05 SEC, REAL TIME:     0.06 SEC

 FILE SIZES:   FILE 1:    50.2 MBYTE,  FILE 4:    25.2 MBYTE,   TOTAL:     75.4 MBYTE

 OPERATOR DM      FOR CENTER  0  COORDINATES:    0.000000    0.000000    0.000000

 Eigenvalues of metric

         1 0.241E-02 0.387E-02 0.402E-02 0.836E-02 0.131E-01 0.318E-01 0.417E-01 0.463E-01
         2 0.336E-01 0.464E-01 0.998E-01 0.112E+00 0.230E+00 0.343E+00 0.392E+00 0.446E+00


 **********************************************************************************************************************************
 DATASETS  * FILE   NREC   LENGTH (MB)   RECORD NAMES
              1      23       36.03       500      610      700      900      950      970     1000      129      960     1700   
                                          VAR    BASINP    GEOM    SYMINP    ZMAT    AOBASIS   BASIS     P2S    ABASIS    OPER   
                                         1101     1401     1411     1412     1650     1100     1400     1410     1200     1210   
                                          SR      EKINR    POTR     PVPR    MOLCAS      S      EKIN      POT      H0       H01  
                                         1300     1080     1600   
                                         ERIS     AOSYM     SMH  

 PROGRAMS   *        TOTAL       INT
 CPU TIMES  *         0.66      0.55
 REAL TIME  *         1.47 SEC
 DISK USED  *        75.75 MB      
 **********************************************************************************************************************************


 PROGRAM * RHF-SCF (CLOSED SHELL)       Authors: W. Meyer, H.-J. Werner


 NUMBER OF ELECTRONS:       8+    8-
 CONVERGENCE THRESHOLDS:    1.00E-10 (Density)    1.00E-13 (Energy)
 MAX. NUMBER OF ITERATIONS:      500
 INTERPOLATION TYPE:            DIIS
 INTERPOLATION STEPS:              2 (START)      1 (STEP)
 LEVEL SHIFTS:                  0.00 (CLOSED)  0.00 (OPEN) 



 Orbital guess generated from atomic densities. Full valence occupancy:    9   2

 Molecular orbital dump at record        2100.2

 Initial occupancy:   7   1

 ITERATION    DDIFF          GRAD             ENERGY        2-EL.EN.            DIPOLE MOMENTS         DIIS   ORB.
    1      0.000D+00      0.000D+00      -129.87099364    154.757871    0.00000    0.57899   -0.99300    0    start
    2      0.000D+00      0.134D-01      -129.89808848    155.898995    0.00000    0.60374   -0.22447    1    diag
    3      0.181D-01      0.993D-02      -129.91838043    155.997854    0.00000    0.55283   -0.57778    2    diag
    4      0.867D-02      0.153D-02      -129.91908878    155.742005    0.00000    0.56158   -0.52094    3    diag
    5      0.163D-02      0.504D-03      -129.91919881    155.826721    0.00000    0.56700   -0.52228    4    diag
    6      0.703D-03      0.151D-03      -129.91921698    155.811914    0.00000    0.56759   -0.51836    5    diag
    7      0.273D-03      0.742D-04      -129.91922209    155.814388    0.00000    0.56887   -0.51604    6    diag
    8      0.186D-03      0.228D-04      -129.91922252    155.813756    0.00000    0.56889   -0.51533    7    diag
    9      0.585D-04      0.411D-05      -129.91922254    155.813652    0.00000    0.56884   -0.51519    8    diag
   10      0.111D-04      0.935D-06      -129.91922254    155.813634    0.00000    0.56881   -0.51517    9    orth
   11      0.266D-05      0.186D-06      -129.91922254    155.813630    0.00000    0.56880   -0.51516    9    diag
   12      0.499D-06      0.379D-07      -129.91922254    155.813628    0.00000    0.56880   -0.51516    9    diag
   13      0.109D-06      0.921D-08      -129.91922254    155.813628    0.00000    0.56880   -0.51516    9    diag
   14      0.268D-07      0.174D-08      -129.91922254    155.813628    0.00000    0.56880   -0.51516    9    diag
   15      0.466D-08      0.480D-09      -129.91922254    155.813628    0.00000    0.56880   -0.51516    9    diag
   16      0.113D-08      0.134D-09      -129.91922254    155.813628    0.00000    0.56880   -0.51516    9    diag
   17      0.244D-09      0.403D-10      -129.91922254    155.813628    0.00000    0.56880   -0.51516    9    diag
   18      0.828D-10      0.126D-10      -129.91922254    155.813628    0.00000    0.56880   -0.51516    9    diag
   19      0.289D-10      0.274D-11      -129.91922254    155.813628    0.00000    0.56880   -0.51516    0    orth

 Final occupancy:   7   1

 !RHF STATE 1.1 Energy               -129.919222537773
 Nuclear energy                        30.66805616
 One-electron energy                 -238.49409266
 Two-electron energy                   77.90681396
 Virial quotient                       -0.99714469
 !RHF STATE 1.1 Dipole moment           0.00000000     0.56880112    -0.51515892
 Dipole moment /Debye                   0.00000000     1.44565355    -1.30931761

 Orbital energies:

         1.1          2.1          3.1          4.1          5.1          6.1          7.1          8.1          9.1
    -20.663691   -15.714943    -1.539906    -0.987319    -0.747198    -0.666088    -0.421898     0.144647     0.371482

         1.2          2.2          3.2
     -0.599188     0.092095     0.611328

 HOMO      7.1    -0.421898 =     -11.4804eV
 LUMO      2.2     0.092095 =       2.5060eV
 LUMO-HOMO         0.513993 =      13.9865eV


 **********************************************************************************************************************************
 DATASETS  * FILE   NREC   LENGTH (MB)   RECORD NAMES
              1      23       36.03       500      610      700      900      950      970     1000      129      960     1700   
                                          VAR    BASINP    GEOM    SYMINP    ZMAT    AOBASIS   BASIS     P2S    ABASIS    OPER   
                                         1101     1401     1411     1412     1650     1100     1400     1410     1200     1210   
                                          SR      EKINR    POTR     PVPR    MOLCAS      S      EKIN      POT      H0       H01  
                                         1300     1080     1600   
                                         ERIS     AOSYM     SMH  

              2       4        2.85       700     1000      520     2100   
                                         GEOM     BASIS   MCVARS     RHF  

 PROGRAMS   *        TOTAL        HF       INT
 CPU TIMES  *         0.87      0.21      0.55
 REAL TIME  *         1.73 SEC
 DISK USED  *        75.75 MB      
 **********************************************************************************************************************************


 PROGRAM * CCSD (Closed-shell coupled cluster)     Authors: C. Hampel, H.-J. Werner, 1991, M. Deegan, P.J. Knowles, 1992


 Convergence thresholds:  THRVAR = 1.00D-08  THRDEN = 1.00D-12

 CCSD(T)     terms to be evaluated (factor= 1.000)


 Number of core orbitals:           2 (   2   0 )
 Number of closed-shell orbitals:   6 (   5   1 )
 Number of external orbitals:      66 (  43  23 )

 Molecular orbitals read from record     2100.2  Type=RHF/CANONICAL (state 1.1)

 Number of N-1 electron functions:               6
 Number of N-2 electron functions:              21
 Number of singly external CSFs:               238
 Number of doubly external CSFs:             41002
 Total number of CSFs:                       41241

 Length of J-op  integral file:               0.00 MB
 Length of K-op  integral file:               0.25 MB
 Length of 3-ext integral record:             0.00 MB

 Memory could be reduced to 1.65 Mwords without degradation in triples

 Integral transformation finished. Total CPU:   0.03 sec, npass=  1  Memory used:   0.55 MW

 Reference energy:                   -129.91922254

 MP2 singlet pair energy:              -0.27231601
 MP2 triplet pair energy:              -0.16163282
 MP2 correlation energy:               -0.43394883
 MP2 total energy:                   -130.35317136

 SCS-MP2 correlation energy:           -0.42735074   (PS=  1.200000  PT=  0.333333)
 SCS-MP2 total energy:               -130.34657328

 ITER.      SQ.NORM     CORR.ENERGY   TOTAL ENERGY   ENERGY CHANGE        DEN1      VAR(S)    VAR(P)  DIIS     TIME  TIME/IT
   1      1.11701769    -0.43956538  -130.35878792    -0.00561656     0.00961414  0.28D-02  0.29D-02  1  1     0.08     0.04
   2      1.12753267    -0.43992235  -130.35914489    -0.00035697    -0.01196142  0.81D-04  0.48D-03  2  2     0.11     0.04
   3      1.13353223    -0.44028814  -130.35951068    -0.00036579    -0.00288656  0.44D-04  0.47D-04  3  3     0.15     0.04
   4      1.13617195    -0.44031275  -130.35953529    -0.00002461    -0.00091384  0.37D-05  0.83D-05  4  4     0.18     0.04
   5      1.13709321    -0.44033994  -130.35956248    -0.00002719    -0.00019090  0.13D-05  0.16D-05  5  5     0.24     0.04
   6      1.13743497    -0.44032502  -130.35954756     0.00001492    -0.00003826  0.10D-06  0.40D-06  6  6     0.28     0.04
   7      1.13752161    -0.44032669  -130.35954923    -0.00000167    -0.00000268  0.13D-07  0.80D-07  6  1     0.32     0.04
   8      1.13755190    -0.44032680  -130.35954934    -0.00000011     0.00000179  0.40D-08  0.90D-08  6  2     0.36     0.04
   9      1.13755917    -0.44032661  -130.35954915     0.00000019    -0.00000216  0.23D-08  0.99D-09  6  3     0.39     0.04
  10      1.13755800    -0.44032708  -130.35954962    -0.00000047     0.00000057  0.45D-09  0.18D-09  6  4     0.42     0.04
  11      1.13755632    -0.44032714  -130.35954968    -0.00000006     0.00000020  0.14D-09  0.21D-10  6  5     0.45     0.04
  12      1.13755498    -0.44032730  -130.35954984    -0.00000016     0.00000041  0.15D-10  0.71D-11  6  6     0.48     0.04
  13      1.13755440    -0.44032731  -130.35954984    -0.00000001     0.00000012  0.64D-11  0.11D-11  6  1     0.52     0.04
  14      1.13755404    -0.44032732  -130.35954986    -0.00000002     0.00000007  0.89D-12  0.39D-12  6  2     0.55     0.04
  15      1.13755391    -0.44032733  -130.35954986    -0.00000000     0.00000001  0.22D-12  0.13D-12  6  3     0.59     0.04
  16      1.13755382    -0.44032733  -130.35954986    -0.00000000     0.00000001  0.24D-13  0.14D-13  6  5     0.63     0.04
  17      1.13755380    -0.44032733  -130.35954987    -0.00000000     0.00000000  0.77D-15  0.22D-14  6  4     0.67     0.04
  18      1.13755379    -0.44032733  -130.35954987     0.00000000    -0.00000000  0.48D-15  0.33D-15  6  1     0.70     0.04
  19      1.13755379    -0.44032733  -130.35954987    -0.00000000     0.00000000  0.38D-16  0.55D-16  6  6     0.74     0.04
  20      1.13755379    -0.44032733  -130.35954987    -0.00000000     0.00000000  0.76D-17  0.13D-16  6  2     0.77     0.04
  21      1.13755379    -0.44032733  -130.35954987    -0.00000000     0.00000000  0.17D-17  0.94D-18  6  5     0.79     0.04
  22      1.13755379    -0.44032733  -130.35954987     0.00000000     0.00000000  0.11D-18  0.69D-19  6  3     0.82     0.04
  23      1.13755379    -0.44032733  -130.35954987     0.00000000    -0.00000000  0.30D-19  0.15D-19  6  4     0.86     0.04
  24      1.13755379    -0.44032733  -130.35954987     0.00000000    -0.00000000  0.45D-20  0.42D-20  6  1     0.90     0.04
  25      1.13755379    -0.44032733  -130.35954987     0.00000000    -0.00000000  0.47D-21  0.75D-21  6  6     0.92     0.04

 Norm of t1 vector:      0.07303051      S-energy:     0.00000000      T1 diagnostic:  0.01490729
                                                                       D1 diagnostic:  0.04054555

 Doubles amplitudes (print threshold =  0.500E-01):

         I         J         SYM. A    SYM. B    A         B      T(IJ, AB)

         6         6         2         2         1         1     -0.13949459


 Total CPU time for triples:      0.24 sec


 RESULTS
 =======

  Reference energy                   -129.919222537773
  CCSD singlet pair energy             -0.301572581197
  CCSD triplet pair energy             -0.138754747424
  CCSD correlation energy              -0.440327328620

  Triples (T) contribution             -0.019379326565
  Total correlation energy             -0.459706655185

  CCSD total energy                  -130.359549866393
  CCSD[T] energy                     -130.379892074429
  CCSD-T energy                      -130.378544621330
 !CCSD(T) total energy               -130.378929192958

 Timing summary (sec):

 STEP                 CPU(USER)    SYS     CPU(TOT)    WALL
 Transformation          0.03      0.01      0.04      0.03
 CCSD iterations         0.89      0.14      1.03      1.05
 Triples                 0.24      0.01      0.25      0.24

 Program statistics:

 Available memory in ccsd:               994999756
 Min. memory needed in ccsd:                154850
 Max. memory used in ccsd:                  184802
 Max. memory used in cckext:                238416 (25 integral passes)



 **********************************************************************************************************************************
 DATASETS  * FILE   NREC   LENGTH (MB)   RECORD NAMES
              1      24       40.41       500      610      700      900      950      970     1000      129      960     1700   
                                          VAR    BASINP    GEOM    SYMINP    ZMAT    AOBASIS   BASIS     P2S    ABASIS    OPER   
                                         1101     1401     1411     1412     1650     1100     1400     1410     1200     1210   
                                          SR      EKINR    POTR     PVPR    MOLCAS      S      EKIN      POT      H0       H01  
                                         1300     1080     1600     1380   
                                         ERIS     AOSYM     SMH     JKOP   

              2       4        2.85       700     1000      520     2100   
                                         GEOM     BASIS   MCVARS     RHF  

 PROGRAMS   *        TOTAL   CCSD(T)        HF       INT
 CPU TIMES  *         2.05      1.18      0.21      0.55
 REAL TIME  *         3.07 SEC
 DISK USED  *        75.75 MB      
 **********************************************************************************************************************************

 CCSD(T)/cc-pVTZ-DK energy=   -130.378929192958

        CCSD(T)         HF-SCF  
   -130.37892919   -129.91922254
 **********************************************************************************************************************************
 Molpro calculation terminated
 Variable memory released
