
 Primary working directories    : /tmp/r2666/235262.maple
 Secondary working directories  : /tmp/r2666/235262.maple
 Wavefunction directory         : /ddn/home4/r2666/wfu/
 Main file repository           : /tmp/r2666/235262.maple/

 SHA1      : d5ffa45e93fdbca01ffc919aa182cfdae0147319
 NAME      : 2015.1.35
 ARCHNAME  : linux/x86_64
 FC        : /opt/intel/composer_xe_2015.1.133/bin/intel64/ifort
 BLASLIB   : -Wl,-_start-group /opt/intel/mkl/lib/intel64/libmkl_intel_ilp64.a /opt/intel/mkl/lib/intel64/libmkl_intel_thread.a /opt/intel/mkl/lib/intel64/libmkl_core.a -Wl,-_end-group
 id        : olemiss

 Nodes     nprocs
 cn022        1

 Using customized tuning parameters: mindgm=1; mindgv=20; mindgc=4; mindgr=1; noblas=0; minvec=7
 default implementation of scratch files=df  

 ***,hno CCSD(T)/TZ-F12 QFF
 memory, 995, m;
 gthresh,energy=1.d-12,zero=1.d-22,oneint=1.d-22,twoint=1.d-22;
 gthresh,optgrad=1.d-8,optstep=1.d-8;
 nocompress;
 geomtyp=xyz
 bohr
 geometry={
 3
        117       117
 N        0.0000000000       -0.1717999858       -1.1440776674
 H        0.0000000000        1.6751194402       -1.9294128789
 O        0.0000000000        0.0384483356        1.1229009553
 }
 
 basis=vtz-dk
 dkroll=1
   {hf,maxit=500;accu,20;}
 {ccsd(t),nocheck,maxit=250;orbital,IGNORE_ERROR;}

 Variables initialized (889), CPU time= 0.01 sec
 Commands  initialized (702), CPU time= 0.00 sec, 572 directives.
 Default parameters read. Elapsed time= 0.09 sec

 Checking input...
 Passed
1


                                         ***  PROGRAM SYSTEM MOLPRO  ***
                                       Copyright, TTI GmbH Stuttgart, 2015
                                    Version 2015.1 linked Jul  9 2018 13:16:40


 **********************************************************************************************************************************
 LABEL *   hno CCSD(T)/TZ-F12 QFF                                                        
  64 bit serial version                                                                  DATE: 08-Feb-20          TIME: 17:57:25  
 **********************************************************************************************************************************

 SHA1:             d5ffa45e93fdbca01ffc919aa182cfdae0147319
 **********************************************************************************************************************************

 THRESHOLDS:

 ZERO    =  1.00D-22  ONEINT  =  1.00D-22  TWOINT  =  1.00D-22  PREFAC  =  1.00D-14  LOCALI  =  1.00D-09  EORDER  =  1.00D-04
 ENERGY  =  1.00D-12  ETEST   =  0.00D+00  EDENS   =  0.00D+00  THRDEDEF=  1.00D-06  GRADIENT=  1.00D-02  STEP    =  1.00D-03
 ORBITAL =  1.00D-05  CIVEC   =  1.00D-05  COEFF   =  1.00D-04  PRINTCI =  5.00D-02  PUNCHCI =  9.90D+01  OPTGRAD =  3.00D-04
 OPTENERG=  1.00D-06  OPTSTEP =  3.00D-04  THRGRAD =  1.00D-10  COMPRESS=  1.00D-11  VARMIN  =  1.00D-07  VARMAX  =  1.00D-03
 THRDOUB =  0.00D+00  THRDIV  =  1.00D-05  THRRED  =  1.00D-07  THRPSP  =  1.00D+00  THRDC   =  1.00D-10  THRCS   =  1.00D-10
 THRNRM  =  1.00D-08  THREQ   =  0.00D+00  THRDE   =  1.00D+00  THRREF  =  1.00D-05  SPARFAC =  1.00D+00  THRDLP  =  1.00D-07
 THRDIA  =  1.00D-10  THRDLS  =  1.00D-07  THRGPS  =  0.00D+00  THRKEX  =  0.00D+00  THRDIS  =  2.00D-01  THRVAR  =  1.00D-10
 THRLOC  =  1.00D-06  THRGAP  =  1.00D-06  THRLOCT = -1.00D+00  THRGAPT = -1.00D+00  THRORB  =  1.00D-06  THRMLTP =  0.00D+00
 THRCPQCI=  1.00D-10  KEXTA   =  0.00D+00  THRCOARS=  0.00D+00  SYMTOL  =  1.00D-06  GRADTOL =  1.00D-06  THROVL  =  1.00D-08
 THRORTH =  1.00D-08  GRID    =  1.00D-06  GRIDMAX =  1.00D-03  DTMAX   =  0.00D+00  THROCCDE=  1.00D-01  THROCCDE=  1.00D-01



 THRESHOLDS:

 ZERO    =  1.00D-22  ONEINT  =  1.00D-22  TWOINT  =  1.00D-22  PREFAC  =  1.00D-14  LOCALI  =  1.00D-09  EORDER  =  1.00D-04
 ENERGY  =  1.00D-12  ETEST   =  0.00D+00  EDENS   =  0.00D+00  THRDEDEF=  1.00D-06  GRADIENT=  1.00D-02  STEP    =  1.00D-03
 ORBITAL =  1.00D-05  CIVEC   =  1.00D-05  COEFF   =  1.00D-04  PRINTCI =  5.00D-02  PUNCHCI =  9.90D+01  OPTGRAD =  1.00D-08
 OPTENERG=  1.00D-06  OPTSTEP =  1.00D-08  THRGRAD =  1.00D-10  COMPRESS=  1.00D-11  VARMIN  =  1.00D-07  VARMAX  =  1.00D-03
 THRDOUB =  0.00D+00  THRDIV  =  1.00D-05  THRRED  =  1.00D-07  THRPSP  =  1.00D+00  THRDC   =  1.00D-10  THRCS   =  1.00D-10
 THRNRM  =  1.00D-08  THREQ   =  0.00D+00  THRDE   =  1.00D+00  THRREF  =  1.00D-05  SPARFAC =  1.00D+00  THRDLP  =  1.00D-07
 THRDIA  =  1.00D-10  THRDLS  =  1.00D-07  THRGPS  =  0.00D+00  THRKEX  =  0.00D+00  THRDIS  =  2.00D-01  THRVAR  =  1.00D-10
 THRLOC  =  1.00D-06  THRGAP  =  1.00D-06  THRLOCT = -1.00D+00  THRGAPT = -1.00D+00  THRORB  =  1.00D-06  THRMLTP =  0.00D+00
 THRCPQCI=  1.00D-10  KEXTA   =  0.00D+00  THRCOARS=  0.00D+00  SYMTOL  =  1.00D-06  GRADTOL =  1.00D-06  THROVL  =  1.00D-08
 THRORTH =  1.00D-08  GRID    =  1.00D-06  GRIDMAX =  1.00D-03  DTMAX   =  0.00D+00  THROCCDE=  1.00D-01  THROCCDE=  1.00D-01



 Input parameters for SORTINT:

 COMPRESS =    0.000000
 C_FINAL  =    1.000000
 DEBUG    =   -1.000000
 C_SORT1  =    0.000000
 C_SEWARD =    0.000000
 THRESH   =    0.000000
 IO       =  molpro                                                          
 SPRI     =    0.000000
 SETTING GEOMTYP        =    XYZ
 ZUNIT=BOHR
 

 Variable memory set to  995000000 words,  buffer space   230000 words

 SETTING BASIS          =    VTZ-DK
 SETTING DKROLL         =         1.00000000                                  


 Recomputing integrals since basis changed


 Using spherical harmonics

 Library entry N      S cc-pVTZ-DK           selected for orbital group  1
 Library entry N      P cc-pVTZ-DK           selected for orbital group  1
 Library entry N      D cc-pVTZ-DK           selected for orbital group  1
 Library entry N      F cc-pVTZ-DK           selected for orbital group  1
 Library entry H      S cc-pVTZ-DK           selected for orbital group  2
 Library entry H      P cc-pVTZ-DK           selected for orbital group  2
 Library entry H      D cc-pVTZ-DK           selected for orbital group  2
 Library entry O      S cc-pVTZ-DK           selected for orbital group  3
 Library entry O      P cc-pVTZ-DK           selected for orbital group  3
 Library entry O      D cc-pVTZ-DK           selected for orbital group  3
 Library entry O      F cc-pVTZ-DK           selected for orbital group  3


 PROGRAM * SEWARD (Integral evaluation for generally contracted gaussian basis sets)     Author: Roland Lindh, 1990

 Geometry written to block  1 of record 700


 Point group  Cs  



 ATOMIC COORDINATES

 NR  ATOM    CHARGE       X              Y              Z

   1  N       7.00    0.000000000   -0.171799986   -1.144077667
   2  H       1.00    0.000000000    1.675119440   -1.929412879
   3  O       8.00    0.000000000    0.038448336    1.122900955

 Bond lengths in Bohr (Angstrom)

 1-2  2.006953602  1-3  2.276707366
     ( 1.062034110)     ( 1.204781654)

 Bond angles

  2-1-3  107.73718228

 NUCLEAR CHARGE:                   16
 NUMBER OF PRIMITIVE AOS:         111
 NUMBER OF SYMMETRY AOS:          100
 NUMBER OF CONTRACTIONS:           74   (  50A'  +  24A"  )
 NUMBER OF CORE ORBITALS:           2   (   2A'  +   0A"  )
 NUMBER OF VALENCE ORBITALS:        9   (   7A'  +   2A"  )


 NUCLEAR REPULSION ENERGY   30.39465052

 One-electron integrals computed with SEWARD

 2nd-order Douglas-Kroll-Hess method activated. Optimal DKH parametrization is used.

 Computing Douglas-Kroll / X2C integrals


        1874254. INTEGRALS WRITTEN OUT IN     458 BLOCKS ON RECORD 1290 OF FILE 1


 NUMBER OF SORTED TWO-ELECTRON INTEGRALS:    2006100.     BUFFER LENGTH:  32768
 NUMBER OF SEGMENTS:   1  SEGMENT LENGTH:    2006100      RECORD LENGTH: 524288

 Memory used in sort:       2.56 MW

 SORT1 READ     1874254. AND WROTE     1914161. INTEGRALS IN      6 RECORDS. CPU TIME:     0.04 SEC, REAL TIME:     0.06 SEC
 SORT2 READ     1914161. AND WROTE     2006100. INTEGRALS IN      1 RECORDS. CPU TIME:     0.07 SEC, REAL TIME:     0.07 SEC

 FILE SIZES:   FILE 1:    50.2 MBYTE,  FILE 4:    25.2 MBYTE,   TOTAL:     75.4 MBYTE

 OPERATOR DM      FOR CENTER  0  COORDINATES:    0.000000    0.000000    0.000000

 Eigenvalues of metric

         1 0.247E-02 0.400E-02 0.412E-02 0.851E-02 0.132E-01 0.327E-01 0.424E-01 0.464E-01
         2 0.342E-01 0.466E-01 0.101E+00 0.114E+00 0.235E+00 0.345E+00 0.396E+00 0.450E+00


 **********************************************************************************************************************************
 DATASETS  * FILE   NREC   LENGTH (MB)   RECORD NAMES
              1      23       36.03       500      610      700      900      950      970     1000      129      960     1700   
                                          VAR    BASINP    GEOM    SYMINP    ZMAT    AOBASIS   BASIS     P2S    ABASIS    OPER   
                                         1101     1401     1411     1412     1650     1100     1400     1410     1200     1210   
                                          SR      EKINR    POTR     PVPR    MOLCAS      S      EKIN      POT      H0       H01  
                                         1300     1080     1600   
                                         ERIS     AOSYM     SMH  

 PROGRAMS   *        TOTAL       INT
 CPU TIMES  *         0.80      0.68
 REAL TIME  *         1.48 SEC
 DISK USED  *        75.75 MB      
 **********************************************************************************************************************************


 PROGRAM * RHF-SCF (CLOSED SHELL)       Authors: W. Meyer, H.-J. Werner


 NUMBER OF ELECTRONS:       8+    8-
 CONVERGENCE THRESHOLDS:    1.00E-10 (Density)    1.00E-13 (Energy)
 MAX. NUMBER OF ITERATIONS:      500
 INTERPOLATION TYPE:            DIIS
 INTERPOLATION STEPS:              2 (START)      1 (STEP)
 LEVEL SHIFTS:                  0.00 (CLOSED)  0.00 (OPEN) 



 Orbital guess generated from atomic densities. Full valence occupancy:    9   2

 Molecular orbital dump at record        2100.2

 Initial occupancy:   7   1

 ITERATION    DDIFF          GRAD             ENERGY        2-EL.EN.            DIPOLE MOMENTS         DIIS   ORB.
    1      0.000D+00      0.000D+00      -129.86753044    154.265056    0.00000    0.57847   -1.03039    0    start
    2      0.000D+00      0.136D-01      -129.89434936    155.391002    0.00000    0.61166   -0.21608    1    diag
    3      0.185D-01      0.104D-01      -129.91673670    155.512318    0.00000    0.55592   -0.59310    2    diag
    4      0.901D-02      0.154D-02      -129.91746767    155.247703    0.00000    0.56456   -0.53442    3    diag
    5      0.165D-02      0.515D-03      -129.91758308    155.333685    0.00000    0.57002   -0.53550    4    diag
    6      0.719D-03      0.155D-03      -129.91760232    155.318601    0.00000    0.57054   -0.53133    5    diag
    7      0.280D-03      0.771D-04      -129.91760792    155.320965    0.00000    0.57180   -0.52884    6    diag
    8      0.193D-03      0.246D-04      -129.91760844    155.320277    0.00000    0.57182   -0.52805    7    diag
    9      0.646D-04      0.447D-05      -129.91760846    155.320161    0.00000    0.57177   -0.52789    8    diag
   10      0.125D-04      0.988D-06      -129.91760846    155.320142    0.00000    0.57174   -0.52787    9    orth
   11      0.278D-05      0.195D-06      -129.91760846    155.320138    0.00000    0.57173   -0.52786    9    diag
   12      0.514D-06      0.407D-07      -129.91760846    155.320137    0.00000    0.57173   -0.52786    9    diag
   13      0.114D-06      0.101D-07      -129.91760846    155.320136    0.00000    0.57173   -0.52786    9    diag
   14      0.286D-07      0.184D-08      -129.91760846    155.320136    0.00000    0.57173   -0.52786    9    diag
   15      0.462D-08      0.481D-09      -129.91760846    155.320136    0.00000    0.57173   -0.52786    9    diag
   16      0.110D-08      0.120D-09      -129.91760846    155.320136    0.00000    0.57173   -0.52786    9    diag
   17      0.205D-09      0.356D-10      -129.91760846    155.320136    0.00000    0.57173   -0.52786    9    diag
   18      0.662D-10      0.120D-10      -129.91760846    155.320136    0.00000    0.57173   -0.52786    0    orth

 Final occupancy:   7   1

 !RHF STATE 1.1 Energy               -129.917608460876
 Nuclear energy                        30.39465052
 One-electron energy                 -237.97232710
 Two-electron energy                   77.66006812
 Virial quotient                       -0.99756516
 !RHF STATE 1.1 Dipole moment           0.00000000     0.57172606    -0.52786178
 Dipole moment /Debye                   0.00000000     1.45308751    -1.34160293

 Orbital energies:

         1.1          2.1          3.1          4.1          5.1          6.1          7.1          8.1          9.1
    -20.664865   -15.717735    -1.530153    -0.988686    -0.742972    -0.662598    -0.425499     0.143666     0.370030

         1.2          2.2          3.2
     -0.593588     0.087677     0.612631

 HOMO      7.1    -0.425499 =     -11.5784eV
 LUMO      2.2     0.087677 =       2.3858eV
 LUMO-HOMO         0.513175 =      13.9642eV


 **********************************************************************************************************************************
 DATASETS  * FILE   NREC   LENGTH (MB)   RECORD NAMES
              1      23       36.03       500      610      700      900      950      970     1000      129      960     1700   
                                          VAR    BASINP    GEOM    SYMINP    ZMAT    AOBASIS   BASIS     P2S    ABASIS    OPER   
                                         1101     1401     1411     1412     1650     1100     1400     1410     1200     1210   
                                          SR      EKINR    POTR     PVPR    MOLCAS      S      EKIN      POT      H0       H01  
                                         1300     1080     1600   
                                         ERIS     AOSYM     SMH  

              2       4        2.85       700     1000      520     2100   
                                         GEOM     BASIS   MCVARS     RHF  

 PROGRAMS   *        TOTAL        HF       INT
 CPU TIMES  *         1.03      0.23      0.68
 REAL TIME  *         1.75 SEC
 DISK USED  *        75.75 MB      
 **********************************************************************************************************************************


 PROGRAM * CCSD (Closed-shell coupled cluster)     Authors: C. Hampel, H.-J. Werner, 1991, M. Deegan, P.J. Knowles, 1992


 Convergence thresholds:  THRVAR = 1.00D-08  THRDEN = 1.00D-12

 CCSD(T)     terms to be evaluated (factor= 1.000)


 Number of core orbitals:           2 (   2   0 )
 Number of closed-shell orbitals:   6 (   5   1 )
 Number of external orbitals:      66 (  43  23 )

 Molecular orbitals read from record     2100.2  Type=RHF/CANONICAL (state 1.1)

 Number of N-1 electron functions:               6
 Number of N-2 electron functions:              21
 Number of singly external CSFs:               238
 Number of doubly external CSFs:             41002
 Total number of CSFs:                       41241

 Length of J-op  integral file:               0.00 MB
 Length of K-op  integral file:               0.25 MB
 Length of 3-ext integral record:             0.00 MB

 Memory could be reduced to 1.65 Mwords without degradation in triples

 Integral transformation finished. Total CPU:   0.03 sec, npass=  1  Memory used:   0.55 MW

 Reference energy:                   -129.91760846

 MP2 singlet pair energy:              -0.27367214
 MP2 triplet pair energy:              -0.16250508
 MP2 correlation energy:               -0.43617722
 MP2 total energy:                   -130.35378568

 SCS-MP2 correlation energy:           -0.42952084   (PS=  1.200000  PT=  0.333333)
 SCS-MP2 total energy:               -130.34712930

 ITER.      SQ.NORM     CORR.ENERGY   TOTAL ENERGY   ENERGY CHANGE        DEN1      VAR(S)    VAR(P)  DIIS     TIME  TIME/IT
   1      1.11845000    -0.44134484  -130.35895330    -0.00516762     0.01057510  0.29D-02  0.30D-02  1  1     0.09     0.06
   2      1.12927683    -0.44161611  -130.35922457    -0.00027127    -0.01226177  0.87D-04  0.50D-03  2  2     0.14     0.06
   3      1.13554502    -0.44200253  -130.35961099    -0.00038642    -0.00297845  0.47D-04  0.50D-04  3  3     0.20     0.06
   4      1.13832685    -0.44202779  -130.35963625    -0.00002527    -0.00095387  0.41D-05  0.88D-05  4  4     0.25     0.06
   5      1.13931536    -0.44205723  -130.35966569    -0.00002944    -0.00020514  0.14D-05  0.16D-05  5  5     0.30     0.06
   6      1.13967274    -0.44204088  -130.35964934     0.00001636    -0.00004054  0.11D-06  0.40D-06  6  6     0.36     0.06
   7      1.13975912    -0.44204266  -130.35965112    -0.00000178    -0.00000227  0.13D-07  0.84D-07  6  1     0.41     0.06
   8      1.13979004    -0.44204264  -130.35965110     0.00000002     0.00000175  0.40D-08  0.10D-07  6  2     0.47     0.06
   9      1.13979789    -0.44204241  -130.35965087     0.00000023    -0.00000220  0.24D-08  0.11D-08  6  3     0.53     0.06
  10      1.13979673    -0.44204291  -130.35965138    -0.00000050     0.00000058  0.47D-09  0.20D-09  6  4     0.59     0.06
  11      1.13979500    -0.44204297  -130.35965143    -0.00000006     0.00000020  0.15D-09  0.23D-10  6  5     0.64     0.06
  12      1.13979360    -0.44204315  -130.35965161    -0.00000018     0.00000043  0.15D-10  0.76D-11  6  6     0.70     0.06
  13      1.13979299    -0.44204315  -130.35965161    -0.00000001     0.00000012  0.67D-11  0.12D-11  6  1     0.75     0.06
  14      1.13979260    -0.44204317  -130.35965163    -0.00000002     0.00000008  0.96D-12  0.42D-12  6  2     0.81     0.06
  15      1.13979246    -0.44204317  -130.35965164    -0.00000000     0.00000001  0.25D-12  0.13D-12  6  3     0.87     0.06
  16      1.13979235    -0.44204318  -130.35965164    -0.00000000     0.00000002  0.70D-14  0.35D-13  6  1     0.92     0.06
  17      1.13979234    -0.44204318  -130.35965164     0.00000000    -0.00000000  0.30D-14  0.25D-14  6  4     0.98     0.06
  18      1.13979233    -0.44204318  -130.35965164    -0.00000000     0.00000000  0.69D-15  0.45D-15  6  5     1.04     0.06
  19      1.13979233    -0.44204318  -130.35965164     0.00000000    -0.00000000  0.12D-15  0.82D-16  6  6     1.09     0.06
  20      1.13979232    -0.44204318  -130.35965164    -0.00000000     0.00000000  0.18D-16  0.19D-16  6  2     1.15     0.06
  21      1.13979232    -0.44204318  -130.35965164    -0.00000000     0.00000000  0.26D-17  0.23D-17  6  3     1.20     0.06
  22      1.13979232    -0.44204318  -130.35965164    -0.00000000     0.00000000  0.29D-18  0.36D-18  6  4     1.26     0.06
  23      1.13979232    -0.44204318  -130.35965164    -0.00000000     0.00000000  0.11D-18  0.30D-19  6  1     1.32     0.06
  24      1.13979232    -0.44204318  -130.35965164     0.00000000    -0.00000000  0.16D-19  0.11D-19  6  6     1.38     0.06
  25      1.13979232    -0.44204318  -130.35965164     0.00000000    -0.00000000  0.37D-20  0.71D-21  6  5     1.43     0.06
  26      1.13979232    -0.44204318  -130.35965164     0.00000000    -0.00000000  0.74D-21  0.28D-21  6  2     1.49     0.06
  27      1.13979232    -0.44204318  -130.35965164     0.00000000    -0.00000000  0.24D-22  0.16D-22  6  3     1.55     0.06

 Norm of t1 vector:      0.07497910      S-energy:     0.00000000      T1 diagnostic:  0.01530504
                                                                       D1 diagnostic:  0.04202712

 Doubles amplitudes (print threshold =  0.500E-01):

         I         J         SYM. A    SYM. B    A         B      T(IJ, AB)

         6         6         2         2         1         1     -0.14272594


 Total CPU time for triples:      0.37 sec


 RESULTS
 =======

  Reference energy                   -129.917608460876
  CCSD singlet pair energy             -0.303065524228
  CCSD triplet pair energy             -0.138977654218
  CCSD correlation energy              -0.442043178445

  Triples (T) contribution             -0.019758019064
  Total correlation energy             -0.461801197510

  CCSD total energy                  -130.359651639321
  CCSD[T] energy                     -130.380424015946
  CCSD-T energy                      -130.379011121386
 !CCSD(T) total energy               -130.379409658385

 Timing summary (sec):

 STEP                 CPU(USER)    SYS     CPU(TOT)    WALL
 Transformation          0.04      0.01      0.05      0.05
 CCSD iterations         1.51      0.09      1.60      1.61
 Triples                 0.37      0.00      0.37      0.37

 Program statistics:

 Available memory in ccsd:               994999756
 Min. memory needed in ccsd:                154850
 Max. memory used in ccsd:                  184802
 Max. memory used in cckext:                238416 (27 integral passes)



 **********************************************************************************************************************************
 DATASETS  * FILE   NREC   LENGTH (MB)   RECORD NAMES
              1      24       40.41       500      610      700      900      950      970     1000      129      960     1700   
                                          VAR    BASINP    GEOM    SYMINP    ZMAT    AOBASIS   BASIS     P2S    ABASIS    OPER   
                                         1101     1401     1411     1412     1650     1100     1400     1410     1200     1210   
                                          SR      EKINR    POTR     PVPR    MOLCAS      S      EKIN      POT      H0       H01  
                                         1300     1080     1600     1380   
                                         ERIS     AOSYM     SMH     JKOP   

              2       4        2.85       700     1000      520     2100   
                                         GEOM     BASIS   MCVARS     RHF  

 PROGRAMS   *        TOTAL   CCSD(T)        HF       INT
 CPU TIMES  *         2.98      1.95      0.23      0.68
 REAL TIME  *         3.82 SEC
 DISK USED  *        75.75 MB      
 **********************************************************************************************************************************

 CCSD(T)/cc-pVTZ-DK energy=   -130.379409658385

        CCSD(T)         HF-SCF  
   -130.37940966   -129.91760846
 **********************************************************************************************************************************
 Molpro calculation terminated
 Variable memory released
