
 Primary working directories    : /tmp/r2666/235185.maple
 Secondary working directories  : /tmp/r2666/235185.maple
 Wavefunction directory         : /ddn/home4/r2666/wfu/
 Main file repository           : /tmp/r2666/235185.maple/

 SHA1      : d5ffa45e93fdbca01ffc919aa182cfdae0147319
 NAME      : 2015.1.35
 ARCHNAME  : linux/x86_64
 FC        : /opt/intel/composer_xe_2015.1.133/bin/intel64/ifort
 BLASLIB   : -Wl,-_start-group /opt/intel/mkl/lib/intel64/libmkl_intel_ilp64.a /opt/intel/mkl/lib/intel64/libmkl_intel_thread.a /opt/intel/mkl/lib/intel64/libmkl_core.a -Wl,-_end-group
 id        : olemiss

 Nodes     nprocs
 cn042        1

 Using customized tuning parameters: mindgm=1; mindgv=20; mindgc=4; mindgr=1; noblas=0; minvec=7
 default implementation of scratch files=df  

 ***,hno CCSD(T)/TZ-F12 QFF
 memory, 995, m;
 gthresh,energy=1.d-12,zero=1.d-22,oneint=1.d-22,twoint=1.d-22;
 gthresh,optgrad=1.d-8,optstep=1.d-8;
 nocompress;
 geomtyp=xyz
 bohr
 geometry={
 3
         40        40
 N        0.0000000000       -0.1575483052       -1.1576073714
 H        0.0000000000        1.6640188492       -1.9301237665
 O        0.0000000000        0.0352972460        1.1371415470
 }
 
 basis=vtz-dk
 dkroll=1
   {hf,maxit=500;accu,20;}
 {ccsd(t),nocheck,maxit=250;orbital,IGNORE_ERROR;}

 Variables initialized (889), CPU time= 0.01 sec
 Commands  initialized (702), CPU time= 0.01 sec, 572 directives.
 Default parameters read. Elapsed time= 0.09 sec

 Checking input...
 Passed
1


                                         ***  PROGRAM SYSTEM MOLPRO  ***
                                       Copyright, TTI GmbH Stuttgart, 2015
                                    Version 2015.1 linked Jul  9 2018 13:16:40


 **********************************************************************************************************************************
 LABEL *   hno CCSD(T)/TZ-F12 QFF                                                        
  64 bit serial version                                                                  DATE: 08-Feb-20          TIME: 17:57:18  
 **********************************************************************************************************************************

 SHA1:             d5ffa45e93fdbca01ffc919aa182cfdae0147319
 **********************************************************************************************************************************

 THRESHOLDS:

 ZERO    =  1.00D-22  ONEINT  =  1.00D-22  TWOINT  =  1.00D-22  PREFAC  =  1.00D-14  LOCALI  =  1.00D-09  EORDER  =  1.00D-04
 ENERGY  =  1.00D-12  ETEST   =  0.00D+00  EDENS   =  0.00D+00  THRDEDEF=  1.00D-06  GRADIENT=  1.00D-02  STEP    =  1.00D-03
 ORBITAL =  1.00D-05  CIVEC   =  1.00D-05  COEFF   =  1.00D-04  PRINTCI =  5.00D-02  PUNCHCI =  9.90D+01  OPTGRAD =  3.00D-04
 OPTENERG=  1.00D-06  OPTSTEP =  3.00D-04  THRGRAD =  1.00D-10  COMPRESS=  1.00D-11  VARMIN  =  1.00D-07  VARMAX  =  1.00D-03
 THRDOUB =  0.00D+00  THRDIV  =  1.00D-05  THRRED  =  1.00D-07  THRPSP  =  1.00D+00  THRDC   =  1.00D-10  THRCS   =  1.00D-10
 THRNRM  =  1.00D-08  THREQ   =  0.00D+00  THRDE   =  1.00D+00  THRREF  =  1.00D-05  SPARFAC =  1.00D+00  THRDLP  =  1.00D-07
 THRDIA  =  1.00D-10  THRDLS  =  1.00D-07  THRGPS  =  0.00D+00  THRKEX  =  0.00D+00  THRDIS  =  2.00D-01  THRVAR  =  1.00D-10
 THRLOC  =  1.00D-06  THRGAP  =  1.00D-06  THRLOCT = -1.00D+00  THRGAPT = -1.00D+00  THRORB  =  1.00D-06  THRMLTP =  0.00D+00
 THRCPQCI=  1.00D-10  KEXTA   =  0.00D+00  THRCOARS=  0.00D+00  SYMTOL  =  1.00D-06  GRADTOL =  1.00D-06  THROVL  =  1.00D-08
 THRORTH =  1.00D-08  GRID    =  1.00D-06  GRIDMAX =  1.00D-03  DTMAX   =  0.00D+00  THROCCDE=  1.00D-01  THROCCDE=  1.00D-01



 THRESHOLDS:

 ZERO    =  1.00D-22  ONEINT  =  1.00D-22  TWOINT  =  1.00D-22  PREFAC  =  1.00D-14  LOCALI  =  1.00D-09  EORDER  =  1.00D-04
 ENERGY  =  1.00D-12  ETEST   =  0.00D+00  EDENS   =  0.00D+00  THRDEDEF=  1.00D-06  GRADIENT=  1.00D-02  STEP    =  1.00D-03
 ORBITAL =  1.00D-05  CIVEC   =  1.00D-05  COEFF   =  1.00D-04  PRINTCI =  5.00D-02  PUNCHCI =  9.90D+01  OPTGRAD =  1.00D-08
 OPTENERG=  1.00D-06  OPTSTEP =  1.00D-08  THRGRAD =  1.00D-10  COMPRESS=  1.00D-11  VARMIN  =  1.00D-07  VARMAX  =  1.00D-03
 THRDOUB =  0.00D+00  THRDIV  =  1.00D-05  THRRED  =  1.00D-07  THRPSP  =  1.00D+00  THRDC   =  1.00D-10  THRCS   =  1.00D-10
 THRNRM  =  1.00D-08  THREQ   =  0.00D+00  THRDE   =  1.00D+00  THRREF  =  1.00D-05  SPARFAC =  1.00D+00  THRDLP  =  1.00D-07
 THRDIA  =  1.00D-10  THRDLS  =  1.00D-07  THRGPS  =  0.00D+00  THRKEX  =  0.00D+00  THRDIS  =  2.00D-01  THRVAR  =  1.00D-10
 THRLOC  =  1.00D-06  THRGAP  =  1.00D-06  THRLOCT = -1.00D+00  THRGAPT = -1.00D+00  THRORB  =  1.00D-06  THRMLTP =  0.00D+00
 THRCPQCI=  1.00D-10  KEXTA   =  0.00D+00  THRCOARS=  0.00D+00  SYMTOL  =  1.00D-06  GRADTOL =  1.00D-06  THROVL  =  1.00D-08
 THRORTH =  1.00D-08  GRID    =  1.00D-06  GRIDMAX =  1.00D-03  DTMAX   =  0.00D+00  THROCCDE=  1.00D-01  THROCCDE=  1.00D-01



 Input parameters for SORTINT:

 COMPRESS =    0.000000
 C_FINAL  =    1.000000
 DEBUG    =   -1.000000
 C_SORT1  =    0.000000
 C_SEWARD =    0.000000
 THRESH   =    0.000000
 IO       =  molpro                                                          
 SPRI     =    0.000000
 SETTING GEOMTYP        =    XYZ
 ZUNIT=BOHR
 

 Variable memory set to  995000000 words,  buffer space   230000 words

 SETTING BASIS          =    VTZ-DK
 SETTING DKROLL         =         1.00000000                                  


 Recomputing integrals since basis changed


 Using spherical harmonics

 Library entry N      S cc-pVTZ-DK           selected for orbital group  1
 Library entry N      P cc-pVTZ-DK           selected for orbital group  1
 Library entry N      D cc-pVTZ-DK           selected for orbital group  1
 Library entry N      F cc-pVTZ-DK           selected for orbital group  1
 Library entry H      S cc-pVTZ-DK           selected for orbital group  2
 Library entry H      P cc-pVTZ-DK           selected for orbital group  2
 Library entry H      D cc-pVTZ-DK           selected for orbital group  2
 Library entry O      S cc-pVTZ-DK           selected for orbital group  3
 Library entry O      P cc-pVTZ-DK           selected for orbital group  3
 Library entry O      D cc-pVTZ-DK           selected for orbital group  3
 Library entry O      F cc-pVTZ-DK           selected for orbital group  3


 PROGRAM * SEWARD (Integral evaluation for generally contracted gaussian basis sets)     Author: Roland Lindh, 1990

 Geometry written to block  1 of record 700


 Point group  Cs  



 ATOMIC COORDINATES

 NR  ATOM    CHARGE       X              Y              Z

   1  N       7.00    0.000000000   -0.157548305   -1.157607371
   2  H       1.00    0.000000000    1.664018849   -1.930123766
   3  O       8.00    0.000000000    0.035297246    1.137141547

 Bond lengths in Bohr (Angstrom)

 1-2  1.978607712  1-3  2.302837816
     ( 1.047034111)     ( 1.218609292)

 Bond angles

  2-1-3  108.17780648

 NUCLEAR CHARGE:                   16
 NUMBER OF PRIMITIVE AOS:         111
 NUMBER OF SYMMETRY AOS:          100
 NUMBER OF CONTRACTIONS:           74   (  50A'  +  24A"  )
 NUMBER OF CORE ORBITALS:           2   (   2A'  +   0A"  )
 NUMBER OF VALENCE ORBITALS:        9   (   7A'  +   2A"  )


 NUCLEAR REPULSION ENERGY   30.15923112

 One-electron integrals computed with SEWARD

 2nd-order Douglas-Kroll-Hess method activated. Optimal DKH parametrization is used.

 Computing Douglas-Kroll / X2C integrals


        1874283. INTEGRALS WRITTEN OUT IN     458 BLOCKS ON RECORD 1290 OF FILE 1


 NUMBER OF SORTED TWO-ELECTRON INTEGRALS:    2006100.     BUFFER LENGTH:  32768
 NUMBER OF SEGMENTS:   1  SEGMENT LENGTH:    2006100      RECORD LENGTH: 524288

 Memory used in sort:       2.56 MW

 SORT1 READ     1874283. AND WROTE     1914195. INTEGRALS IN      6 RECORDS. CPU TIME:     0.08 SEC, REAL TIME:     0.08 SEC
 SORT2 READ     1914195. AND WROTE     2006100. INTEGRALS IN      1 RECORDS. CPU TIME:     0.06 SEC, REAL TIME:     0.08 SEC

 FILE SIZES:   FILE 1:    50.2 MBYTE,  FILE 4:    25.2 MBYTE,   TOTAL:     75.4 MBYTE

 OPERATOR DM      FOR CENTER  0  COORDINATES:    0.000000    0.000000    0.000000

 Eigenvalues of metric

         1 0.247E-02 0.398E-02 0.432E-02 0.832E-02 0.129E-01 0.332E-01 0.431E-01 0.464E-01
         2 0.347E-01 0.466E-01 0.103E+00 0.111E+00 0.237E+00 0.341E+00 0.397E+00 0.452E+00


 **********************************************************************************************************************************
 DATASETS  * FILE   NREC   LENGTH (MB)   RECORD NAMES
              1      23       36.03       500      610      700      900      950      970     1000      129      960     1700   
                                          VAR    BASINP    GEOM    SYMINP    ZMAT    AOBASIS   BASIS     P2S    ABASIS    OPER   
                                         1101     1401     1411     1412     1650     1100     1400     1410     1200     1210   
                                          SR      EKINR    POTR     PVPR    MOLCAS      S      EKIN      POT      H0       H01  
                                         1300     1080     1600   
                                         ERIS     AOSYM     SMH  

 PROGRAMS   *        TOTAL       INT
 CPU TIMES  *         0.81      0.69
 REAL TIME  *         1.63 SEC
 DISK USED  *        75.75 MB      
 **********************************************************************************************************************************


 PROGRAM * RHF-SCF (CLOSED SHELL)       Authors: W. Meyer, H.-J. Werner


 NUMBER OF ELECTRONS:       8+    8-
 CONVERGENCE THRESHOLDS:    1.00E-10 (Density)    1.00E-13 (Energy)
 MAX. NUMBER OF ITERATIONS:      500
 INTERPOLATION TYPE:            DIIS
 INTERPOLATION STEPS:              2 (START)      1 (STEP)
 LEVEL SHIFTS:                  0.00 (CLOSED)  0.00 (OPEN) 



 Orbital guess generated from atomic densities. Full valence occupancy:    9   2

 Molecular orbital dump at record        2100.2

 Initial occupancy:   7   1

 ITERATION    DDIFF          GRAD             ENERGY        2-EL.EN.            DIPOLE MOMENTS         DIIS   ORB.
    1      0.000D+00      0.000D+00      -129.86477512    153.852439    0.00000    0.59825   -1.07326    0    start
    2      0.000D+00      0.137D-01      -129.89113844    154.937081    0.00000    0.62227   -0.21590    1    diag
    3      0.189D-01      0.107D-01      -129.91516285    155.091247    0.00000    0.56997   -0.61584    2    diag
    4      0.927D-02      0.157D-02      -129.91591650    154.819133    0.00000    0.57829   -0.55487    3    diag
    5      0.168D-02      0.521D-03      -129.91603374    154.905298    0.00000    0.58361   -0.55569    4    diag
    6      0.726D-03      0.155D-03      -129.91605319    154.890258    0.00000    0.58409   -0.55134    5    diag
    7      0.281D-03      0.788D-04      -129.91605912    154.892417    0.00000    0.58527   -0.54868    6    diag
    8      0.197D-03      0.262D-04      -129.91605975    154.891684    0.00000    0.58528   -0.54778    7    diag
    9      0.711D-04      0.478D-05      -129.91605978    154.891557    0.00000    0.58523   -0.54761    8    diag
   10      0.139D-04      0.103D-05      -129.91605978    154.891540    0.00000    0.58519   -0.54759    9    orth
   11      0.290D-05      0.201D-06      -129.91605978    154.891536    0.00000    0.58519   -0.54759    9    diag
   12      0.521D-06      0.433D-07      -129.91605978    154.891534    0.00000    0.58519   -0.54759    9    diag
   13      0.115D-06      0.111D-07      -129.91605978    154.891534    0.00000    0.58519   -0.54759    9    diag
   14      0.294D-07      0.202D-08      -129.91605978    154.891534    0.00000    0.58519   -0.54759    9    diag
   15      0.438D-08      0.518D-09      -129.91605978    154.891534    0.00000    0.58519   -0.54759    9    diag
   16      0.111D-08      0.129D-09      -129.91605978    154.891534    0.00000    0.58519   -0.54759    9    diag
   17      0.186D-09      0.375D-10      -129.91605978    154.891534    0.00000    0.58519   -0.54759    9    diag
   18      0.595D-10      0.131D-10      -129.91605978    154.891534    0.00000    0.58519   -0.54759    0    orth

 Final occupancy:   7   1

 !RHF STATE 1.1 Energy               -129.916059776221
 Nuclear energy                        30.15923112
 One-electron energy                 -237.52105795
 Two-electron energy                   77.44576705
 Virial quotient                       -0.99780865
 !RHF STATE 1.1 Dipole moment           0.00000000     0.58518519    -0.54758509
 Dipole moment /Debye                   0.00000000     1.48729499    -1.39173131

 Orbital energies:

         1.1          2.1          3.1          4.1          5.1          6.1          7.1          8.1          9.1
    -20.665969   -15.717949    -1.518841    -0.995910    -0.740364    -0.658687    -0.430253     0.143750     0.367998

         1.2          2.2          3.2
     -0.586790     0.082548     0.614241

 HOMO      7.1    -0.430253 =     -11.7078eV
 LUMO      2.2     0.082548 =       2.2463eV
 LUMO-HOMO         0.512801 =      13.9540eV


 **********************************************************************************************************************************
 DATASETS  * FILE   NREC   LENGTH (MB)   RECORD NAMES
              1      23       36.03       500      610      700      900      950      970     1000      129      960     1700   
                                          VAR    BASINP    GEOM    SYMINP    ZMAT    AOBASIS   BASIS     P2S    ABASIS    OPER   
                                         1101     1401     1411     1412     1650     1100     1400     1410     1200     1210   
                                          SR      EKINR    POTR     PVPR    MOLCAS      S      EKIN      POT      H0       H01  
                                         1300     1080     1600   
                                         ERIS     AOSYM     SMH  

              2       4        2.85       700     1000      520     2100   
                                         GEOM     BASIS   MCVARS     RHF  

 PROGRAMS   *        TOTAL        HF       INT
 CPU TIMES  *         1.06      0.25      0.69
 REAL TIME  *         1.95 SEC
 DISK USED  *        75.75 MB      
 **********************************************************************************************************************************


 PROGRAM * CCSD (Closed-shell coupled cluster)     Authors: C. Hampel, H.-J. Werner, 1991, M. Deegan, P.J. Knowles, 1992


 Convergence thresholds:  THRVAR = 1.00D-08  THRDEN = 1.00D-12

 CCSD(T)     terms to be evaluated (factor= 1.000)


 Number of core orbitals:           2 (   2   0 )
 Number of closed-shell orbitals:   6 (   5   1 )
 Number of external orbitals:      66 (  43  23 )

 Molecular orbitals read from record     2100.2  Type=RHF/CANONICAL (state 1.1)

 Number of N-1 electron functions:               6
 Number of N-2 electron functions:              21
 Number of singly external CSFs:               238
 Number of doubly external CSFs:             41002
 Total number of CSFs:                       41241

 Length of J-op  integral file:               0.00 MB
 Length of K-op  integral file:               0.25 MB
 Length of 3-ext integral record:             0.00 MB

 Memory could be reduced to 1.65 Mwords without degradation in triples

 Integral transformation finished. Total CPU:   0.05 sec, npass=  1  Memory used:   0.55 MW

 Reference energy:                   -129.91605978

 MP2 singlet pair energy:              -0.27478625
 MP2 triplet pair energy:              -0.16326602
 MP2 correlation energy:               -0.43805228
 MP2 total energy:                   -130.35411205

 SCS-MP2 correlation energy:           -0.43133125   (PS=  1.200000  PT=  0.333333)
 SCS-MP2 total energy:               -130.34739103

 ITER.      SQ.NORM     CORR.ENERGY   TOTAL ENERGY   ENERGY CHANGE        DEN1      VAR(S)    VAR(P)  DIIS     TIME  TIME/IT
   1      1.11945710    -0.44272502  -130.35878479    -0.00467274     0.01152913  0.31D-02  0.31D-02  1  1     0.11     0.06
   2      1.13053517    -0.44289359  -130.35895337    -0.00016857    -0.01252193  0.93D-04  0.52D-03  2  2     0.16     0.06
   3      1.13700885    -0.44329178  -130.35935156    -0.00039819    -0.00304014  0.49D-04  0.53D-04  3  3     0.23     0.06
   4      1.13993154    -0.44331985  -130.35937963    -0.00002807    -0.00098984  0.42D-05  0.93D-05  4  4     0.28     0.07
   5      1.14098247    -0.44335090  -130.35941067    -0.00003104    -0.00021780  0.14D-05  0.17D-05  5  5     0.35     0.07
   6      1.14135355    -0.44333309  -130.35939287     0.00001780    -0.00004266  0.93D-07  0.42D-06  6  6     0.41     0.07
   7      1.14143773    -0.44333543  -130.35939521    -0.00000234    -0.00000157  0.11D-07  0.92D-07  6  1     0.47     0.07
   8      1.14146819    -0.44333531  -130.35939509     0.00000012     0.00000203  0.47D-08  0.11D-07  6  2     0.53     0.07
   9      1.14147620    -0.44333512  -130.35939489     0.00000020    -0.00000236  0.26D-08  0.13D-08  6  3     0.59     0.07
  10      1.14147488    -0.44333564  -130.35939542    -0.00000052     0.00000068  0.50D-09  0.22D-09  6  4     0.65     0.07
  11      1.14147317    -0.44333570  -130.35939547    -0.00000006     0.00000015  0.15D-09  0.24D-10  6  5     0.71     0.07
  12      1.14147177    -0.44333588  -130.35939566    -0.00000019     0.00000044  0.15D-10  0.75D-11  6  6     0.77     0.07
  13      1.14147116    -0.44333589  -130.35939567    -0.00000001     0.00000012  0.64D-11  0.12D-11  6  1     0.83     0.07
  14      1.14147076    -0.44333591  -130.35939569    -0.00000002     0.00000008  0.91D-12  0.44D-12  6  2     0.89     0.07
  15      1.14147061    -0.44333591  -130.35939569    -0.00000000     0.00000002  0.24D-12  0.14D-12  6  3     0.95     0.07
  16      1.14147049    -0.44333592  -130.35939569    -0.00000000     0.00000002  0.78D-14  0.36D-13  6  1     1.02     0.07
  17      1.14147048    -0.44333592  -130.35939569     0.00000000    -0.00000000  0.27D-14  0.24D-14  6  4     1.08     0.07
  18      1.14147047    -0.44333592  -130.35939569    -0.00000000     0.00000000  0.71D-15  0.40D-15  6  5     1.14     0.07
  19      1.14147047    -0.44333592  -130.35939569     0.00000000    -0.00000000  0.14D-15  0.77D-16  6  6     1.20     0.07
  20      1.14147047    -0.44333592  -130.35939569    -0.00000000     0.00000000  0.21D-16  0.20D-16  6  2     1.26     0.07
  21      1.14147047    -0.44333592  -130.35939569    -0.00000000     0.00000000  0.62D-18  0.14D-17  6  4     1.32     0.07
  22      1.14147047    -0.44333592  -130.35939569    -0.00000000     0.00000000  0.84D-19  0.14D-18  6  3     1.38     0.07
  23      1.14147047    -0.44333592  -130.35939569    -0.00000000     0.00000000  0.79D-20  0.15D-19  6  1     1.45     0.07
  24      1.14147047    -0.44333592  -130.35939569     0.00000000     0.00000000  0.39D-20  0.21D-20  6  6     1.51     0.07
  25      1.14147047    -0.44333592  -130.35939569     0.00000000     0.00000000  0.45D-21  0.44D-21  6  5     1.57     0.07

 Norm of t1 vector:      0.07649273      S-energy:     0.00000000      T1 diagnostic:  0.01561401
                                                                       D1 diagnostic:  0.04383775

 Doubles amplitudes (print threshold =  0.500E-01):

         I         J         SYM. A    SYM. B    A         B      T(IJ, AB)

         6         6         2         2         1         1     -0.14678946


 Total CPU time for triples:      0.44 sec


 RESULTS
 =======

  Reference energy                   -129.916059776221
  CCSD singlet pair energy             -0.304199459256
  CCSD triplet pair energy             -0.139136458174
  CCSD correlation energy              -0.443335917428

  Triples (T) contribution             -0.020085721400
  Total correlation energy             -0.463421638828

  CCSD total energy                  -130.359395693649
  CCSD[T] energy                     -130.380541436825
  CCSD-T energy                      -130.379073900305
 !CCSD(T) total energy               -130.379481415049

 Timing summary (sec):

 STEP                 CPU(USER)    SYS     CPU(TOT)    WALL
 Transformation          0.05      0.01      0.06      0.06
 CCSD iterations         1.53      0.15      1.68      1.68
 Triples                 0.44      0.01      0.45      0.44

 Program statistics:

 Available memory in ccsd:               994999756
 Min. memory needed in ccsd:                154850
 Max. memory used in ccsd:                  184802
 Max. memory used in cckext:                238416 (25 integral passes)



 **********************************************************************************************************************************
 DATASETS  * FILE   NREC   LENGTH (MB)   RECORD NAMES
              1      24       40.41       500      610      700      900      950      970     1000      129      960     1700   
                                          VAR    BASINP    GEOM    SYMINP    ZMAT    AOBASIS   BASIS     P2S    ABASIS    OPER   
                                         1101     1401     1411     1412     1650     1100     1400     1410     1200     1210   
                                          SR      EKINR    POTR     PVPR    MOLCAS      S      EKIN      POT      H0       H01  
                                         1300     1080     1600     1380   
                                         ERIS     AOSYM     SMH     JKOP   

              2       4        2.85       700     1000      520     2100   
                                         GEOM     BASIS   MCVARS     RHF  

 PROGRAMS   *        TOTAL   CCSD(T)        HF       INT
 CPU TIMES  *         3.11      2.04      0.25      0.69
 REAL TIME  *         4.18 SEC
 DISK USED  *        75.75 MB      
 **********************************************************************************************************************************

 CCSD(T)/cc-pVTZ-DK energy=   -130.379481415049

        CCSD(T)         HF-SCF  
   -130.37948142   -129.91605978
 **********************************************************************************************************************************
 Molpro calculation terminated
 Variable memory released
