
 Primary working directories    : /tmp/r2666/235156.maple
 Secondary working directories  : /tmp/r2666/235156.maple
 Wavefunction directory         : /ddn/home4/r2666/wfu/
 Main file repository           : /tmp/r2666/235156.maple/

 SHA1      : d5ffa45e93fdbca01ffc919aa182cfdae0147319
 NAME      : 2015.1.35
 ARCHNAME  : linux/x86_64
 FC        : /opt/intel/composer_xe_2015.1.133/bin/intel64/ifort
 BLASLIB   : -Wl,-_start-group /opt/intel/mkl/lib/intel64/libmkl_intel_ilp64.a /opt/intel/mkl/lib/intel64/libmkl_intel_thread.a /opt/intel/mkl/lib/intel64/libmkl_core.a -Wl,-_end-group
 id        : olemiss

 Nodes     nprocs
 cn037        1

 Using customized tuning parameters: mindgm=1; mindgv=20; mindgc=4; mindgr=1; noblas=0; minvec=7
 default implementation of scratch files=df  

 ***,hno CCSD(T)/TZ-F12 QFF
 memory, 995, m;
 gthresh,energy=1.d-12,zero=1.d-22,oneint=1.d-22,twoint=1.d-22;
 gthresh,optgrad=1.d-8,optstep=1.d-8;
 nocompress;
 geomtyp=xyz
 bohr
 geometry={
 3
         11        11
 N        0.0000000000       -0.1546351969       -1.1545936917
 H        0.0000000000        1.6583371210       -1.9231760657
 O        0.0000000000        0.0380658659        1.1271801664
 }
 
 basis=vtz-dk
 dkroll=1
   {hf,maxit=500;accu,20;}
 {ccsd(t),nocheck,maxit=250;orbital,IGNORE_ERROR;}

 Variables initialized (889), CPU time= 0.00 sec
 Commands  initialized (702), CPU time= 0.01 sec, 572 directives.
 Default parameters read. Elapsed time= 0.05 sec

 Checking input...
 Passed
1


                                         ***  PROGRAM SYSTEM MOLPRO  ***
                                       Copyright, TTI GmbH Stuttgart, 2015
                                    Version 2015.1 linked Jul  9 2018 13:16:40


 **********************************************************************************************************************************
 LABEL *   hno CCSD(T)/TZ-F12 QFF                                                        
  64 bit serial version                                                                  DATE: 08-Feb-20          TIME: 17:57:13  
 **********************************************************************************************************************************

 SHA1:             d5ffa45e93fdbca01ffc919aa182cfdae0147319
 **********************************************************************************************************************************

 THRESHOLDS:

 ZERO    =  1.00D-22  ONEINT  =  1.00D-22  TWOINT  =  1.00D-22  PREFAC  =  1.00D-14  LOCALI  =  1.00D-09  EORDER  =  1.00D-04
 ENERGY  =  1.00D-12  ETEST   =  0.00D+00  EDENS   =  0.00D+00  THRDEDEF=  1.00D-06  GRADIENT=  1.00D-02  STEP    =  1.00D-03
 ORBITAL =  1.00D-05  CIVEC   =  1.00D-05  COEFF   =  1.00D-04  PRINTCI =  5.00D-02  PUNCHCI =  9.90D+01  OPTGRAD =  3.00D-04
 OPTENERG=  1.00D-06  OPTSTEP =  3.00D-04  THRGRAD =  1.00D-10  COMPRESS=  1.00D-11  VARMIN  =  1.00D-07  VARMAX  =  1.00D-03
 THRDOUB =  0.00D+00  THRDIV  =  1.00D-05  THRRED  =  1.00D-07  THRPSP  =  1.00D+00  THRDC   =  1.00D-10  THRCS   =  1.00D-10
 THRNRM  =  1.00D-08  THREQ   =  0.00D+00  THRDE   =  1.00D+00  THRREF  =  1.00D-05  SPARFAC =  1.00D+00  THRDLP  =  1.00D-07
 THRDIA  =  1.00D-10  THRDLS  =  1.00D-07  THRGPS  =  0.00D+00  THRKEX  =  0.00D+00  THRDIS  =  2.00D-01  THRVAR  =  1.00D-10
 THRLOC  =  1.00D-06  THRGAP  =  1.00D-06  THRLOCT = -1.00D+00  THRGAPT = -1.00D+00  THRORB  =  1.00D-06  THRMLTP =  0.00D+00
 THRCPQCI=  1.00D-10  KEXTA   =  0.00D+00  THRCOARS=  0.00D+00  SYMTOL  =  1.00D-06  GRADTOL =  1.00D-06  THROVL  =  1.00D-08
 THRORTH =  1.00D-08  GRID    =  1.00D-06  GRIDMAX =  1.00D-03  DTMAX   =  0.00D+00  THROCCDE=  1.00D-01  THROCCDE=  1.00D-01



 THRESHOLDS:

 ZERO    =  1.00D-22  ONEINT  =  1.00D-22  TWOINT  =  1.00D-22  PREFAC  =  1.00D-14  LOCALI  =  1.00D-09  EORDER  =  1.00D-04
 ENERGY  =  1.00D-12  ETEST   =  0.00D+00  EDENS   =  0.00D+00  THRDEDEF=  1.00D-06  GRADIENT=  1.00D-02  STEP    =  1.00D-03
 ORBITAL =  1.00D-05  CIVEC   =  1.00D-05  COEFF   =  1.00D-04  PRINTCI =  5.00D-02  PUNCHCI =  9.90D+01  OPTGRAD =  1.00D-08
 OPTENERG=  1.00D-06  OPTSTEP =  1.00D-08  THRGRAD =  1.00D-10  COMPRESS=  1.00D-11  VARMIN  =  1.00D-07  VARMAX  =  1.00D-03
 THRDOUB =  0.00D+00  THRDIV  =  1.00D-05  THRRED  =  1.00D-07  THRPSP  =  1.00D+00  THRDC   =  1.00D-10  THRCS   =  1.00D-10
 THRNRM  =  1.00D-08  THREQ   =  0.00D+00  THRDE   =  1.00D+00  THRREF  =  1.00D-05  SPARFAC =  1.00D+00  THRDLP  =  1.00D-07
 THRDIA  =  1.00D-10  THRDLS  =  1.00D-07  THRGPS  =  0.00D+00  THRKEX  =  0.00D+00  THRDIS  =  2.00D-01  THRVAR  =  1.00D-10
 THRLOC  =  1.00D-06  THRGAP  =  1.00D-06  THRLOCT = -1.00D+00  THRGAPT = -1.00D+00  THRORB  =  1.00D-06  THRMLTP =  0.00D+00
 THRCPQCI=  1.00D-10  KEXTA   =  0.00D+00  THRCOARS=  0.00D+00  SYMTOL  =  1.00D-06  GRADTOL =  1.00D-06  THROVL  =  1.00D-08
 THRORTH =  1.00D-08  GRID    =  1.00D-06  GRIDMAX =  1.00D-03  DTMAX   =  0.00D+00  THROCCDE=  1.00D-01  THROCCDE=  1.00D-01



 Input parameters for SORTINT:

 COMPRESS =    0.000000
 C_FINAL  =    1.000000
 DEBUG    =   -1.000000
 C_SORT1  =    0.000000
 C_SEWARD =    0.000000
 THRESH   =    0.000000
 IO       =  molpro                                                          
 SPRI     =    0.000000
 SETTING GEOMTYP        =    XYZ
 ZUNIT=BOHR
 

 Variable memory set to  995000000 words,  buffer space   230000 words

 SETTING BASIS          =    VTZ-DK
 SETTING DKROLL         =         1.00000000                                  


 Recomputing integrals since basis changed


 Using spherical harmonics

 Library entry N      S cc-pVTZ-DK           selected for orbital group  1
 Library entry N      P cc-pVTZ-DK           selected for orbital group  1
 Library entry N      D cc-pVTZ-DK           selected for orbital group  1
 Library entry N      F cc-pVTZ-DK           selected for orbital group  1
 Library entry H      S cc-pVTZ-DK           selected for orbital group  2
 Library entry H      P cc-pVTZ-DK           selected for orbital group  2
 Library entry H      D cc-pVTZ-DK           selected for orbital group  2
 Library entry O      S cc-pVTZ-DK           selected for orbital group  3
 Library entry O      P cc-pVTZ-DK           selected for orbital group  3
 Library entry O      D cc-pVTZ-DK           selected for orbital group  3
 Library entry O      F cc-pVTZ-DK           selected for orbital group  3


 PROGRAM * SEWARD (Integral evaluation for generally contracted gaussian basis sets)     Author: Roland Lindh, 1990

 Geometry written to block  1 of record 700


 Point group  Cs  



 ATOMIC COORDINATES

 NR  ATOM    CHARGE       X              Y              Z

   1  N       7.00    0.000000000   -0.154635197   -1.154593692
   2  H       1.00    0.000000000    1.658337121   -1.923176066
   3  O       8.00    0.000000000    0.038065866    1.127180166

 Bond lengths in Bohr (Angstrom)

 1-2  1.969159082  1-3  2.289896425
     ( 1.042034111)     ( 1.211761004)

 Bond angles

  2-1-3  108.14648049

 NUCLEAR CHARGE:                   16
 NUMBER OF PRIMITIVE AOS:         111
 NUMBER OF SYMMETRY AOS:          100
 NUMBER OF CONTRACTIONS:           74   (  50A'  +  24A"  )
 NUMBER OF CORE ORBITALS:           2   (   2A'  +   0A"  )
 NUMBER OF VALENCE ORBITALS:        9   (   7A'  +   2A"  )


 NUCLEAR REPULSION ENERGY   30.32624256

 One-electron integrals computed with SEWARD

 2nd-order Douglas-Kroll-Hess method activated. Optimal DKH parametrization is used.

 Computing Douglas-Kroll / X2C integrals


        1874283. INTEGRALS WRITTEN OUT IN     458 BLOCKS ON RECORD 1290 OF FILE 1


 NUMBER OF SORTED TWO-ELECTRON INTEGRALS:    2006100.     BUFFER LENGTH:  32768
 NUMBER OF SEGMENTS:   1  SEGMENT LENGTH:    2006100      RECORD LENGTH: 524288

 Memory used in sort:       2.56 MW

 SORT1 READ     1874283. AND WROTE     1914195. INTEGRALS IN      6 RECORDS. CPU TIME:     0.04 SEC, REAL TIME:     0.06 SEC
 SORT2 READ     1914195. AND WROTE     2006100. INTEGRALS IN      1 RECORDS. CPU TIME:     0.04 SEC, REAL TIME:     0.06 SEC

 FILE SIZES:   FILE 1:    50.2 MBYTE,  FILE 4:    25.2 MBYTE,   TOTAL:     75.4 MBYTE

 OPERATOR DM      FOR CENTER  0  COORDINATES:    0.000000    0.000000    0.000000

 Eigenvalues of metric

         1 0.243E-02 0.394E-02 0.421E-02 0.819E-02 0.128E-01 0.327E-01 0.427E-01 0.463E-01
         2 0.343E-01 0.465E-01 0.102E+00 0.110E+00 0.234E+00 0.338E+00 0.395E+00 0.449E+00


 **********************************************************************************************************************************
 DATASETS  * FILE   NREC   LENGTH (MB)   RECORD NAMES
              1      23       36.03       500      610      700      900      950      970     1000      129      960     1700   
                                          VAR    BASINP    GEOM    SYMINP    ZMAT    AOBASIS   BASIS     P2S    ABASIS    OPER   
                                         1101     1401     1411     1412     1650     1100     1400     1410     1200     1210   
                                          SR      EKINR    POTR     PVPR    MOLCAS      S      EKIN      POT      H0       H01  
                                         1300     1080     1600   
                                         ERIS     AOSYM     SMH  

 PROGRAMS   *        TOTAL       INT
 CPU TIMES  *         0.61      0.52
 REAL TIME  *         1.21 SEC
 DISK USED  *        75.75 MB      
 **********************************************************************************************************************************


 PROGRAM * RHF-SCF (CLOSED SHELL)       Authors: W. Meyer, H.-J. Werner


 NUMBER OF ELECTRONS:       8+    8-
 CONVERGENCE THRESHOLDS:    1.00E-10 (Density)    1.00E-13 (Energy)
 MAX. NUMBER OF ITERATIONS:      500
 INTERPOLATION TYPE:            DIIS
 INTERPOLATION STEPS:              2 (START)      1 (STEP)
 LEVEL SHIFTS:                  0.00 (CLOSED)  0.00 (OPEN) 



 Orbital guess generated from atomic densities. Full valence occupancy:    9   2

 Molecular orbital dump at record        2100.2

 Initial occupancy:   7   1

 ITERATION    DDIFF          GRAD             ENERGY        2-EL.EN.            DIPOLE MOMENTS         DIIS   ORB.
    1      0.000D+00      0.000D+00      -129.86721874    154.155299    0.00000    0.59806   -1.05050    0    start
    2      0.000D+00      0.136D-01      -129.89383670    155.248261    0.00000    0.61835   -0.22215    1    diag
    3      0.186D-01      0.104D-01      -129.91644459    155.389188    0.00000    0.56833   -0.60670    2    diag
    4      0.905D-02      0.156D-02      -129.91718520    155.122290    0.00000    0.57684   -0.54679    3    diag
    5      0.167D-02      0.515D-03      -129.91729915    155.207498    0.00000    0.58210   -0.54773    4    diag
    6      0.717D-03      0.153D-03      -129.91731794    155.192634    0.00000    0.58261   -0.54351    5    diag
    7      0.277D-03      0.771D-04      -129.91732357    155.194845    0.00000    0.58380   -0.54094    6    diag
    8      0.193D-03      0.250D-04      -129.91732413    155.194146    0.00000    0.58381   -0.54011    7    diag
    9      0.669D-04      0.454D-05      -129.91732415    155.194028    0.00000    0.58376   -0.53995    8    diag
   10      0.130D-04      0.991D-06      -129.91732415    155.194012    0.00000    0.58372   -0.53992    9    orth
   11      0.282D-05      0.193D-06      -129.91732415    155.194008    0.00000    0.58372   -0.53992    9    diag
   12      0.507D-06      0.408D-07      -129.91732415    155.194007    0.00000    0.58372   -0.53992    9    diag
   13      0.110D-06      0.102D-07      -129.91732415    155.194006    0.00000    0.58372   -0.53992    9    diag
   14      0.276D-07      0.184D-08      -129.91732415    155.194006    0.00000    0.58372   -0.53992    9    diag
   15      0.422D-08      0.469D-09      -129.91732415    155.194006    0.00000    0.58372   -0.53992    9    diag
   16      0.103D-08      0.111D-09      -129.91732415    155.194006    0.00000    0.58372   -0.53992    9    diag
   17      0.164D-09      0.300D-10      -129.91732415    155.194006    0.00000    0.58372   -0.53992    9    diag
   18      0.460D-10      0.967D-11      -129.91732415    155.194006    0.00000    0.58372   -0.53992    9    diag
   19      0.185D-10      0.196D-11      -129.91732415    155.194006    0.00000    0.58372   -0.53992    9    fixocc
   20      0.453D-11      0.328D-12      -129.91732415    155.194006    0.00000    0.58372   -0.53992    0    orth

 Final occupancy:   7   1

 !RHF STATE 1.1 Energy               -129.917324154913
 Nuclear energy                        30.32624256
 One-electron energy                 -237.84056991
 Two-electron energy                   77.59700319
 Virial quotient                       -0.99754886
 !RHF STATE 1.1 Dipole moment           0.00000000     0.58371621    -0.53991921
 Dipole moment /Debye                   0.00000000     1.48356143    -1.37224786

 Orbital energies:

         1.1          2.1          3.1          4.1          5.1          6.1          7.1          8.1          9.1
    -20.665202   -15.716081    -1.524430    -0.995563    -0.742970    -0.660628    -0.428507     0.144464     0.369020

         1.2          2.2          3.2
     -0.589901     0.085074     0.613511

 HOMO      7.1    -0.428507 =     -11.6603eV
 LUMO      2.2     0.085074 =       2.3150eV
 LUMO-HOMO         0.513581 =      13.9753eV


 **********************************************************************************************************************************
 DATASETS  * FILE   NREC   LENGTH (MB)   RECORD NAMES
              1      23       36.03       500      610      700      900      950      970     1000      129      960     1700   
                                          VAR    BASINP    GEOM    SYMINP    ZMAT    AOBASIS   BASIS     P2S    ABASIS    OPER   
                                         1101     1401     1411     1412     1650     1100     1400     1410     1200     1210   
                                          SR      EKINR    POTR     PVPR    MOLCAS      S      EKIN      POT      H0       H01  
                                         1300     1080     1600   
                                         ERIS     AOSYM     SMH  

              2       4        2.85       700     1000      520     2100   
                                         GEOM     BASIS   MCVARS     RHF  

 PROGRAMS   *        TOTAL        HF       INT
 CPU TIMES  *         0.85      0.24      0.52
 REAL TIME  *         1.52 SEC
 DISK USED  *        75.75 MB      
 **********************************************************************************************************************************


 PROGRAM * CCSD (Closed-shell coupled cluster)     Authors: C. Hampel, H.-J. Werner, 1991, M. Deegan, P.J. Knowles, 1992


 Convergence thresholds:  THRVAR = 1.00D-08  THRDEN = 1.00D-12

 CCSD(T)     terms to be evaluated (factor= 1.000)


 Number of core orbitals:           2 (   2   0 )
 Number of closed-shell orbitals:   6 (   5   1 )
 Number of external orbitals:      66 (  43  23 )

 Molecular orbitals read from record     2100.2  Type=RHF/CANONICAL (state 1.1)

 Number of N-1 electron functions:               6
 Number of N-2 electron functions:              21
 Number of singly external CSFs:               238
 Number of doubly external CSFs:             41002
 Total number of CSFs:                       41241

 Length of J-op  integral file:               0.00 MB
 Length of K-op  integral file:               0.25 MB
 Length of 3-ext integral record:             0.00 MB

 Memory could be reduced to 1.65 Mwords without degradation in triples

 Integral transformation finished. Total CPU:   0.03 sec, npass=  1  Memory used:   0.55 MW

 Reference energy:                   -129.91732415

 MP2 singlet pair energy:              -0.27393790
 MP2 triplet pair energy:              -0.16271841
 MP2 correlation energy:               -0.43665632
 MP2 total energy:                   -130.35398047

 SCS-MP2 correlation energy:           -0.42997250   (PS=  1.200000  PT=  0.333333)
 SCS-MP2 total energy:               -130.34729665

 ITER.      SQ.NORM     CORR.ENERGY   TOTAL ENERGY   ENERGY CHANGE        DEN1      VAR(S)    VAR(P)  DIIS     TIME  TIME/IT
   1      1.11853860    -0.44160536  -130.35892951    -0.00494904     0.01091630  0.30D-02  0.30D-02  1  1     0.09     0.05
   2      1.12940955    -0.44183099  -130.35915515    -0.00022563    -0.01232563  0.89D-04  0.50D-03  2  2     0.13     0.05
   3      1.13570182    -0.44221448  -130.35953864    -0.00038349    -0.00298051  0.46D-04  0.51D-04  3  3     0.18     0.05
   4      1.13852811    -0.44224252  -130.35956667    -0.00002803    -0.00096334  0.39D-05  0.89D-05  4  4     0.23     0.05
   5      1.13952712    -0.44227182  -130.35959598    -0.00002931    -0.00020701  0.13D-05  0.17D-05  5  5     0.28     0.05
   6      1.13988448    -0.44225503  -130.35957918     0.00001679    -0.00004086  0.88D-07  0.42D-06  6  6     0.33     0.05
   7      1.13996773    -0.44225733  -130.35958148    -0.00000230    -0.00000175  0.10D-07  0.90D-07  6  1     0.38     0.05
   8      1.13999761    -0.44225730  -130.35958145     0.00000003     0.00000209  0.47D-08  0.11D-07  6  2     0.43     0.05
   9      1.14000518    -0.44225714  -130.35958129     0.00000016    -0.00000235  0.25D-08  0.12D-08  6  3     0.47     0.05
  10      1.14000386    -0.44225764  -130.35958179    -0.00000050     0.00000068  0.48D-09  0.20D-09  6  4     0.52     0.05
  11      1.14000220    -0.44225769  -130.35958185    -0.00000006     0.00000014  0.14D-09  0.22D-10  6  5     0.57     0.05
  12      1.14000085    -0.44225787  -130.35958202    -0.00000018     0.00000042  0.14D-10  0.70D-11  6  6     0.62     0.05
  13      1.14000028    -0.44225788  -130.35958203    -0.00000001     0.00000012  0.61D-11  0.12D-11  6  1     0.67     0.05
  14      1.13999991    -0.44225789  -130.35958205    -0.00000002     0.00000007  0.86D-12  0.41D-12  6  2     0.72     0.05
  15      1.13999977    -0.44225790  -130.35958205    -0.00000000     0.00000001  0.22D-12  0.13D-12  6  3     0.77     0.05
  16      1.13999967    -0.44225790  -130.35958205    -0.00000000     0.00000001  0.23D-13  0.16D-13  6  5     0.82     0.05
  17      1.13999964    -0.44225790  -130.35958205    -0.00000000     0.00000000  0.65D-15  0.19D-14  6  4     0.86     0.05
  18      1.13999964    -0.44225790  -130.35958205     0.00000000    -0.00000000  0.45D-15  0.27D-15  6  1     0.91     0.05
  19      1.13999964    -0.44225790  -130.35958205    -0.00000000     0.00000000  0.47D-16  0.49D-16  6  6     0.96     0.05
  20      1.13999964    -0.44225790  -130.35958205    -0.00000000     0.00000000  0.11D-16  0.13D-16  6  2     1.01     0.05
  21      1.13999964    -0.44225790  -130.35958205    -0.00000000     0.00000000  0.16D-17  0.10D-17  6  5     1.07     0.05
  22      1.13999964    -0.44225790  -130.35958205    -0.00000000     0.00000000  0.94D-19  0.78D-19  6  3     1.11     0.05
  23      1.13999964    -0.44225790  -130.35958205     0.00000000     0.00000000  0.27D-19  0.16D-19  6  4     1.16     0.05
  24      1.13999964    -0.44225790  -130.35958205     0.00000000    -0.00000000  0.40D-20  0.45D-20  6  1     1.21     0.05
  25      1.13999964    -0.44225790  -130.35958205     0.00000000    -0.00000000  0.54D-21  0.75D-21  6  6     1.25     0.05

 Norm of t1 vector:      0.07510351      S-energy:     0.00000000      T1 diagnostic:  0.01533044
                                                                       D1 diagnostic:  0.04291033

 Doubles amplitudes (print threshold =  0.500E-01):

         I         J         SYM. A    SYM. B    A         B      T(IJ, AB)

         6         6         2         2         1         1     -0.14492071


 Total CPU time for triples:      0.37 sec


 RESULTS
 =======

  Reference energy                   -129.917324154913
  CCSD singlet pair energy             -0.303261027338
  CCSD triplet pair energy             -0.138996872363
  CCSD correlation energy              -0.442257899701

  Triples (T) contribution             -0.019843822522
  Total correlation energy             -0.462101722223

  CCSD total energy                  -130.359582054614
  CCSD[T] energy                     -130.380450150752
  CCSD-T energy                      -130.379027720040
 !CCSD(T) total energy               -130.379425877136

 Timing summary (sec):

 STEP                 CPU(USER)    SYS     CPU(TOT)    WALL
 Transformation          0.03      0.02      0.05      0.08
 CCSD iterations         1.23      0.11      1.34      1.33
 Triples                 0.37      0.01      0.38      0.38

 Program statistics:

 Available memory in ccsd:               994999756
 Min. memory needed in ccsd:                154850
 Max. memory used in ccsd:                  184802
 Max. memory used in cckext:                238416 (25 integral passes)



 **********************************************************************************************************************************
 DATASETS  * FILE   NREC   LENGTH (MB)   RECORD NAMES
              1      24       40.41       500      610      700      900      950      970     1000      129      960     1700   
                                          VAR    BASINP    GEOM    SYMINP    ZMAT    AOBASIS   BASIS     P2S    ABASIS    OPER   
                                         1101     1401     1411     1412     1650     1100     1400     1410     1200     1210   
                                          SR      EKINR    POTR     PVPR    MOLCAS      S      EKIN      POT      H0       H01  
                                         1300     1080     1600     1380   
                                         ERIS     AOSYM     SMH     JKOP   

              2       4        2.85       700     1000      520     2100   
                                         GEOM     BASIS   MCVARS     RHF  

 PROGRAMS   *        TOTAL   CCSD(T)        HF       INT
 CPU TIMES  *         2.51      1.65      0.24      0.52
 REAL TIME  *         3.36 SEC
 DISK USED  *        75.75 MB      
 **********************************************************************************************************************************

 CCSD(T)/cc-pVTZ-DK energy=   -130.379425877136

        CCSD(T)         HF-SCF  
   -130.37942588   -129.91732415
 **********************************************************************************************************************************
 Molpro calculation terminated
 Variable memory released
