
 Primary working directories    : /tmp/r2666/235271.maple
 Secondary working directories  : /tmp/r2666/235271.maple
 Wavefunction directory         : /ddn/home4/r2666/wfu/
 Main file repository           : /tmp/r2666/235271.maple/

 SHA1      : d5ffa45e93fdbca01ffc919aa182cfdae0147319
 NAME      : 2015.1.35
 ARCHNAME  : linux/x86_64
 FC        : /opt/intel/composer_xe_2015.1.133/bin/intel64/ifort
 BLASLIB   : -Wl,-_start-group /opt/intel/mkl/lib/intel64/libmkl_intel_ilp64.a /opt/intel/mkl/lib/intel64/libmkl_intel_thread.a /opt/intel/mkl/lib/intel64/libmkl_core.a -Wl,-_end-group
 id        : olemiss

 Nodes     nprocs
 cn076        1

 Using customized tuning parameters: mindgm=1; mindgv=20; mindgc=4; mindgr=1; noblas=0; minvec=7
 default implementation of scratch files=df  

 ***,hno CCSD(T)/TZ-F12 QFF
 memory, 995, m;
 gthresh,energy=1.d-12,zero=1.d-22,oneint=1.d-22,twoint=1.d-22;
 gthresh,optgrad=1.d-8,optstep=1.d-8;
 nocompress;
 geomtyp=xyz
 bohr
 geometry={
 3
        126       126
 N        0.0000000000       -0.1771219916       -1.1422802340
 H        0.0000000000        1.6792535907       -1.9295207681
 O        0.0000000000        0.0396361909        1.1212114111
 }
 
 basis=vtz-dk
 dkroll=1
   {hf,maxit=500;accu,20;}
 {ccsd(t),nocheck,maxit=250;orbital,IGNORE_ERROR;}

 Variables initialized (889), CPU time= 0.00 sec
 Commands  initialized (702), CPU time= 0.01 sec, 572 directives.
 Default parameters read. Elapsed time= 0.05 sec

 Checking input...
 Passed
1


                                         ***  PROGRAM SYSTEM MOLPRO  ***
                                       Copyright, TTI GmbH Stuttgart, 2015
                                    Version 2015.1 linked Jul  9 2018 13:16:40


 **********************************************************************************************************************************
 LABEL *   hno CCSD(T)/TZ-F12 QFF                                                        
  64 bit serial version                                                                  DATE: 08-Feb-20          TIME: 17:57:26  
 **********************************************************************************************************************************

 SHA1:             d5ffa45e93fdbca01ffc919aa182cfdae0147319
 **********************************************************************************************************************************

 THRESHOLDS:

 ZERO    =  1.00D-22  ONEINT  =  1.00D-22  TWOINT  =  1.00D-22  PREFAC  =  1.00D-14  LOCALI  =  1.00D-09  EORDER  =  1.00D-04
 ENERGY  =  1.00D-12  ETEST   =  0.00D+00  EDENS   =  0.00D+00  THRDEDEF=  1.00D-06  GRADIENT=  1.00D-02  STEP    =  1.00D-03
 ORBITAL =  1.00D-05  CIVEC   =  1.00D-05  COEFF   =  1.00D-04  PRINTCI =  5.00D-02  PUNCHCI =  9.90D+01  OPTGRAD =  3.00D-04
 OPTENERG=  1.00D-06  OPTSTEP =  3.00D-04  THRGRAD =  1.00D-10  COMPRESS=  1.00D-11  VARMIN  =  1.00D-07  VARMAX  =  1.00D-03
 THRDOUB =  0.00D+00  THRDIV  =  1.00D-05  THRRED  =  1.00D-07  THRPSP  =  1.00D+00  THRDC   =  1.00D-10  THRCS   =  1.00D-10
 THRNRM  =  1.00D-08  THREQ   =  0.00D+00  THRDE   =  1.00D+00  THRREF  =  1.00D-05  SPARFAC =  1.00D+00  THRDLP  =  1.00D-07
 THRDIA  =  1.00D-10  THRDLS  =  1.00D-07  THRGPS  =  0.00D+00  THRKEX  =  0.00D+00  THRDIS  =  2.00D-01  THRVAR  =  1.00D-10
 THRLOC  =  1.00D-06  THRGAP  =  1.00D-06  THRLOCT = -1.00D+00  THRGAPT = -1.00D+00  THRORB  =  1.00D-06  THRMLTP =  0.00D+00
 THRCPQCI=  1.00D-10  KEXTA   =  0.00D+00  THRCOARS=  0.00D+00  SYMTOL  =  1.00D-06  GRADTOL =  1.00D-06  THROVL  =  1.00D-08
 THRORTH =  1.00D-08  GRID    =  1.00D-06  GRIDMAX =  1.00D-03  DTMAX   =  0.00D+00  THROCCDE=  1.00D-01  THROCCDE=  1.00D-01



 THRESHOLDS:

 ZERO    =  1.00D-22  ONEINT  =  1.00D-22  TWOINT  =  1.00D-22  PREFAC  =  1.00D-14  LOCALI  =  1.00D-09  EORDER  =  1.00D-04
 ENERGY  =  1.00D-12  ETEST   =  0.00D+00  EDENS   =  0.00D+00  THRDEDEF=  1.00D-06  GRADIENT=  1.00D-02  STEP    =  1.00D-03
 ORBITAL =  1.00D-05  CIVEC   =  1.00D-05  COEFF   =  1.00D-04  PRINTCI =  5.00D-02  PUNCHCI =  9.90D+01  OPTGRAD =  1.00D-08
 OPTENERG=  1.00D-06  OPTSTEP =  1.00D-08  THRGRAD =  1.00D-10  COMPRESS=  1.00D-11  VARMIN  =  1.00D-07  VARMAX  =  1.00D-03
 THRDOUB =  0.00D+00  THRDIV  =  1.00D-05  THRRED  =  1.00D-07  THRPSP  =  1.00D+00  THRDC   =  1.00D-10  THRCS   =  1.00D-10
 THRNRM  =  1.00D-08  THREQ   =  0.00D+00  THRDE   =  1.00D+00  THRREF  =  1.00D-05  SPARFAC =  1.00D+00  THRDLP  =  1.00D-07
 THRDIA  =  1.00D-10  THRDLS  =  1.00D-07  THRGPS  =  0.00D+00  THRKEX  =  0.00D+00  THRDIS  =  2.00D-01  THRVAR  =  1.00D-10
 THRLOC  =  1.00D-06  THRGAP  =  1.00D-06  THRLOCT = -1.00D+00  THRGAPT = -1.00D+00  THRORB  =  1.00D-06  THRMLTP =  0.00D+00
 THRCPQCI=  1.00D-10  KEXTA   =  0.00D+00  THRCOARS=  0.00D+00  SYMTOL  =  1.00D-06  GRADTOL =  1.00D-06  THROVL  =  1.00D-08
 THRORTH =  1.00D-08  GRID    =  1.00D-06  GRIDMAX =  1.00D-03  DTMAX   =  0.00D+00  THROCCDE=  1.00D-01  THROCCDE=  1.00D-01



 Input parameters for SORTINT:

 COMPRESS =    0.000000
 C_FINAL  =    1.000000
 DEBUG    =   -1.000000
 C_SORT1  =    0.000000
 C_SEWARD =    0.000000
 THRESH   =    0.000000
 IO       =  molpro                                                          
 SPRI     =    0.000000
 SETTING GEOMTYP        =    XYZ
 ZUNIT=BOHR
 

 Variable memory set to  995000000 words,  buffer space   230000 words

 SETTING BASIS          =    VTZ-DK
 SETTING DKROLL         =         1.00000000                                  


 Recomputing integrals since basis changed


 Using spherical harmonics

 Library entry N      S cc-pVTZ-DK           selected for orbital group  1
 Library entry N      P cc-pVTZ-DK           selected for orbital group  1
 Library entry N      D cc-pVTZ-DK           selected for orbital group  1
 Library entry N      F cc-pVTZ-DK           selected for orbital group  1
 Library entry H      S cc-pVTZ-DK           selected for orbital group  2
 Library entry H      P cc-pVTZ-DK           selected for orbital group  2
 Library entry H      D cc-pVTZ-DK           selected for orbital group  2
 Library entry O      S cc-pVTZ-DK           selected for orbital group  3
 Library entry O      P cc-pVTZ-DK           selected for orbital group  3
 Library entry O      D cc-pVTZ-DK           selected for orbital group  3
 Library entry O      F cc-pVTZ-DK           selected for orbital group  3


 PROGRAM * SEWARD (Integral evaluation for generally contracted gaussian basis sets)     Author: Roland Lindh, 1990

 Geometry written to block  1 of record 700


 Point group  Cs  



 ATOMIC COORDINATES

 NR  ATOM    CHARGE       X              Y              Z

   1  N       7.00    0.000000000   -0.177121992   -1.142280234
   2  H       1.00    0.000000000    1.679253591   -1.929520768
   3  O       8.00    0.000000000    0.039636191    1.121211411

 Bond lengths in Bohr (Angstrom)

 1-2  2.016402232  1-3  2.273846639
     ( 1.067034109)     ( 1.203267822)

 Bond angles

  2-1-3  107.51041520

 NUCLEAR CHARGE:                   16
 NUMBER OF PRIMITIVE AOS:         111
 NUMBER OF SYMMETRY AOS:          100
 NUMBER OF CONTRACTIONS:           74   (  50A'  +  24A"  )
 NUMBER OF CORE ORBITALS:           2   (   2A'  +   0A"  )
 NUMBER OF VALENCE ORBITALS:        9   (   7A'  +   2A"  )


 NUCLEAR REPULSION ENERGY   30.40925214

 One-electron integrals computed with SEWARD

 2nd-order Douglas-Kroll-Hess method activated. Optimal DKH parametrization is used.

 Computing Douglas-Kroll / X2C integrals


        1874283. INTEGRALS WRITTEN OUT IN     458 BLOCKS ON RECORD 1290 OF FILE 1


 NUMBER OF SORTED TWO-ELECTRON INTEGRALS:    2006100.     BUFFER LENGTH:  32768
 NUMBER OF SEGMENTS:   1  SEGMENT LENGTH:    2006100      RECORD LENGTH: 524288

 Memory used in sort:       2.56 MW

 SORT1 READ     1874283. AND WROTE     1914195. INTEGRALS IN      6 RECORDS. CPU TIME:     0.04 SEC, REAL TIME:     0.04 SEC
 SORT2 READ     1914195. AND WROTE     2006100. INTEGRALS IN      1 RECORDS. CPU TIME:     0.04 SEC, REAL TIME:     0.06 SEC

 FILE SIZES:   FILE 1:    50.2 MBYTE,  FILE 4:    25.2 MBYTE,   TOTAL:     75.4 MBYTE

 OPERATOR DM      FOR CENTER  0  COORDINATES:    0.000000    0.000000    0.000000

 Eigenvalues of metric

         1 0.248E-02 0.400E-02 0.412E-02 0.859E-02 0.133E-01 0.327E-01 0.424E-01 0.465E-01
         2 0.342E-01 0.466E-01 0.101E+00 0.115E+00 0.235E+00 0.347E+00 0.397E+00 0.450E+00


 **********************************************************************************************************************************
 DATASETS  * FILE   NREC   LENGTH (MB)   RECORD NAMES
              1      23       36.03       500      610      700      900      950      970     1000      129      960     1700   
                                          VAR    BASINP    GEOM    SYMINP    ZMAT    AOBASIS   BASIS     P2S    ABASIS    OPER   
                                         1101     1401     1411     1412     1650     1100     1400     1410     1200     1210   
                                          SR      EKINR    POTR     PVPR    MOLCAS      S      EKIN      POT      H0       H01  
                                         1300     1080     1600   
                                         ERIS     AOSYM     SMH  

 PROGRAMS   *        TOTAL       INT
 CPU TIMES  *         0.64      0.56
 REAL TIME  *         1.26 SEC
 DISK USED  *        75.75 MB      
 **********************************************************************************************************************************


 PROGRAM * RHF-SCF (CLOSED SHELL)       Authors: W. Meyer, H.-J. Werner


 NUMBER OF ELECTRONS:       8+    8-
 CONVERGENCE THRESHOLDS:    1.00E-10 (Density)    1.00E-13 (Energy)
 MAX. NUMBER OF ITERATIONS:      500
 INTERPOLATION TYPE:            DIIS
 INTERPOLATION STEPS:              2 (START)      1 (STEP)
 LEVEL SHIFTS:                  0.00 (CLOSED)  0.00 (OPEN) 



 Orbital guess generated from atomic densities. Full valence occupancy:    9   2

 Molecular orbital dump at record        2100.2

 Initial occupancy:   7   1

 ITERATION    DDIFF          GRAD             ENERGY        2-EL.EN.            DIPOLE MOMENTS         DIIS   ORB.
    1      0.000D+00      0.000D+00      -129.86744323    154.287416    0.00000    0.57231   -1.02540    0    start
    2      0.000D+00      0.136D-01      -129.89430374    155.421281    0.00000    0.61003   -0.21373    1    diag
    3      0.185D-01      0.104D-01      -129.91667809    155.537992    0.00000    0.55227   -0.58931    2    diag
    4      0.901D-02      0.154D-02      -129.91740696    155.273840    0.00000    0.56099   -0.53092    3    diag
    5      0.165D-02      0.515D-03      -129.91752285    155.360005    0.00000    0.56649   -0.53203    4    diag
    6      0.719D-03      0.155D-03      -129.91754223    155.344859    0.00000    0.56702   -0.52786    5    diag
    7      0.281D-03      0.771D-04      -129.91754783    155.347258    0.00000    0.56830   -0.52539    6    diag
    8      0.193D-03      0.245D-04      -129.91754835    155.346571    0.00000    0.56832   -0.52460    7    diag
    9      0.642D-04      0.446D-05      -129.91754837    155.346455    0.00000    0.56827   -0.52445    8    diag
   10      0.124D-04      0.986D-06      -129.91754837    155.346437    0.00000    0.56823   -0.52442    9    orth
   11      0.277D-05      0.195D-06      -129.91754837    155.346432    0.00000    0.56823   -0.52442    9    diag
   12      0.516D-06      0.408D-07      -129.91754837    155.346431    0.00000    0.56822   -0.52442    9    diag
   13      0.116D-06      0.101D-07      -129.91754837    155.346430    0.00000    0.56822   -0.52442    9    diag
   14      0.289D-07      0.186D-08      -129.91754837    155.346430    0.00000    0.56822   -0.52442    9    diag
   15      0.474D-08      0.493D-09      -129.91754837    155.346430    0.00000    0.56822   -0.52442    9    diag
   16      0.114D-08      0.127D-09      -129.91754837    155.346430    0.00000    0.56822   -0.52442    9    diag
   17      0.222D-09      0.388D-10      -129.91754837    155.346430    0.00000    0.56822   -0.52442    9    diag
   18      0.744D-10      0.129D-10      -129.91754837    155.346430    0.00000    0.56822   -0.52442    0    orth

 Final occupancy:   7   1

 !RHF STATE 1.1 Energy               -129.917548367400
 Nuclear energy                        30.40925214
 One-electron energy                 -238.00001562
 Two-electron energy                   77.67321511
 Virial quotient                       -0.99756907
 !RHF STATE 1.1 Dipole moment           0.00000000     0.56822319    -0.52441511
 Dipole moment /Debye                   0.00000000     1.44418469    -1.33284296

 Orbital energies:

         1.1          2.1          3.1          4.1          5.1          6.1          7.1          8.1          9.1
    -20.664795   -15.718223    -1.531495    -0.987011    -0.742926    -0.663015    -0.424887     0.143466     0.370223

         1.2          2.2          3.2
     -0.594441     0.088244     0.612406

 HOMO      7.1    -0.424887 =     -11.5618eV
 LUMO      2.2     0.088244 =       2.4012eV
 LUMO-HOMO         0.513131 =      13.9630eV


 **********************************************************************************************************************************
 DATASETS  * FILE   NREC   LENGTH (MB)   RECORD NAMES
              1      23       36.03       500      610      700      900      950      970     1000      129      960     1700   
                                          VAR    BASINP    GEOM    SYMINP    ZMAT    AOBASIS   BASIS     P2S    ABASIS    OPER   
                                         1101     1401     1411     1412     1650     1100     1400     1410     1200     1210   
                                          SR      EKINR    POTR     PVPR    MOLCAS      S      EKIN      POT      H0       H01  
                                         1300     1080     1600   
                                         ERIS     AOSYM     SMH  

              2       4        2.85       700     1000      520     2100   
                                         GEOM     BASIS   MCVARS     RHF  

 PROGRAMS   *        TOTAL        HF       INT
 CPU TIMES  *         0.83      0.19      0.56
 REAL TIME  *         1.49 SEC
 DISK USED  *        75.75 MB      
 **********************************************************************************************************************************


 PROGRAM * CCSD (Closed-shell coupled cluster)     Authors: C. Hampel, H.-J. Werner, 1991, M. Deegan, P.J. Knowles, 1992


 Convergence thresholds:  THRVAR = 1.00D-08  THRDEN = 1.00D-12

 CCSD(T)     terms to be evaluated (factor= 1.000)


 Number of core orbitals:           2 (   2   0 )
 Number of closed-shell orbitals:   6 (   5   1 )
 Number of external orbitals:      66 (  43  23 )

 Molecular orbitals read from record     2100.2  Type=RHF/CANONICAL (state 1.1)

 Number of N-1 electron functions:               6
 Number of N-2 electron functions:              21
 Number of singly external CSFs:               238
 Number of doubly external CSFs:             41002
 Total number of CSFs:                       41241

 Length of J-op  integral file:               0.00 MB
 Length of K-op  integral file:               0.25 MB
 Length of 3-ext integral record:             0.00 MB

 Memory could be reduced to 1.65 Mwords without degradation in triples

 Integral transformation finished. Total CPU:   0.02 sec, npass=  1  Memory used:   0.55 MW

 Reference energy:                   -129.91754837

 MP2 singlet pair energy:              -0.27363489
 MP2 triplet pair energy:              -0.16247030
 MP2 correlation energy:               -0.43610519
 MP2 total energy:                   -130.35365355

 SCS-MP2 correlation energy:           -0.42945450   (PS=  1.200000  PT=  0.333333)
 SCS-MP2 total energy:               -130.34700286

 ITER.      SQ.NORM     CORR.ENERGY   TOTAL ENERGY   ENERGY CHANGE        DEN1      VAR(S)    VAR(P)  DIIS     TIME  TIME/IT
   1      1.11845727    -0.44131783  -130.35886620    -0.00521264     0.01050871  0.29D-02  0.30D-02  1  1     0.06     0.04
   2      1.12927948    -0.44159928  -130.35914764    -0.00028145    -0.01225154  0.87D-04  0.50D-03  2  2     0.09     0.04
   3      1.13554668    -0.44198669  -130.35953506    -0.00038742    -0.00297983  0.47D-04  0.50D-04  3  3     0.12     0.04
   4      1.13832018    -0.44201140  -130.35955977    -0.00002471    -0.00095227  0.41D-05  0.87D-05  4  4     0.16     0.04
   5      1.13930643    -0.44204090  -130.35958926    -0.00002950    -0.00020474  0.14D-05  0.16D-05  5  5     0.19     0.04
   6      1.13966368    -0.44202463  -130.35957300     0.00001626    -0.00004047  0.11D-06  0.39D-06  6  6     0.23     0.04
   7      1.13975068    -0.44202630  -130.35957466    -0.00000166    -0.00000237  0.14D-07  0.82D-07  6  1     0.26     0.04
   8      1.13978187    -0.44202627  -130.35957463     0.00000003     0.00000166  0.38D-08  0.10D-07  6  2     0.30     0.04
   9      1.13978978    -0.44202602  -130.35957439     0.00000024    -0.00000217  0.24D-08  0.11D-08  6  3     0.34     0.04
  10      1.13978867    -0.44202652  -130.35957489    -0.00000050     0.00000056  0.46D-09  0.20D-09  6  4     0.37     0.04
  11      1.13978694    -0.44202658  -130.35957495    -0.00000006     0.00000020  0.15D-09  0.22D-10  6  5     0.40     0.04
  12      1.13978554    -0.44202675  -130.35957512    -0.00000017     0.00000043  0.16D-10  0.76D-11  6  6     0.43     0.04
  13      1.13978492    -0.44202676  -130.35957513    -0.00000001     0.00000012  0.68D-11  0.12D-11  6  1     0.47     0.04
  14      1.13978453    -0.44202678  -130.35957515    -0.00000002     0.00000008  0.97D-12  0.41D-12  6  2     0.50     0.04
  15      1.13978439    -0.44202678  -130.35957515    -0.00000000     0.00000001  0.25D-12  0.13D-12  6  3     0.54     0.04
  16      1.13978429    -0.44202678  -130.35957515    -0.00000000     0.00000001  0.25D-13  0.15D-13  6  5     0.57     0.04
  17      1.13978426    -0.44202679  -130.35957515    -0.00000000     0.00000000  0.59D-15  0.19D-14  6  4     0.61     0.04
  18      1.13978426    -0.44202679  -130.35957515     0.00000000    -0.00000000  0.42D-15  0.28D-15  6  1     0.65     0.04
  19      1.13978425    -0.44202679  -130.35957515    -0.00000000     0.00000000  0.38D-16  0.49D-16  6  6     0.69     0.04
  20      1.13978425    -0.44202679  -130.35957515    -0.00000000     0.00000000  0.82D-17  0.12D-16  6  2     0.72     0.04
  21      1.13978425    -0.44202679  -130.35957515    -0.00000000     0.00000000  0.17D-17  0.98D-18  6  5     0.75     0.04
  22      1.13978425    -0.44202679  -130.35957515     0.00000000     0.00000000  0.95D-19  0.72D-19  6  3     0.78     0.04
  23      1.13978425    -0.44202679  -130.35957515     0.00000000    -0.00000000  0.26D-19  0.15D-19  6  4     0.82     0.04
  24      1.13978425    -0.44202679  -130.35957515     0.00000000    -0.00000000  0.39D-20  0.40D-20  6  1     0.86     0.04
  25      1.13978425    -0.44202679  -130.35957515     0.00000000    -0.00000000  0.54D-21  0.69D-21  6  6     0.89     0.04

 Norm of t1 vector:      0.07496449      S-energy:     0.00000000      T1 diagnostic:  0.01530206
                                                                       D1 diagnostic:  0.04182639

 Doubles amplitudes (print threshold =  0.500E-01):

         I         J         SYM. A    SYM. B    A         B      T(IJ, AB)

         6         6         2         2         1         1     -0.14224117


 Total CPU time for triples:      0.23 sec


 RESULTS
 =======

  Reference energy                   -129.917548367400
  CCSD singlet pair energy             -0.303048958664
  CCSD triplet pair energy             -0.138977828087
  CCSD correlation energy              -0.442026786750

  Triples (T) contribution             -0.019744140175
  Total correlation energy             -0.461770926925

  CCSD total energy                  -130.359575154150
  CCSD[T] energy                     -130.380331696018
  CCSD-T energy                      -130.378920529449
 !CCSD(T) total energy               -130.379319294325

 Timing summary (sec):

 STEP                 CPU(USER)    SYS     CPU(TOT)    WALL
 Transformation          0.02      0.01      0.03      0.04
 CCSD iterations         0.88      0.13      1.01      1.00
 Triples                 0.23      0.00      0.23      0.24

 Program statistics:

 Available memory in ccsd:               994999756
 Min. memory needed in ccsd:                154850
 Max. memory used in ccsd:                  184802
 Max. memory used in cckext:                238416 (25 integral passes)



 **********************************************************************************************************************************
 DATASETS  * FILE   NREC   LENGTH (MB)   RECORD NAMES
              1      24       40.41       500      610      700      900      950      970     1000      129      960     1700   
                                          VAR    BASINP    GEOM    SYMINP    ZMAT    AOBASIS   BASIS     P2S    ABASIS    OPER   
                                         1101     1401     1411     1412     1650     1100     1400     1410     1200     1210   
                                          SR      EKINR    POTR     PVPR    MOLCAS      S      EKIN      POT      H0       H01  
                                         1300     1080     1600     1380   
                                         ERIS     AOSYM     SMH     JKOP   

              2       4        2.85       700     1000      520     2100   
                                         GEOM     BASIS   MCVARS     RHF  

 PROGRAMS   *        TOTAL   CCSD(T)        HF       INT
 CPU TIMES  *         1.98      1.15      0.19      0.56
 REAL TIME  *         2.81 SEC
 DISK USED  *        75.75 MB      
 **********************************************************************************************************************************

 CCSD(T)/cc-pVTZ-DK energy=   -130.379319294325

        CCSD(T)         HF-SCF  
   -130.37931929   -129.91754837
 **********************************************************************************************************************************
 Molpro calculation terminated
 Variable memory released
