
 Primary working directories    : /tmp/r2666/235162.maple
 Secondary working directories  : /tmp/r2666/235162.maple
 Wavefunction directory         : /ddn/home4/r2666/wfu/
 Main file repository           : /tmp/r2666/235162.maple/

 SHA1      : d5ffa45e93fdbca01ffc919aa182cfdae0147319
 NAME      : 2015.1.35
 ARCHNAME  : linux/x86_64
 FC        : /opt/intel/composer_xe_2015.1.133/bin/intel64/ifort
 BLASLIB   : -Wl,-_start-group /opt/intel/mkl/lib/intel64/libmkl_intel_ilp64.a /opt/intel/mkl/lib/intel64/libmkl_intel_thread.a /opt/intel/mkl/lib/intel64/libmkl_core.a -Wl,-_end-group
 id        : olemiss

 Nodes     nprocs
 cn030        1

 Using customized tuning parameters: mindgm=1; mindgv=20; mindgc=4; mindgr=1; noblas=0; minvec=7
 default implementation of scratch files=df  

 ***,hno CCSD(T)/TZ-F12 QFF
 memory, 995, m;
 gthresh,energy=1.d-12,zero=1.d-22,oneint=1.d-22,twoint=1.d-22;
 gthresh,optgrad=1.d-8,optstep=1.d-8;
 nocompress;
 geomtyp=xyz
 bohr
 geometry={
 3
         17        17
 N        0.0000000000       -0.1464555679       -1.1481497132
 H        0.0000000000        1.6588043523       -1.9346763253
 O        0.0000000000        0.0294190057        1.1322364475
 }
 
 basis=vtz-dk
 dkroll=1
   {hf,maxit=500;accu,20;}
 {ccsd(t),nocheck,maxit=250;orbital,IGNORE_ERROR;}

 Variables initialized (889), CPU time= 0.00 sec
 Commands  initialized (702), CPU time= 0.01 sec, 572 directives.
 Default parameters read. Elapsed time= 0.05 sec

 Checking input...
 Passed
1


                                         ***  PROGRAM SYSTEM MOLPRO  ***
                                       Copyright, TTI GmbH Stuttgart, 2015
                                    Version 2015.1 linked Jul  9 2018 13:16:40


 **********************************************************************************************************************************
 LABEL *   hno CCSD(T)/TZ-F12 QFF                                                        
  64 bit serial version                                                                  DATE: 08-Feb-20          TIME: 17:57:14  
 **********************************************************************************************************************************

 SHA1:             d5ffa45e93fdbca01ffc919aa182cfdae0147319
 **********************************************************************************************************************************

 THRESHOLDS:

 ZERO    =  1.00D-22  ONEINT  =  1.00D-22  TWOINT  =  1.00D-22  PREFAC  =  1.00D-14  LOCALI  =  1.00D-09  EORDER  =  1.00D-04
 ENERGY  =  1.00D-12  ETEST   =  0.00D+00  EDENS   =  0.00D+00  THRDEDEF=  1.00D-06  GRADIENT=  1.00D-02  STEP    =  1.00D-03
 ORBITAL =  1.00D-05  CIVEC   =  1.00D-05  COEFF   =  1.00D-04  PRINTCI =  5.00D-02  PUNCHCI =  9.90D+01  OPTGRAD =  3.00D-04
 OPTENERG=  1.00D-06  OPTSTEP =  3.00D-04  THRGRAD =  1.00D-10  COMPRESS=  1.00D-11  VARMIN  =  1.00D-07  VARMAX  =  1.00D-03
 THRDOUB =  0.00D+00  THRDIV  =  1.00D-05  THRRED  =  1.00D-07  THRPSP  =  1.00D+00  THRDC   =  1.00D-10  THRCS   =  1.00D-10
 THRNRM  =  1.00D-08  THREQ   =  0.00D+00  THRDE   =  1.00D+00  THRREF  =  1.00D-05  SPARFAC =  1.00D+00  THRDLP  =  1.00D-07
 THRDIA  =  1.00D-10  THRDLS  =  1.00D-07  THRGPS  =  0.00D+00  THRKEX  =  0.00D+00  THRDIS  =  2.00D-01  THRVAR  =  1.00D-10
 THRLOC  =  1.00D-06  THRGAP  =  1.00D-06  THRLOCT = -1.00D+00  THRGAPT = -1.00D+00  THRORB  =  1.00D-06  THRMLTP =  0.00D+00
 THRCPQCI=  1.00D-10  KEXTA   =  0.00D+00  THRCOARS=  0.00D+00  SYMTOL  =  1.00D-06  GRADTOL =  1.00D-06  THROVL  =  1.00D-08
 THRORTH =  1.00D-08  GRID    =  1.00D-06  GRIDMAX =  1.00D-03  DTMAX   =  0.00D+00  THROCCDE=  1.00D-01  THROCCDE=  1.00D-01



 THRESHOLDS:

 ZERO    =  1.00D-22  ONEINT  =  1.00D-22  TWOINT  =  1.00D-22  PREFAC  =  1.00D-14  LOCALI  =  1.00D-09  EORDER  =  1.00D-04
 ENERGY  =  1.00D-12  ETEST   =  0.00D+00  EDENS   =  0.00D+00  THRDEDEF=  1.00D-06  GRADIENT=  1.00D-02  STEP    =  1.00D-03
 ORBITAL =  1.00D-05  CIVEC   =  1.00D-05  COEFF   =  1.00D-04  PRINTCI =  5.00D-02  PUNCHCI =  9.90D+01  OPTGRAD =  1.00D-08
 OPTENERG=  1.00D-06  OPTSTEP =  1.00D-08  THRGRAD =  1.00D-10  COMPRESS=  1.00D-11  VARMIN  =  1.00D-07  VARMAX  =  1.00D-03
 THRDOUB =  0.00D+00  THRDIV  =  1.00D-05  THRRED  =  1.00D-07  THRPSP  =  1.00D+00  THRDC   =  1.00D-10  THRCS   =  1.00D-10
 THRNRM  =  1.00D-08  THREQ   =  0.00D+00  THRDE   =  1.00D+00  THRREF  =  1.00D-05  SPARFAC =  1.00D+00  THRDLP  =  1.00D-07
 THRDIA  =  1.00D-10  THRDLS  =  1.00D-07  THRGPS  =  0.00D+00  THRKEX  =  0.00D+00  THRDIS  =  2.00D-01  THRVAR  =  1.00D-10
 THRLOC  =  1.00D-06  THRGAP  =  1.00D-06  THRLOCT = -1.00D+00  THRGAPT = -1.00D+00  THRORB  =  1.00D-06  THRMLTP =  0.00D+00
 THRCPQCI=  1.00D-10  KEXTA   =  0.00D+00  THRCOARS=  0.00D+00  SYMTOL  =  1.00D-06  GRADTOL =  1.00D-06  THROVL  =  1.00D-08
 THRORTH =  1.00D-08  GRID    =  1.00D-06  GRIDMAX =  1.00D-03  DTMAX   =  0.00D+00  THROCCDE=  1.00D-01  THROCCDE=  1.00D-01



 Input parameters for SORTINT:

 COMPRESS =    0.000000
 C_FINAL  =    1.000000
 DEBUG    =   -1.000000
 C_SORT1  =    0.000000
 C_SEWARD =    0.000000
 THRESH   =    0.000000
 IO       =  molpro                                                          
 SPRI     =    0.000000
 SETTING GEOMTYP        =    XYZ
 ZUNIT=BOHR
 

 Variable memory set to  995000000 words,  buffer space   230000 words

 SETTING BASIS          =    VTZ-DK
 SETTING DKROLL         =         1.00000000                                  


 Recomputing integrals since basis changed


 Using spherical harmonics

 Library entry N      S cc-pVTZ-DK           selected for orbital group  1
 Library entry N      P cc-pVTZ-DK           selected for orbital group  1
 Library entry N      D cc-pVTZ-DK           selected for orbital group  1
 Library entry N      F cc-pVTZ-DK           selected for orbital group  1
 Library entry H      S cc-pVTZ-DK           selected for orbital group  2
 Library entry H      P cc-pVTZ-DK           selected for orbital group  2
 Library entry H      D cc-pVTZ-DK           selected for orbital group  2
 Library entry O      S cc-pVTZ-DK           selected for orbital group  3
 Library entry O      P cc-pVTZ-DK           selected for orbital group  3
 Library entry O      D cc-pVTZ-DK           selected for orbital group  3
 Library entry O      F cc-pVTZ-DK           selected for orbital group  3


 PROGRAM * SEWARD (Integral evaluation for generally contracted gaussian basis sets)     Author: Roland Lindh, 1990

 Geometry written to block  1 of record 700


 Point group  Cs  



 ATOMIC COORDINATES

 NR  ATOM    CHARGE       X              Y              Z

   1  N       7.00    0.000000000   -0.146455568   -1.148149713
   2  H       1.00    0.000000000    1.658804352   -1.934676325
   3  O       8.00    0.000000000    0.029419006    1.132236447

 Bond lengths in Bohr (Angstrom)

 1-2  1.969159082  1-3  2.287158260
     ( 1.042034111)     ( 1.210312029)

 Bond angles

  2-1-3  109.13188524

 NUCLEAR CHARGE:                   16
 NUMBER OF PRIMITIVE AOS:         111
 NUMBER OF SYMMETRY AOS:          100
 NUMBER OF CONTRACTIONS:           74   (  50A'  +  24A"  )
 NUMBER OF CORE ORBITALS:           2   (   2A'  +   0A"  )
 NUMBER OF VALENCE ORBITALS:        9   (   7A'  +   2A"  )


 NUCLEAR REPULSION ENERGY   30.34291698

 One-electron integrals computed with SEWARD

 2nd-order Douglas-Kroll-Hess method activated. Optimal DKH parametrization is used.

 Computing Douglas-Kroll / X2C integrals


        1874283. INTEGRALS WRITTEN OUT IN     458 BLOCKS ON RECORD 1290 OF FILE 1


 NUMBER OF SORTED TWO-ELECTRON INTEGRALS:    2006100.     BUFFER LENGTH:  32768
 NUMBER OF SEGMENTS:   1  SEGMENT LENGTH:    2006100      RECORD LENGTH: 524288

 Memory used in sort:       2.56 MW

 SORT1 READ     1874283. AND WROTE     1914195. INTEGRALS IN      6 RECORDS. CPU TIME:     0.05 SEC, REAL TIME:     0.07 SEC
 SORT2 READ     1914195. AND WROTE     2006100. INTEGRALS IN      1 RECORDS. CPU TIME:     0.05 SEC, REAL TIME:     0.06 SEC

 FILE SIZES:   FILE 1:    50.2 MBYTE,  FILE 4:    25.2 MBYTE,   TOTAL:     75.4 MBYTE

 OPERATOR DM      FOR CENTER  0  COORDINATES:    0.000000    0.000000    0.000000

 Eigenvalues of metric

         1 0.242E-02 0.393E-02 0.418E-02 0.820E-02 0.128E-01 0.326E-01 0.427E-01 0.462E-01
         2 0.343E-01 0.464E-01 0.102E+00 0.109E+00 0.233E+00 0.339E+00 0.394E+00 0.449E+00


 **********************************************************************************************************************************
 DATASETS  * FILE   NREC   LENGTH (MB)   RECORD NAMES
              1      23       36.03       500      610      700      900      950      970     1000      129      960     1700   
                                          VAR    BASINP    GEOM    SYMINP    ZMAT    AOBASIS   BASIS     P2S    ABASIS    OPER   
                                         1101     1401     1411     1412     1650     1100     1400     1410     1200     1210   
                                          SR      EKINR    POTR     PVPR    MOLCAS      S      EKIN      POT      H0       H01  
                                         1300     1080     1600   
                                         ERIS     AOSYM     SMH  

 PROGRAMS   *        TOTAL       INT
 CPU TIMES  *         0.65      0.56
 REAL TIME  *         1.30 SEC
 DISK USED  *        75.75 MB      
 **********************************************************************************************************************************


 PROGRAM * RHF-SCF (CLOSED SHELL)       Authors: W. Meyer, H.-J. Werner


 NUMBER OF ELECTRONS:       8+    8-
 CONVERGENCE THRESHOLDS:    1.00E-10 (Density)    1.00E-13 (Energy)
 MAX. NUMBER OF ITERATIONS:      500
 INTERPOLATION TYPE:            DIIS
 INTERPOLATION STEPS:              2 (START)      1 (STEP)
 LEVEL SHIFTS:                  0.00 (CLOSED)  0.00 (OPEN) 



 Orbital guess generated from atomic densities. Full valence occupancy:    9   2

 Molecular orbital dump at record        2100.2

 Initial occupancy:   7   1

 ITERATION    DDIFF          GRAD             ENERGY        2-EL.EN.            DIPOLE MOMENTS         DIIS   ORB.
    1      0.000D+00      0.000D+00      -129.86767238    154.182058    0.00000    0.60618   -1.04820    0    start
    2      0.000D+00      0.135D-01      -129.89431569    155.281310    0.00000    0.61697   -0.22719    1    diag
    3      0.185D-01      0.104D-01      -129.91658948    155.418674    0.00000    0.57151   -0.60860    2    diag
    4      0.900D-02      0.156D-02      -129.91732968    155.152332    0.00000    0.57958   -0.54867    3    diag
    5      0.167D-02      0.512D-03      -129.91744274    155.237694    0.00000    0.58491   -0.54972    4    diag
    6      0.715D-03      0.152D-03      -129.91746131    155.222890    0.00000    0.58544   -0.54554    5    diag
    7      0.276D-03      0.765D-04      -129.91746685    155.225122    0.00000    0.58664   -0.54301    6    diag
    8      0.192D-03      0.248D-04      -129.91746739    155.224438    0.00000    0.58665   -0.54218    7    diag
    9      0.660D-04      0.451D-05      -129.91746741    155.224321    0.00000    0.58660   -0.54202    8    diag
   10      0.128D-04      0.996D-06      -129.91746741    155.224303    0.00000    0.58657   -0.54200    9    orth
   11      0.284D-05      0.194D-06      -129.91746741    155.224299    0.00000    0.58656   -0.54200    9    diag
   12      0.511D-06      0.404D-07      -129.91746741    155.224298    0.00000    0.58656   -0.54200    9    diag
   13      0.109D-06      0.101D-07      -129.91746741    155.224298    0.00000    0.58656   -0.54200    9    diag
   14      0.274D-07      0.184D-08      -129.91746741    155.224298    0.00000    0.58656   -0.54200    9    diag
   15      0.423D-08      0.468D-09      -129.91746741    155.224298    0.00000    0.58656   -0.54200    9    diag
   16      0.104D-08      0.112D-09      -129.91746741    155.224298    0.00000    0.58656   -0.54200    9    diag
   17      0.165D-09      0.298D-10      -129.91746741    155.224298    0.00000    0.58656   -0.54200    9    diag
   18      0.461D-10      0.958D-11      -129.91746741    155.224298    0.00000    0.58656   -0.54200    0    orth

 Final occupancy:   7   1

 !RHF STATE 1.1 Energy               -129.917467411622
 Nuclear energy                        30.34291698
 One-electron energy                 -237.87253328
 Two-electron energy                   77.61214889
 Virial quotient                       -0.99753290
 !RHF STATE 1.1 Dipole moment           0.00000000     0.58655919    -0.54199686
 Dipole moment /Debye                   0.00000000     1.49078711    -1.37752839

 Orbital energies:

         1.1          2.1          3.1          4.1          5.1          6.1          7.1          8.1          9.1
    -20.665281   -15.715604    -1.525070    -0.995819    -0.743354    -0.661202    -0.427357     0.144321     0.369278

         1.2          2.2          3.2
     -0.590431     0.085522     0.613436

 HOMO      7.1    -0.427357 =     -11.6290eV
 LUMO      2.2     0.085522 =       2.3272eV
 LUMO-HOMO         0.512879 =      13.9562eV


 **********************************************************************************************************************************
 DATASETS  * FILE   NREC   LENGTH (MB)   RECORD NAMES
              1      23       36.03       500      610      700      900      950      970     1000      129      960     1700   
                                          VAR    BASINP    GEOM    SYMINP    ZMAT    AOBASIS   BASIS     P2S    ABASIS    OPER   
                                         1101     1401     1411     1412     1650     1100     1400     1410     1200     1210   
                                          SR      EKINR    POTR     PVPR    MOLCAS      S      EKIN      POT      H0       H01  
                                         1300     1080     1600   
                                         ERIS     AOSYM     SMH  

              2       4        2.85       700     1000      520     2100   
                                         GEOM     BASIS   MCVARS     RHF  

 PROGRAMS   *        TOTAL        HF       INT
 CPU TIMES  *         0.86      0.21      0.56
 REAL TIME  *         1.56 SEC
 DISK USED  *        75.75 MB      
 **********************************************************************************************************************************


 PROGRAM * CCSD (Closed-shell coupled cluster)     Authors: C. Hampel, H.-J. Werner, 1991, M. Deegan, P.J. Knowles, 1992


 Convergence thresholds:  THRVAR = 1.00D-08  THRDEN = 1.00D-12

 CCSD(T)     terms to be evaluated (factor= 1.000)


 Number of core orbitals:           2 (   2   0 )
 Number of closed-shell orbitals:   6 (   5   1 )
 Number of external orbitals:      66 (  43  23 )

 Molecular orbitals read from record     2100.2  Type=RHF/CANONICAL (state 1.1)

 Number of N-1 electron functions:               6
 Number of N-2 electron functions:              21
 Number of singly external CSFs:               238
 Number of doubly external CSFs:             41002
 Total number of CSFs:                       41241

 Length of J-op  integral file:               0.00 MB
 Length of K-op  integral file:               0.25 MB
 Length of 3-ext integral record:             0.00 MB

 Memory could be reduced to 1.65 Mwords without degradation in triples

 Integral transformation finished. Total CPU:   0.04 sec, npass=  1  Memory used:   0.55 MW

 Reference energy:                   -129.91746741

 MP2 singlet pair energy:              -0.27378180
 MP2 triplet pair energy:              -0.16261715
 MP2 correlation energy:               -0.43639894
 MP2 total energy:                   -130.35386636

 SCS-MP2 correlation energy:           -0.42972216   (PS=  1.200000  PT=  0.333333)
 SCS-MP2 total energy:               -130.34718957

 ITER.      SQ.NORM     CORR.ENERGY   TOTAL ENERGY   ENERGY CHANGE        DEN1      VAR(S)    VAR(P)  DIIS     TIME  TIME/IT
   1      1.11840561    -0.44140750  -130.35887491    -0.00500856     0.01081609  0.30D-02  0.30D-02  1  1     0.08     0.05
   2      1.12925645    -0.44164109  -130.35910850    -0.00023359    -0.01230029  0.89D-04  0.50D-03  2  2     0.11     0.05
   3      1.13553847    -0.44202511  -130.35949252    -0.00038402    -0.00297327  0.47D-04  0.51D-04  3  3     0.16     0.05
   4      1.13836123    -0.44205236  -130.35951977    -0.00002725    -0.00096170  0.39D-05  0.90D-05  4  4     0.21     0.05
   5      1.13936588    -0.44208170  -130.35954911    -0.00002934    -0.00020790  0.13D-05  0.17D-05  5  5     0.26     0.05
   6      1.13972759    -0.44206499  -130.35953240     0.00001671    -0.00004110  0.89D-07  0.43D-06  6  6     0.30     0.05
   7      1.13981325    -0.44206725  -130.35953466    -0.00000227    -0.00000196  0.10D-07  0.92D-07  6  1     0.35     0.05
   8      1.13984365    -0.44206729  -130.35953470    -0.00000004     0.00000206  0.49D-08  0.11D-07  6  2     0.40     0.05
   9      1.13985146    -0.44206710  -130.35953452     0.00000019    -0.00000236  0.27D-08  0.12D-08  6  3     0.44     0.05
  10      1.13985013    -0.44206762  -130.35953503    -0.00000051     0.00000066  0.51D-09  0.21D-09  6  4     0.49     0.05
  11      1.13984841    -0.44206768  -130.35953509    -0.00000006     0.00000017  0.15D-09  0.23D-10  6  5     0.54     0.05
  12      1.13984702    -0.44206786  -130.35953527    -0.00000018     0.00000044  0.15D-10  0.75D-11  6  6     0.59     0.05
  13      1.13984642    -0.44206786  -130.35953528    -0.00000001     0.00000012  0.65D-11  0.12D-11  6  1     0.63     0.05
  14      1.13984603    -0.44206788  -130.35953530    -0.00000002     0.00000008  0.91D-12  0.44D-12  6  2     0.68     0.05
  15      1.13984589    -0.44206789  -130.35953530    -0.00000000     0.00000001  0.23D-12  0.15D-12  6  3     0.73     0.05
  16      1.13984579    -0.44206789  -130.35953530    -0.00000000     0.00000001  0.25D-13  0.17D-13  6  5     0.77     0.05
  17      1.13984576    -0.44206789  -130.35953530    -0.00000000     0.00000000  0.77D-15  0.21D-14  6  4     0.82     0.05
  18      1.13984576    -0.44206789  -130.35953530     0.00000000    -0.00000000  0.50D-15  0.30D-15  6  1     0.86     0.05
  19      1.13984575    -0.44206789  -130.35953530    -0.00000000     0.00000000  0.53D-16  0.55D-16  6  6     0.91     0.05
  20      1.13984575    -0.44206789  -130.35953530    -0.00000000     0.00000000  0.12D-16  0.14D-16  6  2     0.96     0.05
  21      1.13984575    -0.44206789  -130.35953530    -0.00000000     0.00000000  0.18D-17  0.11D-17  6  5     1.01     0.05
  22      1.13984575    -0.44206789  -130.35953530    -0.00000000     0.00000000  0.11D-18  0.84D-19  6  3     1.06     0.05
  23      1.13984575    -0.44206789  -130.35953530     0.00000000     0.00000000  0.30D-19  0.18D-19  6  4     1.11     0.05
  24      1.13984575    -0.44206789  -130.35953530     0.00000000    -0.00000000  0.44D-20  0.49D-20  6  1     1.16     0.05
  25      1.13984575    -0.44206789  -130.35953530     0.00000000    -0.00000000  0.56D-21  0.84D-21  6  6     1.21     0.05

 Norm of t1 vector:      0.07517792      S-energy:     0.00000000      T1 diagnostic:  0.01534563
                                                                       D1 diagnostic:  0.04281756

 Doubles amplitudes (print threshold =  0.500E-01):

         I         J         SYM. A    SYM. B    A         B      T(IJ, AB)

         6         6         2         2         1         1     -0.14454619


 Total CPU time for triples:      0.35 sec


 RESULTS
 =======

  Reference energy                   -129.917467411622
  CCSD singlet pair energy             -0.303096989886
  CCSD triplet pair energy             -0.138970899037
  CCSD correlation energy              -0.442067888921

  Triples (T) contribution             -0.019809166431
  Total correlation energy             -0.461877055352

  CCSD total energy                  -130.359535300543
  CCSD[T] energy                     -130.380368213550
  CCSD-T energy                      -130.378946443362
 !CCSD(T) total energy               -130.379344466974

 Timing summary (sec):

 STEP                 CPU(USER)    SYS     CPU(TOT)    WALL
 Transformation          0.04      0.01      0.05      0.04
 CCSD iterations         1.18      0.13      1.31      1.33
 Triples                 0.35      0.01      0.36      0.35

 Program statistics:

 Available memory in ccsd:               994999756
 Min. memory needed in ccsd:                154850
 Max. memory used in ccsd:                  184802
 Max. memory used in cckext:                238416 (25 integral passes)



 **********************************************************************************************************************************
 DATASETS  * FILE   NREC   LENGTH (MB)   RECORD NAMES
              1      24       40.41       500      610      700      900      950      970     1000      129      960     1700   
                                          VAR    BASINP    GEOM    SYMINP    ZMAT    AOBASIS   BASIS     P2S    ABASIS    OPER   
                                         1101     1401     1411     1412     1650     1100     1400     1410     1200     1210   
                                          SR      EKINR    POTR     PVPR    MOLCAS      S      EKIN      POT      H0       H01  
                                         1300     1080     1600     1380   
                                         ERIS     AOSYM     SMH     JKOP   

              2       4        2.85       700     1000      520     2100   
                                         GEOM     BASIS   MCVARS     RHF  

 PROGRAMS   *        TOTAL   CCSD(T)        HF       INT
 CPU TIMES  *         2.45      1.59      0.21      0.56
 REAL TIME  *         3.31 SEC
 DISK USED  *        75.75 MB      
 **********************************************************************************************************************************

 CCSD(T)/cc-pVTZ-DK energy=   -130.379344466974

        CCSD(T)         HF-SCF  
   -130.37934447   -129.91746741
 **********************************************************************************************************************************
 Molpro calculation terminated
 Variable memory released
