
 Primary working directories    : /tmp/r2666/235211.maple
 Secondary working directories  : /tmp/r2666/235211.maple
 Wavefunction directory         : /ddn/home4/r2666/wfu/
 Main file repository           : /tmp/r2666/235211.maple/

 SHA1      : d5ffa45e93fdbca01ffc919aa182cfdae0147319
 NAME      : 2015.1.35
 ARCHNAME  : linux/x86_64
 FC        : /opt/intel/composer_xe_2015.1.133/bin/intel64/ifort
 BLASLIB   : -Wl,-_start-group /opt/intel/mkl/lib/intel64/libmkl_intel_ilp64.a /opt/intel/mkl/lib/intel64/libmkl_intel_thread.a /opt/intel/mkl/lib/intel64/libmkl_core.a -Wl,-_end-group
 id        : olemiss

 Nodes     nprocs
 cn041        1

 Using customized tuning parameters: mindgm=1; mindgv=20; mindgc=4; mindgr=1; noblas=0; minvec=7
 default implementation of scratch files=df  

 ***,hno CCSD(T)/TZ-F12 QFF
 memory, 995, m;
 gthresh,energy=1.d-12,zero=1.d-22,oneint=1.d-22,twoint=1.d-22;
 gthresh,optgrad=1.d-8,optstep=1.d-8;
 nocompress;
 geomtyp=xyz
 bohr
 geometry={
 3
         66        66
 N        0.0000000000       -0.1640624451       -1.1533947091
 H        0.0000000000        1.6673780464       -1.9268245671
 O        0.0000000000        0.0384521887        1.1296296853
 }
 
 basis=vtz-dk
 dkroll=1
   {hf,maxit=500;accu,20;}
 {ccsd(t),nocheck,maxit=250;orbital,IGNORE_ERROR;}

 Variables initialized (889), CPU time= 0.00 sec
 Commands  initialized (702), CPU time= 0.00 sec, 572 directives.
 Default parameters read. Elapsed time= 0.06 sec

 Checking input...
 Passed
1


                                         ***  PROGRAM SYSTEM MOLPRO  ***
                                       Copyright, TTI GmbH Stuttgart, 2015
                                    Version 2015.1 linked Jul  9 2018 13:16:40


 **********************************************************************************************************************************
 LABEL *   hno CCSD(T)/TZ-F12 QFF                                                        
  64 bit serial version                                                                  DATE: 08-Feb-20          TIME: 17:57:20  
 **********************************************************************************************************************************

 SHA1:             d5ffa45e93fdbca01ffc919aa182cfdae0147319
 **********************************************************************************************************************************

 THRESHOLDS:

 ZERO    =  1.00D-22  ONEINT  =  1.00D-22  TWOINT  =  1.00D-22  PREFAC  =  1.00D-14  LOCALI  =  1.00D-09  EORDER  =  1.00D-04
 ENERGY  =  1.00D-12  ETEST   =  0.00D+00  EDENS   =  0.00D+00  THRDEDEF=  1.00D-06  GRADIENT=  1.00D-02  STEP    =  1.00D-03
 ORBITAL =  1.00D-05  CIVEC   =  1.00D-05  COEFF   =  1.00D-04  PRINTCI =  5.00D-02  PUNCHCI =  9.90D+01  OPTGRAD =  3.00D-04
 OPTENERG=  1.00D-06  OPTSTEP =  3.00D-04  THRGRAD =  1.00D-10  COMPRESS=  1.00D-11  VARMIN  =  1.00D-07  VARMAX  =  1.00D-03
 THRDOUB =  0.00D+00  THRDIV  =  1.00D-05  THRRED  =  1.00D-07  THRPSP  =  1.00D+00  THRDC   =  1.00D-10  THRCS   =  1.00D-10
 THRNRM  =  1.00D-08  THREQ   =  0.00D+00  THRDE   =  1.00D+00  THRREF  =  1.00D-05  SPARFAC =  1.00D+00  THRDLP  =  1.00D-07
 THRDIA  =  1.00D-10  THRDLS  =  1.00D-07  THRGPS  =  0.00D+00  THRKEX  =  0.00D+00  THRDIS  =  2.00D-01  THRVAR  =  1.00D-10
 THRLOC  =  1.00D-06  THRGAP  =  1.00D-06  THRLOCT = -1.00D+00  THRGAPT = -1.00D+00  THRORB  =  1.00D-06  THRMLTP =  0.00D+00
 THRCPQCI=  1.00D-10  KEXTA   =  0.00D+00  THRCOARS=  0.00D+00  SYMTOL  =  1.00D-06  GRADTOL =  1.00D-06  THROVL  =  1.00D-08
 THRORTH =  1.00D-08  GRID    =  1.00D-06  GRIDMAX =  1.00D-03  DTMAX   =  0.00D+00  THROCCDE=  1.00D-01  THROCCDE=  1.00D-01



 THRESHOLDS:

 ZERO    =  1.00D-22  ONEINT  =  1.00D-22  TWOINT  =  1.00D-22  PREFAC  =  1.00D-14  LOCALI  =  1.00D-09  EORDER  =  1.00D-04
 ENERGY  =  1.00D-12  ETEST   =  0.00D+00  EDENS   =  0.00D+00  THRDEDEF=  1.00D-06  GRADIENT=  1.00D-02  STEP    =  1.00D-03
 ORBITAL =  1.00D-05  CIVEC   =  1.00D-05  COEFF   =  1.00D-04  PRINTCI =  5.00D-02  PUNCHCI =  9.90D+01  OPTGRAD =  1.00D-08
 OPTENERG=  1.00D-06  OPTSTEP =  1.00D-08  THRGRAD =  1.00D-10  COMPRESS=  1.00D-11  VARMIN  =  1.00D-07  VARMAX  =  1.00D-03
 THRDOUB =  0.00D+00  THRDIV  =  1.00D-05  THRRED  =  1.00D-07  THRPSP  =  1.00D+00  THRDC   =  1.00D-10  THRCS   =  1.00D-10
 THRNRM  =  1.00D-08  THREQ   =  0.00D+00  THRDE   =  1.00D+00  THRREF  =  1.00D-05  SPARFAC =  1.00D+00  THRDLP  =  1.00D-07
 THRDIA  =  1.00D-10  THRDLS  =  1.00D-07  THRGPS  =  0.00D+00  THRKEX  =  0.00D+00  THRDIS  =  2.00D-01  THRVAR  =  1.00D-10
 THRLOC  =  1.00D-06  THRGAP  =  1.00D-06  THRLOCT = -1.00D+00  THRGAPT = -1.00D+00  THRORB  =  1.00D-06  THRMLTP =  0.00D+00
 THRCPQCI=  1.00D-10  KEXTA   =  0.00D+00  THRCOARS=  0.00D+00  SYMTOL  =  1.00D-06  GRADTOL =  1.00D-06  THROVL  =  1.00D-08
 THRORTH =  1.00D-08  GRID    =  1.00D-06  GRIDMAX =  1.00D-03  DTMAX   =  0.00D+00  THROCCDE=  1.00D-01  THROCCDE=  1.00D-01



 Input parameters for SORTINT:

 COMPRESS =    0.000000
 C_FINAL  =    1.000000
 DEBUG    =   -1.000000
 C_SORT1  =    0.000000
 C_SEWARD =    0.000000
 THRESH   =    0.000000
 IO       =  molpro                                                          
 SPRI     =    0.000000
 SETTING GEOMTYP        =    XYZ
 ZUNIT=BOHR
 

 Variable memory set to  995000000 words,  buffer space   230000 words

 SETTING BASIS          =    VTZ-DK
 SETTING DKROLL         =         1.00000000                                  


 Recomputing integrals since basis changed


 Using spherical harmonics

 Library entry N      S cc-pVTZ-DK           selected for orbital group  1
 Library entry N      P cc-pVTZ-DK           selected for orbital group  1
 Library entry N      D cc-pVTZ-DK           selected for orbital group  1
 Library entry N      F cc-pVTZ-DK           selected for orbital group  1
 Library entry H      S cc-pVTZ-DK           selected for orbital group  2
 Library entry H      P cc-pVTZ-DK           selected for orbital group  2
 Library entry H      D cc-pVTZ-DK           selected for orbital group  2
 Library entry O      S cc-pVTZ-DK           selected for orbital group  3
 Library entry O      P cc-pVTZ-DK           selected for orbital group  3
 Library entry O      D cc-pVTZ-DK           selected for orbital group  3
 Library entry O      F cc-pVTZ-DK           selected for orbital group  3


 PROGRAM * SEWARD (Integral evaluation for generally contracted gaussian basis sets)     Author: Roland Lindh, 1990

 Geometry written to block  1 of record 700


 Point group  Cs  



 ATOMIC COORDINATES

 NR  ATOM    CHARGE       X              Y              Z

   1  N       7.00    0.000000000   -0.164062445   -1.153394709
   2  H       1.00    0.000000000    1.667378046   -1.926824567
   3  O       8.00    0.000000000    0.038452189    1.129629685

 Bond lengths in Bohr (Angstrom)

 1-2  1.988056342  1-3  2.291988779
     ( 1.052034110)     ( 1.212868229)

 Bond angles

  2-1-3  107.82553834

 NUCLEAR CHARGE:                   16
 NUMBER OF PRIMITIVE AOS:         111
 NUMBER OF SYMMETRY AOS:          100
 NUMBER OF CONTRACTIONS:           74   (  50A'  +  24A"  )
 NUMBER OF CORE ORBITALS:           2   (   2A'  +   0A"  )
 NUMBER OF VALENCE ORBITALS:        9   (   7A'  +   2A"  )


 NUCLEAR REPULSION ENERGY   30.26380867

 One-electron integrals computed with SEWARD

 2nd-order Douglas-Kroll-Hess method activated. Optimal DKH parametrization is used.

 Computing Douglas-Kroll / X2C integrals


        1874283. INTEGRALS WRITTEN OUT IN     458 BLOCKS ON RECORD 1290 OF FILE 1


 NUMBER OF SORTED TWO-ELECTRON INTEGRALS:    2006100.     BUFFER LENGTH:  32768
 NUMBER OF SEGMENTS:   1  SEGMENT LENGTH:    2006100      RECORD LENGTH: 524288

 Memory used in sort:       2.56 MW

 SORT1 READ     1874283. AND WROTE     1914195. INTEGRALS IN      6 RECORDS. CPU TIME:     0.06 SEC, REAL TIME:     0.08 SEC
 SORT2 READ     1914195. AND WROTE     2006100. INTEGRALS IN      1 RECORDS. CPU TIME:     0.05 SEC, REAL TIME:     0.07 SEC

 FILE SIZES:   FILE 1:    50.2 MBYTE,  FILE 4:    25.2 MBYTE,   TOTAL:     75.4 MBYTE

 OPERATOR DM      FOR CENTER  0  COORDINATES:    0.000000    0.000000    0.000000

 Eigenvalues of metric

         1 0.246E-02 0.398E-02 0.423E-02 0.838E-02 0.130E-01 0.330E-01 0.428E-01 0.464E-01
         2 0.345E-01 0.466E-01 0.102E+00 0.112E+00 0.236E+00 0.342E+00 0.397E+00 0.451E+00


 **********************************************************************************************************************************
 DATASETS  * FILE   NREC   LENGTH (MB)   RECORD NAMES
              1      23       36.03       500      610      700      900      950      970     1000      129      960     1700   
                                          VAR    BASINP    GEOM    SYMINP    ZMAT    AOBASIS   BASIS     P2S    ABASIS    OPER   
                                         1101     1401     1411     1412     1650     1100     1400     1410     1200     1210   
                                          SR      EKINR    POTR     PVPR    MOLCAS      S      EKIN      POT      H0       H01  
                                         1300     1080     1600   
                                         ERIS     AOSYM     SMH  

 PROGRAMS   *        TOTAL       INT
 CPU TIMES  *         0.70      0.61
 REAL TIME  *         1.51 SEC
 DISK USED  *        75.75 MB      
 **********************************************************************************************************************************


 PROGRAM * RHF-SCF (CLOSED SHELL)       Authors: W. Meyer, H.-J. Werner


 NUMBER OF ELECTRONS:       8+    8-
 CONVERGENCE THRESHOLDS:    1.00E-10 (Density)    1.00E-13 (Energy)
 MAX. NUMBER OF ITERATIONS:      500
 INTERPOLATION TYPE:            DIIS
 INTERPOLATION STEPS:              2 (START)      1 (STEP)
 LEVEL SHIFTS:                  0.00 (CLOSED)  0.00 (OPEN) 



 Orbital guess generated from atomic densities. Full valence occupancy:    9   2

 Molecular orbital dump at record        2100.2

 Initial occupancy:   7   1

 ITERATION    DDIFF          GRAD             ENERGY        2-EL.EN.            DIPOLE MOMENTS         DIIS   ORB.
    1      0.000D+00      0.000D+00      -129.86609604    154.038231    0.00000    0.58949   -1.05514    0    start
    2      0.000D+00      0.137D-01      -129.89266990    155.138055    0.00000    0.61832   -0.21612    1    diag
    3      0.188D-01      0.106D-01      -129.91596323    155.278995    0.00000    0.56410   -0.60608    2    diag
    4      0.916D-02      0.156D-02      -129.91670685    155.010210    0.00000    0.57265   -0.54610    3    diag
    5      0.166D-02      0.518D-03      -129.91682320    155.096152    0.00000    0.57800   -0.54701    4    diag
    6      0.723D-03      0.155D-03      -129.91684255    155.081101    0.00000    0.57849   -0.54272    5    diag
    7      0.280D-03      0.781D-04      -129.91684833    155.083338    0.00000    0.57970   -0.54013    6    diag
    8      0.195D-03      0.255D-04      -129.91684891    155.082623    0.00000    0.57971   -0.53928    7    diag
    9      0.683D-04      0.464D-05      -129.91684894    155.082501    0.00000    0.57966   -0.53912    8    diag
   10      0.132D-04      0.101D-05      -129.91684894    155.082484    0.00000    0.57963   -0.53909    9    orth
   11      0.284D-05      0.197D-06      -129.91684894    155.082480    0.00000    0.57962   -0.53909    9    diag
   12      0.516D-06      0.419D-07      -129.91684894    155.082479    0.00000    0.57962   -0.53909    9    diag
   13      0.114D-06      0.106D-07      -129.91684894    155.082478    0.00000    0.57962   -0.53909    9    diag
   14      0.287D-07      0.189D-08      -129.91684894    155.082478    0.00000    0.57962   -0.53909    9    diag
   15      0.438D-08      0.480D-09      -129.91684894    155.082478    0.00000    0.57962   -0.53909    9    diag
   16      0.106D-08      0.112D-09      -129.91684894    155.082478    0.00000    0.57962   -0.53909    9    diag
   17      0.168D-09      0.304D-10      -129.91684894    155.082478    0.00000    0.57962   -0.53909    9    diag
   18      0.471D-10      0.971D-11      -129.91684894    155.082478    0.00000    0.57962   -0.53909    9    diag
   19      0.191D-10      0.185D-11      -129.91684894    155.082478    0.00000    0.57962   -0.53909    0    orth

 Final occupancy:   7   1

 !RHF STATE 1.1 Energy               -129.916848937886
 Nuclear energy                        30.26380867
 One-electron energy                 -237.72189670
 Two-electron energy                   77.54123910
 Virial quotient                       -0.99769283
 !RHF STATE 1.1 Dipole moment           0.00000000     0.57961745    -0.53908792
 Dipole moment /Debye                   0.00000000     1.47314413    -1.37013508

 Orbital energies:

         1.1          2.1          3.1          4.1          5.1          6.1          7.1          8.1          9.1
    -20.665430   -15.717719    -1.523584    -0.993087    -0.741563    -0.660266    -0.428481     0.143832     0.368869

         1.2          2.2          3.2
     -0.589580     0.084693     0.613584

 HOMO      7.1    -0.428481 =     -11.6596eV
 LUMO      2.2     0.084693 =       2.3046eV
 LUMO-HOMO         0.513174 =      13.9642eV


 **********************************************************************************************************************************
 DATASETS  * FILE   NREC   LENGTH (MB)   RECORD NAMES
              1      23       36.03       500      610      700      900      950      970     1000      129      960     1700   
                                          VAR    BASINP    GEOM    SYMINP    ZMAT    AOBASIS   BASIS     P2S    ABASIS    OPER   
                                         1101     1401     1411     1412     1650     1100     1400     1410     1200     1210   
                                          SR      EKINR    POTR     PVPR    MOLCAS      S      EKIN      POT      H0       H01  
                                         1300     1080     1600   
                                         ERIS     AOSYM     SMH  

              2       4        2.85       700     1000      520     2100   
                                         GEOM     BASIS   MCVARS     RHF  

 PROGRAMS   *        TOTAL        HF       INT
 CPU TIMES  *         0.98      0.28      0.61
 REAL TIME  *         1.87 SEC
 DISK USED  *        75.75 MB      
 **********************************************************************************************************************************


 PROGRAM * CCSD (Closed-shell coupled cluster)     Authors: C. Hampel, H.-J. Werner, 1991, M. Deegan, P.J. Knowles, 1992


 Convergence thresholds:  THRVAR = 1.00D-08  THRDEN = 1.00D-12

 CCSD(T)     terms to be evaluated (factor= 1.000)


 Number of core orbitals:           2 (   2   0 )
 Number of closed-shell orbitals:   6 (   5   1 )
 Number of external orbitals:      66 (  43  23 )

 Molecular orbitals read from record     2100.2  Type=RHF/CANONICAL (state 1.1)

 Number of N-1 electron functions:               6
 Number of N-2 electron functions:              21
 Number of singly external CSFs:               238
 Number of doubly external CSFs:             41002
 Total number of CSFs:                       41241

 Length of J-op  integral file:               0.00 MB
 Length of K-op  integral file:               0.25 MB
 Length of 3-ext integral record:             0.00 MB

 Memory could be reduced to 1.65 Mwords without degradation in triples

 Integral transformation finished. Total CPU:   0.03 sec, npass=  1  Memory used:   0.55 MW

 Reference energy:                   -129.91684894

 MP2 singlet pair energy:              -0.27428995
 MP2 triplet pair energy:              -0.16292983
 MP2 correlation energy:               -0.43721977
 MP2 total energy:                   -130.35406871

 SCS-MP2 correlation energy:           -0.43052649   (PS=  1.200000  PT=  0.333333)
 SCS-MP2 total energy:               -130.34737543

 ITER.      SQ.NORM     CORR.ENERGY   TOTAL ENERGY   ENERGY CHANGE        DEN1      VAR(S)    VAR(P)  DIIS     TIME  TIME/IT
   1      1.11898595    -0.44210230  -130.35895124    -0.00488253     0.01110988  0.30D-02  0.31D-02  1  1     0.11     0.06
   2      1.12994529    -0.44231560  -130.35916453    -0.00021330    -0.01240302  0.90D-04  0.51D-03  2  2     0.16     0.06
   3      1.13631890    -0.44270726  -130.35955620    -0.00039166    -0.00301059  0.48D-04  0.52D-04  3  3     0.20     0.07
   4      1.13917570    -0.44273442  -130.35958336    -0.00002716    -0.00097304  0.41D-05  0.90D-05  4  4     0.26     0.07
   5      1.14019441    -0.44276461  -130.35961355    -0.00003019    -0.00021131  0.14D-05  0.17D-05  5  5     0.32     0.07
   6      1.14055737    -0.44274747  -130.35959641     0.00001713    -0.00004155  0.97D-07  0.41D-06  6  6     0.38     0.07
   7      1.14064171    -0.44274961  -130.35959855    -0.00000213    -0.00000181  0.11D-07  0.88D-07  6  1     0.45     0.07
   8      1.14067214    -0.44274953  -130.35959847     0.00000008     0.00000194  0.44D-08  0.11D-07  6  2     0.52     0.07
   9      1.14067999    -0.44274933  -130.35959827     0.00000020    -0.00000230  0.25D-08  0.12D-08  6  3     0.58     0.07
  10      1.14067873    -0.44274984  -130.35959878    -0.00000051     0.00000064  0.48D-09  0.21D-09  6  4     0.63     0.07
  11      1.14067702    -0.44274990  -130.35959883    -0.00000006     0.00000016  0.15D-09  0.23D-10  6  5     0.70     0.07
  12      1.14067564    -0.44275008  -130.35959901    -0.00000018     0.00000043  0.15D-10  0.74D-11  6  6     0.77     0.07
  13      1.14067503    -0.44275008  -130.35959902    -0.00000001     0.00000012  0.64D-11  0.12D-11  6  1     0.83     0.07
  14      1.14067465    -0.44275010  -130.35959904    -0.00000002     0.00000008  0.92D-12  0.43D-12  6  2     0.89     0.07
  15      1.14067450    -0.44275010  -130.35959904    -0.00000000     0.00000001  0.24D-12  0.14D-12  6  3     0.95     0.07
  16      1.14067439    -0.44275011  -130.35959905    -0.00000000     0.00000002  0.74D-14  0.35D-13  6  1     1.02     0.07
  17      1.14067437    -0.44275011  -130.35959905     0.00000000    -0.00000000  0.28D-14  0.24D-14  6  4     1.08     0.07
  18      1.14067437    -0.44275011  -130.35959905    -0.00000000     0.00000000  0.70D-15  0.42D-15  6  5     1.15     0.07
  19      1.14067437    -0.44275011  -130.35959905     0.00000000    -0.00000000  0.13D-15  0.78D-16  6  6     1.21     0.07
  20      1.14067436    -0.44275011  -130.35959905    -0.00000000     0.00000000  0.19D-16  0.19D-16  6  2     1.28     0.07
  21      1.14067436    -0.44275011  -130.35959905    -0.00000000     0.00000000  0.54D-18  0.13D-17  6  4     1.35     0.07
  22      1.14067436    -0.44275011  -130.35959905    -0.00000000     0.00000000  0.82D-19  0.14D-18  6  3     1.41     0.07
  23      1.14067436    -0.44275011  -130.35959905    -0.00000000     0.00000000  0.77D-20  0.14D-19  6  1     1.47     0.07
  24      1.14067436    -0.44275011  -130.35959905     0.00000000     0.00000000  0.39D-20  0.19D-20  6  6     1.53     0.07
  25      1.14067436    -0.44275011  -130.35959905     0.00000000    -0.00000000  0.24D-21  0.42D-21  6  4     1.59     0.07

 Norm of t1 vector:      0.07571477      S-energy:     0.00000000      T1 diagnostic:  0.01545521
                                                                       D1 diagnostic:  0.04305721

 Doubles amplitudes (print threshold =  0.500E-01):

         I         J         SYM. A    SYM. B    A         B      T(IJ, AB)

         6         6         2         2         1         1     -0.14510572


 Total CPU time for triples:      0.43 sec


 RESULTS
 =======

  Reference energy                   -129.916848937886
  CCSD singlet pair energy             -0.303685843822
  CCSD triplet pair energy             -0.139064264094
  CCSD correlation energy              -0.442750107916

  Triples (T) contribution             -0.019937764993
  Total correlation energy             -0.462687872909

  CCSD total energy                  -130.359599045802
  CCSD[T] energy                     -130.380574888240
  CCSD-T energy                      -130.379133858417
 !CCSD(T) total energy               -130.379536810795

 Timing summary (sec):

 STEP                 CPU(USER)    SYS     CPU(TOT)    WALL
 Transformation          0.03      0.02      0.05      0.06
 CCSD iterations         1.58      0.16      1.74      1.73
 Triples                 0.43      0.01      0.44      0.44

 Program statistics:

 Available memory in ccsd:               994999756
 Min. memory needed in ccsd:                154850
 Max. memory used in ccsd:                  184802
 Max. memory used in cckext:                238416 (25 integral passes)



 **********************************************************************************************************************************
 DATASETS  * FILE   NREC   LENGTH (MB)   RECORD NAMES
              1      24       40.41       500      610      700      900      950      970     1000      129      960     1700   
                                          VAR    BASINP    GEOM    SYMINP    ZMAT    AOBASIS   BASIS     P2S    ABASIS    OPER   
                                         1101     1401     1411     1412     1650     1100     1400     1410     1200     1210   
                                          SR      EKINR    POTR     PVPR    MOLCAS      S      EKIN      POT      H0       H01  
                                         1300     1080     1600     1380   
                                         ERIS     AOSYM     SMH     JKOP   

              2       4        2.85       700     1000      520     2100   
                                         GEOM     BASIS   MCVARS     RHF  

 PROGRAMS   *        TOTAL   CCSD(T)        HF       INT
 CPU TIMES  *         3.05      2.06      0.28      0.61
 REAL TIME  *         4.13 SEC
 DISK USED  *        75.75 MB      
 **********************************************************************************************************************************

 CCSD(T)/cc-pVTZ-DK energy=   -130.379536810795

        CCSD(T)         HF-SCF  
   -130.37953681   -129.91684894
 **********************************************************************************************************************************
 Molpro calculation terminated
 Variable memory released
