
 Primary working directories    : /tmp/r2666/281965.maple
 Secondary working directories  : /tmp/r2666/281965.maple
 Wavefunction directory         : /ddn/home4/r2666/wfu/
 Main file repository           : /tmp/r2666/281965.maple/

 SHA1      : d5ffa45e93fdbca01ffc919aa182cfdae0147319
 NAME      : 2015.1.35
 ARCHNAME  : linux/x86_64
 FC        : /opt/intel/composer_xe_2015.1.133/bin/intel64/ifort
 BLASLIB   : -Wl,-_start-group /opt/intel/mkl/lib/intel64/libmkl_intel_ilp64.a /opt/intel/mkl/lib/intel64/libmkl_intel_thread.a /opt/intel/mkl/lib/intel64/libmkl_core.a -Wl,-_end-group
 id        : olemiss

 Nodes     nprocs
 cn047        1

 Using customized tuning parameters: mindgm=1; mindgv=20; mindgc=4; mindgr=1; noblas=0; minvec=7
 default implementation of scratch files=df  

 ***,hno CCSD(T)/TZ-F12 QFF
 memory, 995, m;
 gthresh,energy=1.d-12,zero=1.d-22,oneint=1.d-22,twoint=1.d-22;
 gthresh,optgrad=1.d-8,optstep=1.d-8;
 nocompress;
 geomtyp=xyz
 bohr
 geometry={
 3
        120       120
 H        0.0000000000        1.6765478477       -1.9349523979
 N        0.0000000000       -0.1701900929       -1.1491905134
 O        0.0000000000        0.0354100351        1.1335533203
 }
 
 basis=av5z
   {hf,maxit=500;accu,20;}
 {ccsd(t),nocheck,maxit=250;orbital,IGNORE_ERROR;}

 Variables initialized (889), CPU time= 0.00 sec
 Commands  initialized (702), CPU time= 0.01 sec, 572 directives.
 Default parameters read. Elapsed time= 0.06 sec

 Checking input...
 Passed
1


                                         ***  PROGRAM SYSTEM MOLPRO  ***
                                       Copyright, TTI GmbH Stuttgart, 2015
                                    Version 2015.1 linked Jul  9 2018 13:16:40


 **********************************************************************************************************************************
 LABEL *   hno CCSD(T)/TZ-F12 QFF                                                        
  64 bit serial version                                                                  DATE: 04-Mar-20          TIME: 13:35:13  
 **********************************************************************************************************************************

 SHA1:             d5ffa45e93fdbca01ffc919aa182cfdae0147319
 **********************************************************************************************************************************

 THRESHOLDS:

 ZERO    =  1.00D-22  ONEINT  =  1.00D-22  TWOINT  =  1.00D-22  PREFAC  =  1.00D-14  LOCALI  =  1.00D-09  EORDER  =  1.00D-04
 ENERGY  =  1.00D-12  ETEST   =  0.00D+00  EDENS   =  0.00D+00  THRDEDEF=  1.00D-06  GRADIENT=  1.00D-02  STEP    =  1.00D-03
 ORBITAL =  1.00D-05  CIVEC   =  1.00D-05  COEFF   =  1.00D-04  PRINTCI =  5.00D-02  PUNCHCI =  9.90D+01  OPTGRAD =  3.00D-04
 OPTENERG=  1.00D-06  OPTSTEP =  3.00D-04  THRGRAD =  1.00D-10  COMPRESS=  1.00D-11  VARMIN  =  1.00D-07  VARMAX  =  1.00D-03
 THRDOUB =  0.00D+00  THRDIV  =  1.00D-05  THRRED  =  1.00D-07  THRPSP  =  1.00D+00  THRDC   =  1.00D-10  THRCS   =  1.00D-10
 THRNRM  =  1.00D-08  THREQ   =  0.00D+00  THRDE   =  1.00D+00  THRREF  =  1.00D-05  SPARFAC =  1.00D+00  THRDLP  =  1.00D-07
 THRDIA  =  1.00D-10  THRDLS  =  1.00D-07  THRGPS  =  0.00D+00  THRKEX  =  0.00D+00  THRDIS  =  2.00D-01  THRVAR  =  1.00D-10
 THRLOC  =  1.00D-06  THRGAP  =  1.00D-06  THRLOCT = -1.00D+00  THRGAPT = -1.00D+00  THRORB  =  1.00D-06  THRMLTP =  0.00D+00
 THRCPQCI=  1.00D-10  KEXTA   =  0.00D+00  THRCOARS=  0.00D+00  SYMTOL  =  1.00D-06  GRADTOL =  1.00D-06  THROVL  =  1.00D-08
 THRORTH =  1.00D-08  GRID    =  1.00D-06  GRIDMAX =  1.00D-03  DTMAX   =  0.00D+00  THROCCDE=  1.00D-01  THROCCDE=  1.00D-01



 THRESHOLDS:

 ZERO    =  1.00D-22  ONEINT  =  1.00D-22  TWOINT  =  1.00D-22  PREFAC  =  1.00D-14  LOCALI  =  1.00D-09  EORDER  =  1.00D-04
 ENERGY  =  1.00D-12  ETEST   =  0.00D+00  EDENS   =  0.00D+00  THRDEDEF=  1.00D-06  GRADIENT=  1.00D-02  STEP    =  1.00D-03
 ORBITAL =  1.00D-05  CIVEC   =  1.00D-05  COEFF   =  1.00D-04  PRINTCI =  5.00D-02  PUNCHCI =  9.90D+01  OPTGRAD =  1.00D-08
 OPTENERG=  1.00D-06  OPTSTEP =  1.00D-08  THRGRAD =  1.00D-10  COMPRESS=  1.00D-11  VARMIN  =  1.00D-07  VARMAX  =  1.00D-03
 THRDOUB =  0.00D+00  THRDIV  =  1.00D-05  THRRED  =  1.00D-07  THRPSP  =  1.00D+00  THRDC   =  1.00D-10  THRCS   =  1.00D-10
 THRNRM  =  1.00D-08  THREQ   =  0.00D+00  THRDE   =  1.00D+00  THRREF  =  1.00D-05  SPARFAC =  1.00D+00  THRDLP  =  1.00D-07
 THRDIA  =  1.00D-10  THRDLS  =  1.00D-07  THRGPS  =  0.00D+00  THRKEX  =  0.00D+00  THRDIS  =  2.00D-01  THRVAR  =  1.00D-10
 THRLOC  =  1.00D-06  THRGAP  =  1.00D-06  THRLOCT = -1.00D+00  THRGAPT = -1.00D+00  THRORB  =  1.00D-06  THRMLTP =  0.00D+00
 THRCPQCI=  1.00D-10  KEXTA   =  0.00D+00  THRCOARS=  0.00D+00  SYMTOL  =  1.00D-06  GRADTOL =  1.00D-06  THROVL  =  1.00D-08
 THRORTH =  1.00D-08  GRID    =  1.00D-06  GRIDMAX =  1.00D-03  DTMAX   =  0.00D+00  THROCCDE=  1.00D-01  THROCCDE=  1.00D-01



 Input parameters for SORTINT:

 COMPRESS =    0.000000
 C_FINAL  =    1.000000
 DEBUG    =   -1.000000
 C_SORT1  =    0.000000
 C_SEWARD =    0.000000
 THRESH   =    0.000000
 IO       =  molpro                                                          
 SPRI     =    0.000000
 SETTING GEOMTYP        =    XYZ
 ZUNIT=BOHR
 

 Variable memory set to  995000000 words,  buffer space   230000 words

 SETTING BASIS          =    AV5Z


 Recomputing integrals since basis changed


 Using spherical harmonics

 Library entry H      S aug-cc-pV5Z          selected for orbital group  1
 Library entry H      P aug-cc-pV5Z          selected for orbital group  1
 Library entry H      D aug-cc-pV5Z          selected for orbital group  1
 Library entry H      F aug-cc-pV5Z          selected for orbital group  1
 Library entry H      G aug-cc-pV5Z          selected for orbital group  1
 Library entry N      S aug-cc-pV5Z          selected for orbital group  2
 Library entry N      P aug-cc-pV5Z          selected for orbital group  2
 Library entry N      D aug-cc-pV5Z          selected for orbital group  2
 Library entry N      F aug-cc-pV5Z          selected for orbital group  2
 Library entry N      G aug-cc-pV5Z          selected for orbital group  2
 Library entry N      H aug-cc-pV5Z          selected for orbital group  2
 Library entry O      S aug-cc-pV5Z          selected for orbital group  3
 Library entry O      P aug-cc-pV5Z          selected for orbital group  3
 Library entry O      D aug-cc-pV5Z          selected for orbital group  3
 Library entry O      F aug-cc-pV5Z          selected for orbital group  3
 Library entry O      G aug-cc-pV5Z          selected for orbital group  3
 Library entry O      H aug-cc-pV5Z          selected for orbital group  3


 PROGRAM * SEWARD (Integral evaluation for generally contracted gaussian basis sets)     Author: Roland Lindh, 1990

 Geometry written to block  1 of record 700


 Point group  Cs  



 ATOMIC COORDINATES

 NR  ATOM    CHARGE       X              Y              Z

   1  H       1.00    0.000000000    1.676547848   -1.934952398
   2  N       7.00    0.000000000   -0.170190093   -1.149190513
   3  O       8.00    0.000000000    0.035410035    1.133553320

 Bond lengths in Bohr (Angstrom)

 1-2  2.006953602  2-3  2.291984036
     ( 1.062034110)     ( 1.212865720)

 Bond angles

  1-2-3  107.90251459

 NUCLEAR CHARGE:                   16
 NUMBER OF PRIMITIVE AOS:         506
 NUMBER OF SYMMETRY AOS:          371
 NUMBER OF CONTRACTIONS:          334   ( 204A'  + 130A"  )
 NUMBER OF CORE ORBITALS:           2   (   2A'  +   0A"  )
 NUMBER OF VALENCE ORBITALS:        9   (   7A'  +   2A"  )


 NUCLEAR REPULSION ENERGY   30.21983101


 Eigenvalues of metric

         1 0.116E-04 0.177E-04 0.652E-04 0.102E-03 0.106E-03 0.140E-03 0.203E-03 0.225E-03
         2 0.129E-03 0.378E-03 0.115E-02 0.162E-02 0.203E-02 0.259E-02 0.338E-02 0.403E-02


 Contracted 2-electron integrals neglected if value below      1.0D-22

      756977445. INTEGRALS WRITTEN OUT IN  184855 BLOCKS ON RECORD 1290 OF FILE 1


 NUMBER OF SORTED TWO-ELECTRON INTEGRALS:  789027325.     BUFFER LENGTH:  32768
 NUMBER OF SEGMENTS:  25  SEGMENT LENGTH:   31997130      RECORD LENGTH: 524288

 Memory used in sort:      32.55 MW

 SORT1 READ   756977445. AND WROTE   760993325. INTEGRALS IN   2189 RECORDS. CPU TIME:    28.19 SEC, REAL TIME:    36.14 SEC
 SORT2 READ   760993325. AND WROTE   789027325. INTEGRALS IN     25 RECORDS. CPU TIME:    11.10 SEC, REAL TIME:    15.89 SEC

 FILE SIZES:   FILE 1: 12137.5 MBYTE,  FILE 4:  9181.4 MBYTE,   TOTAL:  21318.9 MBYTE

 OPERATOR DM      FOR CENTER  0  COORDINATES:    0.000000    0.000000    0.000000


 **********************************************************************************************************************************
 DATASETS  * FILE   NREC   LENGTH (MB)   RECORD NAMES
              1      19     6374.22       500      610      700      900      950      970     1000      129      960     1100   
                                          VAR    BASINP    GEOM    SYMINP    ZMAT    AOBASIS   BASIS     P2S    ABASIS      S 
                                         1400     1410     1200     1210     1080     1600     1650     1300     1700   
                                           T        V       H0       H01     AOSYM     SMH    MOLCAS    ERIS     OPER   

 PROGRAMS   *        TOTAL       INT
 CPU TIMES  *       160.31    160.20
 REAL TIME  *       182.38 SEC
 DISK USED  *        21.32 GB      
 **********************************************************************************************************************************


 PROGRAM * RHF-SCF (CLOSED SHELL)       Authors: W. Meyer, H.-J. Werner


 NUMBER OF ELECTRONS:       8+    8-
 CONVERGENCE THRESHOLDS:    1.00E-10 (Density)    1.00E-13 (Energy)
 MAX. NUMBER OF ITERATIONS:      500
 INTERPOLATION TYPE:            DIIS
 INTERPOLATION STEPS:              2 (START)      1 (STEP)
 LEVEL SHIFTS:                  0.00 (CLOSED)  0.00 (OPEN) 



 Orbital guess generated from atomic densities. Full valence occupancy:    9   2

 Molecular orbital dump at record        2100.2

 Initial occupancy:   7   1

 ITERATION    DDIFF          GRAD             ENERGY        2-EL.EN.            DIPOLE MOMENTS         DIIS   ORB.
    1      0.000D+00      0.000D+00      -129.79614461    153.705608    0.00000    0.58854   -1.04573    0    start
    2      0.000D+00      0.648D-02      -129.82318323    154.926488    0.00000    0.61308   -0.19969    1    diag
    3      0.407D-02      0.502D-02      -129.84753216    155.062510    0.00000    0.55436   -0.59959    2    diag
    4      0.212D-02      0.773D-03      -129.84835077    154.772582    0.00000    0.56168   -0.53718    3    diag
    5      0.380D-03      0.252D-03      -129.84848101    154.867550    0.00000    0.56704   -0.53961    4    diag
    6      0.159D-03      0.735D-04      -129.84850204    154.851000    0.00000    0.56727   -0.53526    5    diag
    7      0.614D-04      0.367D-04      -129.84850822    154.853796    0.00000    0.56852   -0.53255    6    diag
    8      0.422D-04      0.132D-04      -129.84850896    154.853058    0.00000    0.56856   -0.53148    7    diag
    9      0.167D-04      0.257D-05      -129.84850900    154.852938    0.00000    0.56853   -0.53124    8    diag
   10      0.342D-05      0.572D-06      -129.84850900    154.852919    0.00000    0.56849   -0.53121    9    orth
   11      0.651D-06      0.115D-06      -129.84850900    154.852915    0.00000    0.56849   -0.53121    9    diag
   12      0.120D-06      0.235D-07      -129.84850900    154.852915    0.00000    0.56848   -0.53121    9    diag
   13      0.262D-07      0.627D-08      -129.84850900    154.852915    0.00000    0.56848   -0.53121    9    diag
   14      0.724D-08      0.122D-08      -129.84850900    154.852915    0.00000    0.56848   -0.53121    9    diag
   15      0.131D-08      0.344D-09      -129.84850900    154.852915    0.00000    0.56848   -0.53121    9    diag
   16      0.391D-09      0.102D-09      -129.84850900    154.852915    0.00000    0.56848   -0.53121    9    diag
   17      0.776D-10      0.267D-10      -129.84850900    154.852915    0.00000    0.56848   -0.53121    9    diag
   18      0.250D-10      0.910D-11      -129.84850900    154.852915    0.00000    0.56848   -0.53121    0    orth

 Final occupancy:   7   1

 !RHF STATE 1.1 Energy               -129.848508996924
 Nuclear energy                        30.21983101
 One-electron energy                 -237.49479729
 Two-electron energy                   77.42645729
 Virial quotient                       -1.00195530
 !RHF STATE 1.1 Dipole moment           0.00000000     0.56848251    -0.53120773
 Dipole moment /Debye                   0.00000000     1.44484378    -1.35010695

 Orbital energies:

         1.1          2.1          3.1          4.1          5.1          6.1          7.1          8.1          9.1
    -20.653523   -15.714408    -1.525334    -0.992866    -0.744593    -0.664651    -0.431656     0.022813     0.065549

         1.2          2.2          3.2
     -0.593910     0.059249     0.091301

 HOMO      7.1    -0.431656 =     -11.7460eV
 LUMO      8.1     0.022813 =       0.6208eV
 LUMO-HOMO         0.454469 =      12.3667eV


 **********************************************************************************************************************************
 DATASETS  * FILE   NREC   LENGTH (MB)   RECORD NAMES
              1      19     6374.22       500      610      700      900      950      970     1000      129      960     1100   
                                          VAR    BASINP    GEOM    SYMINP    ZMAT    AOBASIS   BASIS     P2S    ABASIS      S 
                                         1400     1410     1200     1210     1080     1600     1650     1300     1700   
                                           T        V       H0       H01     AOSYM     SMH    MOLCAS    ERIS     OPER   

              2       4        4.02       700     1000      520     2100   
                                         GEOM     BASIS   MCVARS     RHF  

 PROGRAMS   *        TOTAL        HF       INT
 CPU TIMES  *       250.65     90.34    160.20
 REAL TIME  *       294.39 SEC
 DISK USED  *        21.32 GB      
 **********************************************************************************************************************************


 PROGRAM * CCSD (Closed-shell coupled cluster)     Authors: C. Hampel, H.-J. Werner, 1991, M. Deegan, P.J. Knowles, 1992


 Convergence thresholds:  THRVAR = 1.00D-08  THRDEN = 1.00D-12

 CCSD(T)     terms to be evaluated (factor= 1.000)


 Number of core orbitals:           2 (   2   0 )
 Number of closed-shell orbitals:   6 (   5   1 )
 Number of external orbitals:     326 ( 197 129 )

 Molecular orbitals read from record     2100.2  Type=RHF/CANONICAL (state 1.1)

 Number of N-1 electron functions:               6
 Number of N-2 electron functions:              21
 Number of singly external CSFs:              1114
 Number of doubly external CSFs:            975958
 Total number of CSFs:                      977073

 Length of J-op  integral file:               0.00 MB
 Length of K-op  integral file:               4.07 MB
 Length of 3-ext integral record:             0.00 MB

 Memory could be reduced to 151.33 Mwords without degradation in triples

 Integral transformation finished. Total CPU:  16.44 sec, npass=  1  Memory used:  41.21 MW

 Reference energy:                   -129.84850900

 MP2 singlet pair energy:              -0.31189135
 MP2 triplet pair energy:              -0.17248540
 MP2 correlation energy:               -0.48437675
 MP2 total energy:                   -130.33288574

 SCS-MP2 correlation energy:           -0.48159387   (PS=  1.200000  PT=  0.333333)
 SCS-MP2 total energy:               -130.33010286

 ITER.      SQ.NORM     CORR.ENERGY   TOTAL ENERGY   ENERGY CHANGE        DEN1      VAR(S)    VAR(P)  DIIS     TIME  TIME/IT
   1      1.12143822    -0.48114667  -130.32965566     0.00323008     0.02019780  0.33D-02  0.33D-02  1  1    29.84    14.48
   2      1.13225032    -0.48098172  -130.32949071     0.00016495    -0.01286105  0.11D-03  0.50D-03  2  2    43.54    14.72
   3      1.13854404    -0.48137612  -130.32988512    -0.00039441    -0.00304936  0.50D-04  0.58D-04  3  3    57.22    14.79
   4      1.14140711    -0.48137326  -130.32988225     0.00000287    -0.00099056  0.48D-05  0.10D-04  4  4    70.77    14.83
   5      1.14258268    -0.48140378  -130.32991277    -0.00003052    -0.00026066  0.12D-05  0.17D-05  5  5    84.40    14.85
   6      1.14294994    -0.48139162  -130.32990062     0.00001216    -0.00005211  0.13D-06  0.40D-06  6  6    98.11    14.87
   7      1.14302715    -0.48139111  -130.32990011     0.00000051     0.00000348  0.19D-07  0.92D-07  6  1   111.79    14.89
   8      1.14305307    -0.48139105  -130.32990005     0.00000006    -0.00000320  0.34D-08  0.19D-07  6  2   125.41    14.90
   9      1.14306191    -0.48139045  -130.32989944     0.00000061    -0.00000014  0.22D-08  0.21D-08  6  3   138.91    14.90
  10      1.14305725    -0.48139120  -130.32990020    -0.00000076     0.00000161  0.35D-09  0.35D-09  6  5   152.52    14.91
  11      1.14305931    -0.48139118  -130.32990018     0.00000002    -0.00000038  0.10D-09  0.29D-10  6  4   166.24    14.92
  12      1.14305886    -0.48139125  -130.32990025    -0.00000007     0.00000005  0.19D-10  0.68D-11  6  6   179.85    14.92
  13      1.14305864    -0.48139125  -130.32990025    -0.00000000    -0.00000004  0.33D-11  0.97D-12  6  1   193.51    14.92
  14      1.14305836    -0.48139127  -130.32990026    -0.00000001     0.00000004  0.46D-12  0.18D-12  6  3   207.22    14.92
  15      1.14305828    -0.48139127  -130.32990027    -0.00000000     0.00000001  0.13D-12  0.24D-13  6  2   220.89    14.93
  16      1.14305826    -0.48139127  -130.32990027     0.00000000     0.00000000  0.34D-13  0.96D-14  6  4   234.58    14.93
  17      1.14305826    -0.48139127  -130.32990027    -0.00000000    -0.00000000  0.20D-14  0.12D-14  6  5   248.25    14.93
  18      1.14305827    -0.48139127  -130.32990027     0.00000000    -0.00000000  0.29D-15  0.31D-15  6  6   261.96    14.93
  19      1.14305827    -0.48139127  -130.32990027     0.00000000    -0.00000000  0.54D-16  0.41D-16  6  1   275.68    14.94
  20      1.14305828    -0.48139127  -130.32990027     0.00000000    -0.00000000  0.11D-16  0.63D-17  6  3   289.26    14.94
  21      1.14305827    -0.48139127  -130.32990027    -0.00000000     0.00000000  0.22D-17  0.12D-17  6  2   302.85    14.94
  22      1.14305827    -0.48139127  -130.32990027    -0.00000000     0.00000000  0.36D-18  0.17D-18  6  4   316.37    14.94
  23      1.14305827    -0.48139127  -130.32990027    -0.00000000     0.00000000  0.80D-19  0.44D-19  6  5   329.91    14.94
  24      1.14305827    -0.48139127  -130.32990027    -0.00000000     0.00000000  0.28D-19  0.19D-19  6  6   343.63    14.94
  25      1.14305827    -0.48139127  -130.32990027     0.00000000    -0.00000000  0.15D-19  0.85D-20  6  1   357.34    14.94

 Norm of t1 vector:      0.07739530      S-energy:    -0.00000000      T1 diagnostic:  0.01579825
                                                                       D1 diagnostic:  0.04283541

 Doubles amplitudes (print threshold =  0.500E-01):

         I         J         SYM. A    SYM. B    A         B      T(IJ, AB)

         6         6         2         2         1         1     -0.08297430
         6         6         2         2         1         2      0.05288244
         6         6         2         2         2         1      0.05288244


 Total CPU time for triples:    131.47 sec


 RESULTS
 =======

  Reference energy                   -129.848508996924
  CCSD singlet pair energy             -0.334081892840
  CCSD triplet pair energy             -0.147309375885
  CCSD correlation energy              -0.481391268727

  Triples (T) contribution             -0.023141147319
  Total correlation energy             -0.504532416046

  CCSD total energy                  -130.329900265651
  CCSD[T] energy                     -130.354150403209
  CCSD-T energy                      -130.352653561850
 !CCSD(T) total energy               -130.353041412969

 Timing summary (sec):

 STEP                 CPU(USER)    SYS     CPU(TOT)    WALL
 Transformation         16.53      1.92     18.45     18.46
 CCSD iterations       340.82     32.70    373.52    373.54
 Triples               131.47      2.29    133.76    133.76

 Program statistics:

 Available memory in ccsd:               994999756
 Min. memory needed in ccsd:               3348832
 Max. memory used in ccsd:                 4143652
 Max. memory used in cckext:               8340089 (25 integral passes)



 **********************************************************************************************************************************
 DATASETS  * FILE   NREC   LENGTH (MB)   RECORD NAMES
              1      20     6809.41       500      610      700      900      950      970     1000      129      960     1100   
                                          VAR    BASINP    GEOM    SYMINP    ZMAT    AOBASIS   BASIS     P2S    ABASIS      S 
                                         1400     1410     1200     1210     1080     1600     1650     1300     1700     1380   
                                           T        V       H0       H01     AOSYM     SMH    MOLCAS    ERIS     OPER     JKOP   

              2       4        4.02       700     1000      520     2100   
                                         GEOM     BASIS   MCVARS     RHF  

 PROGRAMS   *        TOTAL   CCSD(T)        HF       INT
 CPU TIMES  *       739.50    488.85     90.34    160.20
 REAL TIME  *       820.21 SEC
 DISK USED  *        21.32 GB      
 **********************************************************************************************************************************

 CCSD(T)/aug-cc-pV5Z energy=   -130.353041412969

        CCSD(T)         HF-SCF  
   -130.35304141   -129.84850900
 **********************************************************************************************************************************
 Molpro calculation terminated
 Variable memory released
