
 Primary working directories    : /tmp/r2666/281894.maple
 Secondary working directories  : /tmp/r2666/281894.maple
 Wavefunction directory         : /ddn/home4/r2666/wfu/
 Main file repository           : /tmp/r2666/281894.maple/

 SHA1      : d5ffa45e93fdbca01ffc919aa182cfdae0147319
 NAME      : 2015.1.35
 ARCHNAME  : linux/x86_64
 FC        : /opt/intel/composer_xe_2015.1.133/bin/intel64/ifort
 BLASLIB   : -Wl,-_start-group /opt/intel/mkl/lib/intel64/libmkl_intel_ilp64.a /opt/intel/mkl/lib/intel64/libmkl_intel_thread.a /opt/intel/mkl/lib/intel64/libmkl_core.a -Wl,-_end-group
 id        : olemiss

 Nodes     nprocs
 cn080        1

 Using customized tuning parameters: mindgm=1; mindgv=20; mindgc=4; mindgr=1; noblas=0; minvec=7
 default implementation of scratch files=df  

 ***,hno CCSD(T)/TZ-F12 QFF
 memory, 995, m;
 gthresh,energy=1.d-12,zero=1.d-22,oneint=1.d-22,twoint=1.d-22;
 gthresh,optgrad=1.d-8,optstep=1.d-8;
 nocompress;
 geomtyp=xyz
 bohr
 geometry={
 3
         49        49
 H        0.0000000000        1.6646297621       -1.9262307064
 N        0.0000000000       -0.1592020403       -1.1350255650
 O        0.0000000000        0.0363400681        1.1106666804
 }
 
 basis=av5z
   {hf,maxit=500;accu,20;}
 {ccsd(t),nocheck,maxit=250;orbital,IGNORE_ERROR;}

 Variables initialized (889), CPU time= 0.00 sec
 Commands  initialized (702), CPU time= 0.01 sec, 572 directives.
 Default parameters read. Elapsed time= 0.05 sec

 Checking input...
 Passed
1


                                         ***  PROGRAM SYSTEM MOLPRO  ***
                                       Copyright, TTI GmbH Stuttgart, 2015
                                    Version 2015.1 linked Jul  9 2018 13:16:40


 **********************************************************************************************************************************
 LABEL *   hno CCSD(T)/TZ-F12 QFF                                                        
  64 bit serial version                                                                  DATE: 04-Mar-20          TIME: 13:20:09  
 **********************************************************************************************************************************

 SHA1:             d5ffa45e93fdbca01ffc919aa182cfdae0147319
 **********************************************************************************************************************************

 THRESHOLDS:

 ZERO    =  1.00D-22  ONEINT  =  1.00D-22  TWOINT  =  1.00D-22  PREFAC  =  1.00D-14  LOCALI  =  1.00D-09  EORDER  =  1.00D-04
 ENERGY  =  1.00D-12  ETEST   =  0.00D+00  EDENS   =  0.00D+00  THRDEDEF=  1.00D-06  GRADIENT=  1.00D-02  STEP    =  1.00D-03
 ORBITAL =  1.00D-05  CIVEC   =  1.00D-05  COEFF   =  1.00D-04  PRINTCI =  5.00D-02  PUNCHCI =  9.90D+01  OPTGRAD =  3.00D-04
 OPTENERG=  1.00D-06  OPTSTEP =  3.00D-04  THRGRAD =  1.00D-10  COMPRESS=  1.00D-11  VARMIN  =  1.00D-07  VARMAX  =  1.00D-03
 THRDOUB =  0.00D+00  THRDIV  =  1.00D-05  THRRED  =  1.00D-07  THRPSP  =  1.00D+00  THRDC   =  1.00D-10  THRCS   =  1.00D-10
 THRNRM  =  1.00D-08  THREQ   =  0.00D+00  THRDE   =  1.00D+00  THRREF  =  1.00D-05  SPARFAC =  1.00D+00  THRDLP  =  1.00D-07
 THRDIA  =  1.00D-10  THRDLS  =  1.00D-07  THRGPS  =  0.00D+00  THRKEX  =  0.00D+00  THRDIS  =  2.00D-01  THRVAR  =  1.00D-10
 THRLOC  =  1.00D-06  THRGAP  =  1.00D-06  THRLOCT = -1.00D+00  THRGAPT = -1.00D+00  THRORB  =  1.00D-06  THRMLTP =  0.00D+00
 THRCPQCI=  1.00D-10  KEXTA   =  0.00D+00  THRCOARS=  0.00D+00  SYMTOL  =  1.00D-06  GRADTOL =  1.00D-06  THROVL  =  1.00D-08
 THRORTH =  1.00D-08  GRID    =  1.00D-06  GRIDMAX =  1.00D-03  DTMAX   =  0.00D+00  THROCCDE=  1.00D-01  THROCCDE=  1.00D-01



 THRESHOLDS:

 ZERO    =  1.00D-22  ONEINT  =  1.00D-22  TWOINT  =  1.00D-22  PREFAC  =  1.00D-14  LOCALI  =  1.00D-09  EORDER  =  1.00D-04
 ENERGY  =  1.00D-12  ETEST   =  0.00D+00  EDENS   =  0.00D+00  THRDEDEF=  1.00D-06  GRADIENT=  1.00D-02  STEP    =  1.00D-03
 ORBITAL =  1.00D-05  CIVEC   =  1.00D-05  COEFF   =  1.00D-04  PRINTCI =  5.00D-02  PUNCHCI =  9.90D+01  OPTGRAD =  1.00D-08
 OPTENERG=  1.00D-06  OPTSTEP =  1.00D-08  THRGRAD =  1.00D-10  COMPRESS=  1.00D-11  VARMIN  =  1.00D-07  VARMAX  =  1.00D-03
 THRDOUB =  0.00D+00  THRDIV  =  1.00D-05  THRRED  =  1.00D-07  THRPSP  =  1.00D+00  THRDC   =  1.00D-10  THRCS   =  1.00D-10
 THRNRM  =  1.00D-08  THREQ   =  0.00D+00  THRDE   =  1.00D+00  THRREF  =  1.00D-05  SPARFAC =  1.00D+00  THRDLP  =  1.00D-07
 THRDIA  =  1.00D-10  THRDLS  =  1.00D-07  THRGPS  =  0.00D+00  THRKEX  =  0.00D+00  THRDIS  =  2.00D-01  THRVAR  =  1.00D-10
 THRLOC  =  1.00D-06  THRGAP  =  1.00D-06  THRLOCT = -1.00D+00  THRGAPT = -1.00D+00  THRORB  =  1.00D-06  THRMLTP =  0.00D+00
 THRCPQCI=  1.00D-10  KEXTA   =  0.00D+00  THRCOARS=  0.00D+00  SYMTOL  =  1.00D-06  GRADTOL =  1.00D-06  THROVL  =  1.00D-08
 THRORTH =  1.00D-08  GRID    =  1.00D-06  GRIDMAX =  1.00D-03  DTMAX   =  0.00D+00  THROCCDE=  1.00D-01  THROCCDE=  1.00D-01



 Input parameters for SORTINT:

 COMPRESS =    0.000000
 C_FINAL  =    1.000000
 DEBUG    =   -1.000000
 C_SORT1  =    0.000000
 C_SEWARD =    0.000000
 THRESH   =    0.000000
 IO       =  molpro                                                          
 SPRI     =    0.000000
 SETTING GEOMTYP        =    XYZ
 ZUNIT=BOHR
 

 Variable memory set to  995000000 words,  buffer space   230000 words

 SETTING BASIS          =    AV5Z


 Recomputing integrals since basis changed


 Using spherical harmonics

 Library entry H      S aug-cc-pV5Z          selected for orbital group  1
 Library entry H      P aug-cc-pV5Z          selected for orbital group  1
 Library entry H      D aug-cc-pV5Z          selected for orbital group  1
 Library entry H      F aug-cc-pV5Z          selected for orbital group  1
 Library entry H      G aug-cc-pV5Z          selected for orbital group  1
 Library entry N      S aug-cc-pV5Z          selected for orbital group  2
 Library entry N      P aug-cc-pV5Z          selected for orbital group  2
 Library entry N      D aug-cc-pV5Z          selected for orbital group  2
 Library entry N      F aug-cc-pV5Z          selected for orbital group  2
 Library entry N      G aug-cc-pV5Z          selected for orbital group  2
 Library entry N      H aug-cc-pV5Z          selected for orbital group  2
 Library entry O      S aug-cc-pV5Z          selected for orbital group  3
 Library entry O      P aug-cc-pV5Z          selected for orbital group  3
 Library entry O      D aug-cc-pV5Z          selected for orbital group  3
 Library entry O      F aug-cc-pV5Z          selected for orbital group  3
 Library entry O      G aug-cc-pV5Z          selected for orbital group  3
 Library entry O      H aug-cc-pV5Z          selected for orbital group  3


 PROGRAM * SEWARD (Integral evaluation for generally contracted gaussian basis sets)     Author: Roland Lindh, 1990

 Geometry written to block  1 of record 700


 Point group  Cs  



 ATOMIC COORDINATES

 NR  ATOM    CHARGE       X              Y              Z

   1  H       1.00    0.000000000    1.664629762   -1.926230706
   2  N       7.00    0.000000000   -0.159202040   -1.135025565
   3  O       8.00    0.000000000    0.036340068    1.110666680

 Bond lengths in Bohr (Angstrom)

 1-2  1.988056342  2-3  2.254189517
     ( 1.052034110)     ( 1.192865721)

 Bond angles

  1-2-3  108.47547239

 NUCLEAR CHARGE:                   16
 NUMBER OF PRIMITIVE AOS:         506
 NUMBER OF SYMMETRY AOS:          371
 NUMBER OF CONTRACTIONS:          334   ( 204A'  + 130A"  )
 NUMBER OF CORE ORBITALS:           2   (   2A'  +   0A"  )
 NUMBER OF VALENCE ORBITALS:        9   (   7A'  +   2A"  )


 NUCLEAR REPULSION ENERGY   30.68527331


 Eigenvalues of metric

         1 0.110E-04 0.165E-04 0.627E-04 0.952E-04 0.101E-03 0.131E-03 0.196E-03 0.223E-03
         2 0.121E-03 0.362E-03 0.107E-02 0.147E-02 0.190E-02 0.240E-02 0.323E-02 0.380E-02


 Contracted 2-electron integrals neglected if value below      1.0D-22

      756977443. INTEGRALS WRITTEN OUT IN  184855 BLOCKS ON RECORD 1290 OF FILE 1


 NUMBER OF SORTED TWO-ELECTRON INTEGRALS:  789027325.     BUFFER LENGTH:  32768
 NUMBER OF SEGMENTS:  25  SEGMENT LENGTH:   31997130      RECORD LENGTH: 524288

 Memory used in sort:      32.55 MW

 SORT1 READ   756977443. AND WROTE   760993335. INTEGRALS IN   2189 RECORDS. CPU TIME:    30.46 SEC, REAL TIME:   106.81 SEC
 SORT2 READ   760993335. AND WROTE   789027325. INTEGRALS IN     25 RECORDS. CPU TIME:    11.97 SEC, REAL TIME:    48.55 SEC

 FILE SIZES:   FILE 1: 12137.5 MBYTE,  FILE 4:  9181.4 MBYTE,   TOTAL:  21318.9 MBYTE

 OPERATOR DM      FOR CENTER  0  COORDINATES:    0.000000    0.000000    0.000000


 **********************************************************************************************************************************
 DATASETS  * FILE   NREC   LENGTH (MB)   RECORD NAMES
              1      19     6374.22       500      610      700      900      950      970     1000      129      960     1100   
                                          VAR    BASINP    GEOM    SYMINP    ZMAT    AOBASIS   BASIS     P2S    ABASIS      S 
                                         1400     1410     1200     1210     1080     1600     1650     1300     1700   
                                           T        V       H0       H01     AOSYM     SMH    MOLCAS    ERIS     OPER   

 PROGRAMS   *        TOTAL       INT
 CPU TIMES  *       137.05    136.94
 REAL TIME  *       257.11 SEC
 DISK USED  *        21.32 GB      
 **********************************************************************************************************************************


 PROGRAM * RHF-SCF (CLOSED SHELL)       Authors: W. Meyer, H.-J. Werner


 NUMBER OF ELECTRONS:       8+    8-
 CONVERGENCE THRESHOLDS:    1.00E-10 (Density)    1.00E-13 (Energy)
 MAX. NUMBER OF ITERATIONS:      500
 INTERPOLATION TYPE:            DIIS
 INTERPOLATION STEPS:              2 (START)      1 (STEP)
 LEVEL SHIFTS:                  0.00 (CLOSED)  0.00 (OPEN) 



 Orbital guess generated from atomic densities. Full valence occupancy:    9   2

 Molecular orbital dump at record        2100.2

 Initial occupancy:   7   1

 ITERATION    DDIFF          GRAD             ENERGY        2-EL.EN.            DIPOLE MOMENTS         DIIS   ORB.
    1      0.000D+00      0.000D+00      -129.80250432    154.544842    0.00000    0.59082   -0.98110    0    start
    2      0.000D+00      0.630D-02      -129.83010500    155.793507    0.00000    0.60065   -0.21440    1    diag
    3      0.388D-02      0.465D-02      -129.85070263    155.887266    0.00000    0.55046   -0.57244    2    diag
    4      0.198D-02      0.754D-03      -129.85147433    155.614454    0.00000    0.55803   -0.51337    3    diag
    5      0.371D-03      0.243D-03      -129.85159419    155.706851    0.00000    0.56330   -0.51618    4    diag
    6      0.152D-03      0.705D-04      -129.85161326    155.690749    0.00000    0.56365   -0.51224    5    diag
    7      0.583D-04      0.346D-04      -129.85161862    155.693680    0.00000    0.56492   -0.50983    6    diag
    8      0.395D-04      0.116D-04      -129.85161917    155.693026    0.00000    0.56497   -0.50892    7    diag
    9      0.142D-04      0.221D-05      -129.85161919    155.692926    0.00000    0.56494   -0.50872    8    diag
   10      0.277D-05      0.515D-06      -129.85161919    155.692908    0.00000    0.56491   -0.50869    9    orth
   11      0.582D-06      0.106D-06      -129.85161919    155.692904    0.00000    0.56490   -0.50869    9    diag
   12      0.114D-06      0.212D-07      -129.85161919    155.692904    0.00000    0.56490   -0.50869    9    diag
   13      0.248D-07      0.544D-08      -129.85161919    155.692904    0.00000    0.56490   -0.50869    9    diag
   14      0.647D-08      0.108D-08      -129.85161919    155.692904    0.00000    0.56490   -0.50869    9    diag
   15      0.121D-08      0.319D-09      -129.85161919    155.692904    0.00000    0.56490   -0.50869    9    diag
   16      0.360D-09      0.999D-10      -129.85161919    155.692904    0.00000    0.56490   -0.50869    9    diag
   17      0.733D-10      0.276D-10      -129.85161919    155.692904    0.00000    0.56490   -0.50869    0    orth

 Final occupancy:   7   1

 !RHF STATE 1.1 Energy               -129.851619190704
 Nuclear energy                        30.68527331
 One-electron energy                 -238.38334433
 Two-electron energy                   77.84645183
 Virial quotient                       -1.00124132
 !RHF STATE 1.1 Dipole moment           0.00000000     0.56489995    -0.50868520
 Dipole moment /Debye                   0.00000000     1.43573841    -1.29286413

 Orbital energies:

         1.1          2.1          3.1          4.1          5.1          6.1          7.1          8.1          9.1
    -20.651564   -15.709529    -1.541711    -0.991042    -0.751845    -0.670543    -0.425668     0.023008     0.065560

         1.2          2.2          3.2
     -0.603317     0.063023     0.093093

 HOMO      7.1    -0.425668 =     -11.5830eV
 LUMO      8.1     0.023008 =       0.6261eV
 LUMO-HOMO         0.448675 =      12.2091eV


 **********************************************************************************************************************************
 DATASETS  * FILE   NREC   LENGTH (MB)   RECORD NAMES
              1      19     6374.22       500      610      700      900      950      970     1000      129      960     1100   
                                          VAR    BASINP    GEOM    SYMINP    ZMAT    AOBASIS   BASIS     P2S    ABASIS      S 
                                         1400     1410     1200     1210     1080     1600     1650     1300     1700   
                                           T        V       H0       H01     AOSYM     SMH    MOLCAS    ERIS     OPER   

              2       4        4.02       700     1000      520     2100   
                                         GEOM     BASIS   MCVARS     RHF  

 PROGRAMS   *        TOTAL        HF       INT
 CPU TIMES  *       194.29     57.24    136.94
 REAL TIME  *       333.05 SEC
 DISK USED  *        21.32 GB      
 **********************************************************************************************************************************


 PROGRAM * CCSD (Closed-shell coupled cluster)     Authors: C. Hampel, H.-J. Werner, 1991, M. Deegan, P.J. Knowles, 1992


 Convergence thresholds:  THRVAR = 1.00D-08  THRDEN = 1.00D-12

 CCSD(T)     terms to be evaluated (factor= 1.000)


 Number of core orbitals:           2 (   2   0 )
 Number of closed-shell orbitals:   6 (   5   1 )
 Number of external orbitals:     326 ( 197 129 )

 Molecular orbitals read from record     2100.2  Type=RHF/CANONICAL (state 1.1)

 Number of N-1 electron functions:               6
 Number of N-2 electron functions:              21
 Number of singly external CSFs:              1114
 Number of doubly external CSFs:            975958
 Total number of CSFs:                      977073

 Length of J-op  integral file:               0.00 MB
 Length of K-op  integral file:               4.07 MB
 Length of 3-ext integral record:             0.00 MB

 Memory could be reduced to 151.33 Mwords without degradation in triples

 Integral transformation finished. Total CPU:  10.60 sec, npass=  1  Memory used:  41.21 MW

 Reference energy:                   -129.85161919

 MP2 singlet pair energy:              -0.30966115
 MP2 triplet pair energy:              -0.17100291
 MP2 correlation energy:               -0.48066406
 MP2 total energy:                   -130.33228325

 SCS-MP2 correlation energy:           -0.47799519   (PS=  1.200000  PT=  0.333333)
 SCS-MP2 total energy:               -130.32961438

 ITER.      SQ.NORM     CORR.ENERGY   TOTAL ENERGY   ENERGY CHANGE        DEN1      VAR(S)    VAR(P)  DIIS     TIME  TIME/IT
   1      1.11899685    -0.47825582  -130.32987501     0.00240824     0.01843209  0.30D-02  0.30D-02  1  1    19.28     9.72
   2      1.12925668    -0.47826506  -130.32988425    -0.00000924    -0.01229103  0.97D-04  0.47D-03  2  2    28.06     9.84
   3      1.13513170    -0.47862475  -130.33024394    -0.00035969    -0.00291592  0.44D-04  0.53D-04  3  3    36.99     9.90
   4      1.13775378    -0.47862245  -130.33024164     0.00000230    -0.00092351  0.40D-05  0.93D-05  4  4    45.96     9.94
   5      1.13878870    -0.47864907  -130.33026826    -0.00002662    -0.00023069  0.11D-05  0.16D-05  5  5    54.81     9.96
   6      1.13912104    -0.47863892  -130.33025811     0.00001015    -0.00004645  0.11D-06  0.40D-06  6  6    63.58     9.98
   7      1.13919658    -0.47863844  -130.33025763     0.00000048     0.00000255  0.17D-07  0.89D-07  6  1    72.49     9.99
   8      1.13922115    -0.47863862  -130.33025781    -0.00000018    -0.00000282  0.37D-08  0.17D-07  6  2    81.40    10.00
   9      1.13922957    -0.47863812  -130.33025731     0.00000051    -0.00000027  0.21D-08  0.17D-08  6  3    90.28    10.01
  10      1.13922540    -0.47863880  -130.33025799    -0.00000068     0.00000144  0.32D-09  0.28D-09  6  5    99.14    10.01
  11      1.13922703    -0.47863880  -130.33025799     0.00000000    -0.00000027  0.87D-10  0.23D-10  6  4   108.04    10.02
  12      1.13922660    -0.47863886  -130.33025805    -0.00000006     0.00000005  0.17D-10  0.55D-11  6  6   117.01    10.02
  13      1.13922639    -0.47863886  -130.33025805    -0.00000000    -0.00000003  0.30D-11  0.85D-12  6  1   125.99    10.03
  14      1.13922614    -0.47863887  -130.33025806    -0.00000001     0.00000004  0.47D-12  0.16D-12  6  3   134.85    10.03
  15      1.13922607    -0.47863888  -130.33025807    -0.00000000     0.00000001  0.12D-12  0.22D-13  6  2   143.74    10.03
  16      1.13922606    -0.47863887  -130.33025807     0.00000000     0.00000000  0.29D-13  0.86D-14  6  4   152.72    10.03
  17      1.13922606    -0.47863888  -130.33025807    -0.00000000    -0.00000000  0.16D-14  0.11D-14  6  5   161.64    10.03
  18      1.13922606    -0.47863887  -130.33025807     0.00000000    -0.00000000  0.27D-15  0.29D-15  6  6   170.55    10.03
  19      1.13922607    -0.47863887  -130.33025807     0.00000000    -0.00000000  0.34D-16  0.44D-16  6  2   179.28    10.03
  20      1.13922607    -0.47863887  -130.33025807     0.00000000    -0.00000000  0.87D-17  0.61D-17  6  1   188.25    10.03
  21      1.13922607    -0.47863887  -130.33025807    -0.00000000     0.00000000  0.15D-17  0.87D-18  6  3   197.18    10.04
  22      1.13922607    -0.47863887  -130.33025807    -0.00000000     0.00000000  0.28D-18  0.13D-18  6  4   206.05    10.04
  23      1.13922607    -0.47863887  -130.33025807    -0.00000000     0.00000000  0.82D-19  0.43D-19  6  5   214.85    10.04
  24      1.13922607    -0.47863887  -130.33025807    -0.00000000     0.00000000  0.42D-19  0.22D-19  6  6   223.67    10.04
  25      1.13922607    -0.47863887  -130.33025807    -0.00000000     0.00000000  0.22D-19  0.99D-20  6  2   232.67    10.04

 Norm of t1 vector:      0.07389178      S-energy:     0.00000000      T1 diagnostic:  0.01508310
                                                                       D1 diagnostic:  0.04028579

 Doubles amplitudes (print threshold =  0.500E-01):

         I         J         SYM. A    SYM. B    A         B      T(IJ, AB)

         6         6         2         2         1         1     -0.06757967
         6         6         2         2         1         2      0.05240461
         6         6         2         2         2         1      0.05240461


 Total CPU time for triples:     90.63 sec


 RESULTS
 =======

  Reference energy                   -129.851619190704
  CCSD singlet pair energy             -0.331703923309
  CCSD triplet pair energy             -0.146934951272
  CCSD correlation energy              -0.478638874579

  Triples (T) contribution             -0.022445279120
  Total correlation energy             -0.501084153700

  CCSD total energy                  -130.330258065283
  CCSD[T] energy                     -130.353719149420
  CCSD-T energy                      -130.352339513022
 !CCSD(T) total energy               -130.352703344404

 Timing summary (sec):

 STEP                 CPU(USER)    SYS     CPU(TOT)    WALL
 Transformation         10.65      1.53     12.18     12.20
 CCSD iterations       222.03     28.95    250.98    251.02
 Triples                90.63      1.75     92.38     92.37

 Program statistics:

 Available memory in ccsd:               994999756
 Min. memory needed in ccsd:               3348832
 Max. memory used in ccsd:                 4143652
 Max. memory used in cckext:               8340089 (25 integral passes)



 **********************************************************************************************************************************
 DATASETS  * FILE   NREC   LENGTH (MB)   RECORD NAMES
              1      20     6809.41       500      610      700      900      950      970     1000      129      960     1100   
                                          VAR    BASINP    GEOM    SYMINP    ZMAT    AOBASIS   BASIS     P2S    ABASIS      S 
                                         1400     1410     1200     1210     1080     1600     1650     1300     1700     1380   
                                           T        V       H0       H01     AOSYM     SMH    MOLCAS    ERIS     OPER     JKOP   

              2       4        4.02       700     1000      520     2100   
                                         GEOM     BASIS   MCVARS     RHF  

 PROGRAMS   *        TOTAL   CCSD(T)        HF       INT
 CPU TIMES  *       517.62    323.33     57.24    136.94
 REAL TIME  *       688.72 SEC
 DISK USED  *        21.32 GB      
 **********************************************************************************************************************************

 CCSD(T)/aug-cc-pV5Z energy=   -130.352703344404

        CCSD(T)         HF-SCF  
   -130.35270334   -129.85161919
 **********************************************************************************************************************************
 Molpro calculation terminated
 Variable memory released
