
 Primary working directories    : /tmp/r2666/281873.maple
 Secondary working directories  : /tmp/r2666/281873.maple
 Wavefunction directory         : /ddn/home4/r2666/wfu/
 Main file repository           : /tmp/r2666/281873.maple/

 SHA1      : d5ffa45e93fdbca01ffc919aa182cfdae0147319
 NAME      : 2015.1.35
 ARCHNAME  : linux/x86_64
 FC        : /opt/intel/composer_xe_2015.1.133/bin/intel64/ifort
 BLASLIB   : -Wl,-_start-group /opt/intel/mkl/lib/intel64/libmkl_intel_ilp64.a /opt/intel/mkl/lib/intel64/libmkl_intel_thread.a /opt/intel/mkl/lib/intel64/libmkl_core.a -Wl,-_end-group
 id        : olemiss

 Nodes     nprocs
 cn093        1

 Using customized tuning parameters: mindgm=1; mindgv=20; mindgc=4; mindgr=1; noblas=0; minvec=7
 default implementation of scratch files=df  

 ***,hno CCSD(T)/TZ-F12 QFF
 memory, 995, m;
 gthresh,energy=1.d-12,zero=1.d-22,oneint=1.d-22,twoint=1.d-22;
 gthresh,optgrad=1.d-8,optstep=1.d-8;
 nocompress;
 geomtyp=xyz
 bohr
 geometry={
 3
         28        28
 H        0.0000000000        1.6616980474       -1.9269566477
 N        0.0000000000       -0.1555496643       -1.1443333457
 O        0.0000000000        0.0356194070        1.1207004024
 }
 
 basis=av5z
   {hf,maxit=500;accu,20;}
 {ccsd(t),nocheck,maxit=250;orbital,IGNORE_ERROR;}

 Variables initialized (889), CPU time= 0.00 sec
 Commands  initialized (702), CPU time= 0.01 sec, 572 directives.
 Default parameters read. Elapsed time= 0.09 sec

 Checking input...
 Passed
1


                                         ***  PROGRAM SYSTEM MOLPRO  ***
                                       Copyright, TTI GmbH Stuttgart, 2015
                                    Version 2015.1 linked Jul  9 2018 13:16:40


 **********************************************************************************************************************************
 LABEL *   hno CCSD(T)/TZ-F12 QFF                                                        
  64 bit serial version                                                                  DATE: 04-Mar-20          TIME: 13:19:58  
 **********************************************************************************************************************************

 SHA1:             d5ffa45e93fdbca01ffc919aa182cfdae0147319
 **********************************************************************************************************************************

 THRESHOLDS:

 ZERO    =  1.00D-22  ONEINT  =  1.00D-22  TWOINT  =  1.00D-22  PREFAC  =  1.00D-14  LOCALI  =  1.00D-09  EORDER  =  1.00D-04
 ENERGY  =  1.00D-12  ETEST   =  0.00D+00  EDENS   =  0.00D+00  THRDEDEF=  1.00D-06  GRADIENT=  1.00D-02  STEP    =  1.00D-03
 ORBITAL =  1.00D-05  CIVEC   =  1.00D-05  COEFF   =  1.00D-04  PRINTCI =  5.00D-02  PUNCHCI =  9.90D+01  OPTGRAD =  3.00D-04
 OPTENERG=  1.00D-06  OPTSTEP =  3.00D-04  THRGRAD =  1.00D-10  COMPRESS=  1.00D-11  VARMIN  =  1.00D-07  VARMAX  =  1.00D-03
 THRDOUB =  0.00D+00  THRDIV  =  1.00D-05  THRRED  =  1.00D-07  THRPSP  =  1.00D+00  THRDC   =  1.00D-10  THRCS   =  1.00D-10
 THRNRM  =  1.00D-08  THREQ   =  0.00D+00  THRDE   =  1.00D+00  THRREF  =  1.00D-05  SPARFAC =  1.00D+00  THRDLP  =  1.00D-07
 THRDIA  =  1.00D-10  THRDLS  =  1.00D-07  THRGPS  =  0.00D+00  THRKEX  =  0.00D+00  THRDIS  =  2.00D-01  THRVAR  =  1.00D-10
 THRLOC  =  1.00D-06  THRGAP  =  1.00D-06  THRLOCT = -1.00D+00  THRGAPT = -1.00D+00  THRORB  =  1.00D-06  THRMLTP =  0.00D+00
 THRCPQCI=  1.00D-10  KEXTA   =  0.00D+00  THRCOARS=  0.00D+00  SYMTOL  =  1.00D-06  GRADTOL =  1.00D-06  THROVL  =  1.00D-08
 THRORTH =  1.00D-08  GRID    =  1.00D-06  GRIDMAX =  1.00D-03  DTMAX   =  0.00D+00  THROCCDE=  1.00D-01  THROCCDE=  1.00D-01



 THRESHOLDS:

 ZERO    =  1.00D-22  ONEINT  =  1.00D-22  TWOINT  =  1.00D-22  PREFAC  =  1.00D-14  LOCALI  =  1.00D-09  EORDER  =  1.00D-04
 ENERGY  =  1.00D-12  ETEST   =  0.00D+00  EDENS   =  0.00D+00  THRDEDEF=  1.00D-06  GRADIENT=  1.00D-02  STEP    =  1.00D-03
 ORBITAL =  1.00D-05  CIVEC   =  1.00D-05  COEFF   =  1.00D-04  PRINTCI =  5.00D-02  PUNCHCI =  9.90D+01  OPTGRAD =  1.00D-08
 OPTENERG=  1.00D-06  OPTSTEP =  1.00D-08  THRGRAD =  1.00D-10  COMPRESS=  1.00D-11  VARMIN  =  1.00D-07  VARMAX  =  1.00D-03
 THRDOUB =  0.00D+00  THRDIV  =  1.00D-05  THRRED  =  1.00D-07  THRPSP  =  1.00D+00  THRDC   =  1.00D-10  THRCS   =  1.00D-10
 THRNRM  =  1.00D-08  THREQ   =  0.00D+00  THRDE   =  1.00D+00  THRREF  =  1.00D-05  SPARFAC =  1.00D+00  THRDLP  =  1.00D-07
 THRDIA  =  1.00D-10  THRDLS  =  1.00D-07  THRGPS  =  0.00D+00  THRKEX  =  0.00D+00  THRDIS  =  2.00D-01  THRVAR  =  1.00D-10
 THRLOC  =  1.00D-06  THRGAP  =  1.00D-06  THRLOCT = -1.00D+00  THRGAPT = -1.00D+00  THRORB  =  1.00D-06  THRMLTP =  0.00D+00
 THRCPQCI=  1.00D-10  KEXTA   =  0.00D+00  THRCOARS=  0.00D+00  SYMTOL  =  1.00D-06  GRADTOL =  1.00D-06  THROVL  =  1.00D-08
 THRORTH =  1.00D-08  GRID    =  1.00D-06  GRIDMAX =  1.00D-03  DTMAX   =  0.00D+00  THROCCDE=  1.00D-01  THROCCDE=  1.00D-01



 Input parameters for SORTINT:

 COMPRESS =    0.000000
 C_FINAL  =    1.000000
 DEBUG    =   -1.000000
 C_SORT1  =    0.000000
 C_SEWARD =    0.000000
 THRESH   =    0.000000
 IO       =  molpro                                                          
 SPRI     =    0.000000
 SETTING GEOMTYP        =    XYZ
 ZUNIT=BOHR
 

 Variable memory set to  995000000 words,  buffer space   230000 words

 SETTING BASIS          =    AV5Z


 Recomputing integrals since basis changed


 Using spherical harmonics

 Library entry H      S aug-cc-pV5Z          selected for orbital group  1
 Library entry H      P aug-cc-pV5Z          selected for orbital group  1
 Library entry H      D aug-cc-pV5Z          selected for orbital group  1
 Library entry H      F aug-cc-pV5Z          selected for orbital group  1
 Library entry H      G aug-cc-pV5Z          selected for orbital group  1
 Library entry N      S aug-cc-pV5Z          selected for orbital group  2
 Library entry N      P aug-cc-pV5Z          selected for orbital group  2
 Library entry N      D aug-cc-pV5Z          selected for orbital group  2
 Library entry N      F aug-cc-pV5Z          selected for orbital group  2
 Library entry N      G aug-cc-pV5Z          selected for orbital group  2
 Library entry N      H aug-cc-pV5Z          selected for orbital group  2
 Library entry O      S aug-cc-pV5Z          selected for orbital group  3
 Library entry O      P aug-cc-pV5Z          selected for orbital group  3
 Library entry O      D aug-cc-pV5Z          selected for orbital group  3
 Library entry O      F aug-cc-pV5Z          selected for orbital group  3
 Library entry O      G aug-cc-pV5Z          selected for orbital group  3
 Library entry O      H aug-cc-pV5Z          selected for orbital group  3


 PROGRAM * SEWARD (Integral evaluation for generally contracted gaussian basis sets)     Author: Roland Lindh, 1990

 Geometry written to block  1 of record 700


 Point group  Cs  



 ATOMIC COORDINATES

 NR  ATOM    CHARGE       X              Y              Z

   1  H       1.00    0.000000000    1.661698047   -1.926956648
   2  N       7.00    0.000000000   -0.155549664   -1.144333346
   3  O       8.00    0.000000000    0.035619407    1.120700402

 Bond lengths in Bohr (Angstrom)

 1-2  1.978607712  2-3  2.273086777
     ( 1.047034111)     ( 1.202865721)

 Bond angles

  1-2-3  108.47547239

 NUCLEAR CHARGE:                   16
 NUMBER OF PRIMITIVE AOS:         506
 NUMBER OF SYMMETRY AOS:          371
 NUMBER OF CONTRACTIONS:          334   ( 204A'  + 130A"  )
 NUMBER OF CORE ORBITALS:           2   (   2A'  +   0A"  )
 NUMBER OF VALENCE ORBITALS:        9   (   7A'  +   2A"  )


 NUCLEAR REPULSION ENERGY   30.48988310


 Eigenvalues of metric

         1 0.110E-04 0.168E-04 0.626E-04 0.980E-04 0.103E-03 0.134E-03 0.197E-03 0.223E-03
         2 0.125E-03 0.356E-03 0.110E-02 0.154E-02 0.188E-02 0.247E-02 0.320E-02 0.384E-02


 Contracted 2-electron integrals neglected if value below      1.0D-22

      756977396. INTEGRALS WRITTEN OUT IN  184855 BLOCKS ON RECORD 1290 OF FILE 1


 NUMBER OF SORTED TWO-ELECTRON INTEGRALS:  789027325.     BUFFER LENGTH:  32768
 NUMBER OF SEGMENTS:  25  SEGMENT LENGTH:   31997130      RECORD LENGTH: 524288

 Memory used in sort:      32.55 MW

 SORT1 READ   756977396. AND WROTE   760993285. INTEGRALS IN   2189 RECORDS. CPU TIME:    41.15 SEC, REAL TIME:   226.74 SEC
 SORT2 READ   760993285. AND WROTE   789027325. INTEGRALS IN     25 RECORDS. CPU TIME:    11.81 SEC, REAL TIME:    64.16 SEC

 FILE SIZES:   FILE 1: 12137.5 MBYTE,  FILE 4:  9181.4 MBYTE,   TOTAL:  21318.9 MBYTE

 OPERATOR DM      FOR CENTER  0  COORDINATES:    0.000000    0.000000    0.000000


 **********************************************************************************************************************************
 DATASETS  * FILE   NREC   LENGTH (MB)   RECORD NAMES
              1      19     6374.22       500      610      700      900      950      970     1000      129      960     1100   
                                          VAR    BASINP    GEOM    SYMINP    ZMAT    AOBASIS   BASIS     P2S    ABASIS      S 
                                         1400     1410     1200     1210     1080     1600     1650     1300     1700   
                                           T        V       H0       H01     AOSYM     SMH    MOLCAS    ERIS     OPER   

 PROGRAMS   *        TOTAL       INT
 CPU TIMES  *       150.03    149.93
 REAL TIME  *       420.34 SEC
 DISK USED  *        21.32 GB      
 **********************************************************************************************************************************


 PROGRAM * RHF-SCF (CLOSED SHELL)       Authors: W. Meyer, H.-J. Werner


 NUMBER OF ELECTRONS:       8+    8-
 CONVERGENCE THRESHOLDS:    1.00E-10 (Density)    1.00E-13 (Energy)
 MAX. NUMBER OF ITERATIONS:      500
 INTERPOLATION TYPE:            DIIS
 INTERPOLATION STEPS:              2 (START)      1 (STEP)
 LEVEL SHIFTS:                  0.00 (CLOSED)  0.00 (OPEN) 



 Orbital guess generated from atomic densities. Full valence occupancy:    9   2

 Molecular orbital dump at record        2100.2

 Initial occupancy:   7   1

 ITERATION    DDIFF          GRAD             ENERGY        2-EL.EN.            DIPOLE MOMENTS         DIIS   ORB.
    1      0.000D+00      0.000D+00      -129.80035852    154.198259    0.00000    0.59869   -1.01268    0    start
    2      0.000D+00      0.636D-02      -129.82773172    155.423828    0.00000    0.60758   -0.21311    1    diag
    3      0.395D-02      0.478D-02      -129.84965705    155.540865    0.00000    0.55705   -0.58847    2    diag
    4      0.203D-02      0.765D-03      -129.85045151    155.260662    0.00000    0.56442   -0.52760    3    diag
    5      0.376D-03      0.247D-03      -129.85057459    155.353609    0.00000    0.56963   -0.53018    4    diag
    6      0.154D-03      0.712D-04      -129.85059419    155.337432    0.00000    0.56993   -0.52607    5    diag
    7      0.591D-04      0.353D-04      -129.85059983    155.340242    0.00000    0.57115   -0.52352    6    diag
    8      0.404D-04      0.123D-04      -129.85060046    155.339557    0.00000    0.57120   -0.52253    7    diag
    9      0.152D-04      0.235D-05      -129.85060048    155.339451    0.00000    0.57117   -0.52232    8    diag
   10      0.304D-05      0.537D-06      -129.85060048    155.339434    0.00000    0.57113   -0.52229    9    orth
   11      0.608D-06      0.108D-06      -129.85060048    155.339430    0.00000    0.57113   -0.52228    9    diag
   12      0.115D-06      0.218D-07      -129.85060048    155.339430    0.00000    0.57112   -0.52228    9    diag
   13      0.247D-07      0.566D-08      -129.85060048    155.339430    0.00000    0.57112   -0.52228    9    diag
   14      0.657D-08      0.110D-08      -129.85060048    155.339430    0.00000    0.57112   -0.52228    9    diag
   15      0.121D-08      0.317D-09      -129.85060048    155.339430    0.00000    0.57112   -0.52228    9    diag
   16      0.361D-09      0.969D-10      -129.85060048    155.339430    0.00000    0.57112   -0.52228    9    diag
   17      0.729D-10      0.257D-10      -129.85060048    155.339430    0.00000    0.57112   -0.52228    9    diag
   18      0.333D-10      0.877D-11      -129.85060048    155.339430    0.00000    0.57112   -0.52228    9    diag
   19      0.199D-10      0.221D-11      -129.85060048    155.339430    0.00000    0.57112   -0.52228    9    fixocc
   20      0.178D-10      0.562D-12      -129.85060048    155.339430    0.00000    0.57112   -0.52228    9    orth
   21      0.120D-10      0.481D-12      -129.85060048    155.339430    0.00000    0.57112   -0.52228    9    diag
   22      0.805D-11      0.322D-12      -129.85060048    155.339430    0.00000    0.57112   -0.52228    9    diag
   23      0.398D-11      0.311D-12      -129.85060048    155.339430    0.00000    0.57112   -0.52228    9    diag
   24      0.403D-11      0.238D-12      -129.85060048    155.339430    0.00000    0.57112   -0.52228    9    diag
   25      0.268D-11      0.268D-12      -129.85060048    155.339430    0.00000    0.57112   -0.52228    9    diag
   26      0.209D-11      0.273D-12      -129.85060048    155.339430    0.00000    0.57112   -0.52228    0    orth

 Final occupancy:   7   1

 !RHF STATE 1.1 Energy               -129.850600484198
 Nuclear energy                        30.48988310
 One-electron energy                 -238.01019835
 Two-electron energy                   77.66971477
 Virial quotient                       -1.00149552
 !RHF STATE 1.1 Dipole moment           0.00000000     0.57112439    -0.52228222
 Dipole moment /Debye                   0.00000000     1.45155834    -1.32742205

 Orbital energies:

         1.1          2.1          3.1          4.1          5.1          6.1          7.1          8.1          9.1
    -20.652419   -15.710561    -1.533402    -0.994637    -0.749274    -0.667629    -0.429094     0.022893     0.065547

         1.2          2.2          3.2
     -0.598369     0.061150     0.092013

 HOMO      7.1    -0.429094 =     -11.6762eV
 LUMO      8.1     0.022893 =       0.6229eV
 LUMO-HOMO         0.451986 =      12.2992eV


 **********************************************************************************************************************************
 DATASETS  * FILE   NREC   LENGTH (MB)   RECORD NAMES
              1      19     6374.22       500      610      700      900      950      970     1000      129      960     1100   
                                          VAR    BASINP    GEOM    SYMINP    ZMAT    AOBASIS   BASIS     P2S    ABASIS      S 
                                         1400     1410     1200     1210     1080     1600     1650     1300     1700   
                                           T        V       H0       H01     AOSYM     SMH    MOLCAS    ERIS     OPER   

              2       4        4.02       700     1000      520     2100   
                                         GEOM     BASIS   MCVARS     RHF  

 PROGRAMS   *        TOTAL        HF       INT
 CPU TIMES  *       231.63     81.60    149.93
 REAL TIME  *       526.44 SEC
 DISK USED  *        21.32 GB      
 **********************************************************************************************************************************


 PROGRAM * CCSD (Closed-shell coupled cluster)     Authors: C. Hampel, H.-J. Werner, 1991, M. Deegan, P.J. Knowles, 1992


 Convergence thresholds:  THRVAR = 1.00D-08  THRDEN = 1.00D-12

 CCSD(T)     terms to be evaluated (factor= 1.000)


 Number of core orbitals:           2 (   2   0 )
 Number of closed-shell orbitals:   6 (   5   1 )
 Number of external orbitals:     326 ( 197 129 )

 Molecular orbitals read from record     2100.2  Type=RHF/CANONICAL (state 1.1)

 Number of N-1 electron functions:               6
 Number of N-2 electron functions:              21
 Number of singly external CSFs:              1114
 Number of doubly external CSFs:            975958
 Total number of CSFs:                      977073

 Length of J-op  integral file:               0.00 MB
 Length of K-op  integral file:               4.07 MB
 Length of 3-ext integral record:             0.00 MB

 Memory could be reduced to 151.33 Mwords without degradation in triples

 Integral transformation finished. Total CPU:   9.93 sec, npass=  1  Memory used:  41.21 MW

 Reference energy:                   -129.85060048

 MP2 singlet pair energy:              -0.31054627
 MP2 triplet pair energy:              -0.17159923
 MP2 correlation energy:               -0.48214550
 MP2 total energy:                   -130.33274598

 SCS-MP2 correlation energy:           -0.47942838   (PS=  1.200000  PT=  0.333333)
 SCS-MP2 total energy:               -130.33002886

 ITER.      SQ.NORM     CORR.ENERGY   TOTAL ENERGY   ENERGY CHANGE        DEN1      VAR(S)    VAR(P)  DIIS     TIME  TIME/IT
   1      1.11988219    -0.47935964  -130.32996013     0.00278585     0.01918867  0.31D-02  0.31D-02  1  1    18.06     9.09
   2      1.13035538    -0.47929096  -130.32989144     0.00006868    -0.01251835  0.10D-03  0.48D-03  2  2    26.50     9.21
   3      1.13638720    -0.47966207  -130.33026256    -0.00037111    -0.00296267  0.46D-04  0.55D-04  3  3    34.82     9.23
   4      1.13911153    -0.47966065  -130.33026113     0.00000143    -0.00094988  0.43D-05  0.97D-05  4  4    43.03     9.23
   5      1.14020233    -0.47968863  -130.33028912    -0.00002799    -0.00024236  0.11D-05  0.17D-05  5  5    51.32     9.24
   6      1.14054868    -0.47967757  -130.33027806     0.00001106    -0.00004881  0.11D-06  0.41D-06  6  6    59.64     9.24
   7      1.14062381    -0.47967725  -130.33027773     0.00000032     0.00000316  0.16D-07  0.92D-07  6  1    68.00     9.25
   8      1.14064861    -0.47967735  -130.33027784    -0.00000010    -0.00000294  0.36D-08  0.18D-07  6  2    76.24     9.26
   9      1.14065697    -0.47967683  -130.33027731     0.00000053    -0.00000022  0.22D-08  0.19D-08  6  3    84.61     9.26
  10      1.14065248    -0.47967755  -130.33027803    -0.00000072     0.00000155  0.34D-09  0.31D-09  6  5    92.87     9.26
  11      1.14065432    -0.47967754  -130.33027802     0.00000001    -0.00000033  0.96D-10  0.26D-10  6  4   101.12     9.26
  12      1.14065389    -0.47967760  -130.33027809    -0.00000007     0.00000005  0.18D-10  0.60D-11  6  6   109.42     9.26
  13      1.14065368    -0.47967761  -130.33027809    -0.00000000    -0.00000003  0.30D-11  0.89D-12  6  1   117.65     9.26
  14      1.14065342    -0.47967762  -130.33027810    -0.00000001     0.00000004  0.45D-12  0.16D-12  6  3   126.01     9.26
  15      1.14065335    -0.47967762  -130.33027810    -0.00000000     0.00000001  0.12D-12  0.22D-13  6  2   134.33     9.27
  16      1.14065334    -0.47967762  -130.33027810     0.00000000     0.00000000  0.31D-13  0.85D-14  6  4   142.50     9.27
  17      1.14065334    -0.47967762  -130.33027810    -0.00000000    -0.00000000  0.18D-14  0.11D-14  6  5   150.77     9.27
  18      1.14065334    -0.47967762  -130.33027810     0.00000000    -0.00000000  0.27D-15  0.29D-15  6  6   159.12     9.27
  19      1.14065335    -0.47967762  -130.33027810     0.00000000    -0.00000000  0.52D-16  0.41D-16  6  1   167.49     9.28
  20      1.14065335    -0.47967762  -130.33027810     0.00000000    -0.00000000  0.11D-16  0.60D-17  6  3   176.01     9.28
  21      1.14065335    -0.47967762  -130.33027810    -0.00000000     0.00000000  0.20D-17  0.10D-17  6  2   184.47     9.29
  22      1.14065335    -0.47967762  -130.33027810    -0.00000000     0.00000000  0.38D-18  0.16D-18  6  4   192.97     9.30
  23      1.14065335    -0.47967762  -130.33027810    -0.00000000     0.00000000  0.75D-19  0.37D-19  6  5   201.39     9.30
  24      1.14065335    -0.47967762  -130.33027810    -0.00000000     0.00000000  0.35D-19  0.19D-19  6  6   209.64     9.30
  25      1.14065335    -0.47967762  -130.33027810     0.00000000    -0.00000000  0.19D-19  0.10D-19  6  1   218.03     9.30

 Norm of t1 vector:      0.07527800      S-energy:    -0.00000000      T1 diagnostic:  0.01536606
                                                                       D1 diagnostic:  0.04154832

 Doubles amplitudes (print threshold =  0.500E-01):

         I         J         SYM. A    SYM. B    A         B      T(IJ, AB)

         6         6         2         2         1         1     -0.07532681
         6         6         2         2         1         2      0.05300475
         6         6         2         2         2         1      0.05300475


 Total CPU time for triples:     85.52 sec


 RESULTS
 =======

  Reference energy                   -129.850600484198
  CCSD singlet pair energy             -0.332607425655
  CCSD triplet pair energy             -0.147070192881
  CCSD correlation energy              -0.479677618539

  Triples (T) contribution             -0.022724118120
  Total correlation energy             -0.502401736659

  CCSD total energy                  -130.330278102738
  CCSD[T] energy                     -130.354054795498
  CCSD-T energy                      -130.352629780877
 !CCSD(T) total energy               -130.353002220858

 Timing summary (sec):

 STEP                 CPU(USER)    SYS     CPU(TOT)    WALL
 Transformation          9.98      1.34     11.32     11.69
 CCSD iterations       208.06     24.48    232.54    232.57
 Triples                85.52      1.60     87.12     87.12

 Program statistics:

 Available memory in ccsd:               994999756
 Min. memory needed in ccsd:               3348832
 Max. memory used in ccsd:                 4143652
 Max. memory used in cckext:               8340089 (25 integral passes)



 **********************************************************************************************************************************
 DATASETS  * FILE   NREC   LENGTH (MB)   RECORD NAMES
              1      20     6809.41       500      610      700      900      950      970     1000      129      960     1100   
                                          VAR    BASINP    GEOM    SYMINP    ZMAT    AOBASIS   BASIS     P2S    ABASIS      S 
                                         1400     1410     1200     1210     1080     1600     1650     1300     1700     1380   
                                           T        V       H0       H01     AOSYM     SMH    MOLCAS    ERIS     OPER     JKOP   

              2       4        4.02       700     1000      520     2100   
                                         GEOM     BASIS   MCVARS     RHF  

 PROGRAMS   *        TOTAL   CCSD(T)        HF       INT
 CPU TIMES  *       535.22    303.59     81.60    149.93
 REAL TIME  *       858.04 SEC
 DISK USED  *        21.32 GB      
 **********************************************************************************************************************************

 CCSD(T)/aug-cc-pV5Z energy=   -130.353002220858

        CCSD(T)         HF-SCF  
   -130.35300222   -129.85060048
 **********************************************************************************************************************************
 Molpro calculation terminated
 Variable memory released
