
 Primary working directories    : /tmp/r2666/281875.maple
 Secondary working directories  : /tmp/r2666/281875.maple
 Wavefunction directory         : /ddn/home4/r2666/wfu/
 Main file repository           : /tmp/r2666/281875.maple/

 SHA1      : d5ffa45e93fdbca01ffc919aa182cfdae0147319
 NAME      : 2015.1.35
 ARCHNAME  : linux/x86_64
 FC        : /opt/intel/composer_xe_2015.1.133/bin/intel64/ifort
 BLASLIB   : -Wl,-_start-group /opt/intel/mkl/lib/intel64/libmkl_intel_ilp64.a /opt/intel/mkl/lib/intel64/libmkl_intel_thread.a /opt/intel/mkl/lib/intel64/libmkl_core.a -Wl,-_end-group
 id        : olemiss

 Nodes     nprocs
 cn092        1

 Using customized tuning parameters: mindgm=1; mindgv=20; mindgc=4; mindgr=1; noblas=0; minvec=7
 default implementation of scratch files=df  

 ***,hno CCSD(T)/TZ-F12 QFF
 memory, 995, m;
 gthresh,energy=1.d-12,zero=1.d-22,oneint=1.d-22,twoint=1.d-22;
 gthresh,optgrad=1.d-8,optstep=1.d-8;
 nocompress;
 geomtyp=xyz
 bohr
 geometry={
 3
         30        30
 H        0.0000000000        1.6616165577       -1.9149175566
 N        0.0000000000       -0.1649353943       -1.1542622832
 O        0.0000000000        0.0450866266        1.1185902488
 }
 
 basis=av5z
   {hf,maxit=500;accu,20;}
 {ccsd(t),nocheck,maxit=250;orbital,IGNORE_ERROR;}

 Variables initialized (889), CPU time= 0.00 sec
 Commands  initialized (702), CPU time= 0.01 sec, 572 directives.
 Default parameters read. Elapsed time= 0.08 sec

 Checking input...
 Passed
1


                                         ***  PROGRAM SYSTEM MOLPRO  ***
                                       Copyright, TTI GmbH Stuttgart, 2015
                                    Version 2015.1 linked Jul  9 2018 13:16:40


 **********************************************************************************************************************************
 LABEL *   hno CCSD(T)/TZ-F12 QFF                                                        
  64 bit serial version                                                                  DATE: 04-Mar-20          TIME: 13:20:09  
 **********************************************************************************************************************************

 SHA1:             d5ffa45e93fdbca01ffc919aa182cfdae0147319
 **********************************************************************************************************************************

 THRESHOLDS:

 ZERO    =  1.00D-22  ONEINT  =  1.00D-22  TWOINT  =  1.00D-22  PREFAC  =  1.00D-14  LOCALI  =  1.00D-09  EORDER  =  1.00D-04
 ENERGY  =  1.00D-12  ETEST   =  0.00D+00  EDENS   =  0.00D+00  THRDEDEF=  1.00D-06  GRADIENT=  1.00D-02  STEP    =  1.00D-03
 ORBITAL =  1.00D-05  CIVEC   =  1.00D-05  COEFF   =  1.00D-04  PRINTCI =  5.00D-02  PUNCHCI =  9.90D+01  OPTGRAD =  3.00D-04
 OPTENERG=  1.00D-06  OPTSTEP =  3.00D-04  THRGRAD =  1.00D-10  COMPRESS=  1.00D-11  VARMIN  =  1.00D-07  VARMAX  =  1.00D-03
 THRDOUB =  0.00D+00  THRDIV  =  1.00D-05  THRRED  =  1.00D-07  THRPSP  =  1.00D+00  THRDC   =  1.00D-10  THRCS   =  1.00D-10
 THRNRM  =  1.00D-08  THREQ   =  0.00D+00  THRDE   =  1.00D+00  THRREF  =  1.00D-05  SPARFAC =  1.00D+00  THRDLP  =  1.00D-07
 THRDIA  =  1.00D-10  THRDLS  =  1.00D-07  THRGPS  =  0.00D+00  THRKEX  =  0.00D+00  THRDIS  =  2.00D-01  THRVAR  =  1.00D-10
 THRLOC  =  1.00D-06  THRGAP  =  1.00D-06  THRLOCT = -1.00D+00  THRGAPT = -1.00D+00  THRORB  =  1.00D-06  THRMLTP =  0.00D+00
 THRCPQCI=  1.00D-10  KEXTA   =  0.00D+00  THRCOARS=  0.00D+00  SYMTOL  =  1.00D-06  GRADTOL =  1.00D-06  THROVL  =  1.00D-08
 THRORTH =  1.00D-08  GRID    =  1.00D-06  GRIDMAX =  1.00D-03  DTMAX   =  0.00D+00  THROCCDE=  1.00D-01  THROCCDE=  1.00D-01



 THRESHOLDS:

 ZERO    =  1.00D-22  ONEINT  =  1.00D-22  TWOINT  =  1.00D-22  PREFAC  =  1.00D-14  LOCALI  =  1.00D-09  EORDER  =  1.00D-04
 ENERGY  =  1.00D-12  ETEST   =  0.00D+00  EDENS   =  0.00D+00  THRDEDEF=  1.00D-06  GRADIENT=  1.00D-02  STEP    =  1.00D-03
 ORBITAL =  1.00D-05  CIVEC   =  1.00D-05  COEFF   =  1.00D-04  PRINTCI =  5.00D-02  PUNCHCI =  9.90D+01  OPTGRAD =  1.00D-08
 OPTENERG=  1.00D-06  OPTSTEP =  1.00D-08  THRGRAD =  1.00D-10  COMPRESS=  1.00D-11  VARMIN  =  1.00D-07  VARMAX  =  1.00D-03
 THRDOUB =  0.00D+00  THRDIV  =  1.00D-05  THRRED  =  1.00D-07  THRPSP  =  1.00D+00  THRDC   =  1.00D-10  THRCS   =  1.00D-10
 THRNRM  =  1.00D-08  THREQ   =  0.00D+00  THRDE   =  1.00D+00  THRREF  =  1.00D-05  SPARFAC =  1.00D+00  THRDLP  =  1.00D-07
 THRDIA  =  1.00D-10  THRDLS  =  1.00D-07  THRGPS  =  0.00D+00  THRKEX  =  0.00D+00  THRDIS  =  2.00D-01  THRVAR  =  1.00D-10
 THRLOC  =  1.00D-06  THRGAP  =  1.00D-06  THRLOCT = -1.00D+00  THRGAPT = -1.00D+00  THRORB  =  1.00D-06  THRMLTP =  0.00D+00
 THRCPQCI=  1.00D-10  KEXTA   =  0.00D+00  THRCOARS=  0.00D+00  SYMTOL  =  1.00D-06  GRADTOL =  1.00D-06  THROVL  =  1.00D-08
 THRORTH =  1.00D-08  GRID    =  1.00D-06  GRIDMAX =  1.00D-03  DTMAX   =  0.00D+00  THROCCDE=  1.00D-01  THROCCDE=  1.00D-01



 Input parameters for SORTINT:

 COMPRESS =    0.000000
 C_FINAL  =    1.000000
 DEBUG    =   -1.000000
 C_SORT1  =    0.000000
 C_SEWARD =    0.000000
 THRESH   =    0.000000
 IO       =  molpro                                                          
 SPRI     =    0.000000
 SETTING GEOMTYP        =    XYZ
 ZUNIT=BOHR
 

 Variable memory set to  995000000 words,  buffer space   230000 words

 SETTING BASIS          =    AV5Z


 Recomputing integrals since basis changed


 Using spherical harmonics

 Library entry H      S aug-cc-pV5Z          selected for orbital group  1
 Library entry H      P aug-cc-pV5Z          selected for orbital group  1
 Library entry H      D aug-cc-pV5Z          selected for orbital group  1
 Library entry H      F aug-cc-pV5Z          selected for orbital group  1
 Library entry H      G aug-cc-pV5Z          selected for orbital group  1
 Library entry N      S aug-cc-pV5Z          selected for orbital group  2
 Library entry N      P aug-cc-pV5Z          selected for orbital group  2
 Library entry N      D aug-cc-pV5Z          selected for orbital group  2
 Library entry N      F aug-cc-pV5Z          selected for orbital group  2
 Library entry N      G aug-cc-pV5Z          selected for orbital group  2
 Library entry N      H aug-cc-pV5Z          selected for orbital group  2
 Library entry O      S aug-cc-pV5Z          selected for orbital group  3
 Library entry O      P aug-cc-pV5Z          selected for orbital group  3
 Library entry O      D aug-cc-pV5Z          selected for orbital group  3
 Library entry O      F aug-cc-pV5Z          selected for orbital group  3
 Library entry O      G aug-cc-pV5Z          selected for orbital group  3
 Library entry O      H aug-cc-pV5Z          selected for orbital group  3


 PROGRAM * SEWARD (Integral evaluation for generally contracted gaussian basis sets)     Author: Roland Lindh, 1990

 Geometry written to block  1 of record 700


 Point group  Cs  



 ATOMIC COORDINATES

 NR  ATOM    CHARGE       X              Y              Z

   1  H       1.00    0.000000000    1.661616558   -1.914917557
   2  N       7.00    0.000000000   -0.164935394   -1.154262283
   3  O       8.00    0.000000000    0.045086627    1.118590249

 Bond lengths in Bohr (Angstrom)

 1-2  1.978607712  2-3  2.282535406
     ( 1.047034111)     ( 1.207865720)

 Bond angles

  1-2-3  107.32955680

 NUCLEAR CHARGE:                   16
 NUMBER OF PRIMITIVE AOS:         506
 NUMBER OF SYMMETRY AOS:          371
 NUMBER OF CONTRACTIONS:          334   ( 204A'  + 130A"  )
 NUMBER OF CORE ORBITALS:           2   (   2A'  +   0A"  )
 NUMBER OF VALENCE ORBITALS:        9   (   7A'  +   2A"  )


 NUCLEAR REPULSION ENERGY   30.39934020


 Eigenvalues of metric

         1 0.112E-04 0.172E-04 0.633E-04 0.994E-04 0.105E-03 0.136E-03 0.200E-03 0.223E-03
         2 0.127E-03 0.358E-03 0.111E-02 0.157E-02 0.189E-02 0.252E-02 0.322E-02 0.386E-02


 Contracted 2-electron integrals neglected if value below      1.0D-22

      756977629. INTEGRALS WRITTEN OUT IN  184855 BLOCKS ON RECORD 1290 OF FILE 1


 NUMBER OF SORTED TWO-ELECTRON INTEGRALS:  789027325.     BUFFER LENGTH:  32768
 NUMBER OF SEGMENTS:  25  SEGMENT LENGTH:   31997130      RECORD LENGTH: 524288

 Memory used in sort:      32.55 MW

 SORT1 READ   756977629. AND WROTE   760993523. INTEGRALS IN   2189 RECORDS. CPU TIME:    39.89 SEC, REAL TIME:   230.78 SEC
 SORT2 READ   760993523. AND WROTE   789027325. INTEGRALS IN     25 RECORDS. CPU TIME:    12.12 SEC, REAL TIME:    71.65 SEC

 FILE SIZES:   FILE 1: 12137.5 MBYTE,  FILE 4:  9181.4 MBYTE,   TOTAL:  21318.9 MBYTE

 OPERATOR DM      FOR CENTER  0  COORDINATES:    0.000000    0.000000    0.000000


 **********************************************************************************************************************************
 DATASETS  * FILE   NREC   LENGTH (MB)   RECORD NAMES
              1      19     6374.22       500      610      700      900      950      970     1000      129      960     1100   
                                          VAR    BASINP    GEOM    SYMINP    ZMAT    AOBASIS   BASIS     P2S    ABASIS      S 
                                         1400     1410     1200     1210     1080     1600     1650     1300     1700   
                                           T        V       H0       H01     AOSYM     SMH    MOLCAS    ERIS     OPER   

 PROGRAMS   *        TOTAL       INT
 CPU TIMES  *       150.96    150.87
 REAL TIME  *       435.46 SEC
 DISK USED  *        21.32 GB      
 **********************************************************************************************************************************


 PROGRAM * RHF-SCF (CLOSED SHELL)       Authors: W. Meyer, H.-J. Werner


 NUMBER OF ELECTRONS:       8+    8-
 CONVERGENCE THRESHOLDS:    1.00E-10 (Density)    1.00E-13 (Energy)
 MAX. NUMBER OF ITERATIONS:      500
 INTERPOLATION TYPE:            DIIS
 INTERPOLATION STEPS:              2 (START)      1 (STEP)
 LEVEL SHIFTS:                  0.00 (CLOSED)  0.00 (OPEN) 



 Orbital guess generated from atomic densities. Full valence occupancy:    9   2

 Molecular orbital dump at record        2100.2

 Initial occupancy:   7   1

 ITERATION    DDIFF          GRAD             ENERGY        2-EL.EN.            DIPOLE MOMENTS         DIIS   ORB.
    1      0.000D+00      0.000D+00      -129.79883331    154.041168    0.00000    0.59098   -1.02619    0    start
    2      0.000D+00      0.640D-02      -129.82608387    155.251837    0.00000    0.61139   -0.20618    1    diag
    3      0.400D-02      0.488D-02      -129.84891895    155.381361    0.00000    0.55490   -0.59150    2    diag
    4      0.206D-02      0.767D-03      -129.84972206    155.097726    0.00000    0.56273   -0.53007    3    diag
    5      0.377D-03      0.249D-03      -129.84984756    155.190803    0.00000    0.56782   -0.53246    4    diag
    6      0.156D-03      0.721D-04      -129.84986763    155.174533    0.00000    0.56808   -0.52824    5    diag
    7      0.599D-04      0.359D-04      -129.84987349    155.177302    0.00000    0.56929   -0.52560    6    diag
    8      0.411D-04      0.126D-04      -129.84987417    155.176591    0.00000    0.56933   -0.52457    7    diag
    9      0.159D-04      0.243D-05      -129.84987420    155.176482    0.00000    0.56929   -0.52434    8    diag
   10      0.318D-05      0.544D-06      -129.84987420    155.176466    0.00000    0.56926   -0.52432    9    orth
   11      0.614D-06      0.109D-06      -129.84987420    155.176462    0.00000    0.56925   -0.52431    9    diag
   12      0.114D-06      0.223D-07      -129.84987420    155.176462    0.00000    0.56925   -0.52431    9    diag
   13      0.250D-07      0.585D-08      -129.84987420    155.176462    0.00000    0.56925   -0.52431    9    diag
   14      0.673D-08      0.113D-08      -129.84987420    155.176462    0.00000    0.56925   -0.52431    9    diag
   15      0.122D-08      0.322D-09      -129.84987420    155.176462    0.00000    0.56925   -0.52431    9    diag
   16      0.366D-09      0.970D-10      -129.84987420    155.176462    0.00000    0.56925   -0.52431    9    diag
   17      0.712D-10      0.254D-10      -129.84987420    155.176462    0.00000    0.56925   -0.52431    9    diag
   18      0.220D-10      0.864D-11      -129.84987420    155.176462    0.00000    0.56925   -0.52431    9    diag
   19      0.185D-10      0.212D-11      -129.84987420    155.176462    0.00000    0.56925   -0.52431    9    fixocc
   20      0.163D-10      0.632D-12      -129.84987420    155.176462    0.00000    0.56925   -0.52431    9    orth
   21      0.118D-10      0.344D-12      -129.84987420    155.176462    0.00000    0.56925   -0.52431    9    diag
   22      0.746D-11      0.467D-12      -129.84987420    155.176462    0.00000    0.56925   -0.52431    9    diag
   23      0.547D-11      0.318D-12      -129.84987420    155.176462    0.00000    0.56925   -0.52431    9    diag
   24      0.336D-11      0.319D-12      -129.84987420    155.176462    0.00000    0.56925   -0.52431    9    diag
   25      0.216D-11      0.307D-12      -129.84987420    155.176462    0.00000    0.56925   -0.52431    9    diag
   26      0.304D-11      0.260D-12      -129.84987420    155.176462    0.00000    0.56925   -0.52431    9    diag
   27      0.194D-11      0.265D-12      -129.84987420    155.176462    0.00000    0.56925   -0.52431    9    diag
   28      0.107D-11      0.258D-12      -129.84987420    155.176462    0.00000    0.56925   -0.52431    9    diag
   29      0.107D-11      0.299D-12      -129.84987420    155.176462    0.00000    0.56925   -0.52431    9    diag
   30      0.467D-12      0.247D-12      -129.84987420    155.176462    0.00000    0.56925   -0.52431    9    orth
   31      0.108D-11      0.271D-12      -129.84987420    155.176462    0.00000    0.56925   -0.52431    9    diag
   32      0.150D-11      0.224D-12      -129.84987420    155.176462    0.00000    0.56925   -0.52431    9    diag
   33      0.918D-12      0.208D-12      -129.84987420    155.176462    0.00000    0.56925   -0.52431    9    diag
   34      0.114D-11      0.426D-12      -129.84987420    155.176462    0.00000    0.56925   -0.52431    9    diag
   35      0.132D-11      0.379D-12      -129.84987420    155.176462    0.00000    0.56925   -0.52431    9    diag
   36      0.132D-11      0.244D-12      -129.84987420    155.176462    0.00000    0.56925   -0.52431    9    diag
   37      0.714D-12      0.185D-12      -129.84987420    155.176462    0.00000    0.56925   -0.52431    9    diag
   38      0.139D-11      0.224D-12      -129.84987420    155.176462    0.00000    0.56925   -0.52431    9    diag
   39      0.964D-12      0.271D-12      -129.84987420    155.176462    0.00000    0.56925   -0.52431    9    diag
   40      0.903D-12      0.255D-12      -129.84987420    155.176462    0.00000    0.56925   -0.52431    0    orth

 Final occupancy:   7   1

 !RHF STATE 1.1 Energy               -129.849874197477
 Nuclear energy                        30.39934020
 One-electron energy                 -237.83744524
 Two-electron energy                   77.58823085
 Virial quotient                       -1.00161298
 !RHF STATE 1.1 Dipole moment           0.00000000     0.56924992    -0.52431286
 Dipole moment /Debye                   0.00000000     1.44679422    -1.33258308

 Orbital energies:

         1.1          2.1          3.1          4.1          5.1          6.1          7.1          8.1          9.1
    -20.652609   -15.711625    -1.529888    -0.995077    -0.747808    -0.665956    -0.431398     0.022916     0.065555

         1.2          2.2          3.2
     -0.596131     0.060329     0.091611

 HOMO      7.1    -0.431398 =     -11.7389eV
 LUMO      8.1     0.022916 =       0.6236eV
 LUMO-HOMO         0.454314 =      12.3625eV


 **********************************************************************************************************************************
 DATASETS  * FILE   NREC   LENGTH (MB)   RECORD NAMES
              1      19     6374.22       500      610      700      900      950      970     1000      129      960     1100   
                                          VAR    BASINP    GEOM    SYMINP    ZMAT    AOBASIS   BASIS     P2S    ABASIS      S 
                                         1400     1410     1200     1210     1080     1600     1650     1300     1700   
                                           T        V       H0       H01     AOSYM     SMH    MOLCAS    ERIS     OPER   

              2       4        4.02       700     1000      520     2100   
                                         GEOM     BASIS   MCVARS     RHF  

 PROGRAMS   *        TOTAL        HF       INT
 CPU TIMES  *       283.01    132.05    150.87
 REAL TIME  *       608.09 SEC
 DISK USED  *        21.32 GB      
 **********************************************************************************************************************************


 PROGRAM * CCSD (Closed-shell coupled cluster)     Authors: C. Hampel, H.-J. Werner, 1991, M. Deegan, P.J. Knowles, 1992


 Convergence thresholds:  THRVAR = 1.00D-08  THRDEN = 1.00D-12

 CCSD(T)     terms to be evaluated (factor= 1.000)


 Number of core orbitals:           2 (   2   0 )
 Number of closed-shell orbitals:   6 (   5   1 )
 Number of external orbitals:     326 ( 197 129 )

 Molecular orbitals read from record     2100.2  Type=RHF/CANONICAL (state 1.1)

 Number of N-1 electron functions:               6
 Number of N-2 electron functions:              21
 Number of singly external CSFs:              1114
 Number of doubly external CSFs:            975958
 Total number of CSFs:                      977073

 Length of J-op  integral file:               0.00 MB
 Length of K-op  integral file:               4.07 MB
 Length of 3-ext integral record:             0.00 MB

 Memory could be reduced to 151.33 Mwords without degradation in triples

 Integral transformation finished. Total CPU:  10.59 sec, npass=  1  Memory used:  41.21 MW

 Reference energy:                   -129.84987420

 MP2 singlet pair energy:              -0.31105092
 MP2 triplet pair energy:              -0.17193764
 MP2 correlation energy:               -0.48298856
 MP2 total energy:                   -130.33286276

 SCS-MP2 correlation energy:           -0.48024453   (PS=  1.200000  PT=  0.333333)
 SCS-MP2 total energy:               -130.33011872

 ITER.      SQ.NORM     CORR.ENERGY   TOTAL ENERGY   ENERGY CHANGE        DEN1      VAR(S)    VAR(P)  DIIS     TIME  TIME/IT
   1      1.12038267    -0.48000394  -130.32987814     0.00298462     0.01958251  0.31D-02  0.32D-02  1  1    19.49     9.85
   2      1.13096375    -0.47989717  -130.32977137     0.00010677    -0.01263710  0.10D-03  0.48D-03  2  2    28.52     9.98
   3      1.13707086    -0.48027315  -130.33014734    -0.00037597    -0.00298978  0.47D-04  0.56D-04  3  3    37.52    10.03
   4      1.13983900    -0.48027237  -130.33014657     0.00000077    -0.00096199  0.44D-05  0.98D-05  4  4    46.60    10.06
   5      1.14094836    -0.48030104  -130.33017524    -0.00002867    -0.00024672  0.11D-05  0.16D-05  5  5    55.70    10.07
   6      1.14129716    -0.48028954  -130.33016374     0.00001150    -0.00004956  0.11D-06  0.40D-06  6  6    64.78    10.09
   7      1.14137034    -0.48028928  -130.33016347     0.00000027     0.00000353  0.16D-07  0.91D-07  6  1    73.78    10.09
   8      1.14139482    -0.48028930  -130.33016349    -0.00000002    -0.00000297  0.34D-08  0.18D-07  6  2    82.78    10.10
   9      1.14140290    -0.48028876  -130.33016296     0.00000053    -0.00000018  0.22D-08  0.19D-08  6  3    92.04    10.11
  10      1.14139835    -0.48028949  -130.33016369    -0.00000073     0.00000158  0.34D-09  0.32D-09  6  5   101.16    10.13
  11      1.14140028    -0.48028947  -130.33016367     0.00000002    -0.00000036  0.96D-10  0.26D-10  6  4   110.27    10.13
  12      1.14139985    -0.48028954  -130.33016374    -0.00000007     0.00000005  0.17D-10  0.60D-11  6  6   119.31    10.13
  13      1.14139965    -0.48028954  -130.33016374    -0.00000000    -0.00000003  0.29D-11  0.86D-12  6  1   128.33    10.13
  14      1.14139940    -0.48028955  -130.33016375    -0.00000001     0.00000004  0.41D-12  0.16D-12  6  3   137.37    10.13
  15      1.14139933    -0.48028956  -130.33016375    -0.00000000     0.00000001  0.11D-12  0.21D-13  6  2   146.39    10.13
  16      1.14139932    -0.48028956  -130.33016375     0.00000000     0.00000000  0.30D-13  0.80D-14  6  4   155.52    10.13
  17      1.14139932    -0.48028956  -130.33016375    -0.00000000    -0.00000000  0.18D-14  0.10D-14  6  5   164.53    10.13
  18      1.14139932    -0.48028956  -130.33016375     0.00000000    -0.00000000  0.26D-15  0.27D-15  6  6   173.54    10.13
  19      1.14139933    -0.48028956  -130.33016375     0.00000000    -0.00000000  0.48D-16  0.37D-16  6  1   182.59    10.13
  20      1.14139933    -0.48028956  -130.33016375     0.00000000    -0.00000000  0.10D-16  0.55D-17  6  3   191.64    10.13
  21      1.14139933    -0.48028956  -130.33016375    -0.00000000     0.00000000  0.19D-17  0.99D-18  6  2   200.70    10.13
  22      1.14139933    -0.48028956  -130.33016375    -0.00000000     0.00000000  0.33D-18  0.15D-18  6  4   209.78    10.14
  23      1.14139933    -0.48028956  -130.33016375    -0.00000000     0.00000000  0.74D-19  0.39D-19  6  5   218.77    10.14
  24      1.14139933    -0.48028956  -130.33016375    -0.00000000     0.00000000  0.32D-19  0.17D-19  6  6   227.77    10.14
  25      1.14139933    -0.48028956  -130.33016375    -0.00000000     0.00000000  0.14D-19  0.77D-20  6  1   236.86    10.14

 Norm of t1 vector:      0.07580207      S-energy:    -0.00000000      T1 diagnostic:  0.01547303
                                                                       D1 diagnostic:  0.04209745

 Doubles amplitudes (print threshold =  0.500E-01):

         I         J         SYM. A    SYM. B    A         B      T(IJ, AB)

         6         6         2         2         1         1     -0.07910807
         6         6         2         2         1         2      0.05305550
         6         6         2         2         2         1      0.05305550


 Total CPU time for triples:     91.65 sec


 RESULTS
 =======

  Reference energy                   -129.849874197476
  CCSD singlet pair energy             -0.333133335005
  CCSD triplet pair energy             -0.147156220861
  CCSD correlation energy              -0.480289555868

  Triples (T) contribution             -0.022870792048
  Total correlation energy             -0.503160347917

  CCSD total energy                  -130.330163753345
  CCSD[T] energy                     -130.354103126847
  CCSD-T energy                      -130.352658187995
 !CCSD(T) total energy               -130.353034545393

 Timing summary (sec):

 STEP                 CPU(USER)    SYS     CPU(TOT)    WALL
 Transformation         10.63      1.51     12.14     12.14
 CCSD iterations       226.24     27.14    253.38    253.43
 Triples                91.65      1.64     93.29     93.29

 Program statistics:

 Available memory in ccsd:               994999756
 Min. memory needed in ccsd:               3348832
 Max. memory used in ccsd:                 4143652
 Max. memory used in cckext:               8340089 (25 integral passes)



 **********************************************************************************************************************************
 DATASETS  * FILE   NREC   LENGTH (MB)   RECORD NAMES
              1      20     6809.41       500      610      700      900      950      970     1000      129      960     1100   
                                          VAR    BASINP    GEOM    SYMINP    ZMAT    AOBASIS   BASIS     P2S    ABASIS      S 
                                         1400     1410     1200     1210     1080     1600     1650     1300     1700     1380   
                                           T        V       H0       H01     AOSYM     SMH    MOLCAS    ERIS     OPER     JKOP   

              2       4        4.02       700     1000      520     2100   
                                         GEOM     BASIS   MCVARS     RHF  

 PROGRAMS   *        TOTAL   CCSD(T)        HF       INT
 CPU TIMES  *       611.55    328.53    132.05    150.87
 REAL TIME  *       967.00 SEC
 DISK USED  *        21.32 GB      
 **********************************************************************************************************************************

 CCSD(T)/aug-cc-pV5Z energy=   -130.353034545393

        CCSD(T)         HF-SCF  
   -130.35303455   -129.84987420
 **********************************************************************************************************************************
 Molpro calculation terminated
 Variable memory released
