
 Primary working directories    : /tmp/r2666/281847.maple
 Secondary working directories  : /tmp/r2666/281847.maple
 Wavefunction directory         : /ddn/home4/r2666/wfu/
 Main file repository           : /tmp/r2666/281847.maple/

 SHA1      : d5ffa45e93fdbca01ffc919aa182cfdae0147319
 NAME      : 2015.1.35
 ARCHNAME  : linux/x86_64
 FC        : /opt/intel/composer_xe_2015.1.133/bin/intel64/ifort
 BLASLIB   : -Wl,-_start-group /opt/intel/mkl/lib/intel64/libmkl_intel_ilp64.a /opt/intel/mkl/lib/intel64/libmkl_intel_thread.a /opt/intel/mkl/lib/intel64/libmkl_core.a -Wl,-_end-group
 id        : olemiss

 Nodes     nprocs
 cn065        1

 Using customized tuning parameters: mindgm=1; mindgv=20; mindgc=4; mindgr=1; noblas=0; minvec=7
 default implementation of scratch files=df  

 ***,hno CCSD(T)/TZ-F12 QFF
 memory, 995, m;
 gthresh,energy=1.d-12,zero=1.d-22,oneint=1.d-22,twoint=1.d-22;
 gthresh,optgrad=1.d-8,optstep=1.d-8;
 nocompress;
 geomtyp=xyz
 bohr
 geometry={
 3
          2         2
 H        0.0000000000        1.6486310147       -1.9148537920
 N        0.0000000000       -0.1476183441       -1.1552424332
 O        0.0000000000        0.0407551195        1.1195066342
 }
 
 basis=av5z
   {hf,maxit=500;accu,20;}
 {ccsd(t),nocheck,maxit=250;orbital,IGNORE_ERROR;}

 Variables initialized (889), CPU time= 0.00 sec
 Commands  initialized (702), CPU time= 0.01 sec, 572 directives.
 Default parameters read. Elapsed time= 0.06 sec

 Checking input...
 Passed
1


                                         ***  PROGRAM SYSTEM MOLPRO  ***
                                       Copyright, TTI GmbH Stuttgart, 2015
                                    Version 2015.1 linked Jul  9 2018 13:16:40


 **********************************************************************************************************************************
 LABEL *   hno CCSD(T)/TZ-F12 QFF                                                        
  64 bit serial version                                                                  DATE: 04-Mar-20          TIME: 13:19:56  
 **********************************************************************************************************************************

 SHA1:             d5ffa45e93fdbca01ffc919aa182cfdae0147319
 **********************************************************************************************************************************

 THRESHOLDS:

 ZERO    =  1.00D-22  ONEINT  =  1.00D-22  TWOINT  =  1.00D-22  PREFAC  =  1.00D-14  LOCALI  =  1.00D-09  EORDER  =  1.00D-04
 ENERGY  =  1.00D-12  ETEST   =  0.00D+00  EDENS   =  0.00D+00  THRDEDEF=  1.00D-06  GRADIENT=  1.00D-02  STEP    =  1.00D-03
 ORBITAL =  1.00D-05  CIVEC   =  1.00D-05  COEFF   =  1.00D-04  PRINTCI =  5.00D-02  PUNCHCI =  9.90D+01  OPTGRAD =  3.00D-04
 OPTENERG=  1.00D-06  OPTSTEP =  3.00D-04  THRGRAD =  1.00D-10  COMPRESS=  1.00D-11  VARMIN  =  1.00D-07  VARMAX  =  1.00D-03
 THRDOUB =  0.00D+00  THRDIV  =  1.00D-05  THRRED  =  1.00D-07  THRPSP  =  1.00D+00  THRDC   =  1.00D-10  THRCS   =  1.00D-10
 THRNRM  =  1.00D-08  THREQ   =  0.00D+00  THRDE   =  1.00D+00  THRREF  =  1.00D-05  SPARFAC =  1.00D+00  THRDLP  =  1.00D-07
 THRDIA  =  1.00D-10  THRDLS  =  1.00D-07  THRGPS  =  0.00D+00  THRKEX  =  0.00D+00  THRDIS  =  2.00D-01  THRVAR  =  1.00D-10
 THRLOC  =  1.00D-06  THRGAP  =  1.00D-06  THRLOCT = -1.00D+00  THRGAPT = -1.00D+00  THRORB  =  1.00D-06  THRMLTP =  0.00D+00
 THRCPQCI=  1.00D-10  KEXTA   =  0.00D+00  THRCOARS=  0.00D+00  SYMTOL  =  1.00D-06  GRADTOL =  1.00D-06  THROVL  =  1.00D-08
 THRORTH =  1.00D-08  GRID    =  1.00D-06  GRIDMAX =  1.00D-03  DTMAX   =  0.00D+00  THROCCDE=  1.00D-01  THROCCDE=  1.00D-01



 THRESHOLDS:

 ZERO    =  1.00D-22  ONEINT  =  1.00D-22  TWOINT  =  1.00D-22  PREFAC  =  1.00D-14  LOCALI  =  1.00D-09  EORDER  =  1.00D-04
 ENERGY  =  1.00D-12  ETEST   =  0.00D+00  EDENS   =  0.00D+00  THRDEDEF=  1.00D-06  GRADIENT=  1.00D-02  STEP    =  1.00D-03
 ORBITAL =  1.00D-05  CIVEC   =  1.00D-05  COEFF   =  1.00D-04  PRINTCI =  5.00D-02  PUNCHCI =  9.90D+01  OPTGRAD =  1.00D-08
 OPTENERG=  1.00D-06  OPTSTEP =  1.00D-08  THRGRAD =  1.00D-10  COMPRESS=  1.00D-11  VARMIN  =  1.00D-07  VARMAX  =  1.00D-03
 THRDOUB =  0.00D+00  THRDIV  =  1.00D-05  THRRED  =  1.00D-07  THRPSP  =  1.00D+00  THRDC   =  1.00D-10  THRCS   =  1.00D-10
 THRNRM  =  1.00D-08  THREQ   =  0.00D+00  THRDE   =  1.00D+00  THRREF  =  1.00D-05  SPARFAC =  1.00D+00  THRDLP  =  1.00D-07
 THRDIA  =  1.00D-10  THRDLS  =  1.00D-07  THRGPS  =  0.00D+00  THRKEX  =  0.00D+00  THRDIS  =  2.00D-01  THRVAR  =  1.00D-10
 THRLOC  =  1.00D-06  THRGAP  =  1.00D-06  THRLOCT = -1.00D+00  THRGAPT = -1.00D+00  THRORB  =  1.00D-06  THRMLTP =  0.00D+00
 THRCPQCI=  1.00D-10  KEXTA   =  0.00D+00  THRCOARS=  0.00D+00  SYMTOL  =  1.00D-06  GRADTOL =  1.00D-06  THROVL  =  1.00D-08
 THRORTH =  1.00D-08  GRID    =  1.00D-06  GRIDMAX =  1.00D-03  DTMAX   =  0.00D+00  THROCCDE=  1.00D-01  THROCCDE=  1.00D-01



 Input parameters for SORTINT:

 COMPRESS =    0.000000
 C_FINAL  =    1.000000
 DEBUG    =   -1.000000
 C_SORT1  =    0.000000
 C_SEWARD =    0.000000
 THRESH   =    0.000000
 IO       =  molpro                                                          
 SPRI     =    0.000000
 SETTING GEOMTYP        =    XYZ
 ZUNIT=BOHR
 

 Variable memory set to  995000000 words,  buffer space   230000 words

 SETTING BASIS          =    AV5Z


 Recomputing integrals since basis changed


 Using spherical harmonics

 Library entry H      S aug-cc-pV5Z          selected for orbital group  1
 Library entry H      P aug-cc-pV5Z          selected for orbital group  1
 Library entry H      D aug-cc-pV5Z          selected for orbital group  1
 Library entry H      F aug-cc-pV5Z          selected for orbital group  1
 Library entry H      G aug-cc-pV5Z          selected for orbital group  1
 Library entry N      S aug-cc-pV5Z          selected for orbital group  2
 Library entry N      P aug-cc-pV5Z          selected for orbital group  2
 Library entry N      D aug-cc-pV5Z          selected for orbital group  2
 Library entry N      F aug-cc-pV5Z          selected for orbital group  2
 Library entry N      G aug-cc-pV5Z          selected for orbital group  2
 Library entry N      H aug-cc-pV5Z          selected for orbital group  2
 Library entry O      S aug-cc-pV5Z          selected for orbital group  3
 Library entry O      P aug-cc-pV5Z          selected for orbital group  3
 Library entry O      D aug-cc-pV5Z          selected for orbital group  3
 Library entry O      F aug-cc-pV5Z          selected for orbital group  3
 Library entry O      G aug-cc-pV5Z          selected for orbital group  3
 Library entry O      H aug-cc-pV5Z          selected for orbital group  3


 PROGRAM * SEWARD (Integral evaluation for generally contracted gaussian basis sets)     Author: Roland Lindh, 1990

 Geometry written to block  1 of record 700


 Point group  Cs  



 ATOMIC COORDINATES

 NR  ATOM    CHARGE       X              Y              Z

   1  H       1.00    0.000000000    1.648631015   -1.914853792
   2  N       7.00    0.000000000   -0.147618344   -1.155242433
   3  O       8.00    0.000000000    0.040755119    1.119506634

 Bond lengths in Bohr (Angstrom)

 1-2  1.950261822  2-3  2.282535406
     ( 1.032034112)     ( 1.207865720)

 Bond angles

  1-2-3  108.18899349

 NUCLEAR CHARGE:                   16
 NUMBER OF PRIMITIVE AOS:         506
 NUMBER OF SYMMETRY AOS:          371
 NUMBER OF CONTRACTIONS:          334   ( 204A'  + 130A"  )
 NUMBER OF CORE ORBITALS:           2   (   2A'  +   0A"  )
 NUMBER OF VALENCE ORBITALS:        9   (   7A'  +   2A"  )


 NUCLEAR REPULSION ENERGY   30.45300256


 Eigenvalues of metric

         1 0.108E-04 0.168E-04 0.611E-04 0.980E-04 0.105E-03 0.134E-03 0.195E-03 0.221E-03
         2 0.127E-03 0.338E-03 0.110E-02 0.156E-02 0.177E-02 0.249E-02 0.306E-02 0.371E-02


 Contracted 2-electron integrals neglected if value below      1.0D-22

      756977408. INTEGRALS WRITTEN OUT IN  184855 BLOCKS ON RECORD 1290 OF FILE 1


 NUMBER OF SORTED TWO-ELECTRON INTEGRALS:  789027325.     BUFFER LENGTH:  32768
 NUMBER OF SEGMENTS:  25  SEGMENT LENGTH:   31997130      RECORD LENGTH: 524288

 Memory used in sort:      32.55 MW

 SORT1 READ   756977408. AND WROTE   760993303. INTEGRALS IN   2189 RECORDS. CPU TIME:    28.08 SEC, REAL TIME:   132.64 SEC
 SORT2 READ   760993303. AND WROTE   789027325. INTEGRALS IN     25 RECORDS. CPU TIME:    12.95 SEC, REAL TIME:    47.50 SEC

 FILE SIZES:   FILE 1: 12137.5 MBYTE,  FILE 4:  9181.4 MBYTE,   TOTAL:  21318.9 MBYTE

 OPERATOR DM      FOR CENTER  0  COORDINATES:    0.000000    0.000000    0.000000


 **********************************************************************************************************************************
 DATASETS  * FILE   NREC   LENGTH (MB)   RECORD NAMES
              1      19     6374.22       500      610      700      900      950      970     1000      129      960     1100   
                                          VAR    BASINP    GEOM    SYMINP    ZMAT    AOBASIS   BASIS     P2S    ABASIS      S 
                                         1400     1410     1200     1210     1080     1600     1650     1300     1700   
                                           T        V       H0       H01     AOSYM     SMH    MOLCAS    ERIS     OPER   

 PROGRAMS   *        TOTAL       INT
 CPU TIMES  *       163.22    163.12
 REAL TIME  *       310.80 SEC
 DISK USED  *        21.32 GB      
 **********************************************************************************************************************************


 PROGRAM * RHF-SCF (CLOSED SHELL)       Authors: W. Meyer, H.-J. Werner


 NUMBER OF ELECTRONS:       8+    8-
 CONVERGENCE THRESHOLDS:    1.00E-10 (Density)    1.00E-13 (Energy)
 MAX. NUMBER OF ITERATIONS:      500
 INTERPOLATION TYPE:            DIIS
 INTERPOLATION STEPS:              2 (START)      1 (STEP)
 LEVEL SHIFTS:                  0.00 (CLOSED)  0.00 (OPEN) 



 Orbital guess generated from atomic densities. Full valence occupancy:    9   2

 Molecular orbital dump at record        2100.2

 Initial occupancy:   7   1

 ITERATION    DDIFF          GRAD             ENERGY        2-EL.EN.            DIPOLE MOMENTS         DIIS   ORB.
    1      0.000D+00      0.000D+00      -129.79997929    154.142358    0.00000    0.60740   -1.02536    0    start
    2      0.000D+00      0.635D-02      -129.82722050    155.340972    0.00000    0.61181   -0.21586    1    diag
    3      0.396D-02      0.480D-02      -129.84927911    155.473122    0.00000    0.56305   -0.59626    2    diag
    4      0.204D-02      0.770D-03      -129.85008247    155.191098    0.00000    0.57054   -0.53452    3    diag
    5      0.378D-03      0.247D-03      -129.85020495    155.283236    0.00000    0.57552   -0.53691    4    diag
    6      0.154D-03      0.708D-04      -129.85022430    155.267196    0.00000    0.57579   -0.53276    5    diag
    7      0.587D-04      0.354D-04      -129.85022997    155.269883    0.00000    0.57696   -0.53012    6    diag
    8      0.404D-04      0.124D-04      -129.85023062    155.269191    0.00000    0.57700   -0.52910    7    diag
    9      0.156D-04      0.238D-05      -129.85023065    155.269087    0.00000    0.57696   -0.52888    8    diag
   10      0.313D-05      0.536D-06      -129.85023065    155.269072    0.00000    0.57693   -0.52885    9    orth
   11      0.606D-06      0.107D-06      -129.85023065    155.269068    0.00000    0.57693   -0.52885    9    diag
   12      0.112D-06      0.218D-07      -129.85023065    155.269068    0.00000    0.57692   -0.52885    9    diag
   13      0.239D-07      0.566D-08      -129.85023065    155.269068    0.00000    0.57692   -0.52885    9    diag
   14      0.639D-08      0.109D-08      -129.85023065    155.269068    0.00000    0.57692   -0.52885    9    diag
   15      0.116D-08      0.308D-09      -129.85023065    155.269068    0.00000    0.57692   -0.52885    9    diag
   16      0.350D-09      0.926D-10      -129.85023065    155.269068    0.00000    0.57692   -0.52885    9    diag
   17      0.696D-10      0.232D-10      -129.85023065    155.269068    0.00000    0.57692   -0.52885    9    diag
   18      0.232D-10      0.766D-11      -129.85023065    155.269068    0.00000    0.57692   -0.52885    9    diag
   19      0.121D-10      0.186D-11      -129.85023065    155.269068    0.00000    0.57692   -0.52885    9    fixocc
   20      0.174D-10      0.452D-12      -129.85023065    155.269068    0.00000    0.57692   -0.52885    9    orth
   21      0.760D-11      0.413D-12      -129.85023065    155.269068    0.00000    0.57692   -0.52885    9    diag
   22      0.651D-11      0.239D-12      -129.85023065    155.269068    0.00000    0.57692   -0.52885    9    diag
   23      0.261D-11      0.367D-12      -129.85023065    155.269068    0.00000    0.57692   -0.52885    9    diag
   24      0.291D-11      0.235D-12      -129.85023065    155.269068    0.00000    0.57692   -0.52885    9    diag
   25      0.237D-11      0.254D-12      -129.85023065    155.269068    0.00000    0.57692   -0.52885    9    diag
   26      0.153D-11      0.339D-12      -129.85023065    155.269068    0.00000    0.57692   -0.52885    0    orth

 Final occupancy:   7   1

 !RHF STATE 1.1 Energy               -129.850230651007
 Nuclear energy                        30.45300256
 One-electron energy                 -237.93776731
 Two-electron energy                   77.63453410
 Virial quotient                       -1.00145162
 !RHF STATE 1.1 Dipole moment           0.00000000     0.57692318    -0.52885157
 Dipole moment /Debye                   0.00000000     1.46629642    -1.34411858

 Orbital energies:

         1.1          2.1          3.1          4.1          5.1          6.1          7.1          8.1          9.1
    -20.652574   -15.709444    -1.529667    -0.999570    -0.749396    -0.666155    -0.431720     0.022863     0.065534

         1.2          2.2          3.2
     -0.595823     0.060159     0.091396

 HOMO      7.1    -0.431720 =     -11.7477eV
 LUMO      8.1     0.022863 =       0.6221eV
 LUMO-HOMO         0.454582 =      12.3698eV


 **********************************************************************************************************************************
 DATASETS  * FILE   NREC   LENGTH (MB)   RECORD NAMES
              1      19     6374.22       500      610      700      900      950      970     1000      129      960     1100   
                                          VAR    BASINP    GEOM    SYMINP    ZMAT    AOBASIS   BASIS     P2S    ABASIS      S 
                                         1400     1410     1200     1210     1080     1600     1650     1300     1700   
                                           T        V       H0       H01     AOSYM     SMH    MOLCAS    ERIS     OPER   

              2       4        4.02       700     1000      520     2100   
                                         GEOM     BASIS   MCVARS     RHF  

 PROGRAMS   *        TOTAL        HF       INT
 CPU TIMES  *       283.65    120.42    163.12
 REAL TIME  *       464.96 SEC
 DISK USED  *        21.32 GB      
 **********************************************************************************************************************************


 PROGRAM * CCSD (Closed-shell coupled cluster)     Authors: C. Hampel, H.-J. Werner, 1991, M. Deegan, P.J. Knowles, 1992


 Convergence thresholds:  THRVAR = 1.00D-08  THRDEN = 1.00D-12

 CCSD(T)     terms to be evaluated (factor= 1.000)


 Number of core orbitals:           2 (   2   0 )
 Number of closed-shell orbitals:   6 (   5   1 )
 Number of external orbitals:     326 ( 197 129 )

 Molecular orbitals read from record     2100.2  Type=RHF/CANONICAL (state 1.1)

 Number of N-1 electron functions:               6
 Number of N-2 electron functions:              21
 Number of singly external CSFs:              1114
 Number of doubly external CSFs:            975958
 Total number of CSFs:                      977073

 Length of J-op  integral file:               0.00 MB
 Length of K-op  integral file:               4.07 MB
 Length of 3-ext integral record:             0.00 MB

 Memory could be reduced to 151.33 Mwords without degradation in triples

 Integral transformation finished. Total CPU:  15.98 sec, npass=  1  Memory used:  41.21 MW

 Reference energy:                   -129.85023065

 MP2 singlet pair energy:              -0.31072745
 MP2 triplet pair energy:              -0.17173639
 MP2 correlation energy:               -0.48246384
 MP2 total energy:                   -130.33269449

 SCS-MP2 correlation energy:           -0.47973114   (PS=  1.200000  PT=  0.333333)
 SCS-MP2 total energy:               -130.32996179

 ITER.      SQ.NORM     CORR.ENERGY   TOTAL ENERGY   ENERGY CHANGE        DEN1      VAR(S)    VAR(P)  DIIS     TIME  TIME/IT
   1      1.11991764    -0.47951996  -130.32975062     0.00294387     0.01942935  0.31D-02  0.32D-02  1  1    29.24    14.43
   2      1.13042319    -0.47942079  -130.32965144     0.00009918    -0.01256522  0.10D-03  0.48D-03  2  2    42.41    14.50
   3      1.13646920    -0.47978995  -130.33002060    -0.00036917    -0.00296239  0.46D-04  0.56D-04  3  3    55.79    14.59
   4      1.13922283    -0.47979071  -130.33002136    -0.00000076    -0.00095418  0.42D-05  0.98D-05  4  4    69.06    14.64
   5      1.14032246    -0.47981873  -130.33004938    -0.00002802    -0.00024395  0.10D-05  0.17D-05  5  5    82.51    14.68
   6      1.14067032    -0.47980731  -130.33003796     0.00001142    -0.00004933  0.10D-06  0.41D-06  6  6    96.03    14.72
   7      1.14074295    -0.47980728  -130.33003793     0.00000002     0.00000371  0.14D-07  0.94D-07  6  1   109.39    14.74
   8      1.14076716    -0.47980737  -130.33003802    -0.00000008    -0.00000292  0.35D-08  0.18D-07  6  2   122.88    14.77
   9      1.14077175    -0.47980704  -130.33003769     0.00000033     0.00000121  0.25D-08  0.22D-08  6  4   136.30    14.79
  10      1.14077421    -0.47980736  -130.33003801    -0.00000032    -0.00000079  0.50D-09  0.26D-09  6  3   149.62    14.79
  11      1.14077400    -0.47980745  -130.33003810    -0.00000009    -0.00000011  0.15D-09  0.37D-10  6  5   162.78    14.78
  12      1.14077309    -0.47980758  -130.33003823    -0.00000013     0.00000037  0.19D-10  0.11D-10  6  6   176.35    14.80
  13      1.14077227    -0.47980762  -130.33003827    -0.00000004     0.00000021  0.51D-11  0.25D-11  6  1   189.79    14.81
  14      1.14077161    -0.47980765  -130.33003831    -0.00000003     0.00000016  0.35D-12  0.46D-12  6  4   203.19    14.81
  15      1.14077141    -0.47980766  -130.33003831    -0.00000001     0.00000004  0.71D-13  0.40D-13  6  2   216.53    14.82
  16      1.14077136    -0.47980766  -130.33003831    -0.00000000     0.00000001  0.20D-13  0.69D-14  6  3   229.82    14.81
  17      1.14077133    -0.47980766  -130.33003832    -0.00000000     0.00000001  0.40D-14  0.10D-14  6  5   242.63    14.77
  18      1.14077133    -0.47980766  -130.33003832    -0.00000000     0.00000000  0.85D-15  0.24D-15  6  6   255.79    14.75
  19      1.14077133    -0.47980766  -130.33003832    -0.00000000     0.00000000  0.11D-15  0.49D-16  6  1   269.07    14.74
  20      1.14077133    -0.47980766  -130.33003832     0.00000000    -0.00000000  0.12D-16  0.79D-17  6  4   282.31    14.74
  21      1.14077133    -0.47980766  -130.33003832     0.00000000    -0.00000000  0.89D-18  0.13D-17  6  3   295.58    14.74
  22      1.14077133    -0.47980766  -130.33003832     0.00000000    -0.00000000  0.24D-18  0.31D-18  6  2   308.74    14.73
  23      1.14077133    -0.47980766  -130.33003832     0.00000000    -0.00000000  0.56D-19  0.13D-18  6  5   321.89    14.72
  24      1.14077133    -0.47980766  -130.33003832     0.00000000     0.00000000  0.19D-19  0.68D-19  6  6   335.05    14.72
  25      1.14077133    -0.47980766  -130.33003832    -0.00000000     0.00000000  0.58D-20  0.34D-19  6  1   348.27    14.71

 Norm of t1 vector:      0.07544830      S-energy:     0.00000000      T1 diagnostic:  0.01540082
                                                                       D1 diagnostic:  0.04214376

 Doubles amplitudes (print threshold =  0.500E-01):

         I         J         SYM. A    SYM. B    A         B      T(IJ, AB)

         6         6         2         2         1         1     -0.07914735
         6         6         2         2         1         2      0.05317911
         6         6         2         2         2         1      0.05317911


 Total CPU time for triples:    130.53 sec


 RESULTS
 =======

  Reference energy                   -129.850230651007
  CCSD singlet pair energy             -0.332728268739
  CCSD triplet pair energy             -0.147079395884
  CCSD correlation energy              -0.479807664621

  Triples (T) contribution             -0.022780972568
  Total correlation energy             -0.502588637189

  CCSD total energy                  -130.330038315627
  CCSD[T] energy                     -130.353877585144
  CCSD-T energy                      -130.352447181931
 !CCSD(T) total energy               -130.352819288196

 Timing summary (sec):

 STEP                 CPU(USER)    SYS     CPU(TOT)    WALL
 Transformation         16.05      1.88     17.93     17.95
 CCSD iterations       332.24     35.64    367.88    367.88
 Triples               130.53      2.30    132.83    132.84

 Program statistics:

 Available memory in ccsd:               994999756
 Min. memory needed in ccsd:               3348832
 Max. memory used in ccsd:                 4143652
 Max. memory used in cckext:               8340089 (25 integral passes)



 **********************************************************************************************************************************
 DATASETS  * FILE   NREC   LENGTH (MB)   RECORD NAMES
              1      20     6809.41       500      610      700      900      950      970     1000      129      960     1100   
                                          VAR    BASINP    GEOM    SYMINP    ZMAT    AOBASIS   BASIS     P2S    ABASIS      S 
                                         1400     1410     1200     1210     1080     1600     1650     1300     1700     1380   
                                           T        V       H0       H01     AOSYM     SMH    MOLCAS    ERIS     OPER     JKOP   

              2       4        4.02       700     1000      520     2100   
                                         GEOM     BASIS   MCVARS     RHF  

 PROGRAMS   *        TOTAL   CCSD(T)        HF       INT
 CPU TIMES  *       762.50    478.86    120.42    163.12
 REAL TIME  *       983.70 SEC
 DISK USED  *        21.32 GB      
 **********************************************************************************************************************************

 CCSD(T)/aug-cc-pV5Z energy=   -130.352819288196

        CCSD(T)         HF-SCF  
   -130.35281929   -129.85023065
 **********************************************************************************************************************************
 Molpro calculation terminated
 Variable memory released
