
 Primary working directories    : /tmp/r2666/281969.maple
 Secondary working directories  : /tmp/r2666/281969.maple
 Wavefunction directory         : /ddn/home4/r2666/wfu/
 Main file repository           : /tmp/r2666/281969.maple/

 SHA1      : d5ffa45e93fdbca01ffc919aa182cfdae0147319
 NAME      : 2015.1.35
 ARCHNAME  : linux/x86_64
 FC        : /opt/intel/composer_xe_2015.1.133/bin/intel64/ifort
 BLASLIB   : -Wl,-_start-group /opt/intel/mkl/lib/intel64/libmkl_intel_ilp64.a /opt/intel/mkl/lib/intel64/libmkl_intel_thread.a /opt/intel/mkl/lib/intel64/libmkl_core.a -Wl,-_end-group
 id        : olemiss

 Nodes     nprocs
 cn056        1

 Using customized tuning parameters: mindgm=1; mindgv=20; mindgc=4; mindgr=1; noblas=0; minvec=7
 default implementation of scratch files=df  

 ***,hno CCSD(T)/TZ-F12 QFF
 memory, 995, m;
 gthresh,energy=1.d-12,zero=1.d-22,oneint=1.d-22,twoint=1.d-22;
 gthresh,optgrad=1.d-8,optstep=1.d-8;
 nocompress;
 geomtyp=xyz
 bohr
 geometry={
 3
        124       124
 H        0.0000000000        1.6796992920       -1.9378328988
 N        0.0000000000       -0.1714131244       -1.1382950431
 O        0.0000000000        0.0334816225        1.1255383509
 }
 
 basis=av5z
   {hf,maxit=500;accu,20;}
 {ccsd(t),nocheck,maxit=250;orbital,IGNORE_ERROR;}

 Variables initialized (889), CPU time= 0.00 sec
 Commands  initialized (702), CPU time= 0.01 sec, 572 directives.
 Default parameters read. Elapsed time= 0.06 sec

 Checking input...
 Passed
1


                                         ***  PROGRAM SYSTEM MOLPRO  ***
                                       Copyright, TTI GmbH Stuttgart, 2015
                                    Version 2015.1 linked Jul  9 2018 13:16:40


 **********************************************************************************************************************************
 LABEL *   hno CCSD(T)/TZ-F12 QFF                                                        
  64 bit serial version                                                                  DATE: 04-Mar-20          TIME: 13:35:29  
 **********************************************************************************************************************************

 SHA1:             d5ffa45e93fdbca01ffc919aa182cfdae0147319
 **********************************************************************************************************************************

 THRESHOLDS:

 ZERO    =  1.00D-22  ONEINT  =  1.00D-22  TWOINT  =  1.00D-22  PREFAC  =  1.00D-14  LOCALI  =  1.00D-09  EORDER  =  1.00D-04
 ENERGY  =  1.00D-12  ETEST   =  0.00D+00  EDENS   =  0.00D+00  THRDEDEF=  1.00D-06  GRADIENT=  1.00D-02  STEP    =  1.00D-03
 ORBITAL =  1.00D-05  CIVEC   =  1.00D-05  COEFF   =  1.00D-04  PRINTCI =  5.00D-02  PUNCHCI =  9.90D+01  OPTGRAD =  3.00D-04
 OPTENERG=  1.00D-06  OPTSTEP =  3.00D-04  THRGRAD =  1.00D-10  COMPRESS=  1.00D-11  VARMIN  =  1.00D-07  VARMAX  =  1.00D-03
 THRDOUB =  0.00D+00  THRDIV  =  1.00D-05  THRRED  =  1.00D-07  THRPSP  =  1.00D+00  THRDC   =  1.00D-10  THRCS   =  1.00D-10
 THRNRM  =  1.00D-08  THREQ   =  0.00D+00  THRDE   =  1.00D+00  THRREF  =  1.00D-05  SPARFAC =  1.00D+00  THRDLP  =  1.00D-07
 THRDIA  =  1.00D-10  THRDLS  =  1.00D-07  THRGPS  =  0.00D+00  THRKEX  =  0.00D+00  THRDIS  =  2.00D-01  THRVAR  =  1.00D-10
 THRLOC  =  1.00D-06  THRGAP  =  1.00D-06  THRLOCT = -1.00D+00  THRGAPT = -1.00D+00  THRORB  =  1.00D-06  THRMLTP =  0.00D+00
 THRCPQCI=  1.00D-10  KEXTA   =  0.00D+00  THRCOARS=  0.00D+00  SYMTOL  =  1.00D-06  GRADTOL =  1.00D-06  THROVL  =  1.00D-08
 THRORTH =  1.00D-08  GRID    =  1.00D-06  GRIDMAX =  1.00D-03  DTMAX   =  0.00D+00  THROCCDE=  1.00D-01  THROCCDE=  1.00D-01



 THRESHOLDS:

 ZERO    =  1.00D-22  ONEINT  =  1.00D-22  TWOINT  =  1.00D-22  PREFAC  =  1.00D-14  LOCALI  =  1.00D-09  EORDER  =  1.00D-04
 ENERGY  =  1.00D-12  ETEST   =  0.00D+00  EDENS   =  0.00D+00  THRDEDEF=  1.00D-06  GRADIENT=  1.00D-02  STEP    =  1.00D-03
 ORBITAL =  1.00D-05  CIVEC   =  1.00D-05  COEFF   =  1.00D-04  PRINTCI =  5.00D-02  PUNCHCI =  9.90D+01  OPTGRAD =  1.00D-08
 OPTENERG=  1.00D-06  OPTSTEP =  1.00D-08  THRGRAD =  1.00D-10  COMPRESS=  1.00D-11  VARMIN  =  1.00D-07  VARMAX  =  1.00D-03
 THRDOUB =  0.00D+00  THRDIV  =  1.00D-05  THRRED  =  1.00D-07  THRPSP  =  1.00D+00  THRDC   =  1.00D-10  THRCS   =  1.00D-10
 THRNRM  =  1.00D-08  THREQ   =  0.00D+00  THRDE   =  1.00D+00  THRREF  =  1.00D-05  SPARFAC =  1.00D+00  THRDLP  =  1.00D-07
 THRDIA  =  1.00D-10  THRDLS  =  1.00D-07  THRGPS  =  0.00D+00  THRKEX  =  0.00D+00  THRDIS  =  2.00D-01  THRVAR  =  1.00D-10
 THRLOC  =  1.00D-06  THRGAP  =  1.00D-06  THRLOCT = -1.00D+00  THRGAPT = -1.00D+00  THRORB  =  1.00D-06  THRMLTP =  0.00D+00
 THRCPQCI=  1.00D-10  KEXTA   =  0.00D+00  THRCOARS=  0.00D+00  SYMTOL  =  1.00D-06  GRADTOL =  1.00D-06  THROVL  =  1.00D-08
 THRORTH =  1.00D-08  GRID    =  1.00D-06  GRIDMAX =  1.00D-03  DTMAX   =  0.00D+00  THROCCDE=  1.00D-01  THROCCDE=  1.00D-01



 Input parameters for SORTINT:

 COMPRESS =    0.000000
 C_FINAL  =    1.000000
 DEBUG    =   -1.000000
 C_SORT1  =    0.000000
 C_SEWARD =    0.000000
 THRESH   =    0.000000
 IO       =  molpro                                                          
 SPRI     =    0.000000
 SETTING GEOMTYP        =    XYZ
 ZUNIT=BOHR
 

 Variable memory set to  995000000 words,  buffer space   230000 words

 SETTING BASIS          =    AV5Z


 Recomputing integrals since basis changed


 Using spherical harmonics

 Library entry H      S aug-cc-pV5Z          selected for orbital group  1
 Library entry H      P aug-cc-pV5Z          selected for orbital group  1
 Library entry H      D aug-cc-pV5Z          selected for orbital group  1
 Library entry H      F aug-cc-pV5Z          selected for orbital group  1
 Library entry H      G aug-cc-pV5Z          selected for orbital group  1
 Library entry N      S aug-cc-pV5Z          selected for orbital group  2
 Library entry N      P aug-cc-pV5Z          selected for orbital group  2
 Library entry N      D aug-cc-pV5Z          selected for orbital group  2
 Library entry N      F aug-cc-pV5Z          selected for orbital group  2
 Library entry N      G aug-cc-pV5Z          selected for orbital group  2
 Library entry N      H aug-cc-pV5Z          selected for orbital group  2
 Library entry O      S aug-cc-pV5Z          selected for orbital group  3
 Library entry O      P aug-cc-pV5Z          selected for orbital group  3
 Library entry O      D aug-cc-pV5Z          selected for orbital group  3
 Library entry O      F aug-cc-pV5Z          selected for orbital group  3
 Library entry O      G aug-cc-pV5Z          selected for orbital group  3
 Library entry O      H aug-cc-pV5Z          selected for orbital group  3


 PROGRAM * SEWARD (Integral evaluation for generally contracted gaussian basis sets)     Author: Roland Lindh, 1990

 Geometry written to block  1 of record 700


 Point group  Cs  



 ATOMIC COORDINATES

 NR  ATOM    CHARGE       X              Y              Z

   1  H       1.00    0.000000000    1.679699292   -1.937832899
   2  N       7.00    0.000000000   -0.171413124   -1.138295043
   3  O       8.00    0.000000000    0.033481623    1.125538351

 Bond lengths in Bohr (Angstrom)

 1-2  2.016402232  2-3  2.273086776
     ( 1.067034109)     ( 1.202865721)

 Bond angles

  1-2-3  108.18899349

 NUCLEAR CHARGE:                   16
 NUMBER OF PRIMITIVE AOS:         506
 NUMBER OF SYMMETRY AOS:          371
 NUMBER OF CONTRACTIONS:          334   ( 204A'  + 130A"  )
 NUMBER OF CORE ORBITALS:           2   (   2A'  +   0A"  )
 NUMBER OF VALENCE ORBITALS:        9   (   7A'  +   2A"  )


 NUCLEAR REPULSION ENERGY   30.40801507


 Eigenvalues of metric

         1 0.115E-04 0.174E-04 0.653E-04 0.998E-04 0.103E-03 0.137E-03 0.202E-03 0.225E-03
         2 0.125E-03 0.383E-03 0.112E-02 0.155E-02 0.205E-02 0.252E-02 0.341E-02 0.397E-02


 Contracted 2-electron integrals neglected if value below      1.0D-22

      756977511. INTEGRALS WRITTEN OUT IN  184855 BLOCKS ON RECORD 1290 OF FILE 1


 NUMBER OF SORTED TWO-ELECTRON INTEGRALS:  789027325.     BUFFER LENGTH:  32768
 NUMBER OF SEGMENTS:  25  SEGMENT LENGTH:   31997130      RECORD LENGTH: 524288

 Memory used in sort:      32.55 MW

 SORT1 READ   756977511. AND WROTE   760993392. INTEGRALS IN   2189 RECORDS. CPU TIME:    28.47 SEC, REAL TIME:    35.49 SEC
 SORT2 READ   760993392. AND WROTE   789027325. INTEGRALS IN     25 RECORDS. CPU TIME:    10.82 SEC, REAL TIME:    15.69 SEC

 FILE SIZES:   FILE 1: 12137.5 MBYTE,  FILE 4:  9181.4 MBYTE,   TOTAL:  21318.9 MBYTE

 OPERATOR DM      FOR CENTER  0  COORDINATES:    0.000000    0.000000    0.000000


 **********************************************************************************************************************************
 DATASETS  * FILE   NREC   LENGTH (MB)   RECORD NAMES
              1      19     6374.22       500      610      700      900      950      970     1000      129      960     1100   
                                          VAR    BASINP    GEOM    SYMINP    ZMAT    AOBASIS   BASIS     P2S    ABASIS      S 
                                         1400     1410     1200     1210     1080     1600     1650     1300     1700   
                                           T        V       H0       H01     AOSYM     SMH    MOLCAS    ERIS     OPER   

 PROGRAMS   *        TOTAL       INT
 CPU TIMES  *       166.09    165.99
 REAL TIME  *       186.43 SEC
 DISK USED  *        21.32 GB      
 **********************************************************************************************************************************


 PROGRAM * RHF-SCF (CLOSED SHELL)       Authors: W. Meyer, H.-J. Werner


 NUMBER OF ELECTRONS:       8+    8-
 CONVERGENCE THRESHOLDS:    1.00E-10 (Density)    1.00E-13 (Energy)
 MAX. NUMBER OF ITERATIONS:      500
 INTERPOLATION TYPE:            DIIS
 INTERPOLATION STEPS:              2 (START)      1 (STEP)
 LEVEL SHIFTS:                  0.00 (CLOSED)  0.00 (OPEN) 



 Orbital guess generated from atomic densities. Full valence occupancy:    9   2

 Molecular orbital dump at record        2100.2

 Initial occupancy:   7   1

 ITERATION    DDIFF          GRAD             ENERGY        2-EL.EN.            DIPOLE MOMENTS         DIIS   ORB.
    1      0.000D+00      0.000D+00      -129.79861129    154.035869    0.00000    0.58306   -1.01382    0    start
    2      0.000D+00      0.642D-02      -129.82596828    155.284935    0.00000    0.60568   -0.20338    1    diag
    3      0.400D-02      0.488D-02      -129.84879693    155.396147    0.00000    0.54875   -0.58471    2    diag
    4      0.206D-02      0.763D-03      -129.84959460    155.113240    0.00000    0.55613   -0.52394    3    diag
    5      0.376D-03      0.249D-03      -129.84972153    155.207753    0.00000    0.56158   -0.52662    4    diag
    6      0.157D-03      0.727D-04      -129.84974202    155.191291    0.00000    0.56188   -0.52245    5    diag
    7      0.605D-04      0.359D-04      -129.84974789    155.194210    0.00000    0.56317   -0.51989    6    diag
    8      0.412D-04      0.125D-04      -129.84974853    155.193509    0.00000    0.56322   -0.51890    7    diag
    9      0.155D-04      0.241D-05      -129.84974856    155.193395    0.00000    0.56319   -0.51868    8    diag
   10      0.312D-05      0.551D-06      -129.84974856    155.193376    0.00000    0.56315   -0.51865    9    orth
   11      0.625D-06      0.112D-06      -129.84974856    155.193371    0.00000    0.56314   -0.51865    9    diag
   12      0.120D-06      0.227D-07      -129.84974856    155.193371    0.00000    0.56314   -0.51865    9    diag
   13      0.262D-07      0.595D-08      -129.84974856    155.193371    0.00000    0.56314   -0.51865    9    diag
   14      0.707D-08      0.118D-08      -129.84974856    155.193371    0.00000    0.56314   -0.51865    9    diag
   15      0.131D-08      0.341D-09      -129.84974856    155.193371    0.00000    0.56314   -0.51865    9    diag
   16      0.388D-09      0.104D-09      -129.84974856    155.193371    0.00000    0.56314   -0.51865    9    diag
   17      0.789D-10      0.290D-10      -129.84974856    155.193371    0.00000    0.56314   -0.51865    0    orth

 Final occupancy:   7   1

 !RHF STATE 1.1 Energy               -129.849748564497
 Nuclear energy                        30.40801507
 One-electron energy                 -237.85444910
 Two-electron energy                   77.59668547
 Virial quotient                       -1.00172160
 !RHF STATE 1.1 Dipole moment           0.00000000     0.56314026    -0.51864539
 Dipole moment /Debye                   0.00000000     1.43126603    -1.31817876

 Orbital energies:

         1.1          2.1          3.1          4.1          5.1          6.1          7.1          8.1          9.1
    -20.652782   -15.713335    -1.533367    -0.989504    -0.747113    -0.667600    -0.428104     0.022910     0.065560

         1.2          2.2          3.2
     -0.598734     0.061228     0.092223

 HOMO      7.1    -0.428104 =     -11.6493eV
 LUMO      8.1     0.022910 =       0.6234eV
 LUMO-HOMO         0.451014 =      12.2727eV


 **********************************************************************************************************************************
 DATASETS  * FILE   NREC   LENGTH (MB)   RECORD NAMES
              1      19     6374.22       500      610      700      900      950      970     1000      129      960     1100   
                                          VAR    BASINP    GEOM    SYMINP    ZMAT    AOBASIS   BASIS     P2S    ABASIS      S 
                                         1400     1410     1200     1210     1080     1600     1650     1300     1700   
                                           T        V       H0       H01     AOSYM     SMH    MOLCAS    ERIS     OPER   

              2       4        4.02       700     1000      520     2100   
                                         GEOM     BASIS   MCVARS     RHF  

 PROGRAMS   *        TOTAL        HF       INT
 CPU TIMES  *       252.70     86.60    165.99
 REAL TIME  *       295.47 SEC
 DISK USED  *        21.32 GB      
 **********************************************************************************************************************************


 PROGRAM * CCSD (Closed-shell coupled cluster)     Authors: C. Hampel, H.-J. Werner, 1991, M. Deegan, P.J. Knowles, 1992


 Convergence thresholds:  THRVAR = 1.00D-08  THRDEN = 1.00D-12

 CCSD(T)     terms to be evaluated (factor= 1.000)


 Number of core orbitals:           2 (   2   0 )
 Number of closed-shell orbitals:   6 (   5   1 )
 Number of external orbitals:     326 ( 197 129 )

 Molecular orbitals read from record     2100.2  Type=RHF/CANONICAL (state 1.1)

 Number of N-1 electron functions:               6
 Number of N-2 electron functions:              21
 Number of singly external CSFs:              1114
 Number of doubly external CSFs:            975958
 Total number of CSFs:                      977073

 Length of J-op  integral file:               0.00 MB
 Length of K-op  integral file:               4.07 MB
 Length of 3-ext integral record:             0.00 MB

 Memory could be reduced to 151.33 Mwords without degradation in triples

 Integral transformation finished. Total CPU:  16.58 sec, npass=  1  Memory used:  41.21 MW

 Reference energy:                   -129.84974856

 MP2 singlet pair energy:              -0.31099430
 MP2 triplet pair energy:              -0.17187599
 MP2 correlation energy:               -0.48287029
 MP2 total energy:                   -130.33261886

 SCS-MP2 correlation energy:           -0.48013822   (PS=  1.200000  PT=  0.333333)
 SCS-MP2 total energy:               -130.32988679

 ITER.      SQ.NORM     CORR.ENERGY   TOTAL ENERGY   ENERGY CHANGE        DEN1      VAR(S)    VAR(P)  DIIS     TIME  TIME/IT
   1      1.12055539    -0.48002912  -130.32977768     0.00284117     0.01942002  0.31D-02  0.32D-02  1  1    29.86    14.52
   2      1.13115220    -0.47994700  -130.32969557     0.00008212    -0.01262881  0.10D-03  0.49D-03  2  2    43.47    14.75
   3      1.13728950    -0.48033016  -130.33007873    -0.00038316    -0.00300273  0.48D-04  0.56D-04  3  3    57.04    14.82
   4      1.14004943    -0.48032622  -130.33007479     0.00000394    -0.00096428  0.46D-05  0.99D-05  4  4    70.69    14.88
   5      1.14116746    -0.48035523  -130.33010379    -0.00002900    -0.00024865  0.12D-05  0.16D-05  5  5    84.33    14.92
   6      1.14152053    -0.48034404  -130.33009260     0.00001119    -0.00004966  0.13D-06  0.40D-06  6  6    97.92    14.93
   7      1.14159855    -0.48034337  -130.33009193     0.00000067     0.00000283  0.20D-07  0.90D-07  6  1   111.58    14.95
   8      1.14162443    -0.48034340  -130.33009197    -0.00000003    -0.00000308  0.37D-08  0.18D-07  6  2   125.06    14.96
   9      1.14163347    -0.48034282  -130.33009138     0.00000058    -0.00000020  0.21D-08  0.19D-08  6  3   138.59    14.97
  10      1.14162913    -0.48034354  -130.33009210    -0.00000072     0.00000150  0.33D-09  0.31D-09  6  5   152.20    14.97
  11      1.14163097    -0.48034353  -130.33009209     0.00000001    -0.00000032  0.95D-10  0.27D-10  6  4   165.70    14.97
  12      1.14163053    -0.48034359  -130.33009216    -0.00000006     0.00000005  0.18D-10  0.62D-11  6  6   179.31    14.98
  13      1.14163030    -0.48034360  -130.33009216    -0.00000000    -0.00000003  0.33D-11  0.94D-12  6  1   192.90    14.98
  14      1.14163003    -0.48034361  -130.33009217    -0.00000001     0.00000004  0.49D-12  0.18D-12  6  3   206.41    14.98
  15      1.14162995    -0.48034361  -130.33009218    -0.00000000     0.00000001  0.13D-12  0.25D-13  6  2   219.97    14.98
  16      1.14162994    -0.48034361  -130.33009217     0.00000000     0.00000000  0.33D-13  0.99D-14  6  4   233.57    14.98
  17      1.14162994    -0.48034361  -130.33009217    -0.00000000    -0.00000000  0.18D-14  0.12D-14  6  5   247.25    14.99
  18      1.14162995    -0.48034361  -130.33009217     0.00000000    -0.00000000  0.28D-15  0.32D-15  6  6   260.87    14.99
  19      1.14162995    -0.48034361  -130.33009217     0.00000000    -0.00000000  0.34D-16  0.45D-16  6  2   274.53    14.99
  20      1.14162995    -0.48034361  -130.33009217     0.00000000    -0.00000000  0.89D-17  0.66D-17  6  1   288.24    14.99
  21      1.14162995    -0.48034361  -130.33009217    -0.00000000     0.00000000  0.16D-17  0.93D-18  6  3   301.79    14.99
  22      1.14162995    -0.48034361  -130.33009217    -0.00000000     0.00000000  0.34D-18  0.15D-18  6  4   315.36    14.99
  23      1.14162995    -0.48034361  -130.33009217    -0.00000000     0.00000000  0.82D-19  0.44D-19  6  5   328.96    15.00
  24      1.14162995    -0.48034361  -130.33009217    -0.00000000     0.00000000  0.37D-19  0.20D-19  6  6   342.56    15.00
  25      1.14162995    -0.48034361  -130.33009217    -0.00000000     0.00000000  0.17D-19  0.82D-20  6  2   356.08    15.00

 Norm of t1 vector:      0.07604079      S-energy:     0.00000000      T1 diagnostic:  0.01552176
                                                                       D1 diagnostic:  0.04155586

 Doubles amplitudes (print threshold =  0.500E-01):

         I         J         SYM. A    SYM. B    A         B      T(IJ, AB)

         6         6         2         2         1         1     -0.07542371
         6         6         2         2         1         2      0.05284431
         6         6         2         2         2         1      0.05284431


 Total CPU time for triples:    130.83 sec


 RESULTS
 =======

  Reference energy                   -129.849748564498
  CCSD singlet pair energy             -0.333171045756
  CCSD triplet pair energy             -0.147172563882
  CCSD correlation energy              -0.480343609636

  Triples (T) contribution             -0.022860196891
  Total correlation energy             -0.503203806528

  CCSD total energy                  -130.330092174134
  CCSD[T] energy                     -130.354024043530
  CCSD-T energy                      -130.352572777896
 !CCSD(T) total energy               -130.352952371025

 Timing summary (sec):

 STEP                 CPU(USER)    SYS     CPU(TOT)    WALL
 Transformation         16.67      1.87     18.54     18.54
 CCSD iterations       339.42     35.58    375.00    375.04
 Triples               130.83      2.27    133.10    133.11

 Program statistics:

 Available memory in ccsd:               994999756
 Min. memory needed in ccsd:               3348832
 Max. memory used in ccsd:                 4143652
 Max. memory used in cckext:               8340089 (25 integral passes)



 **********************************************************************************************************************************
 DATASETS  * FILE   NREC   LENGTH (MB)   RECORD NAMES
              1      20     6809.41       500      610      700      900      950      970     1000      129      960     1100   
                                          VAR    BASINP    GEOM    SYMINP    ZMAT    AOBASIS   BASIS     P2S    ABASIS      S 
                                         1400     1410     1200     1210     1080     1600     1650     1300     1700     1380   
                                           T        V       H0       H01     AOSYM     SMH    MOLCAS    ERIS     OPER     JKOP   

              2       4        4.02       700     1000      520     2100   
                                         GEOM     BASIS   MCVARS     RHF  

 PROGRAMS   *        TOTAL   CCSD(T)        HF       INT
 CPU TIMES  *       739.64    486.94     86.60    165.99
 REAL TIME  *       822.21 SEC
 DISK USED  *        21.32 GB      
 **********************************************************************************************************************************

 CCSD(T)/aug-cc-pV5Z energy=   -130.352952371025

        CCSD(T)         HF-SCF  
   -130.35295237   -129.84974856
 **********************************************************************************************************************************
 Molpro calculation terminated
 Variable memory released
