
 Primary working directories    : /tmp/r2666/281896.maple
 Secondary working directories  : /tmp/r2666/281896.maple
 Wavefunction directory         : /ddn/home4/r2666/wfu/
 Main file repository           : /tmp/r2666/281896.maple/

 SHA1      : d5ffa45e93fdbca01ffc919aa182cfdae0147319
 NAME      : 2015.1.35
 ARCHNAME  : linux/x86_64
 FC        : /opt/intel/composer_xe_2015.1.133/bin/intel64/ifort
 BLASLIB   : -Wl,-_start-group /opt/intel/mkl/lib/intel64/libmkl_intel_ilp64.a /opt/intel/mkl/lib/intel64/libmkl_intel_thread.a /opt/intel/mkl/lib/intel64/libmkl_core.a -Wl,-_end-group
 id        : olemiss

 Nodes     nprocs
 cn079        1

 Using customized tuning parameters: mindgm=1; mindgv=20; mindgc=4; mindgr=1; noblas=0; minvec=7
 default implementation of scratch files=df  

 ***,hno CCSD(T)/TZ-F12 QFF
 memory, 995, m;
 gthresh,energy=1.d-12,zero=1.d-22,oneint=1.d-22,twoint=1.d-22;
 gthresh,optgrad=1.d-8,optstep=1.d-8;
 nocompress;
 geomtyp=xyz
 bohr
 geometry={
 3
         51        51
 H        0.0000000000        1.6650243097       -1.9213150022
 N        0.0000000000       -0.1638476599       -1.1418309818
 O        0.0000000000        0.0405911403        1.1125563930
 }
 
 basis=av5z
   {hf,maxit=500;accu,20;}
 {ccsd(t),nocheck,maxit=250;orbital,IGNORE_ERROR;}

 Variables initialized (889), CPU time= 0.00 sec
 Commands  initialized (702), CPU time= 0.01 sec, 572 directives.
 Default parameters read. Elapsed time= 0.06 sec

 Checking input...
 Passed
1


                                         ***  PROGRAM SYSTEM MOLPRO  ***
                                       Copyright, TTI GmbH Stuttgart, 2015
                                    Version 2015.1 linked Jul  9 2018 13:16:40


 **********************************************************************************************************************************
 LABEL *   hno CCSD(T)/TZ-F12 QFF                                                        
  64 bit serial version                                                                  DATE: 04-Mar-20          TIME: 13:19:58  
 **********************************************************************************************************************************

 SHA1:             d5ffa45e93fdbca01ffc919aa182cfdae0147319
 **********************************************************************************************************************************

 THRESHOLDS:

 ZERO    =  1.00D-22  ONEINT  =  1.00D-22  TWOINT  =  1.00D-22  PREFAC  =  1.00D-14  LOCALI  =  1.00D-09  EORDER  =  1.00D-04
 ENERGY  =  1.00D-12  ETEST   =  0.00D+00  EDENS   =  0.00D+00  THRDEDEF=  1.00D-06  GRADIENT=  1.00D-02  STEP    =  1.00D-03
 ORBITAL =  1.00D-05  CIVEC   =  1.00D-05  COEFF   =  1.00D-04  PRINTCI =  5.00D-02  PUNCHCI =  9.90D+01  OPTGRAD =  3.00D-04
 OPTENERG=  1.00D-06  OPTSTEP =  3.00D-04  THRGRAD =  1.00D-10  COMPRESS=  1.00D-11  VARMIN  =  1.00D-07  VARMAX  =  1.00D-03
 THRDOUB =  0.00D+00  THRDIV  =  1.00D-05  THRRED  =  1.00D-07  THRPSP  =  1.00D+00  THRDC   =  1.00D-10  THRCS   =  1.00D-10
 THRNRM  =  1.00D-08  THREQ   =  0.00D+00  THRDE   =  1.00D+00  THRREF  =  1.00D-05  SPARFAC =  1.00D+00  THRDLP  =  1.00D-07
 THRDIA  =  1.00D-10  THRDLS  =  1.00D-07  THRGPS  =  0.00D+00  THRKEX  =  0.00D+00  THRDIS  =  2.00D-01  THRVAR  =  1.00D-10
 THRLOC  =  1.00D-06  THRGAP  =  1.00D-06  THRLOCT = -1.00D+00  THRGAPT = -1.00D+00  THRORB  =  1.00D-06  THRMLTP =  0.00D+00
 THRCPQCI=  1.00D-10  KEXTA   =  0.00D+00  THRCOARS=  0.00D+00  SYMTOL  =  1.00D-06  GRADTOL =  1.00D-06  THROVL  =  1.00D-08
 THRORTH =  1.00D-08  GRID    =  1.00D-06  GRIDMAX =  1.00D-03  DTMAX   =  0.00D+00  THROCCDE=  1.00D-01  THROCCDE=  1.00D-01



 THRESHOLDS:

 ZERO    =  1.00D-22  ONEINT  =  1.00D-22  TWOINT  =  1.00D-22  PREFAC  =  1.00D-14  LOCALI  =  1.00D-09  EORDER  =  1.00D-04
 ENERGY  =  1.00D-12  ETEST   =  0.00D+00  EDENS   =  0.00D+00  THRDEDEF=  1.00D-06  GRADIENT=  1.00D-02  STEP    =  1.00D-03
 ORBITAL =  1.00D-05  CIVEC   =  1.00D-05  COEFF   =  1.00D-04  PRINTCI =  5.00D-02  PUNCHCI =  9.90D+01  OPTGRAD =  1.00D-08
 OPTENERG=  1.00D-06  OPTSTEP =  1.00D-08  THRGRAD =  1.00D-10  COMPRESS=  1.00D-11  VARMIN  =  1.00D-07  VARMAX  =  1.00D-03
 THRDOUB =  0.00D+00  THRDIV  =  1.00D-05  THRRED  =  1.00D-07  THRPSP  =  1.00D+00  THRDC   =  1.00D-10  THRCS   =  1.00D-10
 THRNRM  =  1.00D-08  THREQ   =  0.00D+00  THRDE   =  1.00D+00  THRREF  =  1.00D-05  SPARFAC =  1.00D+00  THRDLP  =  1.00D-07
 THRDIA  =  1.00D-10  THRDLS  =  1.00D-07  THRGPS  =  0.00D+00  THRKEX  =  0.00D+00  THRDIS  =  2.00D-01  THRVAR  =  1.00D-10
 THRLOC  =  1.00D-06  THRGAP  =  1.00D-06  THRLOCT = -1.00D+00  THRGAPT = -1.00D+00  THRORB  =  1.00D-06  THRMLTP =  0.00D+00
 THRCPQCI=  1.00D-10  KEXTA   =  0.00D+00  THRCOARS=  0.00D+00  SYMTOL  =  1.00D-06  GRADTOL =  1.00D-06  THROVL  =  1.00D-08
 THRORTH =  1.00D-08  GRID    =  1.00D-06  GRIDMAX =  1.00D-03  DTMAX   =  0.00D+00  THROCCDE=  1.00D-01  THROCCDE=  1.00D-01



 Input parameters for SORTINT:

 COMPRESS =    0.000000
 C_FINAL  =    1.000000
 DEBUG    =   -1.000000
 C_SORT1  =    0.000000
 C_SEWARD =    0.000000
 THRESH   =    0.000000
 IO       =  molpro                                                          
 SPRI     =    0.000000
 SETTING GEOMTYP        =    XYZ
 ZUNIT=BOHR
 

 Variable memory set to  995000000 words,  buffer space   230000 words

 SETTING BASIS          =    AV5Z


 Recomputing integrals since basis changed


 Using spherical harmonics

 Library entry H      S aug-cc-pV5Z          selected for orbital group  1
 Library entry H      P aug-cc-pV5Z          selected for orbital group  1
 Library entry H      D aug-cc-pV5Z          selected for orbital group  1
 Library entry H      F aug-cc-pV5Z          selected for orbital group  1
 Library entry H      G aug-cc-pV5Z          selected for orbital group  1
 Library entry N      S aug-cc-pV5Z          selected for orbital group  2
 Library entry N      P aug-cc-pV5Z          selected for orbital group  2
 Library entry N      D aug-cc-pV5Z          selected for orbital group  2
 Library entry N      F aug-cc-pV5Z          selected for orbital group  2
 Library entry N      G aug-cc-pV5Z          selected for orbital group  2
 Library entry N      H aug-cc-pV5Z          selected for orbital group  2
 Library entry O      S aug-cc-pV5Z          selected for orbital group  3
 Library entry O      P aug-cc-pV5Z          selected for orbital group  3
 Library entry O      D aug-cc-pV5Z          selected for orbital group  3
 Library entry O      F aug-cc-pV5Z          selected for orbital group  3
 Library entry O      G aug-cc-pV5Z          selected for orbital group  3
 Library entry O      H aug-cc-pV5Z          selected for orbital group  3


 PROGRAM * SEWARD (Integral evaluation for generally contracted gaussian basis sets)     Author: Roland Lindh, 1990

 Geometry written to block  1 of record 700


 Point group  Cs  



 ATOMIC COORDINATES

 NR  ATOM    CHARGE       X              Y              Z

   1  H       1.00    0.000000000    1.665024310   -1.921315002
   2  N       7.00    0.000000000   -0.163847660   -1.141830982
   3  O       8.00    0.000000000    0.040591140    1.112556393

 Bond lengths in Bohr (Angstrom)

 1-2  1.988056342  2-3  2.263638147
     ( 1.052034110)     ( 1.197865721)

 Bond angles

  1-2-3  107.90251459

 NUCLEAR CHARGE:                   16
 NUMBER OF PRIMITIVE AOS:         506
 NUMBER OF SYMMETRY AOS:          371
 NUMBER OF CONTRACTIONS:          334   ( 204A'  + 130A"  )
 NUMBER OF CORE ORBITALS:           2   (   2A'  +   0A"  )
 NUMBER OF VALENCE ORBITALS:        9   (   7A'  +   2A"  )


 NUCLEAR REPULSION ENERGY   30.58460601


 Eigenvalues of metric

         1 0.111E-04 0.168E-04 0.632E-04 0.968E-04 0.102E-03 0.133E-03 0.198E-03 0.223E-03
         2 0.123E-03 0.363E-03 0.108E-02 0.150E-02 0.191E-02 0.245E-02 0.324E-02 0.384E-02


 Contracted 2-electron integrals neglected if value below      1.0D-22

      756977579. INTEGRALS WRITTEN OUT IN  184855 BLOCKS ON RECORD 1290 OF FILE 1


 NUMBER OF SORTED TWO-ELECTRON INTEGRALS:  789027325.     BUFFER LENGTH:  32768
 NUMBER OF SEGMENTS:  25  SEGMENT LENGTH:   31997130      RECORD LENGTH: 524288

 Memory used in sort:      32.55 MW

 SORT1 READ   756977579. AND WROTE   760993472. INTEGRALS IN   2189 RECORDS. CPU TIME:    28.62 SEC, REAL TIME:   100.31 SEC
 SORT2 READ   760993472. AND WROTE   789027325. INTEGRALS IN     25 RECORDS. CPU TIME:     9.89 SEC, REAL TIME:    25.77 SEC

 FILE SIZES:   FILE 1: 12137.5 MBYTE,  FILE 4:  9181.4 MBYTE,   TOTAL:  21318.9 MBYTE

 OPERATOR DM      FOR CENTER  0  COORDINATES:    0.000000    0.000000    0.000000


 **********************************************************************************************************************************
 DATASETS  * FILE   NREC   LENGTH (MB)   RECORD NAMES
              1      19     6374.22       500      610      700      900      950      970     1000      129      960     1100   
                                          VAR    BASINP    GEOM    SYMINP    ZMAT    AOBASIS   BASIS     P2S    ABASIS      S 
                                         1400     1410     1200     1210     1080     1600     1650     1300     1700   
                                           T        V       H0       H01     AOSYM     SMH    MOLCAS    ERIS     OPER   

 PROGRAMS   *        TOTAL       INT
 CPU TIMES  *       127.87    127.80
 REAL TIME  *       222.17 SEC
 DISK USED  *        21.32 GB      
 **********************************************************************************************************************************


 PROGRAM * RHF-SCF (CLOSED SHELL)       Authors: W. Meyer, H.-J. Werner


 NUMBER OF ELECTRONS:       8+    8-
 CONVERGENCE THRESHOLDS:    1.00E-10 (Density)    1.00E-13 (Energy)
 MAX. NUMBER OF ITERATIONS:      500
 INTERPOLATION TYPE:            DIIS
 INTERPOLATION STEPS:              2 (START)      1 (STEP)
 LEVEL SHIFTS:                  0.00 (CLOSED)  0.00 (OPEN) 



 Orbital guess generated from atomic densities. Full valence occupancy:    9   2

 Molecular orbital dump at record        2100.2

 Initial occupancy:   7   1

 ITERATION    DDIFF          GRAD             ENERGY        2-EL.EN.            DIPOLE MOMENTS         DIIS   ORB.
    1      0.000D+00      0.000D+00      -129.80120951    154.367070    0.00000    0.58833   -0.99592    0    start
    2      0.000D+00      0.634D-02      -129.82871762    155.604647    0.00000    0.60425   -0.21052    1    diag
    3      0.392D-02      0.473D-02      -129.85012228    155.709896    0.00000    0.55074   -0.57797    2    diag
    4      0.201D-02      0.758D-03      -129.85090440    155.433293    0.00000    0.55848   -0.51816    3    diag
    5      0.373D-03      0.246D-03      -129.85102650    155.525993    0.00000    0.56370   -0.52082    4    diag
    6      0.153D-03      0.712D-04      -129.85104599    155.509809    0.00000    0.56401   -0.51678    5    diag
    7      0.590D-04      0.351D-04      -129.85105154    155.512696    0.00000    0.56526   -0.51429    6    diag
    8      0.401D-04      0.120D-04      -129.85105213    155.512021    0.00000    0.56531   -0.51334    7    diag
    9      0.148D-04      0.228D-05      -129.85105215    155.511918    0.00000    0.56528   -0.51313    8    diag
   10      0.291D-05      0.525D-06      -129.85105215    155.511900    0.00000    0.56525   -0.51310    9    orth
   11      0.593D-06      0.107D-06      -129.85105215    155.511896    0.00000    0.56524   -0.51310    9    diag
   12      0.114D-06      0.216D-07      -129.85105215    155.511896    0.00000    0.56524   -0.51310    9    diag
   13      0.250D-07      0.559D-08      -129.85105215    155.511896    0.00000    0.56524   -0.51310    9    diag
   14      0.659D-08      0.110D-08      -129.85105215    155.511896    0.00000    0.56524   -0.51310    9    diag
   15      0.122D-08      0.321D-09      -129.85105215    155.511896    0.00000    0.56524   -0.51310    9    diag
   16      0.366D-09      0.998D-10      -129.85105215    155.511896    0.00000    0.56524   -0.51310    9    diag
   17      0.737D-10      0.275D-10      -129.85105215    155.511896    0.00000    0.56524   -0.51310    9    diag
   18      0.223D-10      0.932D-11      -129.85105215    155.511896    0.00000    0.56524   -0.51310    9    diag
   19      0.177D-10      0.236D-11      -129.85105215    155.511896    0.00000    0.56524   -0.51310    0    orth

 Final occupancy:   7   1

 !RHF STATE 1.1 Energy               -129.851052153379
 Nuclear energy                        30.58460601
 One-electron energy                 -238.19160615
 Two-electron energy                   77.75594799
 Virial quotient                       -1.00138331
 !RHF STATE 1.1 Dipole moment           0.00000000     0.56523661    -0.51309824
 Dipole moment /Debye                   0.00000000     1.43659407    -1.30408023

 Orbital energies:

         1.1          2.1          3.1          4.1          5.1          6.1          7.1          8.1          9.1
    -20.651892   -15.710486    -1.537799    -0.991842    -0.750319    -0.668953    -0.427624     0.022989     0.065563

         1.2          2.2          3.2
     -0.600940     0.062197     0.092595

 HOMO      7.1    -0.427624 =     -11.6362eV
 LUMO      8.1     0.022989 =       0.6256eV
 LUMO-HOMO         0.450613 =      12.2618eV


 **********************************************************************************************************************************
 DATASETS  * FILE   NREC   LENGTH (MB)   RECORD NAMES
              1      19     6374.22       500      610      700      900      950      970     1000      129      960     1100   
                                          VAR    BASINP    GEOM    SYMINP    ZMAT    AOBASIS   BASIS     P2S    ABASIS      S 
                                         1400     1410     1200     1210     1080     1600     1650     1300     1700   
                                           T        V       H0       H01     AOSYM     SMH    MOLCAS    ERIS     OPER   

              2       4        4.02       700     1000      520     2100   
                                         GEOM     BASIS   MCVARS     RHF  

 PROGRAMS   *        TOTAL        HF       INT
 CPU TIMES  *       190.15     62.28    127.80
 REAL TIME  *       303.67 SEC
 DISK USED  *        21.32 GB      
 **********************************************************************************************************************************


 PROGRAM * CCSD (Closed-shell coupled cluster)     Authors: C. Hampel, H.-J. Werner, 1991, M. Deegan, P.J. Knowles, 1992


 Convergence thresholds:  THRVAR = 1.00D-08  THRDEN = 1.00D-12

 CCSD(T)     terms to be evaluated (factor= 1.000)


 Number of core orbitals:           2 (   2   0 )
 Number of closed-shell orbitals:   6 (   5   1 )
 Number of external orbitals:     326 ( 197 129 )

 Molecular orbitals read from record     2100.2  Type=RHF/CANONICAL (state 1.1)

 Number of N-1 electron functions:               6
 Number of N-2 electron functions:              21
 Number of singly external CSFs:              1114
 Number of doubly external CSFs:            975958
 Total number of CSFs:                      977073

 Length of J-op  integral file:               0.00 MB
 Length of K-op  integral file:               4.07 MB
 Length of 3-ext integral record:             0.00 MB

 Memory could be reduced to 151.33 Mwords without degradation in triples

 Integral transformation finished. Total CPU:  10.38 sec, npass=  1  Memory used:  41.21 MW

 Reference energy:                   -129.85105215

 MP2 singlet pair energy:              -0.31015635
 MP2 triplet pair energy:              -0.17133155
 MP2 correlation energy:               -0.48148789
 MP2 total energy:                   -130.33254005

 SCS-MP2 correlation energy:           -0.47879391   (PS=  1.200000  PT=  0.333333)
 SCS-MP2 total energy:               -130.32984607

 ITER.      SQ.NORM     CORR.ENERGY   TOTAL ENERGY   ENERGY CHANGE        DEN1      VAR(S)    VAR(P)  DIIS     TIME  TIME/IT
   1      1.11950526    -0.47888711  -130.32993926     0.00260078     0.01882239  0.30D-02  0.31D-02  1  1    18.81     9.37
   2      1.12987729    -0.47885877  -130.32991092     0.00002834    -0.01241115  0.99D-04  0.47D-03  2  2    27.49     9.52
   3      1.13583387    -0.47922435  -130.33027650    -0.00036558    -0.00294341  0.45D-04  0.54D-04  3  3    36.07     9.54
   4      1.13850414    -0.47922243  -130.33027458     0.00000192    -0.00093678  0.42D-05  0.95D-05  4  4    44.50     9.56
   5      1.13956244    -0.47924975  -130.33030191    -0.00002733    -0.00023587  0.11D-05  0.16D-05  5  5    53.18     9.59
   6      1.13989945    -0.47923916  -130.33029132     0.00001059    -0.00004741  0.11D-06  0.40D-06  6  6    61.73     9.60
   7      1.13997401    -0.47923873  -130.33029089     0.00000043     0.00000286  0.17D-07  0.89D-07  6  1    70.18     9.60
   8      1.13999852    -0.47923885  -130.33029101    -0.00000012    -0.00000287  0.36D-08  0.18D-07  6  2    78.71     9.61
   9      1.14000685    -0.47923834  -130.33029049     0.00000052    -0.00000024  0.21D-08  0.18D-08  6  3    87.30     9.61
  10      1.14000258    -0.47923903  -130.33029118    -0.00000070     0.00000149  0.32D-09  0.29D-09  6  5    95.90     9.61
  11      1.14000430    -0.47923902  -130.33029118     0.00000001    -0.00000030  0.89D-10  0.24D-10  6  4   104.50     9.61
  12      1.14000387    -0.47923909  -130.33029124    -0.00000006     0.00000005  0.17D-10  0.56D-11  6  6   113.09     9.62
  13      1.14000366    -0.47923909  -130.33029124    -0.00000000    -0.00000003  0.29D-11  0.85D-12  6  1   121.64     9.62
  14      1.14000342    -0.47923910  -130.33029125    -0.00000001     0.00000004  0.45D-12  0.16D-12  6  3   130.08     9.62
  15      1.14000334    -0.47923910  -130.33029126    -0.00000000     0.00000001  0.12D-12  0.22D-13  6  2   138.58     9.62
  16      1.14000333    -0.47923910  -130.33029126     0.00000000     0.00000000  0.30D-13  0.85D-14  6  4   147.16     9.62
  17      1.14000333    -0.47923910  -130.33029126    -0.00000000    -0.00000000  0.16D-14  0.11D-14  6  5   155.70     9.62
  18      1.14000334    -0.47923910  -130.33029126     0.00000000    -0.00000000  0.26D-15  0.29D-15  6  6   164.31     9.62
  19      1.14000334    -0.47923910  -130.33029126     0.00000000    -0.00000000  0.32D-16  0.42D-16  6  2   172.92     9.62
  20      1.14000334    -0.47923910  -130.33029126     0.00000000    -0.00000000  0.84D-17  0.59D-17  6  1   181.50     9.62
  21      1.14000334    -0.47923910  -130.33029126    -0.00000000     0.00000000  0.15D-17  0.83D-18  6  3   190.10     9.62
  22      1.14000334    -0.47923910  -130.33029126    -0.00000000     0.00000000  0.30D-18  0.13D-18  6  4   198.67     9.62
  23      1.14000334    -0.47923910  -130.33029126    -0.00000000     0.00000000  0.64D-19  0.38D-19  6  2   207.21     9.62
  24      1.14000334    -0.47923910  -130.33029126    -0.00000000     0.00000000  0.31D-19  0.17D-19  6  5   215.80     9.62
  25      1.14000334    -0.47923910  -130.33029126    -0.00000000     0.00000000  0.21D-19  0.10D-19  6  6   224.43     9.62

 Norm of t1 vector:      0.07452945      S-energy:    -0.00000000      T1 diagnostic:  0.01521326
                                                                       D1 diagnostic:  0.04086868

 Doubles amplitudes (print threshold =  0.500E-01):

         I         J         SYM. A    SYM. B    A         B      T(IJ, AB)

         6         6         2         2         1         1     -0.07142708
         6         6         2         2         1         2      0.05275387
         6         6         2         2         2         1      0.05275387


 Total CPU time for triples:     89.18 sec


 RESULTS
 =======

  Reference energy                   -129.851052153379
  CCSD singlet pair energy             -0.332223021525
  CCSD triplet pair energy             -0.147016080445
  CCSD correlation energy              -0.479239101972

  Triples (T) contribution             -0.022594222950
  Total correlation energy             -0.501833324921

  CCSD total energy                  -130.330291255350
  CCSD[T] energy                     -130.353919066989
  CCSD-T energy                      -130.352517137761
 !CCSD(T) total energy               -130.352885478300

 Timing summary (sec):

 STEP                 CPU(USER)    SYS     CPU(TOT)    WALL
 Transformation         10.43      1.50     11.93     12.24
 CCSD iterations       214.01     26.39    240.40    240.44
 Triples                89.18      1.81     90.99     91.00

 Program statistics:

 Available memory in ccsd:               994999756
 Min. memory needed in ccsd:               3348832
 Max. memory used in ccsd:                 4143652
 Max. memory used in cckext:               8340089 (25 integral passes)



 **********************************************************************************************************************************
 DATASETS  * FILE   NREC   LENGTH (MB)   RECORD NAMES
              1      20     6809.41       500      610      700      900      950      970     1000      129      960     1100   
                                          VAR    BASINP    GEOM    SYMINP    ZMAT    AOBASIS   BASIS     P2S    ABASIS      S 
                                         1400     1410     1200     1210     1080     1600     1650     1300     1700     1380   
                                           T        V       H0       H01     AOSYM     SMH    MOLCAS    ERIS     OPER     JKOP   

              2       4        4.02       700     1000      520     2100   
                                         GEOM     BASIS   MCVARS     RHF  

 PROGRAMS   *        TOTAL   CCSD(T)        HF       INT
 CPU TIMES  *       503.80    313.65     62.28    127.80
 REAL TIME  *       647.69 SEC
 DISK USED  *        21.32 GB      
 **********************************************************************************************************************************

 CCSD(T)/aug-cc-pV5Z energy=   -130.352885478300

        CCSD(T)         HF-SCF  
   -130.35288548   -129.85105215
 **********************************************************************************************************************************
 Molpro calculation terminated
 Variable memory released
