
 Primary working directories    : /tmp/r2666/281851.maple
 Secondary working directories  : /tmp/r2666/281851.maple
 Wavefunction directory         : /ddn/home4/r2666/wfu/
 Main file repository           : /tmp/r2666/281851.maple/

 SHA1      : d5ffa45e93fdbca01ffc919aa182cfdae0147319
 NAME      : 2015.1.35
 ARCHNAME  : linux/x86_64
 FC        : /opt/intel/composer_xe_2015.1.133/bin/intel64/ifort
 BLASLIB   : -Wl,-_start-group /opt/intel/mkl/lib/intel64/libmkl_intel_ilp64.a /opt/intel/mkl/lib/intel64/libmkl_intel_thread.a /opt/intel/mkl/lib/intel64/libmkl_core.a -Wl,-_end-group
 id        : olemiss

 Nodes     nprocs
 cn056        1

 Using customized tuning parameters: mindgm=1; mindgv=20; mindgc=4; mindgr=1; noblas=0; minvec=7
 default implementation of scratch files=df  

 ***,hno CCSD(T)/TZ-F12 QFF
 memory, 995, m;
 gthresh,energy=1.d-12,zero=1.d-22,oneint=1.d-22,twoint=1.d-22;
 gthresh,optgrad=1.d-8,optstep=1.d-8;
 nocompress;
 geomtyp=xyz
 bohr
 geometry={
 3
          6         6
 H        0.0000000000        1.6534001358       -1.9219510022
 N        0.0000000000       -0.1486380909       -1.1518060249
 O        0.0000000000        0.0370057451        1.1231674361
 }
 
 basis=av5z
   {hf,maxit=500;accu,20;}
 {ccsd(t),nocheck,maxit=250;orbital,IGNORE_ERROR;}

 Variables initialized (889), CPU time= 0.00 sec
 Commands  initialized (702), CPU time= 0.00 sec, 572 directives.
 Default parameters read. Elapsed time= 0.58 sec

 Checking input...
 Passed
1


                                         ***  PROGRAM SYSTEM MOLPRO  ***
                                       Copyright, TTI GmbH Stuttgart, 2015
                                    Version 2015.1 linked Jul  9 2018 13:16:40


 **********************************************************************************************************************************
 LABEL *   hno CCSD(T)/TZ-F12 QFF                                                        
  64 bit serial version                                                                  DATE: 04-Mar-20          TIME: 13:19:58  
 **********************************************************************************************************************************

 SHA1:             d5ffa45e93fdbca01ffc919aa182cfdae0147319
 **********************************************************************************************************************************

 THRESHOLDS:

 ZERO    =  1.00D-22  ONEINT  =  1.00D-22  TWOINT  =  1.00D-22  PREFAC  =  1.00D-14  LOCALI  =  1.00D-09  EORDER  =  1.00D-04
 ENERGY  =  1.00D-12  ETEST   =  0.00D+00  EDENS   =  0.00D+00  THRDEDEF=  1.00D-06  GRADIENT=  1.00D-02  STEP    =  1.00D-03
 ORBITAL =  1.00D-05  CIVEC   =  1.00D-05  COEFF   =  1.00D-04  PRINTCI =  5.00D-02  PUNCHCI =  9.90D+01  OPTGRAD =  3.00D-04
 OPTENERG=  1.00D-06  OPTSTEP =  3.00D-04  THRGRAD =  1.00D-10  COMPRESS=  1.00D-11  VARMIN  =  1.00D-07  VARMAX  =  1.00D-03
 THRDOUB =  0.00D+00  THRDIV  =  1.00D-05  THRRED  =  1.00D-07  THRPSP  =  1.00D+00  THRDC   =  1.00D-10  THRCS   =  1.00D-10
 THRNRM  =  1.00D-08  THREQ   =  0.00D+00  THRDE   =  1.00D+00  THRREF  =  1.00D-05  SPARFAC =  1.00D+00  THRDLP  =  1.00D-07
 THRDIA  =  1.00D-10  THRDLS  =  1.00D-07  THRGPS  =  0.00D+00  THRKEX  =  0.00D+00  THRDIS  =  2.00D-01  THRVAR  =  1.00D-10
 THRLOC  =  1.00D-06  THRGAP  =  1.00D-06  THRLOCT = -1.00D+00  THRGAPT = -1.00D+00  THRORB  =  1.00D-06  THRMLTP =  0.00D+00
 THRCPQCI=  1.00D-10  KEXTA   =  0.00D+00  THRCOARS=  0.00D+00  SYMTOL  =  1.00D-06  GRADTOL =  1.00D-06  THROVL  =  1.00D-08
 THRORTH =  1.00D-08  GRID    =  1.00D-06  GRIDMAX =  1.00D-03  DTMAX   =  0.00D+00  THROCCDE=  1.00D-01  THROCCDE=  1.00D-01



 THRESHOLDS:

 ZERO    =  1.00D-22  ONEINT  =  1.00D-22  TWOINT  =  1.00D-22  PREFAC  =  1.00D-14  LOCALI  =  1.00D-09  EORDER  =  1.00D-04
 ENERGY  =  1.00D-12  ETEST   =  0.00D+00  EDENS   =  0.00D+00  THRDEDEF=  1.00D-06  GRADIENT=  1.00D-02  STEP    =  1.00D-03
 ORBITAL =  1.00D-05  CIVEC   =  1.00D-05  COEFF   =  1.00D-04  PRINTCI =  5.00D-02  PUNCHCI =  9.90D+01  OPTGRAD =  1.00D-08
 OPTENERG=  1.00D-06  OPTSTEP =  1.00D-08  THRGRAD =  1.00D-10  COMPRESS=  1.00D-11  VARMIN  =  1.00D-07  VARMAX  =  1.00D-03
 THRDOUB =  0.00D+00  THRDIV  =  1.00D-05  THRRED  =  1.00D-07  THRPSP  =  1.00D+00  THRDC   =  1.00D-10  THRCS   =  1.00D-10
 THRNRM  =  1.00D-08  THREQ   =  0.00D+00  THRDE   =  1.00D+00  THRREF  =  1.00D-05  SPARFAC =  1.00D+00  THRDLP  =  1.00D-07
 THRDIA  =  1.00D-10  THRDLS  =  1.00D-07  THRGPS  =  0.00D+00  THRKEX  =  0.00D+00  THRDIS  =  2.00D-01  THRVAR  =  1.00D-10
 THRLOC  =  1.00D-06  THRGAP  =  1.00D-06  THRLOCT = -1.00D+00  THRGAPT = -1.00D+00  THRORB  =  1.00D-06  THRMLTP =  0.00D+00
 THRCPQCI=  1.00D-10  KEXTA   =  0.00D+00  THRCOARS=  0.00D+00  SYMTOL  =  1.00D-06  GRADTOL =  1.00D-06  THROVL  =  1.00D-08
 THRORTH =  1.00D-08  GRID    =  1.00D-06  GRIDMAX =  1.00D-03  DTMAX   =  0.00D+00  THROCCDE=  1.00D-01  THROCCDE=  1.00D-01



 Input parameters for SORTINT:

 COMPRESS =    0.000000
 C_FINAL  =    1.000000
 DEBUG    =   -1.000000
 C_SORT1  =    0.000000
 C_SEWARD =    0.000000
 THRESH   =    0.000000
 IO       =  molpro                                                          
 SPRI     =    0.000000
 SETTING GEOMTYP        =    XYZ
 ZUNIT=BOHR
 

 Variable memory set to  995000000 words,  buffer space   230000 words

 SETTING BASIS          =    AV5Z


 Recomputing integrals since basis changed


 Using spherical harmonics

 Library entry H      S aug-cc-pV5Z          selected for orbital group  1
 Library entry H      P aug-cc-pV5Z          selected for orbital group  1
 Library entry H      D aug-cc-pV5Z          selected for orbital group  1
 Library entry H      F aug-cc-pV5Z          selected for orbital group  1
 Library entry H      G aug-cc-pV5Z          selected for orbital group  1
 Library entry N      S aug-cc-pV5Z          selected for orbital group  2
 Library entry N      P aug-cc-pV5Z          selected for orbital group  2
 Library entry N      D aug-cc-pV5Z          selected for orbital group  2
 Library entry N      F aug-cc-pV5Z          selected for orbital group  2
 Library entry N      G aug-cc-pV5Z          selected for orbital group  2
 Library entry N      H aug-cc-pV5Z          selected for orbital group  2
 Library entry O      S aug-cc-pV5Z          selected for orbital group  3
 Library entry O      P aug-cc-pV5Z          selected for orbital group  3
 Library entry O      D aug-cc-pV5Z          selected for orbital group  3
 Library entry O      F aug-cc-pV5Z          selected for orbital group  3
 Library entry O      G aug-cc-pV5Z          selected for orbital group  3
 Library entry O      H aug-cc-pV5Z          selected for orbital group  3


 PROGRAM * SEWARD (Integral evaluation for generally contracted gaussian basis sets)     Author: Roland Lindh, 1990

 Geometry written to block  1 of record 700


 Point group  Cs  



 ATOMIC COORDINATES

 NR  ATOM    CHARGE       X              Y              Z

   1  H       1.00    0.000000000    1.653400136   -1.921951002
   2  N       7.00    0.000000000   -0.148638091   -1.151806025
   3  O       8.00    0.000000000    0.037005745    1.123167436

 Bond lengths in Bohr (Angstrom)

 1-2  1.959710452  2-3  2.282535407
     ( 1.037034111)     ( 1.207865720)

 Bond angles

  1-2-3  108.47547239

 NUCLEAR CHARGE:                   16
 NUMBER OF PRIMITIVE AOS:         506
 NUMBER OF SYMMETRY AOS:          371
 NUMBER OF CONTRACTIONS:          334   ( 204A'  + 130A"  )
 NUMBER OF CORE ORBITALS:           2   (   2A'  +   0A"  )
 NUMBER OF VALENCE ORBITALS:        9   (   7A'  +   2A"  )


 NUCLEAR REPULSION ENERGY   30.42657787


 Eigenvalues of metric

         1 0.109E-04 0.169E-04 0.616E-04 0.985E-04 0.105E-03 0.134E-03 0.196E-03 0.222E-03
         2 0.127E-03 0.344E-03 0.110E-02 0.157E-02 0.181E-02 0.250E-02 0.311E-02 0.376E-02


 Contracted 2-electron integrals neglected if value below      1.0D-22

      756977366. INTEGRALS WRITTEN OUT IN  184855 BLOCKS ON RECORD 1290 OF FILE 1


 NUMBER OF SORTED TWO-ELECTRON INTEGRALS:  789027325.     BUFFER LENGTH:  32768
 NUMBER OF SEGMENTS:  25  SEGMENT LENGTH:   31997130      RECORD LENGTH: 524288

 Memory used in sort:      32.55 MW

 SORT1 READ   756977366. AND WROTE   760993257. INTEGRALS IN   2189 RECORDS. CPU TIME:    28.81 SEC, REAL TIME:    35.48 SEC
 SORT2 READ   760993257. AND WROTE   789027325. INTEGRALS IN     25 RECORDS. CPU TIME:    10.96 SEC, REAL TIME:    15.60 SEC

 FILE SIZES:   FILE 1: 12137.5 MBYTE,  FILE 4:  9181.4 MBYTE,   TOTAL:  21318.9 MBYTE

 OPERATOR DM      FOR CENTER  0  COORDINATES:    0.000000    0.000000    0.000000


 **********************************************************************************************************************************
 DATASETS  * FILE   NREC   LENGTH (MB)   RECORD NAMES
              1      19     6374.22       500      610      700      900      950      970     1000      129      960     1100   
                                          VAR    BASINP    GEOM    SYMINP    ZMAT    AOBASIS   BASIS     P2S    ABASIS      S 
                                         1400     1410     1200     1210     1080     1600     1650     1300     1700   
                                           T        V       H0       H01     AOSYM     SMH    MOLCAS    ERIS     OPER   

 PROGRAMS   *        TOTAL       INT
 CPU TIMES  *       166.48    166.40
 REAL TIME  *       186.92 SEC
 DISK USED  *        21.32 GB      
 **********************************************************************************************************************************


 PROGRAM * RHF-SCF (CLOSED SHELL)       Authors: W. Meyer, H.-J. Werner


 NUMBER OF ELECTRONS:       8+    8-
 CONVERGENCE THRESHOLDS:    1.00E-10 (Density)    1.00E-13 (Energy)
 MAX. NUMBER OF ITERATIONS:      500
 INTERPOLATION TYPE:            DIIS
 INTERPOLATION STEPS:              2 (START)      1 (STEP)
 LEVEL SHIFTS:                  0.00 (CLOSED)  0.00 (OPEN) 



 Orbital guess generated from atomic densities. Full valence occupancy:    9   2

 Molecular orbital dump at record        2100.2

 Initial occupancy:   7   1

 ITERATION    DDIFF          GRAD             ENERGY        2-EL.EN.            DIPOLE MOMENTS         DIIS   ORB.
    1      0.000D+00      0.000D+00      -129.79968613    154.090853    0.00000    0.60695   -1.02702    0    start
    2      0.000D+00      0.637D-02      -129.82692237    155.296128    0.00000    0.61136   -0.21500    1    diag
    3      0.397D-02      0.482D-02      -129.84919395    155.426823    0.00000    0.56260   -0.59694    2    diag
    4      0.204D-02      0.771D-03      -129.84999863    155.144001    0.00000    0.56992   -0.53516    3    diag
    5      0.378D-03      0.248D-03      -129.85012192    155.236622    0.00000    0.57499   -0.53760    4    diag
    6      0.155D-03      0.711D-04      -129.85014144    155.220515    0.00000    0.57527   -0.53343    5    diag
    7      0.590D-04      0.355D-04      -129.85014716    155.223227    0.00000    0.57645   -0.53080    6    diag
    8      0.406D-04      0.125D-04      -129.85014781    155.222532    0.00000    0.57649   -0.52978    7    diag
    9      0.157D-04      0.240D-05      -129.85014784    155.222426    0.00000    0.57646   -0.52956    8    diag
   10      0.315D-05      0.542D-06      -129.85014785    155.222410    0.00000    0.57643   -0.52953    9    orth
   11      0.613D-06      0.108D-06      -129.85014785    155.222406    0.00000    0.57642   -0.52953    9    diag
   12      0.113D-06      0.219D-07      -129.85014785    155.222406    0.00000    0.57642   -0.52953    9    diag
   13      0.242D-07      0.572D-08      -129.85014785    155.222406    0.00000    0.57642   -0.52952    9    diag
   14      0.649D-08      0.110D-08      -129.85014785    155.222406    0.00000    0.57642   -0.52952    9    diag
   15      0.118D-08      0.313D-09      -129.85014785    155.222406    0.00000    0.57642   -0.52952    9    diag
   16      0.359D-09      0.939D-10      -129.85014785    155.222406    0.00000    0.57642   -0.52952    9    diag
   17      0.722D-10      0.237D-10      -129.85014785    155.222406    0.00000    0.57642   -0.52952    9    diag
   18      0.285D-10      0.787D-11      -129.85014785    155.222406    0.00000    0.57642   -0.52952    9    diag
   19      0.141D-10      0.193D-11      -129.85014785    155.222406    0.00000    0.57642   -0.52952    9    fixocc
   20      0.188D-10      0.713D-12      -129.85014785    155.222406    0.00000    0.57642   -0.52952    9    orth
   21      0.167D-10      0.341D-12      -129.85014785    155.222406    0.00000    0.57642   -0.52952    9    diag
   22      0.770D-11      0.405D-12      -129.85014785    155.222406    0.00000    0.57642   -0.52952    9    diag
   23      0.531D-11      0.249D-12      -129.85014785    155.222406    0.00000    0.57642   -0.52952    9    diag
   24      0.226D-11      0.330D-12      -129.85014785    155.222406    0.00000    0.57642   -0.52952    9    diag
   25      0.174D-11      0.298D-12      -129.85014785    155.222406    0.00000    0.57642   -0.52952    9    diag
   26      0.308D-11      0.275D-12      -129.85014785    155.222406    0.00000    0.57642   -0.52952    9    diag
   27      0.943D-12      0.296D-12      -129.85014785    155.222406    0.00000    0.57642   -0.52952    9    diag
   28      0.140D-11      0.229D-12      -129.85014785    155.222406    0.00000    0.57642   -0.52952    9    diag
   29      0.578D-12      0.211D-12      -129.85014785    155.222406    0.00000    0.57642   -0.52952    9    diag
   30      0.514D-12      0.306D-12      -129.85014785    155.222406    0.00000    0.57642   -0.52952    9    orth
   31      0.103D-11      0.302D-12      -129.85014785    155.222406    0.00000    0.57642   -0.52952    9    diag
   32      0.191D-11      0.251D-12      -129.85014785    155.222406    0.00000    0.57642   -0.52952    9    diag
   33      0.216D-11      0.320D-12      -129.85014785    155.222406    0.00000    0.57642   -0.52952    9    diag
   34      0.389D-12      0.334D-12      -129.85014785    155.222406    0.00000    0.57642   -0.52952    9    diag
   35      0.128D-11      0.192D-12      -129.85014785    155.222406    0.00000    0.57642   -0.52952    0    orth

 Final occupancy:   7   1

 !RHF STATE 1.1 Energy               -129.850147845503
 Nuclear energy                        30.42657787
 One-electron energy                 -237.88792883
 Two-electron energy                   77.61120311
 Virial quotient                       -1.00152354
 !RHF STATE 1.1 Dipole moment           0.00000000     0.57641780    -0.52952462
 Dipole moment /Debye                   0.00000000     1.46501195    -1.34582920

 Orbital energies:

         1.1          2.1          3.1          4.1          5.1          6.1          7.1          8.1          9.1
    -20.652726   -15.710071    -1.529433    -0.998418    -0.748840    -0.666201    -0.431225     0.022840     0.065534

         1.2          2.2          3.2
     -0.595846     0.060132     0.091436

 HOMO      7.1    -0.431225 =     -11.7342eV
 LUMO      8.1     0.022840 =       0.6215eV
 LUMO-HOMO         0.454066 =      12.3558eV


 **********************************************************************************************************************************
 DATASETS  * FILE   NREC   LENGTH (MB)   RECORD NAMES
              1      19     6374.22       500      610      700      900      950      970     1000      129      960     1100   
                                          VAR    BASINP    GEOM    SYMINP    ZMAT    AOBASIS   BASIS     P2S    ABASIS      S 
                                         1400     1410     1200     1210     1080     1600     1650     1300     1700   
                                           T        V       H0       H01     AOSYM     SMH    MOLCAS    ERIS     OPER   

              2       4        4.02       700     1000      520     2100   
                                         GEOM     BASIS   MCVARS     RHF  

 PROGRAMS   *        TOTAL        HF       INT
 CPU TIMES  *       338.83    172.35    166.40
 REAL TIME  *       404.09 SEC
 DISK USED  *        21.32 GB      
 **********************************************************************************************************************************


 PROGRAM * CCSD (Closed-shell coupled cluster)     Authors: C. Hampel, H.-J. Werner, 1991, M. Deegan, P.J. Knowles, 1992


 Convergence thresholds:  THRVAR = 1.00D-08  THRDEN = 1.00D-12

 CCSD(T)     terms to be evaluated (factor= 1.000)


 Number of core orbitals:           2 (   2   0 )
 Number of closed-shell orbitals:   6 (   5   1 )
 Number of external orbitals:     326 ( 197 129 )

 Molecular orbitals read from record     2100.2  Type=RHF/CANONICAL (state 1.1)

 Number of N-1 electron functions:               6
 Number of N-2 electron functions:              21
 Number of singly external CSFs:              1114
 Number of doubly external CSFs:            975958
 Total number of CSFs:                      977073

 Length of J-op  integral file:               0.00 MB
 Length of K-op  integral file:               4.07 MB
 Length of 3-ext integral record:             0.00 MB

 Memory could be reduced to 151.33 Mwords without degradation in triples

 Integral transformation finished. Total CPU:  16.52 sec, npass=  1  Memory used:  41.21 MW

 Reference energy:                   -129.85014785

 MP2 singlet pair energy:              -0.31083373
 MP2 triplet pair energy:              -0.17180261
 MP2 correlation energy:               -0.48263634
 MP2 total energy:                   -130.33278419

 SCS-MP2 correlation energy:           -0.47989988   (PS=  1.200000  PT=  0.333333)
 SCS-MP2 total energy:               -130.33004773

 ITER.      SQ.NORM     CORR.ENERGY   TOTAL ENERGY   ENERGY CHANGE        DEN1      VAR(S)    VAR(P)  DIIS     TIME  TIME/IT
   1      1.12008675    -0.47967837  -130.32982621     0.00295797     0.01949158  0.31D-02  0.32D-02  1  1    29.75    14.46
   2      1.13062577    -0.47957447  -130.32972232     0.00010390    -0.01259483  0.10D-03  0.48D-03  2  2    43.36    14.70
   3      1.13670103    -0.47994714  -130.33009498    -0.00037267    -0.00297217  0.46D-04  0.56D-04  3  3    56.87    14.79
   4      1.13946618    -0.47994714  -130.33009499    -0.00000000    -0.00095832  0.43D-05  0.99D-05  4  4    70.57    14.84
   5      1.14057646    -0.47997547  -130.33012331    -0.00002833    -0.00024619  0.11D-05  0.17D-05  5  5    84.15    14.86
   6      1.14092770    -0.47996399  -130.33011184     0.00001148    -0.00004972  0.11D-06  0.41D-06  6  6    97.70    14.88
   7      1.14100161    -0.47996388  -130.33011172     0.00000011     0.00000360  0.15D-07  0.94D-07  6  1   111.29    14.90
   8      1.14102619    -0.47996396  -130.33011180    -0.00000008    -0.00000297  0.35D-08  0.19D-07  6  2   124.70    14.90
   9      1.14103426    -0.47996344  -130.33011129     0.00000052    -0.00000019  0.23D-08  0.20D-08  6  3   138.37    14.91
  10      1.14102959    -0.47996418  -130.33011202    -0.00000074     0.00000161  0.36D-09  0.33D-09  6  5   151.86    14.91
  11      1.14103155    -0.47996416  -130.33011201     0.00000002    -0.00000037  0.10D-09  0.27D-10  6  4   165.41    14.92
  12      1.14103111    -0.47996423  -130.33011207    -0.00000007     0.00000005  0.18D-10  0.62D-11  6  6   178.91    14.93
  13      1.14103091    -0.47996423  -130.33011208    -0.00000000    -0.00000003  0.29D-11  0.89D-12  6  1   192.53    14.93
  14      1.14103065    -0.47996424  -130.33011209    -0.00000001     0.00000004  0.42D-12  0.16D-12  6  3   206.12    14.94
  15      1.14103058    -0.47996425  -130.33011209    -0.00000000     0.00000001  0.11D-12  0.21D-13  6  2   219.78    14.94
  16      1.14103057    -0.47996425  -130.33011209     0.00000000     0.00000000  0.31D-13  0.77D-14  6  4   233.38    14.94
  17      1.14103057    -0.47996425  -130.33011209    -0.00000000    -0.00000000  0.18D-14  0.99D-15  6  5   246.89    14.94
  18      1.14103058    -0.47996425  -130.33011209     0.00000000    -0.00000000  0.27D-15  0.27D-15  6  6   260.51    14.95
  19      1.14103058    -0.47996425  -130.33011209     0.00000000    -0.00000000  0.48D-16  0.39D-16  6  1   274.05    14.95
  20      1.14103058    -0.47996425  -130.33011209     0.00000000    -0.00000000  0.11D-16  0.57D-17  6  3   287.66    14.95
  21      1.14103058    -0.47996425  -130.33011209    -0.00000000     0.00000000  0.20D-17  0.99D-18  6  2   301.27    14.95
  22      1.14103058    -0.47996425  -130.33011209    -0.00000000     0.00000000  0.34D-18  0.15D-18  6  4   314.84    14.95
  23      1.14103058    -0.47996425  -130.33011209    -0.00000000     0.00000000  0.92D-19  0.45D-19  6  5   328.42    14.95
  24      1.14103058    -0.47996425  -130.33011209    -0.00000000     0.00000000  0.32D-19  0.19D-19  6  6   341.99    14.95
  25      1.14103058    -0.47996425  -130.33011209    -0.00000000     0.00000000  0.14D-19  0.81D-20  6  1   355.62    14.96

 Norm of t1 vector:      0.07570909      S-energy:    -0.00000000      T1 diagnostic:  0.01545405
                                                                       D1 diagnostic:  0.04217902

 Doubles amplitudes (print threshold =  0.500E-01):

         I         J         SYM. A    SYM. B    A         B      T(IJ, AB)

         6         6         2         2         1         1     -0.07916612
         6         6         2         2         1         2      0.05314550
         6         6         2         2         2         1      0.05314550


 Total CPU time for triples:    130.61 sec


 RESULTS
 =======

  Reference energy                   -129.850147845503
  CCSD singlet pair energy             -0.332862042640
  CCSD triplet pair energy             -0.147102202790
  CCSD correlation energy              -0.479964245433

  Triples (T) contribution             -0.022816746596
  Total correlation energy             -0.502780992029

  CCSD total energy                  -130.330112090937
  CCSD[T] energy                     -130.353993274164
  CCSD-T energy                      -130.352554688556
 !CCSD(T) total energy               -130.352928837532

 Timing summary (sec):

 STEP                 CPU(USER)    SYS     CPU(TOT)    WALL
 Transformation         16.59      1.88     18.47     18.50
 CCSD iterations       339.05     34.85    373.90    373.93
 Triples               130.61      2.28    132.89    132.89

 Program statistics:

 Available memory in ccsd:               994999756
 Min. memory needed in ccsd:               3348832
 Max. memory used in ccsd:                 4143652
 Max. memory used in cckext:               8340089 (25 integral passes)



 **********************************************************************************************************************************
 DATASETS  * FILE   NREC   LENGTH (MB)   RECORD NAMES
              1      20     6809.41       500      610      700      900      950      970     1000      129      960     1100   
                                          VAR    BASINP    GEOM    SYMINP    ZMAT    AOBASIS   BASIS     P2S    ABASIS      S 
                                         1400     1410     1200     1210     1080     1600     1650     1300     1700     1380   
                                           T        V       H0       H01     AOSYM     SMH    MOLCAS    ERIS     OPER     JKOP   

              2       4        4.02       700     1000      520     2100   
                                         GEOM     BASIS   MCVARS     RHF  

 PROGRAMS   *        TOTAL   CCSD(T)        HF       INT
 CPU TIMES  *       825.11    486.28    172.35    166.40
 REAL TIME  *       929.46 SEC
 DISK USED  *        21.32 GB      
 **********************************************************************************************************************************

 CCSD(T)/aug-cc-pV5Z energy=   -130.352928837532

        CCSD(T)         HF-SCF  
   -130.35292884   -129.85014785
 **********************************************************************************************************************************
 Molpro calculation terminated
 Variable memory released
