
 Primary working directories    : /tmp/r2666/281909.maple
 Secondary working directories  : /tmp/r2666/281909.maple
 Wavefunction directory         : /ddn/home4/r2666/wfu/
 Main file repository           : /tmp/r2666/281909.maple/

 SHA1      : d5ffa45e93fdbca01ffc919aa182cfdae0147319
 NAME      : 2015.1.35
 ARCHNAME  : linux/x86_64
 FC        : /opt/intel/composer_xe_2015.1.133/bin/intel64/ifort
 BLASLIB   : -Wl,-_start-group /opt/intel/mkl/lib/intel64/libmkl_intel_ilp64.a /opt/intel/mkl/lib/intel64/libmkl_intel_thread.a /opt/intel/mkl/lib/intel64/libmkl_core.a -Wl,-_end-group
 id        : olemiss

 Nodes     nprocs
 cn075        1

 Using customized tuning parameters: mindgm=1; mindgv=20; mindgc=4; mindgr=1; noblas=0; minvec=7
 default implementation of scratch files=df  

 ***,hno CCSD(T)/TZ-F12 QFF
 memory, 995, m;
 gthresh,energy=1.d-12,zero=1.d-22,oneint=1.d-22,twoint=1.d-22;
 gthresh,optgrad=1.d-8,optstep=1.d-8;
 nocompress;
 geomtyp=xyz
 bohr
 geometry={
 3
         64        64
 H        0.0000000000        1.6664088021       -1.9220564628
 N        0.0000000000       -0.1659560456       -1.1508190905
 O        0.0000000000        0.0413150335        1.1222859623
 }
 
 basis=av5z
   {hf,maxit=500;accu,20;}
 {ccsd(t),nocheck,maxit=250;orbital,IGNORE_ERROR;}

 Variables initialized (889), CPU time= 0.01 sec
 Commands  initialized (702), CPU time= 0.01 sec, 572 directives.
 Default parameters read. Elapsed time= 0.06 sec

 Checking input...
 Passed
1


                                         ***  PROGRAM SYSTEM MOLPRO  ***
                                       Copyright, TTI GmbH Stuttgart, 2015
                                    Version 2015.1 linked Jul  9 2018 13:16:40


 **********************************************************************************************************************************
 LABEL *   hno CCSD(T)/TZ-F12 QFF                                                        
  64 bit serial version                                                                  DATE: 04-Mar-20          TIME: 13:20:09  
 **********************************************************************************************************************************

 SHA1:             d5ffa45e93fdbca01ffc919aa182cfdae0147319
 **********************************************************************************************************************************

 THRESHOLDS:

 ZERO    =  1.00D-22  ONEINT  =  1.00D-22  TWOINT  =  1.00D-22  PREFAC  =  1.00D-14  LOCALI  =  1.00D-09  EORDER  =  1.00D-04
 ENERGY  =  1.00D-12  ETEST   =  0.00D+00  EDENS   =  0.00D+00  THRDEDEF=  1.00D-06  GRADIENT=  1.00D-02  STEP    =  1.00D-03
 ORBITAL =  1.00D-05  CIVEC   =  1.00D-05  COEFF   =  1.00D-04  PRINTCI =  5.00D-02  PUNCHCI =  9.90D+01  OPTGRAD =  3.00D-04
 OPTENERG=  1.00D-06  OPTSTEP =  3.00D-04  THRGRAD =  1.00D-10  COMPRESS=  1.00D-11  VARMIN  =  1.00D-07  VARMAX  =  1.00D-03
 THRDOUB =  0.00D+00  THRDIV  =  1.00D-05  THRRED  =  1.00D-07  THRPSP  =  1.00D+00  THRDC   =  1.00D-10  THRCS   =  1.00D-10
 THRNRM  =  1.00D-08  THREQ   =  0.00D+00  THRDE   =  1.00D+00  THRREF  =  1.00D-05  SPARFAC =  1.00D+00  THRDLP  =  1.00D-07
 THRDIA  =  1.00D-10  THRDLS  =  1.00D-07  THRGPS  =  0.00D+00  THRKEX  =  0.00D+00  THRDIS  =  2.00D-01  THRVAR  =  1.00D-10
 THRLOC  =  1.00D-06  THRGAP  =  1.00D-06  THRLOCT = -1.00D+00  THRGAPT = -1.00D+00  THRORB  =  1.00D-06  THRMLTP =  0.00D+00
 THRCPQCI=  1.00D-10  KEXTA   =  0.00D+00  THRCOARS=  0.00D+00  SYMTOL  =  1.00D-06  GRADTOL =  1.00D-06  THROVL  =  1.00D-08
 THRORTH =  1.00D-08  GRID    =  1.00D-06  GRIDMAX =  1.00D-03  DTMAX   =  0.00D+00  THROCCDE=  1.00D-01  THROCCDE=  1.00D-01



 THRESHOLDS:

 ZERO    =  1.00D-22  ONEINT  =  1.00D-22  TWOINT  =  1.00D-22  PREFAC  =  1.00D-14  LOCALI  =  1.00D-09  EORDER  =  1.00D-04
 ENERGY  =  1.00D-12  ETEST   =  0.00D+00  EDENS   =  0.00D+00  THRDEDEF=  1.00D-06  GRADIENT=  1.00D-02  STEP    =  1.00D-03
 ORBITAL =  1.00D-05  CIVEC   =  1.00D-05  COEFF   =  1.00D-04  PRINTCI =  5.00D-02  PUNCHCI =  9.90D+01  OPTGRAD =  1.00D-08
 OPTENERG=  1.00D-06  OPTSTEP =  1.00D-08  THRGRAD =  1.00D-10  COMPRESS=  1.00D-11  VARMIN  =  1.00D-07  VARMAX  =  1.00D-03
 THRDOUB =  0.00D+00  THRDIV  =  1.00D-05  THRRED  =  1.00D-07  THRPSP  =  1.00D+00  THRDC   =  1.00D-10  THRCS   =  1.00D-10
 THRNRM  =  1.00D-08  THREQ   =  0.00D+00  THRDE   =  1.00D+00  THRREF  =  1.00D-05  SPARFAC =  1.00D+00  THRDLP  =  1.00D-07
 THRDIA  =  1.00D-10  THRDLS  =  1.00D-07  THRGPS  =  0.00D+00  THRKEX  =  0.00D+00  THRDIS  =  2.00D-01  THRVAR  =  1.00D-10
 THRLOC  =  1.00D-06  THRGAP  =  1.00D-06  THRLOCT = -1.00D+00  THRGAPT = -1.00D+00  THRORB  =  1.00D-06  THRMLTP =  0.00D+00
 THRCPQCI=  1.00D-10  KEXTA   =  0.00D+00  THRCOARS=  0.00D+00  SYMTOL  =  1.00D-06  GRADTOL =  1.00D-06  THROVL  =  1.00D-08
 THRORTH =  1.00D-08  GRID    =  1.00D-06  GRIDMAX =  1.00D-03  DTMAX   =  0.00D+00  THROCCDE=  1.00D-01  THROCCDE=  1.00D-01



 Input parameters for SORTINT:

 COMPRESS =    0.000000
 C_FINAL  =    1.000000
 DEBUG    =   -1.000000
 C_SORT1  =    0.000000
 C_SEWARD =    0.000000
 THRESH   =    0.000000
 IO       =  molpro                                                          
 SPRI     =    0.000000
 SETTING GEOMTYP        =    XYZ
 ZUNIT=BOHR
 

 Variable memory set to  995000000 words,  buffer space   230000 words

 SETTING BASIS          =    AV5Z


 Recomputing integrals since basis changed


 Using spherical harmonics

 Library entry H      S aug-cc-pV5Z          selected for orbital group  1
 Library entry H      P aug-cc-pV5Z          selected for orbital group  1
 Library entry H      D aug-cc-pV5Z          selected for orbital group  1
 Library entry H      F aug-cc-pV5Z          selected for orbital group  1
 Library entry H      G aug-cc-pV5Z          selected for orbital group  1
 Library entry N      S aug-cc-pV5Z          selected for orbital group  2
 Library entry N      P aug-cc-pV5Z          selected for orbital group  2
 Library entry N      D aug-cc-pV5Z          selected for orbital group  2
 Library entry N      F aug-cc-pV5Z          selected for orbital group  2
 Library entry N      G aug-cc-pV5Z          selected for orbital group  2
 Library entry N      H aug-cc-pV5Z          selected for orbital group  2
 Library entry O      S aug-cc-pV5Z          selected for orbital group  3
 Library entry O      P aug-cc-pV5Z          selected for orbital group  3
 Library entry O      D aug-cc-pV5Z          selected for orbital group  3
 Library entry O      F aug-cc-pV5Z          selected for orbital group  3
 Library entry O      G aug-cc-pV5Z          selected for orbital group  3
 Library entry O      H aug-cc-pV5Z          selected for orbital group  3


 PROGRAM * SEWARD (Integral evaluation for generally contracted gaussian basis sets)     Author: Roland Lindh, 1990

 Geometry written to block  1 of record 700


 Point group  Cs  



 ATOMIC COORDINATES

 NR  ATOM    CHARGE       X              Y              Z

   1  H       1.00    0.000000000    1.666408802   -1.922056463
   2  N       7.00    0.000000000   -0.165956046   -1.150819090
   3  O       8.00    0.000000000    0.041315034    1.122285962

 Bond lengths in Bohr (Angstrom)

 1-2  1.988056342  2-3  2.282535406
     ( 1.052034110)     ( 1.207865720)

 Bond angles

  1-2-3  107.61603570

 NUCLEAR CHARGE:                   16
 NUMBER OF PRIMITIVE AOS:         506
 NUMBER OF SYMMETRY AOS:          371
 NUMBER OF CONTRACTIONS:          334   ( 204A'  + 130A"  )
 NUMBER OF CORE ORBITALS:           2   (   2A'  +   0A"  )
 NUMBER OF VALENCE ORBITALS:        9   (   7A'  +   2A"  )


 NUCLEAR REPULSION ENERGY   30.37336053


 Eigenvalues of metric

         1 0.113E-04 0.173E-04 0.638E-04 0.999E-04 0.105E-03 0.137E-03 0.201E-03 0.223E-03
         2 0.127E-03 0.364E-03 0.112E-02 0.157E-02 0.193E-02 0.253E-02 0.327E-02 0.391E-02


 Contracted 2-electron integrals neglected if value below      1.0D-22

      756977595. INTEGRALS WRITTEN OUT IN  184855 BLOCKS ON RECORD 1290 OF FILE 1


 NUMBER OF SORTED TWO-ELECTRON INTEGRALS:  789027325.     BUFFER LENGTH:  32768
 NUMBER OF SEGMENTS:  25  SEGMENT LENGTH:   31997130      RECORD LENGTH: 524288

 Memory used in sort:      32.55 MW

 SORT1 READ   756977595. AND WROTE   760993484. INTEGRALS IN   2189 RECORDS. CPU TIME:    41.47 SEC, REAL TIME:   275.16 SEC
 SORT2 READ   760993484. AND WROTE   789027325. INTEGRALS IN     25 RECORDS. CPU TIME:    16.64 SEC, REAL TIME:   172.70 SEC

 FILE SIZES:   FILE 1: 12137.5 MBYTE,  FILE 4:  9181.4 MBYTE,   TOTAL:  21318.9 MBYTE

 OPERATOR DM      FOR CENTER  0  COORDINATES:    0.000000    0.000000    0.000000


 **********************************************************************************************************************************
 DATASETS  * FILE   NREC   LENGTH (MB)   RECORD NAMES
              1      19     6374.22       500      610      700      900      950      970     1000      129      960     1100   
                                          VAR    BASINP    GEOM    SYMINP    ZMAT    AOBASIS   BASIS     P2S    ABASIS      S 
                                         1400     1410     1200     1210     1080     1600     1650     1300     1700   
                                           T        V       H0       H01     AOSYM     SMH    MOLCAS    ERIS     OPER   

 PROGRAMS   *        TOTAL       INT
 CPU TIMES  *       176.27    176.15
 REAL TIME  *       674.09 SEC
 DISK USED  *        21.32 GB      
 **********************************************************************************************************************************


 PROGRAM * RHF-SCF (CLOSED SHELL)       Authors: W. Meyer, H.-J. Werner


 NUMBER OF ELECTRONS:       8+    8-
 CONVERGENCE THRESHOLDS:    1.00E-10 (Density)    1.00E-13 (Energy)
 MAX. NUMBER OF ITERATIONS:      500
 INTERPOLATION TYPE:            DIIS
 INTERPOLATION STEPS:              2 (START)      1 (STEP)
 LEVEL SHIFTS:                  0.00 (CLOSED)  0.00 (OPEN) 



 Orbital guess generated from atomic densities. Full valence occupancy:    9   2

 Molecular orbital dump at record        2100.2

 Initial occupancy:   7   1

 ITERATION    DDIFF          GRAD             ENERGY        2-EL.EN.            DIPOLE MOMENTS         DIIS   ORB.
    1      0.000D+00      0.000D+00      -129.79847830    153.989629    0.00000    0.59030   -1.02755    0    start
    2      0.000D+00      0.642D-02      -129.82571787    155.207481    0.00000    0.61085   -0.20525    1    diag
    3      0.401D-02      0.490D-02      -129.84876105    155.335302    0.00000    0.55433   -0.59207    2    diag
    4      0.207D-02      0.768D-03      -129.84956572    155.050844    0.00000    0.56199   -0.53058    3    diag
    5      0.378D-03      0.250D-03      -129.84969207    155.144414    0.00000    0.56718   -0.53301    4    diag
    6      0.156D-03      0.724D-04      -129.84971233    155.128077    0.00000    0.56744   -0.52879    5    diag
    7      0.602D-04      0.360D-04      -129.84971823    155.130871    0.00000    0.56867   -0.52615    6    diag
    8      0.413D-04      0.127D-04      -129.84971891    155.130158    0.00000    0.56871   -0.52512    7    diag
    9      0.159D-04      0.244D-05      -129.84971894    155.130047    0.00000    0.56867   -0.52489    8    diag
   10      0.321D-05      0.549D-06      -129.84971894    155.130029    0.00000    0.56864   -0.52486    9    orth
   11      0.621D-06      0.110D-06      -129.84971894    155.130026    0.00000    0.56863   -0.52486    9    diag
   12      0.116D-06      0.225D-07      -129.84971894    155.130026    0.00000    0.56863   -0.52486    9    diag
   13      0.253D-07      0.592D-08      -129.84971894    155.130025    0.00000    0.56863   -0.52486    9    diag
   14      0.684D-08      0.115D-08      -129.84971894    155.130025    0.00000    0.56863   -0.52486    9    diag
   15      0.125D-08      0.327D-09      -129.84971894    155.130025    0.00000    0.56863   -0.52486    9    diag
   16      0.373D-09      0.986D-10      -129.84971894    155.130025    0.00000    0.56863   -0.52486    9    diag
   17      0.722D-10      0.261D-10      -129.84971894    155.130025    0.00000    0.56863   -0.52486    9    diag
   18      0.209D-10      0.889D-11      -129.84971894    155.130025    0.00000    0.56863   -0.52486    9    diag
   19      0.156D-10      0.223D-11      -129.84971894    155.130025    0.00000    0.56863   -0.52486    9    fixocc
   20      0.257D-10      0.706D-12      -129.84971894    155.130025    0.00000    0.56863   -0.52486    9    orth
   21      0.145D-10      0.401D-12      -129.84971894    155.130025    0.00000    0.56863   -0.52486    9    diag
   22      0.105D-10      0.341D-12      -129.84971894    155.130025    0.00000    0.56863   -0.52486    9    diag
   23      0.520D-11      0.295D-12      -129.84971894    155.130025    0.00000    0.56863   -0.52486    9    diag
   24      0.314D-11      0.366D-12      -129.84971894    155.130025    0.00000    0.56863   -0.52486    9    diag
   25      0.331D-11      0.264D-12      -129.84971894    155.130025    0.00000    0.56863   -0.52486    0    orth

 Final occupancy:   7   1

 !RHF STATE 1.1 Energy               -129.849718942146
 Nuclear energy                        30.37336053
 One-electron energy                 -237.78809213
 Two-electron energy                   77.56501266
 Virial quotient                       -1.00168191
 !RHF STATE 1.1 Dipole moment           0.00000000     0.56863028    -0.52486076
 Dipole moment /Debye                   0.00000000     1.44521935    -1.33397561

 Orbital energies:

         1.1          2.1          3.1          4.1          5.1          6.1          7.1          8.1          9.1
    -20.652778   -15.712253    -1.529672    -0.993994    -0.747243    -0.666016    -0.430914     0.022894     0.065554

         1.2          2.2          3.2
     -0.596164     0.060298     0.091647

 HOMO      7.1    -0.430914 =     -11.7258eV
 LUMO      8.1     0.022894 =       0.6230eV
 LUMO-HOMO         0.453808 =      12.3487eV


 **********************************************************************************************************************************
 DATASETS  * FILE   NREC   LENGTH (MB)   RECORD NAMES
              1      19     6374.22       500      610      700      900      950      970     1000      129      960     1100   
                                          VAR    BASINP    GEOM    SYMINP    ZMAT    AOBASIS   BASIS     P2S    ABASIS      S 
                                         1400     1410     1200     1210     1080     1600     1650     1300     1700   
                                           T        V       H0       H01     AOSYM     SMH    MOLCAS    ERIS     OPER   

              2       4        4.02       700     1000      520     2100   
                                         GEOM     BASIS   MCVARS     RHF  

 PROGRAMS   *        TOTAL        HF       INT
 CPU TIMES  *       258.02     81.74    176.15
 REAL TIME  *       780.63 SEC
 DISK USED  *        21.32 GB      
 **********************************************************************************************************************************


 PROGRAM * CCSD (Closed-shell coupled cluster)     Authors: C. Hampel, H.-J. Werner, 1991, M. Deegan, P.J. Knowles, 1992


 Convergence thresholds:  THRVAR = 1.00D-08  THRDEN = 1.00D-12

 CCSD(T)     terms to be evaluated (factor= 1.000)


 Number of core orbitals:           2 (   2   0 )
 Number of closed-shell orbitals:   6 (   5   1 )
 Number of external orbitals:     326 ( 197 129 )

 Molecular orbitals read from record     2100.2  Type=RHF/CANONICAL (state 1.1)

 Number of N-1 electron functions:               6
 Number of N-2 electron functions:              21
 Number of singly external CSFs:              1114
 Number of doubly external CSFs:            975958
 Total number of CSFs:                      977073

 Length of J-op  integral file:               0.00 MB
 Length of K-op  integral file:               4.07 MB
 Length of 3-ext integral record:             0.00 MB

 Memory could be reduced to 151.33 Mwords without degradation in triples

 Integral transformation finished. Total CPU:  10.52 sec, npass=  1  Memory used:  41.21 MW

 Reference energy:                   -129.84971894

 MP2 singlet pair energy:              -0.31116032
 MP2 triplet pair energy:              -0.17200500
 MP2 correlation energy:               -0.48316532
 MP2 total energy:                   -130.33288426

 SCS-MP2 correlation energy:           -0.48041772   (PS=  1.200000  PT=  0.333333)
 SCS-MP2 total energy:               -130.33013666

 ITER.      SQ.NORM     CORR.ENERGY   TOTAL ENERGY   ENERGY CHANGE        DEN1      VAR(S)    VAR(P)  DIIS     TIME  TIME/IT
   1      1.12055709    -0.48016673  -130.32988568     0.00299859     0.01964652  0.32D-02  0.32D-02  1  1    19.27     9.59
   2      1.13117344    -0.48005516  -130.32977410     0.00011157    -0.01266783  0.10D-03  0.49D-03  2  2    28.15     9.75
   3      1.13731168    -0.48043484  -130.33015378    -0.00037968    -0.00300003  0.47D-04  0.56D-04  3  3    37.05     9.81
   4      1.14009243    -0.48043329  -130.33015223     0.00000155    -0.00096644  0.45D-05  0.99D-05  4  4    46.04     9.87
   5      1.14121296    -0.48046228  -130.33018122    -0.00002899    -0.00024906  0.11D-05  0.17D-05  5  5    55.08     9.91
   6      1.14156526    -0.48045073  -130.33016967     0.00001155    -0.00004997  0.12D-06  0.40D-06  6  6    63.96     9.92
   7      1.14163980    -0.48045037  -130.33016931     0.00000036     0.00000342  0.17D-07  0.91D-07  6  1    72.84     9.92
   8      1.14166470    -0.48045038  -130.33016932    -0.00000001    -0.00000302  0.34D-08  0.19D-07  6  2    81.85     9.92
   9      1.14167304    -0.48044983  -130.33016877     0.00000055    -0.00000018  0.22D-08  0.20D-08  6  3    90.79     9.92
  10      1.14166849    -0.48045056  -130.33016950    -0.00000073     0.00000158  0.34D-09  0.32D-09  6  5    99.60     9.92
  11      1.14167043    -0.48045055  -130.33016949     0.00000002    -0.00000036  0.98D-10  0.27D-10  6  4   108.26     9.92
  12      1.14166999    -0.48045061  -130.33016956    -0.00000007     0.00000005  0.18D-10  0.62D-11  6  6   117.16     9.92
  13      1.14166978    -0.48045062  -130.33016956    -0.00000000    -0.00000003  0.30D-11  0.89D-12  6  1   126.09     9.92
  14      1.14166952    -0.48045063  -130.33016957    -0.00000001     0.00000004  0.43D-12  0.16D-12  6  3   135.01     9.92
  15      1.14166945    -0.48045063  -130.33016957    -0.00000000     0.00000001  0.12D-12  0.22D-13  6  2   143.83     9.92
  16      1.14166944    -0.48045063  -130.33016957     0.00000000     0.00000000  0.31D-13  0.86D-14  6  4   152.74     9.93
  17      1.14166944    -0.48045063  -130.33016957    -0.00000000    -0.00000000  0.18D-14  0.11D-14  6  5   161.74     9.93
  18      1.14166944    -0.48045063  -130.33016957     0.00000000    -0.00000000  0.27D-15  0.28D-15  6  6   170.72     9.93
  19      1.14166945    -0.48045063  -130.33016957     0.00000000    -0.00000000  0.50D-16  0.39D-16  6  1   179.62     9.93
  20      1.14166945    -0.48045063  -130.33016957     0.00000000    -0.00000000  0.11D-16  0.58D-17  6  3   188.63     9.93
  21      1.14166945    -0.48045063  -130.33016957    -0.00000000     0.00000000  0.20D-17  0.10D-17  6  2   197.57     9.93
  22      1.14166945    -0.48045063  -130.33016957    -0.00000000     0.00000000  0.36D-18  0.16D-18  6  4   206.53     9.93
  23      1.14166945    -0.48045063  -130.33016957    -0.00000000     0.00000000  0.75D-19  0.40D-19  6  5   215.33     9.93
  24      1.14166945    -0.48045063  -130.33016957    -0.00000000     0.00000000  0.28D-19  0.16D-19  6  6   224.23     9.93
  25      1.14166945    -0.48045063  -130.33016957    -0.00000000     0.00000000  0.13D-19  0.69D-20  6  1   233.02     9.93

 Norm of t1 vector:      0.07607458      S-energy:    -0.00000000      T1 diagnostic:  0.01552866
                                                                       D1 diagnostic:  0.04213124

 Doubles amplitudes (print threshold =  0.500E-01):

         I         J         SYM. A    SYM. B    A         B      T(IJ, AB)

         6         6         2         2         1         1     -0.07914148
         6         6         2         2         1         2      0.05302088
         6         6         2         2         2         1      0.05302088


 Total CPU time for triples:     89.30 sec


 RESULTS
 =======

  Reference energy                   -129.849718942147
  CCSD singlet pair energy             -0.333271474198
  CCSD triplet pair energy             -0.147179155132
  CCSD correlation energy              -0.480450629332

  Triples (T) contribution             -0.022907754084
  Total correlation energy             -0.503358383416

  CCSD total energy                  -130.330169571479
  CCSD[T] energy                     -130.354152287105
  CCSD-T energy                      -130.352698824520
 !CCSD(T) total energy               -130.353077325563

 Timing summary (sec):

 STEP                 CPU(USER)    SYS     CPU(TOT)    WALL
 Transformation         10.56      1.61     12.17     12.22
 CCSD iterations       222.47     25.80    248.27    248.30
 Triples                89.30      1.49     90.79     90.81

 Program statistics:

 Available memory in ccsd:               994999756
 Min. memory needed in ccsd:               3348832
 Max. memory used in ccsd:                 4143652
 Max. memory used in cckext:               8340089 (25 integral passes)



 **********************************************************************************************************************************
 DATASETS  * FILE   NREC   LENGTH (MB)   RECORD NAMES
              1      20     6809.41       500      610      700      900      950      970     1000      129      960     1100   
                                          VAR    BASINP    GEOM    SYMINP    ZMAT    AOBASIS   BASIS     P2S    ABASIS      S 
                                         1400     1410     1200     1210     1080     1600     1650     1300     1700     1380   
                                           T        V       H0       H01     AOSYM     SMH    MOLCAS    ERIS     OPER     JKOP   

              2       4        4.02       700     1000      520     2100   
                                         GEOM     BASIS   MCVARS     RHF  

 PROGRAMS   *        TOTAL   CCSD(T)        HF       INT
 CPU TIMES  *       580.39    322.36     81.74    176.15
 REAL TIME  *      1132.13 SEC
 DISK USED  *        21.32 GB      
 **********************************************************************************************************************************

 CCSD(T)/aug-cc-pV5Z energy=   -130.353077325563

        CCSD(T)         HF-SCF  
   -130.35307733   -129.84971894
 **********************************************************************************************************************************
 Molpro calculation terminated
 Variable memory released
