
 Primary working directories    : /tmp/r2666/281853.maple
 Secondary working directories  : /tmp/r2666/281853.maple
 Wavefunction directory         : /ddn/home4/r2666/wfu/
 Main file repository           : /tmp/r2666/281853.maple/

 SHA1      : d5ffa45e93fdbca01ffc919aa182cfdae0147319
 NAME      : 2015.1.35
 ARCHNAME  : linux/x86_64
 FC        : /opt/intel/composer_xe_2015.1.133/bin/intel64/ifort
 BLASLIB   : -Wl,-_start-group /opt/intel/mkl/lib/intel64/libmkl_intel_ilp64.a /opt/intel/mkl/lib/intel64/libmkl_intel_thread.a /opt/intel/mkl/lib/intel64/libmkl_core.a -Wl,-_end-group
 id        : olemiss

 Nodes     nprocs
 cn054        1

 Using customized tuning parameters: mindgm=1; mindgv=20; mindgc=4; mindgr=1; noblas=0; minvec=7
 default implementation of scratch files=df  

 ***,hno CCSD(T)/TZ-F12 QFF
 memory, 995, m;
 gthresh,energy=1.d-12,zero=1.d-22,oneint=1.d-22,twoint=1.d-22;
 gthresh,optgrad=1.d-8,optstep=1.d-8;
 nocompress;
 geomtyp=xyz
 bohr
 geometry={
 3
          8         8
 H        0.0000000000        1.6561304377       -1.9176651856
 N        0.0000000000       -0.1547092286       -1.1440714978
 O        0.0000000000        0.0403465808        1.1111470924
 }
 
 basis=av5z
   {hf,maxit=500;accu,20;}
 {ccsd(t),nocheck,maxit=250;orbital,IGNORE_ERROR;}

 Variables initialized (889), CPU time= 0.01 sec
 Commands  initialized (702), CPU time= 0.00 sec, 572 directives.
 Default parameters read. Elapsed time= 0.06 sec

 Checking input...
 Passed
1


                                         ***  PROGRAM SYSTEM MOLPRO  ***
                                       Copyright, TTI GmbH Stuttgart, 2015
                                    Version 2015.1 linked Jul  9 2018 13:16:40


 **********************************************************************************************************************************
 LABEL *   hno CCSD(T)/TZ-F12 QFF                                                        
  64 bit serial version                                                                  DATE: 04-Mar-20          TIME: 13:19:56  
 **********************************************************************************************************************************

 SHA1:             d5ffa45e93fdbca01ffc919aa182cfdae0147319
 **********************************************************************************************************************************

 THRESHOLDS:

 ZERO    =  1.00D-22  ONEINT  =  1.00D-22  TWOINT  =  1.00D-22  PREFAC  =  1.00D-14  LOCALI  =  1.00D-09  EORDER  =  1.00D-04
 ENERGY  =  1.00D-12  ETEST   =  0.00D+00  EDENS   =  0.00D+00  THRDEDEF=  1.00D-06  GRADIENT=  1.00D-02  STEP    =  1.00D-03
 ORBITAL =  1.00D-05  CIVEC   =  1.00D-05  COEFF   =  1.00D-04  PRINTCI =  5.00D-02  PUNCHCI =  9.90D+01  OPTGRAD =  3.00D-04
 OPTENERG=  1.00D-06  OPTSTEP =  3.00D-04  THRGRAD =  1.00D-10  COMPRESS=  1.00D-11  VARMIN  =  1.00D-07  VARMAX  =  1.00D-03
 THRDOUB =  0.00D+00  THRDIV  =  1.00D-05  THRRED  =  1.00D-07  THRPSP  =  1.00D+00  THRDC   =  1.00D-10  THRCS   =  1.00D-10
 THRNRM  =  1.00D-08  THREQ   =  0.00D+00  THRDE   =  1.00D+00  THRREF  =  1.00D-05  SPARFAC =  1.00D+00  THRDLP  =  1.00D-07
 THRDIA  =  1.00D-10  THRDLS  =  1.00D-07  THRGPS  =  0.00D+00  THRKEX  =  0.00D+00  THRDIS  =  2.00D-01  THRVAR  =  1.00D-10
 THRLOC  =  1.00D-06  THRGAP  =  1.00D-06  THRLOCT = -1.00D+00  THRGAPT = -1.00D+00  THRORB  =  1.00D-06  THRMLTP =  0.00D+00
 THRCPQCI=  1.00D-10  KEXTA   =  0.00D+00  THRCOARS=  0.00D+00  SYMTOL  =  1.00D-06  GRADTOL =  1.00D-06  THROVL  =  1.00D-08
 THRORTH =  1.00D-08  GRID    =  1.00D-06  GRIDMAX =  1.00D-03  DTMAX   =  0.00D+00  THROCCDE=  1.00D-01  THROCCDE=  1.00D-01



 THRESHOLDS:

 ZERO    =  1.00D-22  ONEINT  =  1.00D-22  TWOINT  =  1.00D-22  PREFAC  =  1.00D-14  LOCALI  =  1.00D-09  EORDER  =  1.00D-04
 ENERGY  =  1.00D-12  ETEST   =  0.00D+00  EDENS   =  0.00D+00  THRDEDEF=  1.00D-06  GRADIENT=  1.00D-02  STEP    =  1.00D-03
 ORBITAL =  1.00D-05  CIVEC   =  1.00D-05  COEFF   =  1.00D-04  PRINTCI =  5.00D-02  PUNCHCI =  9.90D+01  OPTGRAD =  1.00D-08
 OPTENERG=  1.00D-06  OPTSTEP =  1.00D-08  THRGRAD =  1.00D-10  COMPRESS=  1.00D-11  VARMIN  =  1.00D-07  VARMAX  =  1.00D-03
 THRDOUB =  0.00D+00  THRDIV  =  1.00D-05  THRRED  =  1.00D-07  THRPSP  =  1.00D+00  THRDC   =  1.00D-10  THRCS   =  1.00D-10
 THRNRM  =  1.00D-08  THREQ   =  0.00D+00  THRDE   =  1.00D+00  THRREF  =  1.00D-05  SPARFAC =  1.00D+00  THRDLP  =  1.00D-07
 THRDIA  =  1.00D-10  THRDLS  =  1.00D-07  THRGPS  =  0.00D+00  THRKEX  =  0.00D+00  THRDIS  =  2.00D-01  THRVAR  =  1.00D-10
 THRLOC  =  1.00D-06  THRGAP  =  1.00D-06  THRLOCT = -1.00D+00  THRGAPT = -1.00D+00  THRORB  =  1.00D-06  THRMLTP =  0.00D+00
 THRCPQCI=  1.00D-10  KEXTA   =  0.00D+00  THRCOARS=  0.00D+00  SYMTOL  =  1.00D-06  GRADTOL =  1.00D-06  THROVL  =  1.00D-08
 THRORTH =  1.00D-08  GRID    =  1.00D-06  GRIDMAX =  1.00D-03  DTMAX   =  0.00D+00  THROCCDE=  1.00D-01  THROCCDE=  1.00D-01



 Input parameters for SORTINT:

 COMPRESS =    0.000000
 C_FINAL  =    1.000000
 DEBUG    =   -1.000000
 C_SORT1  =    0.000000
 C_SEWARD =    0.000000
 THRESH   =    0.000000
 IO       =  molpro                                                          
 SPRI     =    0.000000
 SETTING GEOMTYP        =    XYZ
 ZUNIT=BOHR
 

 Variable memory set to  995000000 words,  buffer space   230000 words

 SETTING BASIS          =    AV5Z


 Recomputing integrals since basis changed


 Using spherical harmonics

 Library entry H      S aug-cc-pV5Z          selected for orbital group  1
 Library entry H      P aug-cc-pV5Z          selected for orbital group  1
 Library entry H      D aug-cc-pV5Z          selected for orbital group  1
 Library entry H      F aug-cc-pV5Z          selected for orbital group  1
 Library entry H      G aug-cc-pV5Z          selected for orbital group  1
 Library entry N      S aug-cc-pV5Z          selected for orbital group  2
 Library entry N      P aug-cc-pV5Z          selected for orbital group  2
 Library entry N      D aug-cc-pV5Z          selected for orbital group  2
 Library entry N      F aug-cc-pV5Z          selected for orbital group  2
 Library entry N      G aug-cc-pV5Z          selected for orbital group  2
 Library entry N      H aug-cc-pV5Z          selected for orbital group  2
 Library entry O      S aug-cc-pV5Z          selected for orbital group  3
 Library entry O      P aug-cc-pV5Z          selected for orbital group  3
 Library entry O      D aug-cc-pV5Z          selected for orbital group  3
 Library entry O      F aug-cc-pV5Z          selected for orbital group  3
 Library entry O      G aug-cc-pV5Z          selected for orbital group  3
 Library entry O      H aug-cc-pV5Z          selected for orbital group  3


 PROGRAM * SEWARD (Integral evaluation for generally contracted gaussian basis sets)     Author: Roland Lindh, 1990

 Geometry written to block  1 of record 700


 Point group  Cs  



 ATOMIC COORDINATES

 NR  ATOM    CHARGE       X              Y              Z

   1  H       1.00    0.000000000    1.656130438   -1.917665186
   2  N       7.00    0.000000000   -0.154709229   -1.144071498
   3  O       8.00    0.000000000    0.040346581    1.111147092

 Bond lengths in Bohr (Angstrom)

 1-2  1.969159082  2-3  2.263638147
     ( 1.042034111)     ( 1.197865721)

 Bond angles

  1-2-3  108.18899349

 NUCLEAR CHARGE:                   16
 NUMBER OF PRIMITIVE AOS:         506
 NUMBER OF SYMMETRY AOS:          371
 NUMBER OF CONTRACTIONS:          334   ( 204A'  + 130A"  )
 NUMBER OF CORE ORBITALS:           2   (   2A'  +   0A"  )
 NUMBER OF VALENCE ORBITALS:        9   (   7A'  +   2A"  )


 NUCLEAR REPULSION ENERGY   30.62417819


 Eigenvalues of metric

         1 0.108E-04 0.165E-04 0.619E-04 0.959E-04 0.102E-03 0.132E-03 0.195E-03 0.222E-03
         2 0.123E-03 0.350E-03 0.107E-02 0.150E-02 0.183E-02 0.242E-02 0.314E-02 0.377E-02


 Contracted 2-electron integrals neglected if value below      1.0D-22

      756977553. INTEGRALS WRITTEN OUT IN  184855 BLOCKS ON RECORD 1290 OF FILE 1


 NUMBER OF SORTED TWO-ELECTRON INTEGRALS:  789027325.     BUFFER LENGTH:  32768
 NUMBER OF SEGMENTS:  25  SEGMENT LENGTH:   31997130      RECORD LENGTH: 524288

 Memory used in sort:      32.55 MW

 SORT1 READ   756977553. AND WROTE   760993448. INTEGRALS IN   2189 RECORDS. CPU TIME:    28.10 SEC, REAL TIME:    34.84 SEC
 SORT2 READ   760993448. AND WROTE   789027325. INTEGRALS IN     25 RECORDS. CPU TIME:    11.64 SEC, REAL TIME:    16.42 SEC

 FILE SIZES:   FILE 1: 12137.5 MBYTE,  FILE 4:  9181.4 MBYTE,   TOTAL:  21318.9 MBYTE

 OPERATOR DM      FOR CENTER  0  COORDINATES:    0.000000    0.000000    0.000000


 **********************************************************************************************************************************
 DATASETS  * FILE   NREC   LENGTH (MB)   RECORD NAMES
              1      19     6374.22       500      610      700      900      950      970     1000      129      960     1100   
                                          VAR    BASINP    GEOM    SYMINP    ZMAT    AOBASIS   BASIS     P2S    ABASIS      S 
                                         1400     1410     1200     1210     1080     1600     1650     1300     1700   
                                           T        V       H0       H01     AOSYM     SMH    MOLCAS    ERIS     OPER   

 PROGRAMS   *        TOTAL       INT
 CPU TIMES  *       163.86    163.75
 REAL TIME  *       185.27 SEC
 DISK USED  *        21.32 GB      
 **********************************************************************************************************************************


 PROGRAM * RHF-SCF (CLOSED SHELL)       Authors: W. Meyer, H.-J. Werner


 NUMBER OF ELECTRONS:       8+    8-
 CONVERGENCE THRESHOLDS:    1.00E-10 (Density)    1.00E-13 (Energy)
 MAX. NUMBER OF ITERATIONS:      500
 INTERPOLATION TYPE:            DIIS
 INTERPOLATION STEPS:              2 (START)      1 (STEP)
 LEVEL SHIFTS:                  0.00 (CLOSED)  0.00 (OPEN) 



 Orbital guess generated from atomic densities. Full valence occupancy:    9   2

 Molecular orbital dump at record        2100.2

 Initial occupancy:   7   1

 ITERATION    DDIFF          GRAD             ENERGY        2-EL.EN.            DIPOLE MOMENTS         DIIS   ORB.
    1      0.000D+00      0.000D+00      -129.80198361    154.444612    0.00000    0.59716   -0.99547    0    start
    2      0.000D+00      0.631D-02      -129.82948207    155.671441    0.00000    0.60513   -0.21593    1    diag
    3      0.390D-02      0.469D-02      -129.85043320    155.779203    0.00000    0.55538   -0.58036    2    diag
    4      0.199D-02      0.759D-03      -129.85121428    155.503856    0.00000    0.56304   -0.52046    3    diag
    5      0.373D-03      0.244D-03      -129.85133449    155.595833    0.00000    0.56814   -0.52308    4    diag
    6      0.152D-03      0.704D-04      -129.85135354    155.579789    0.00000    0.56846   -0.51908    5    diag
    7      0.582D-04      0.348D-04      -129.85135898    155.582620    0.00000    0.56969   -0.51659    6    diag
    8      0.397D-04      0.119D-04      -129.85135955    155.581954    0.00000    0.56973   -0.51564    7    diag
    9      0.146D-04      0.225D-05      -129.85135958    155.581854    0.00000    0.56970   -0.51543    8    diag
   10      0.287D-05      0.519D-06      -129.85135958    155.581838    0.00000    0.56967   -0.51540    9    orth
   11      0.586D-06      0.105D-06      -129.85135958    155.581834    0.00000    0.56966   -0.51540    9    diag
   12      0.112D-06      0.212D-07      -129.85135958    155.581834    0.00000    0.56966   -0.51540    9    diag
   13      0.243D-07      0.544D-08      -129.85135958    155.581834    0.00000    0.56966   -0.51540    9    diag
   14      0.635D-08      0.106D-08      -129.85135958    155.581834    0.00000    0.56966   -0.51540    9    diag
   15      0.117D-08      0.309D-09      -129.85135958    155.581834    0.00000    0.56966   -0.51540    9    diag
   16      0.352D-09      0.960D-10      -129.85135958    155.581834    0.00000    0.56966   -0.51540    9    diag
   17      0.692D-10      0.258D-10      -129.85135958    155.581834    0.00000    0.56966   -0.51540    9    diag
   18      0.361D-10      0.875D-11      -129.85135958    155.581834    0.00000    0.56966   -0.51540    9    diag
   19      0.216D-10      0.221D-11      -129.85135958    155.581834    0.00000    0.56966   -0.51540    9    fixocc
   20      0.130D-10      0.665D-12      -129.85135958    155.581834    0.00000    0.56966   -0.51540    9    orth
   21      0.182D-10      0.309D-12      -129.85135958    155.581834    0.00000    0.56966   -0.51540    9    diag
   22      0.572D-11      0.311D-12      -129.85135958    155.581834    0.00000    0.56966   -0.51540    9    diag
   23      0.378D-11      0.221D-12      -129.85135958    155.581834    0.00000    0.56966   -0.51540    9    diag
   24      0.185D-11      0.302D-12      -129.85135958    155.581834    0.00000    0.56966   -0.51540    9    diag
   25      0.134D-11      0.202D-12      -129.85135958    155.581834    0.00000    0.56966   -0.51540    0    orth

 Final occupancy:   7   1

 !RHF STATE 1.1 Energy               -129.851359577100
 Nuclear energy                        30.62417819
 One-electron energy                 -238.26645464
 Two-electron energy                   77.79091688
 Virial quotient                       -1.00127014
 !RHF STATE 1.1 Dipole moment           0.00000000     0.56965975    -0.51539987
 Dipole moment /Debye                   0.00000000     1.44783582    -1.30993000

 Orbital energies:

         1.1          2.1          3.1          4.1          5.1          6.1          7.1          8.1          9.1
    -20.651756   -15.709064    -1.537760    -0.994584    -0.751369    -0.669009    -0.428023     0.022970     0.065554

         1.2          2.2          3.2
     -0.600745     0.062132     0.092480

 HOMO      7.1    -0.428023 =     -11.6471eV
 LUMO      8.1     0.022970 =       0.6250eV
 LUMO-HOMO         0.450992 =      12.2721eV


 **********************************************************************************************************************************
 DATASETS  * FILE   NREC   LENGTH (MB)   RECORD NAMES
              1      19     6374.22       500      610      700      900      950      970     1000      129      960     1100   
                                          VAR    BASINP    GEOM    SYMINP    ZMAT    AOBASIS   BASIS     P2S    ABASIS      S 
                                         1400     1410     1200     1210     1080     1600     1650     1300     1700   
                                           T        V       H0       H01     AOSYM     SMH    MOLCAS    ERIS     OPER   

              2       4        4.02       700     1000      520     2100   
                                         GEOM     BASIS   MCVARS     RHF  

 PROGRAMS   *        TOTAL        HF       INT
 CPU TIMES  *       287.06    123.20    163.75
 REAL TIME  *       342.75 SEC
 DISK USED  *        21.32 GB      
 **********************************************************************************************************************************


 PROGRAM * CCSD (Closed-shell coupled cluster)     Authors: C. Hampel, H.-J. Werner, 1991, M. Deegan, P.J. Knowles, 1992


 Convergence thresholds:  THRVAR = 1.00D-08  THRDEN = 1.00D-12

 CCSD(T)     terms to be evaluated (factor= 1.000)


 Number of core orbitals:           2 (   2   0 )
 Number of closed-shell orbitals:   6 (   5   1 )
 Number of external orbitals:     326 ( 197 129 )

 Molecular orbitals read from record     2100.2  Type=RHF/CANONICAL (state 1.1)

 Number of N-1 electron functions:               6
 Number of N-2 electron functions:              21
 Number of singly external CSFs:              1114
 Number of doubly external CSFs:            975958
 Total number of CSFs:                      977073

 Length of J-op  integral file:               0.00 MB
 Length of K-op  integral file:               4.07 MB
 Length of 3-ext integral record:             0.00 MB

 Memory could be reduced to 151.33 Mwords without degradation in triples

 Integral transformation finished. Total CPU:  16.77 sec, npass=  1  Memory used:  41.21 MW

 Reference energy:                   -129.85135958

 MP2 singlet pair energy:              -0.30993707
 MP2 triplet pair energy:              -0.17119625
 MP2 correlation energy:               -0.48113332
 MP2 total energy:                   -130.33249290

 SCS-MP2 correlation energy:           -0.47844660   (PS=  1.200000  PT=  0.333333)
 SCS-MP2 total energy:               -130.32980618

 ITER.      SQ.NORM     CORR.ENERGY   TOTAL ENERGY   ENERGY CHANGE        DEN1      VAR(S)    VAR(P)  DIIS     TIME  TIME/IT
   1      1.11917924    -0.47855944  -130.32991902     0.00257388     0.01871344  0.30D-02  0.31D-02  1  1    30.37    14.96
   2      1.12949395    -0.47853674  -130.32989631     0.00002270    -0.01235912  0.99D-04  0.47D-03  2  2    44.31    15.21
   3      1.13540268    -0.47889698  -130.33025655    -0.00036024    -0.00292412  0.44D-04  0.54D-04  3  3    58.27    15.30
   4      1.13805846    -0.47889621  -130.33025579     0.00000077    -0.00093044  0.40D-05  0.94D-05  4  4    72.31    15.34
   5      1.13910605    -0.47892307  -130.33028265    -0.00002686    -0.00023326  0.10D-05  0.16D-05  5  5    86.37    15.37
   6      1.13944076    -0.47891255  -130.33027212     0.00001053    -0.00004709  0.10D-06  0.41D-06  6  6   100.37    15.40
   7      1.13951429    -0.47891228  -130.33027186     0.00000027     0.00000301  0.15D-07  0.90D-07  6  1   114.20    15.41
   8      1.13953839    -0.47891244  -130.33027202    -0.00000016    -0.00000281  0.36D-08  0.18D-07  6  2   128.13    15.42
   9      1.13954645    -0.47891195  -130.33027152     0.00000049    -0.00000025  0.21D-08  0.18D-08  6  3   142.04    15.43
  10      1.13954211    -0.47891264  -130.33027222    -0.00000070     0.00000150  0.33D-09  0.29D-09  6  5   155.92    15.43
  11      1.13954384    -0.47891263  -130.33027221     0.00000001    -0.00000031  0.90D-10  0.24D-10  6  4   169.70    15.44
  12      1.13954341    -0.47891270  -130.33027227    -0.00000006     0.00000005  0.17D-10  0.56D-11  6  6   183.60    15.44
  13      1.13954306    -0.47891270  -130.33027228    -0.00000001    -0.00000003  0.16D-11  0.67D-12  6  4   197.48    15.44
  14      1.13954297    -0.47891271  -130.33027229    -0.00000001     0.00000002  0.44D-12  0.15D-12  6  1   211.45    15.45
  15      1.13954291    -0.47891271  -130.33027229    -0.00000000     0.00000001  0.88D-13  0.28D-13  6  3   225.43    15.45
  16      1.13954289    -0.47891271  -130.33027229    -0.00000000     0.00000001  0.18D-13  0.58D-14  6  2   239.48    15.45
  17      1.13954289    -0.47891271  -130.33027229    -0.00000000     0.00000000  0.19D-14  0.15D-14  6  5   253.42    15.45
  18      1.13954289    -0.47891271  -130.33027229     0.00000000    -0.00000000  0.28D-15  0.27D-15  6  6   267.30    15.45
  19      1.13954290    -0.47891271  -130.33027229     0.00000000    -0.00000000  0.65D-16  0.49D-16  6  4   281.26    15.46
  20      1.13954290    -0.47891271  -130.33027229     0.00000000    -0.00000000  0.90D-17  0.71D-17  6  3   295.21    15.46
  21      1.13954290    -0.47891271  -130.33027229     0.00000000    -0.00000000  0.17D-17  0.13D-17  6  1   309.14    15.46
  22      1.13954290    -0.47891271  -130.33027229    -0.00000000     0.00000000  0.47D-18  0.34D-18  6  2   323.02    15.46
  23      1.13954290    -0.47891271  -130.33027229     0.00000000    -0.00000000  0.15D-18  0.13D-18  6  5   336.95    15.46
  24      1.13954290    -0.47891271  -130.33027229     0.00000000    -0.00000000  0.56D-19  0.48D-19  6  6   350.90    15.46

 Norm of t1 vector:      0.07419920      S-energy:    -0.00000000      T1 diagnostic:  0.01514585
                                                                       D1 diagnostic:  0.04087739

 Doubles amplitudes (print threshold =  0.500E-01):

         I         J         SYM. A    SYM. B    A         B      T(IJ, AB)

         6         6         2         2         1         1     -0.07138829
         6         6         2         2         1         2      0.05283307
         6         6         2         2         2         1      0.05283307


 Total CPU time for triples:    132.67 sec


 RESULTS
 =======

  Reference energy                   -129.851359577099
  CCSD singlet pair energy             -0.331947367474
  CCSD triplet pair energy             -0.146965344747
  CCSD correlation energy              -0.478912712222

  Triples (T) contribution             -0.022529538761
  Total correlation energy             -0.501442250983

  CCSD total energy                  -130.330272289322
  CCSD[T] energy                     -130.353826982749
  CCSD-T energy                      -130.352436763980
 !CCSD(T) total energy               -130.352801828083

 Timing summary (sec):

 STEP                 CPU(USER)    SYS     CPU(TOT)    WALL
 Transformation         16.84      1.99     18.83     18.85
 CCSD iterations       334.08     36.92    371.00    371.02
 Triples               132.67      2.44    135.11    135.12

 Program statistics:

 Available memory in ccsd:               994999756
 Min. memory needed in ccsd:               3348832
 Max. memory used in ccsd:                 4143652
 Max. memory used in cckext:               8340089 (24 integral passes)



 **********************************************************************************************************************************
 DATASETS  * FILE   NREC   LENGTH (MB)   RECORD NAMES
              1      20     6809.41       500      610      700      900      950      970     1000      129      960     1100   
                                          VAR    BASINP    GEOM    SYMINP    ZMAT    AOBASIS   BASIS     P2S    ABASIS      S 
                                         1400     1410     1200     1210     1080     1600     1650     1300     1700     1380   
                                           T        V       H0       H01     AOSYM     SMH    MOLCAS    ERIS     OPER     JKOP   

              2       4        4.02       700     1000      520     2100   
                                         GEOM     BASIS   MCVARS     RHF  

 PROGRAMS   *        TOTAL   CCSD(T)        HF       INT
 CPU TIMES  *       770.68    483.61    123.20    163.75
 REAL TIME  *       867.99 SEC
 DISK USED  *        21.32 GB      
 **********************************************************************************************************************************

 CCSD(T)/aug-cc-pV5Z energy=   -130.352801828083

        CCSD(T)         HF-SCF  
   -130.35280183   -129.85135958
 **********************************************************************************************************************************
 Molpro calculation terminated
 Variable memory released
