
 Primary working directories    : /tmp/r2666/281885.maple
 Secondary working directories  : /tmp/r2666/281885.maple
 Wavefunction directory         : /ddn/home4/r2666/wfu/
 Main file repository           : /tmp/r2666/281885.maple/

 SHA1      : d5ffa45e93fdbca01ffc919aa182cfdae0147319
 NAME      : 2015.1.35
 ARCHNAME  : linux/x86_64
 FC        : /opt/intel/composer_xe_2015.1.133/bin/intel64/ifort
 BLASLIB   : -Wl,-_start-group /opt/intel/mkl/lib/intel64/libmkl_intel_ilp64.a /opt/intel/mkl/lib/intel64/libmkl_intel_thread.a /opt/intel/mkl/lib/intel64/libmkl_core.a -Wl,-_end-group
 id        : olemiss

 Nodes     nprocs
 cn087        1

 Using customized tuning parameters: mindgm=1; mindgv=20; mindgc=4; mindgr=1; noblas=0; minvec=7
 default implementation of scratch files=df  

 ***,hno CCSD(T)/TZ-F12 QFF
 memory, 995, m;
 gthresh,energy=1.d-12,zero=1.d-22,oneint=1.d-22,twoint=1.d-22;
 gthresh,optgrad=1.d-8,optstep=1.d-8;
 nocompress;
 geomtyp=xyz
 bohr
 geometry={
 3
         40        40
 H        0.0000000000        1.6633145529       -1.9313110690
 N        0.0000000000       -0.1552407661       -1.1517310345
 O        0.0000000000        0.0336940032        1.1324525124
 }
 
 basis=av5z
   {hf,maxit=500;accu,20;}
 {ccsd(t),nocheck,maxit=250;orbital,IGNORE_ERROR;}

 Variables initialized (889), CPU time= 0.00 sec
 Commands  initialized (702), CPU time= 0.00 sec, 572 directives.
 Default parameters read. Elapsed time= 0.07 sec

 Checking input...
 Passed
1


                                         ***  PROGRAM SYSTEM MOLPRO  ***
                                       Copyright, TTI GmbH Stuttgart, 2015
                                    Version 2015.1 linked Jul  9 2018 13:16:40


 **********************************************************************************************************************************
 LABEL *   hno CCSD(T)/TZ-F12 QFF                                                        
  64 bit serial version                                                                  DATE: 04-Mar-20          TIME: 13:20:09  
 **********************************************************************************************************************************

 SHA1:             d5ffa45e93fdbca01ffc919aa182cfdae0147319
 **********************************************************************************************************************************

 THRESHOLDS:

 ZERO    =  1.00D-22  ONEINT  =  1.00D-22  TWOINT  =  1.00D-22  PREFAC  =  1.00D-14  LOCALI  =  1.00D-09  EORDER  =  1.00D-04
 ENERGY  =  1.00D-12  ETEST   =  0.00D+00  EDENS   =  0.00D+00  THRDEDEF=  1.00D-06  GRADIENT=  1.00D-02  STEP    =  1.00D-03
 ORBITAL =  1.00D-05  CIVEC   =  1.00D-05  COEFF   =  1.00D-04  PRINTCI =  5.00D-02  PUNCHCI =  9.90D+01  OPTGRAD =  3.00D-04
 OPTENERG=  1.00D-06  OPTSTEP =  3.00D-04  THRGRAD =  1.00D-10  COMPRESS=  1.00D-11  VARMIN  =  1.00D-07  VARMAX  =  1.00D-03
 THRDOUB =  0.00D+00  THRDIV  =  1.00D-05  THRRED  =  1.00D-07  THRPSP  =  1.00D+00  THRDC   =  1.00D-10  THRCS   =  1.00D-10
 THRNRM  =  1.00D-08  THREQ   =  0.00D+00  THRDE   =  1.00D+00  THRREF  =  1.00D-05  SPARFAC =  1.00D+00  THRDLP  =  1.00D-07
 THRDIA  =  1.00D-10  THRDLS  =  1.00D-07  THRGPS  =  0.00D+00  THRKEX  =  0.00D+00  THRDIS  =  2.00D-01  THRVAR  =  1.00D-10
 THRLOC  =  1.00D-06  THRGAP  =  1.00D-06  THRLOCT = -1.00D+00  THRGAPT = -1.00D+00  THRORB  =  1.00D-06  THRMLTP =  0.00D+00
 THRCPQCI=  1.00D-10  KEXTA   =  0.00D+00  THRCOARS=  0.00D+00  SYMTOL  =  1.00D-06  GRADTOL =  1.00D-06  THROVL  =  1.00D-08
 THRORTH =  1.00D-08  GRID    =  1.00D-06  GRIDMAX =  1.00D-03  DTMAX   =  0.00D+00  THROCCDE=  1.00D-01  THROCCDE=  1.00D-01



 THRESHOLDS:

 ZERO    =  1.00D-22  ONEINT  =  1.00D-22  TWOINT  =  1.00D-22  PREFAC  =  1.00D-14  LOCALI  =  1.00D-09  EORDER  =  1.00D-04
 ENERGY  =  1.00D-12  ETEST   =  0.00D+00  EDENS   =  0.00D+00  THRDEDEF=  1.00D-06  GRADIENT=  1.00D-02  STEP    =  1.00D-03
 ORBITAL =  1.00D-05  CIVEC   =  1.00D-05  COEFF   =  1.00D-04  PRINTCI =  5.00D-02  PUNCHCI =  9.90D+01  OPTGRAD =  1.00D-08
 OPTENERG=  1.00D-06  OPTSTEP =  1.00D-08  THRGRAD =  1.00D-10  COMPRESS=  1.00D-11  VARMIN  =  1.00D-07  VARMAX  =  1.00D-03
 THRDOUB =  0.00D+00  THRDIV  =  1.00D-05  THRRED  =  1.00D-07  THRPSP  =  1.00D+00  THRDC   =  1.00D-10  THRCS   =  1.00D-10
 THRNRM  =  1.00D-08  THREQ   =  0.00D+00  THRDE   =  1.00D+00  THRREF  =  1.00D-05  SPARFAC =  1.00D+00  THRDLP  =  1.00D-07
 THRDIA  =  1.00D-10  THRDLS  =  1.00D-07  THRGPS  =  0.00D+00  THRKEX  =  0.00D+00  THRDIS  =  2.00D-01  THRVAR  =  1.00D-10
 THRLOC  =  1.00D-06  THRGAP  =  1.00D-06  THRLOCT = -1.00D+00  THRGAPT = -1.00D+00  THRORB  =  1.00D-06  THRMLTP =  0.00D+00
 THRCPQCI=  1.00D-10  KEXTA   =  0.00D+00  THRCOARS=  0.00D+00  SYMTOL  =  1.00D-06  GRADTOL =  1.00D-06  THROVL  =  1.00D-08
 THRORTH =  1.00D-08  GRID    =  1.00D-06  GRIDMAX =  1.00D-03  DTMAX   =  0.00D+00  THROCCDE=  1.00D-01  THROCCDE=  1.00D-01



 Input parameters for SORTINT:

 COMPRESS =    0.000000
 C_FINAL  =    1.000000
 DEBUG    =   -1.000000
 C_SORT1  =    0.000000
 C_SEWARD =    0.000000
 THRESH   =    0.000000
 IO       =  molpro                                                          
 SPRI     =    0.000000
 SETTING GEOMTYP        =    XYZ
 ZUNIT=BOHR
 

 Variable memory set to  995000000 words,  buffer space   230000 words

 SETTING BASIS          =    AV5Z


 Recomputing integrals since basis changed


 Using spherical harmonics

 Library entry H      S aug-cc-pV5Z          selected for orbital group  1
 Library entry H      P aug-cc-pV5Z          selected for orbital group  1
 Library entry H      D aug-cc-pV5Z          selected for orbital group  1
 Library entry H      F aug-cc-pV5Z          selected for orbital group  1
 Library entry H      G aug-cc-pV5Z          selected for orbital group  1
 Library entry N      S aug-cc-pV5Z          selected for orbital group  2
 Library entry N      P aug-cc-pV5Z          selected for orbital group  2
 Library entry N      D aug-cc-pV5Z          selected for orbital group  2
 Library entry N      F aug-cc-pV5Z          selected for orbital group  2
 Library entry N      G aug-cc-pV5Z          selected for orbital group  2
 Library entry N      H aug-cc-pV5Z          selected for orbital group  2
 Library entry O      S aug-cc-pV5Z          selected for orbital group  3
 Library entry O      P aug-cc-pV5Z          selected for orbital group  3
 Library entry O      D aug-cc-pV5Z          selected for orbital group  3
 Library entry O      F aug-cc-pV5Z          selected for orbital group  3
 Library entry O      G aug-cc-pV5Z          selected for orbital group  3
 Library entry O      H aug-cc-pV5Z          selected for orbital group  3


 PROGRAM * SEWARD (Integral evaluation for generally contracted gaussian basis sets)     Author: Roland Lindh, 1990

 Geometry written to block  1 of record 700


 Point group  Cs  



 ATOMIC COORDINATES

 NR  ATOM    CHARGE       X              Y              Z

   1  H       1.00    0.000000000    1.663314553   -1.931311069
   2  N       7.00    0.000000000   -0.155240766   -1.151731035
   3  O       8.00    0.000000000    0.033694003    1.132452512

 Bond lengths in Bohr (Angstrom)

 1-2  1.978607712  2-3  2.291984036
     ( 1.047034111)     ( 1.212865720)

 Bond angles

  1-2-3  108.47547239

 NUCLEAR CHARGE:                   16
 NUMBER OF PRIMITIVE AOS:         506
 NUMBER OF SYMMETRY AOS:          371
 NUMBER OF CONTRACTIONS:          334   ( 204A'  + 130A"  )
 NUMBER OF CORE ORBITALS:           2   (   2A'  +   0A"  )
 NUMBER OF VALENCE ORBITALS:        9   (   7A'  +   2A"  )


 NUCLEAR REPULSION ENERGY   30.27616170


 Eigenvalues of metric

         1 0.112E-04 0.173E-04 0.631E-04 0.101E-03 0.106E-03 0.137E-03 0.199E-03 0.224E-03
         2 0.129E-03 0.357E-03 0.114E-02 0.161E-02 0.190E-02 0.255E-02 0.322E-02 0.388E-02


 Contracted 2-electron integrals neglected if value below      1.0D-22

      756977358. INTEGRALS WRITTEN OUT IN  184855 BLOCKS ON RECORD 1290 OF FILE 1


 NUMBER OF SORTED TWO-ELECTRON INTEGRALS:  789027325.     BUFFER LENGTH:  32768
 NUMBER OF SEGMENTS:  25  SEGMENT LENGTH:   31997130      RECORD LENGTH: 524288

 Memory used in sort:      32.55 MW

 SORT1 READ   756977358. AND WROTE   760993241. INTEGRALS IN   2189 RECORDS. CPU TIME:    40.78 SEC, REAL TIME:   222.00 SEC
 SORT2 READ   760993241. AND WROTE   789027325. INTEGRALS IN     25 RECORDS. CPU TIME:    13.29 SEC, REAL TIME:    80.75 SEC

 FILE SIZES:   FILE 1: 12137.5 MBYTE,  FILE 4:  9181.4 MBYTE,   TOTAL:  21318.9 MBYTE

 OPERATOR DM      FOR CENTER  0  COORDINATES:    0.000000    0.000000    0.000000


 **********************************************************************************************************************************
 DATASETS  * FILE   NREC   LENGTH (MB)   RECORD NAMES
              1      19     6374.22       500      610      700      900      950      970     1000      129      960     1100   
                                          VAR    BASINP    GEOM    SYMINP    ZMAT    AOBASIS   BASIS     P2S    ABASIS      S 
                                         1400     1410     1200     1210     1080     1600     1650     1300     1700   
                                           T        V       H0       H01     AOSYM     SMH    MOLCAS    ERIS     OPER   

 PROGRAMS   *        TOTAL       INT
 CPU TIMES  *       153.10    153.01
 REAL TIME  *       433.21 SEC
 DISK USED  *        21.32 GB      
 **********************************************************************************************************************************


 PROGRAM * RHF-SCF (CLOSED SHELL)       Authors: W. Meyer, H.-J. Werner


 NUMBER OF ELECTRONS:       8+    8-
 CONVERGENCE THRESHOLDS:    1.00E-10 (Density)    1.00E-13 (Energy)
 MAX. NUMBER OF ITERATIONS:      500
 INTERPOLATION TYPE:            DIIS
 INTERPOLATION STEPS:              2 (START)      1 (STEP)
 LEVEL SHIFTS:                  0.00 (CLOSED)  0.00 (OPEN) 



 Orbital guess generated from atomic densities. Full valence occupancy:    9   2

 Molecular orbital dump at record        2100.2

 Initial occupancy:   7   1

 ITERATION    DDIFF          GRAD             ENERGY        2-EL.EN.            DIPOLE MOMENTS         DIIS   ORB.
    1      0.000D+00      0.000D+00      -129.79750083    153.814520    0.00000    0.60308   -1.04486    0    start
    2      0.000D+00      0.643D-02      -129.82456500    155.020980    0.00000    0.61366   -0.20835    1    diag
    3      0.403D-02      0.495D-02      -129.84814725    155.160604    0.00000    0.56158   -0.60344    2    diag
    4      0.209D-02      0.775D-03      -129.84896486    154.872467    0.00000    0.56872   -0.54083    3    diag
    5      0.381D-03      0.250D-03      -129.84909204    154.966380    0.00000    0.57393   -0.54323    4    diag
    6      0.157D-03      0.723D-04      -129.84911234    154.950062    0.00000    0.57418   -0.53893    5    diag
    7      0.603D-04      0.362D-04      -129.84911833    154.952779    0.00000    0.57539   -0.53623    6    diag
    8      0.415D-04      0.129D-04      -129.84911905    154.952058    0.00000    0.57543   -0.53517    7    diag
    9      0.164D-04      0.252D-05      -129.84911908    154.951944    0.00000    0.57539   -0.53493    8    diag
   10      0.335D-05      0.563D-06      -129.84911908    154.951926    0.00000    0.57536   -0.53491    9    orth
   11      0.639D-06      0.112D-06      -129.84911908    154.951922    0.00000    0.57535   -0.53490    9    diag
   12      0.117D-06      0.229D-07      -129.84911908    154.951922    0.00000    0.57535   -0.53490    9    diag
   13      0.251D-07      0.607D-08      -129.84911908    154.951922    0.00000    0.57535   -0.53490    9    diag
   14      0.688D-08      0.117D-08      -129.84911908    154.951922    0.00000    0.57535   -0.53490    9    diag
   15      0.125D-08      0.331D-09      -129.84911908    154.951922    0.00000    0.57535   -0.53490    9    diag
   16      0.376D-09      0.981D-10      -129.84911908    154.951922    0.00000    0.57535   -0.53490    9    diag
   17      0.713D-10      0.246D-10      -129.84911908    154.951922    0.00000    0.57535   -0.53490    9    diag
   18      0.203D-10      0.817D-11      -129.84911908    154.951922    0.00000    0.57535   -0.53490    9    diag
   19      0.202D-10      0.193D-11      -129.84911908    154.951922    0.00000    0.57535   -0.53490    9    fixocc
   20      0.180D-10      0.459D-12      -129.84911908    154.951922    0.00000    0.57535   -0.53490    9    orth
   21      0.105D-10      0.289D-12      -129.84911908    154.951922    0.00000    0.57535   -0.53490    9    diag
   22      0.581D-11      0.281D-12      -129.84911908    154.951922    0.00000    0.57535   -0.53490    9    diag
   23      0.315D-11      0.340D-12      -129.84911908    154.951922    0.00000    0.57535   -0.53490    0    orth

 Final occupancy:   7   1

 !RHF STATE 1.1 Energy               -129.849119081837
 Nuclear energy                        30.27616170
 One-electron energy                 -237.60124195
 Two-electron energy                   77.47596117
 Virial quotient                       -1.00179500
 !RHF STATE 1.1 Dipole moment           0.00000000     0.57534773    -0.53490256
 Dipole moment /Debye                   0.00000000     1.46229229    -1.35949765

 Orbital energies:

         1.1          2.1          3.1          4.1          5.1          6.1          7.1          8.1          9.1
    -20.653387   -15.712290    -1.525227    -0.996970    -0.746237    -0.664760    -0.432167     0.022780     0.065533

         1.2          2.2          3.2
     -0.593622     0.059131     0.091112

 HOMO      7.1    -0.432167 =     -11.7599eV
 LUMO      8.1     0.022780 =       0.6199eV
 LUMO-HOMO         0.454947 =      12.3797eV


 **********************************************************************************************************************************
 DATASETS  * FILE   NREC   LENGTH (MB)   RECORD NAMES
              1      19     6374.22       500      610      700      900      950      970     1000      129      960     1100   
                                          VAR    BASINP    GEOM    SYMINP    ZMAT    AOBASIS   BASIS     P2S    ABASIS      S 
                                         1400     1410     1200     1210     1080     1600     1650     1300     1700   
                                           T        V       H0       H01     AOSYM     SMH    MOLCAS    ERIS     OPER   

              2       4        4.02       700     1000      520     2100   
                                         GEOM     BASIS   MCVARS     RHF  

 PROGRAMS   *        TOTAL        HF       INT
 CPU TIMES  *       226.73     73.62    153.01
 REAL TIME  *       529.70 SEC
 DISK USED  *        21.32 GB      
 **********************************************************************************************************************************


 PROGRAM * CCSD (Closed-shell coupled cluster)     Authors: C. Hampel, H.-J. Werner, 1991, M. Deegan, P.J. Knowles, 1992


 Convergence thresholds:  THRVAR = 1.00D-08  THRDEN = 1.00D-12

 CCSD(T)     terms to be evaluated (factor= 1.000)


 Number of core orbitals:           2 (   2   0 )
 Number of closed-shell orbitals:   6 (   5   1 )
 Number of external orbitals:     326 ( 197 129 )

 Molecular orbitals read from record     2100.2  Type=RHF/CANONICAL (state 1.1)

 Number of N-1 electron functions:               6
 Number of N-2 electron functions:              21
 Number of singly external CSFs:              1114
 Number of doubly external CSFs:            975958
 Total number of CSFs:                      977073

 Length of J-op  integral file:               0.00 MB
 Length of K-op  integral file:               4.07 MB
 Length of 3-ext integral record:             0.00 MB

 Memory could be reduced to 151.33 Mwords without degradation in triples

 Integral transformation finished. Total CPU:  10.21 sec, npass=  1  Memory used:  41.21 MW

 Reference energy:                   -129.84911908

 MP2 singlet pair energy:              -0.31155797
 MP2 triplet pair energy:              -0.17227925
 MP2 correlation energy:               -0.48383723
 MP2 total energy:                   -130.33295631

 SCS-MP2 correlation energy:           -0.48106555   (PS=  1.200000  PT=  0.333333)
 SCS-MP2 total energy:               -130.33018463

 ITER.      SQ.NORM     CORR.ENERGY   TOTAL ENERGY   ENERGY CHANGE        DEN1      VAR(S)    VAR(P)  DIIS     TIME  TIME/IT
   1      1.12095026    -0.48064859  -130.32976767     0.00318864     0.02003216  0.32D-02  0.33D-02  1  1    18.70     9.36
   2      1.13167732    -0.48049300  -130.32961208     0.00015558    -0.01278272  0.11D-03  0.49D-03  2  2    27.20     9.42
   3      1.13789966    -0.48087923  -130.32999831    -0.00038622    -0.00302026  0.49D-04  0.58D-04  3  3    35.68     9.45
   4      1.14074127    -0.48087806  -130.32999714     0.00000117    -0.00098094  0.46D-05  0.10D-04  4  4    44.11     9.45
   5      1.14190149    -0.48090783  -130.33002691    -0.00002977    -0.00025685  0.11D-05  0.17D-05  5  5    52.52     9.45
   6      1.14226574    -0.48089575  -130.33001484     0.00001208    -0.00005166  0.12D-06  0.41D-06  6  6    61.02     9.47
   7      1.14234157    -0.48089550  -130.33001458     0.00000025     0.00000370  0.16D-07  0.95D-07  6  1    69.53     9.47
   8      1.14236694    -0.48089550  -130.33001458     0.00000000    -0.00000312  0.35D-08  0.20D-07  6  2    78.00     9.47
   9      1.14237539    -0.48089493  -130.33001402     0.00000057    -0.00000015  0.23D-08  0.21D-08  6  3    86.54     9.48
  10      1.14237060    -0.48089570  -130.33001478    -0.00000076     0.00000164  0.37D-09  0.35D-09  6  5    94.95     9.48
  11      1.14237268    -0.48089568  -130.33001476     0.00000002    -0.00000039  0.11D-09  0.29D-10  6  4   103.35     9.48
  12      1.14237223    -0.48089575  -130.33001483    -0.00000007     0.00000005  0.19D-10  0.67D-11  6  6   111.79     9.48
  13      1.14237202    -0.48089575  -130.33001483    -0.00000000    -0.00000004  0.31D-11  0.96D-12  6  1   120.18     9.48
  14      1.14237174    -0.48089576  -130.33001484    -0.00000001     0.00000004  0.44D-12  0.17D-12  6  3   128.58     9.48
  15      1.14237167    -0.48089576  -130.33001485    -0.00000000     0.00000001  0.12D-12  0.23D-13  6  2   137.13     9.48
  16      1.14237165    -0.48089576  -130.33001484     0.00000000     0.00000000  0.33D-13  0.86D-14  6  4   145.55     9.48
  17      1.14237165    -0.48089576  -130.33001485    -0.00000000    -0.00000000  0.19D-14  0.11D-14  6  5   153.97     9.48
  18      1.14237166    -0.48089576  -130.33001484     0.00000000    -0.00000000  0.29D-15  0.29D-15  6  6   162.48     9.48
  19      1.14237166    -0.48089576  -130.33001484     0.00000000    -0.00000000  0.51D-16  0.41D-16  6  1   171.00     9.48
  20      1.14237166    -0.48089576  -130.33001484     0.00000000    -0.00000000  0.11D-16  0.61D-17  6  3   179.52     9.48
  21      1.14237166    -0.48089576  -130.33001484    -0.00000000     0.00000000  0.21D-17  0.11D-17  6  2   188.02     9.49
  22      1.14237166    -0.48089576  -130.33001484    -0.00000000     0.00000000  0.36D-18  0.16D-18  6  4   196.56     9.49
  23      1.14237166    -0.48089576  -130.33001484    -0.00000000     0.00000000  0.75D-19  0.40D-19  6  5   205.04     9.49
  24      1.14237166    -0.48089576  -130.33001484    -0.00000000     0.00000000  0.27D-19  0.16D-19  6  6   213.57     9.49
  25      1.14237166    -0.48089576  -130.33001484     0.00000000    -0.00000000  0.15D-19  0.85D-20  6  1   222.00     9.49

 Norm of t1 vector:      0.07693952      S-energy:    -0.00000000      T1 diagnostic:  0.01570521
                                                                       D1 diagnostic:  0.04285817

 Doubles amplitudes (print threshold =  0.500E-01):

         I         J         SYM. A    SYM. B    A         B      T(IJ, AB)

         6         6         2         2         1         1     -0.08297798
         6         6         2         2         1         2      0.05300452
         6         6         2         2         2         1      0.05300452


 Total CPU time for triples:     87.89 sec


 RESULTS
 =======

  Reference energy                   -129.849119081836
  CCSD singlet pair energy             -0.333663019026
  CCSD triplet pair energy             -0.147232743898
  CCSD correlation energy              -0.480895762926

  Triples (T) contribution             -0.023044610916
  Total correlation energy             -0.503940373842

  CCSD total energy                  -130.330014844762
  CCSD[T] energy                     -130.354156017701
  CCSD-T energy                      -130.352676450776
 !CCSD(T) total energy               -130.353059455679

 Timing summary (sec):

 STEP                 CPU(USER)    SYS     CPU(TOT)    WALL
 Transformation         10.25      1.49     11.74     12.04
 CCSD iterations       211.75     25.44    237.19    237.22
 Triples                87.89      1.58     89.47     89.47

 Program statistics:

 Available memory in ccsd:               994999756
 Min. memory needed in ccsd:               3348832
 Max. memory used in ccsd:                 4143652
 Max. memory used in cckext:               8340089 (25 integral passes)



 **********************************************************************************************************************************
 DATASETS  * FILE   NREC   LENGTH (MB)   RECORD NAMES
              1      20     6809.41       500      610      700      900      950      970     1000      129      960     1100   
                                          VAR    BASINP    GEOM    SYMINP    ZMAT    AOBASIS   BASIS     P2S    ABASIS      S 
                                         1400     1410     1200     1210     1080     1600     1650     1300     1700     1380   
                                           T        V       H0       H01     AOSYM     SMH    MOLCAS    ERIS     OPER     JKOP   

              2       4        4.02       700     1000      520     2100   
                                         GEOM     BASIS   MCVARS     RHF  

 PROGRAMS   *        TOTAL   CCSD(T)        HF       INT
 CPU TIMES  *       536.64    309.90     73.62    153.01
 REAL TIME  *       868.79 SEC
 DISK USED  *        21.32 GB      
 **********************************************************************************************************************************

 CCSD(T)/aug-cc-pV5Z energy=   -130.353059455679

        CCSD(T)         HF-SCF  
   -130.35305946   -129.84911908
 **********************************************************************************************************************************
 Molpro calculation terminated
 Variable memory released
