
 Primary working directories    : /tmp/r2666/281954.maple
 Secondary working directories  : /tmp/r2666/281954.maple
 Wavefunction directory         : /ddn/home4/r2666/wfu/
 Main file repository           : /tmp/r2666/281954.maple/

 SHA1      : d5ffa45e93fdbca01ffc919aa182cfdae0147319
 NAME      : 2015.1.35
 ARCHNAME  : linux/x86_64
 FC        : /opt/intel/composer_xe_2015.1.133/bin/intel64/ifort
 BLASLIB   : -Wl,-_start-group /opt/intel/mkl/lib/intel64/libmkl_intel_ilp64.a /opt/intel/mkl/lib/intel64/libmkl_intel_thread.a /opt/intel/mkl/lib/intel64/libmkl_core.a -Wl,-_end-group
 id        : olemiss

 Nodes     nprocs
 cn054        1

 Using customized tuning parameters: mindgm=1; mindgv=20; mindgc=4; mindgr=1; noblas=0; minvec=7
 default implementation of scratch files=df  

 ***,hno CCSD(T)/TZ-F12 QFF
 memory, 995, m;
 gthresh,energy=1.d-12,zero=1.d-22,oneint=1.d-22,twoint=1.d-22;
 gthresh,optgrad=1.d-8,optstep=1.d-8;
 nocompress;
 geomtyp=xyz
 bohr
 geometry={
 3
        109       109
 H        0.0000000000        1.6732280939       -1.9406780253
 N        0.0000000000       -0.1618369187       -1.1516517185
 O        0.0000000000        0.0303766148        1.1417401528
 }
 
 basis=av5z
   {hf,maxit=500;accu,20;}
 {ccsd(t),nocheck,maxit=250;orbital,IGNORE_ERROR;}

 Variables initialized (889), CPU time= 0.01 sec
 Commands  initialized (702), CPU time= 0.00 sec, 572 directives.
 Default parameters read. Elapsed time= 0.06 sec

 Checking input...
 Passed
1


                                         ***  PROGRAM SYSTEM MOLPRO  ***
                                       Copyright, TTI GmbH Stuttgart, 2015
                                    Version 2015.1 linked Jul  9 2018 13:16:40


 **********************************************************************************************************************************
 LABEL *   hno CCSD(T)/TZ-F12 QFF                                                        
  64 bit serial version                                                                  DATE: 04-Mar-20          TIME: 13:34:26  
 **********************************************************************************************************************************

 SHA1:             d5ffa45e93fdbca01ffc919aa182cfdae0147319
 **********************************************************************************************************************************

 THRESHOLDS:

 ZERO    =  1.00D-22  ONEINT  =  1.00D-22  TWOINT  =  1.00D-22  PREFAC  =  1.00D-14  LOCALI  =  1.00D-09  EORDER  =  1.00D-04
 ENERGY  =  1.00D-12  ETEST   =  0.00D+00  EDENS   =  0.00D+00  THRDEDEF=  1.00D-06  GRADIENT=  1.00D-02  STEP    =  1.00D-03
 ORBITAL =  1.00D-05  CIVEC   =  1.00D-05  COEFF   =  1.00D-04  PRINTCI =  5.00D-02  PUNCHCI =  9.90D+01  OPTGRAD =  3.00D-04
 OPTENERG=  1.00D-06  OPTSTEP =  3.00D-04  THRGRAD =  1.00D-10  COMPRESS=  1.00D-11  VARMIN  =  1.00D-07  VARMAX  =  1.00D-03
 THRDOUB =  0.00D+00  THRDIV  =  1.00D-05  THRRED  =  1.00D-07  THRPSP  =  1.00D+00  THRDC   =  1.00D-10  THRCS   =  1.00D-10
 THRNRM  =  1.00D-08  THREQ   =  0.00D+00  THRDE   =  1.00D+00  THRREF  =  1.00D-05  SPARFAC =  1.00D+00  THRDLP  =  1.00D-07
 THRDIA  =  1.00D-10  THRDLS  =  1.00D-07  THRGPS  =  0.00D+00  THRKEX  =  0.00D+00  THRDIS  =  2.00D-01  THRVAR  =  1.00D-10
 THRLOC  =  1.00D-06  THRGAP  =  1.00D-06  THRLOCT = -1.00D+00  THRGAPT = -1.00D+00  THRORB  =  1.00D-06  THRMLTP =  0.00D+00
 THRCPQCI=  1.00D-10  KEXTA   =  0.00D+00  THRCOARS=  0.00D+00  SYMTOL  =  1.00D-06  GRADTOL =  1.00D-06  THROVL  =  1.00D-08
 THRORTH =  1.00D-08  GRID    =  1.00D-06  GRIDMAX =  1.00D-03  DTMAX   =  0.00D+00  THROCCDE=  1.00D-01  THROCCDE=  1.00D-01



 THRESHOLDS:

 ZERO    =  1.00D-22  ONEINT  =  1.00D-22  TWOINT  =  1.00D-22  PREFAC  =  1.00D-14  LOCALI  =  1.00D-09  EORDER  =  1.00D-04
 ENERGY  =  1.00D-12  ETEST   =  0.00D+00  EDENS   =  0.00D+00  THRDEDEF=  1.00D-06  GRADIENT=  1.00D-02  STEP    =  1.00D-03
 ORBITAL =  1.00D-05  CIVEC   =  1.00D-05  COEFF   =  1.00D-04  PRINTCI =  5.00D-02  PUNCHCI =  9.90D+01  OPTGRAD =  1.00D-08
 OPTENERG=  1.00D-06  OPTSTEP =  1.00D-08  THRGRAD =  1.00D-10  COMPRESS=  1.00D-11  VARMIN  =  1.00D-07  VARMAX  =  1.00D-03
 THRDOUB =  0.00D+00  THRDIV  =  1.00D-05  THRRED  =  1.00D-07  THRPSP  =  1.00D+00  THRDC   =  1.00D-10  THRCS   =  1.00D-10
 THRNRM  =  1.00D-08  THREQ   =  0.00D+00  THRDE   =  1.00D+00  THRREF  =  1.00D-05  SPARFAC =  1.00D+00  THRDLP  =  1.00D-07
 THRDIA  =  1.00D-10  THRDLS  =  1.00D-07  THRGPS  =  0.00D+00  THRKEX  =  0.00D+00  THRDIS  =  2.00D-01  THRVAR  =  1.00D-10
 THRLOC  =  1.00D-06  THRGAP  =  1.00D-06  THRLOCT = -1.00D+00  THRGAPT = -1.00D+00  THRORB  =  1.00D-06  THRMLTP =  0.00D+00
 THRCPQCI=  1.00D-10  KEXTA   =  0.00D+00  THRCOARS=  0.00D+00  SYMTOL  =  1.00D-06  GRADTOL =  1.00D-06  THROVL  =  1.00D-08
 THRORTH =  1.00D-08  GRID    =  1.00D-06  GRIDMAX =  1.00D-03  DTMAX   =  0.00D+00  THROCCDE=  1.00D-01  THROCCDE=  1.00D-01



 Input parameters for SORTINT:

 COMPRESS =    0.000000
 C_FINAL  =    1.000000
 DEBUG    =   -1.000000
 C_SORT1  =    0.000000
 C_SEWARD =    0.000000
 THRESH   =    0.000000
 IO       =  molpro                                                          
 SPRI     =    0.000000
 SETTING GEOMTYP        =    XYZ
 ZUNIT=BOHR
 

 Variable memory set to  995000000 words,  buffer space   230000 words

 SETTING BASIS          =    AV5Z


 Recomputing integrals since basis changed


 Using spherical harmonics

 Library entry H      S aug-cc-pV5Z          selected for orbital group  1
 Library entry H      P aug-cc-pV5Z          selected for orbital group  1
 Library entry H      D aug-cc-pV5Z          selected for orbital group  1
 Library entry H      F aug-cc-pV5Z          selected for orbital group  1
 Library entry H      G aug-cc-pV5Z          selected for orbital group  1
 Library entry N      S aug-cc-pV5Z          selected for orbital group  2
 Library entry N      P aug-cc-pV5Z          selected for orbital group  2
 Library entry N      D aug-cc-pV5Z          selected for orbital group  2
 Library entry N      F aug-cc-pV5Z          selected for orbital group  2
 Library entry N      G aug-cc-pV5Z          selected for orbital group  2
 Library entry N      H aug-cc-pV5Z          selected for orbital group  2
 Library entry O      S aug-cc-pV5Z          selected for orbital group  3
 Library entry O      P aug-cc-pV5Z          selected for orbital group  3
 Library entry O      D aug-cc-pV5Z          selected for orbital group  3
 Library entry O      F aug-cc-pV5Z          selected for orbital group  3
 Library entry O      G aug-cc-pV5Z          selected for orbital group  3
 Library entry O      H aug-cc-pV5Z          selected for orbital group  3


 PROGRAM * SEWARD (Integral evaluation for generally contracted gaussian basis sets)     Author: Roland Lindh, 1990

 Geometry written to block  1 of record 700


 Point group  Cs  



 ATOMIC COORDINATES

 NR  ATOM    CHARGE       X              Y              Z

   1  H       1.00    0.000000000    1.673228094   -1.940678025
   2  N       7.00    0.000000000   -0.161836919   -1.151651718
   3  O       8.00    0.000000000    0.030376615    1.141740153

 Bond lengths in Bohr (Angstrom)

 1-2  1.997504972  2-3  2.301432666
     ( 1.057034110)     ( 1.217865720)

 Bond angles

  1-2-3  108.47547239

 NUCLEAR CHARGE:                   16
 NUMBER OF PRIMITIVE AOS:         506
 NUMBER OF SYMMETRY AOS:          371
 NUMBER OF CONTRACTIONS:          334   ( 204A'  + 130A"  )
 NUMBER OF CORE ORBITALS:           2   (   2A'  +   0A"  )
 NUMBER OF VALENCE ORBITALS:        9   (   7A'  +   2A"  )


 NUCLEAR REPULSION ENERGY   30.12740973


 Eigenvalues of metric

         1 0.116E-04 0.177E-04 0.646E-04 0.103E-03 0.108E-03 0.140E-03 0.202E-03 0.225E-03
         2 0.131E-03 0.371E-03 0.117E-02 0.166E-02 0.199E-02 0.262E-02 0.334E-02 0.400E-02


 Contracted 2-electron integrals neglected if value below      1.0D-22

      756977337. INTEGRALS WRITTEN OUT IN  184855 BLOCKS ON RECORD 1290 OF FILE 1


 NUMBER OF SORTED TWO-ELECTRON INTEGRALS:  789027325.     BUFFER LENGTH:  32768
 NUMBER OF SEGMENTS:  25  SEGMENT LENGTH:   31997130      RECORD LENGTH: 524288

 Memory used in sort:      32.55 MW

 SORT1 READ   756977337. AND WROTE   760993210. INTEGRALS IN   2189 RECORDS. CPU TIME:    27.74 SEC, REAL TIME:    35.19 SEC
 SORT2 READ   760993210. AND WROTE   789027325. INTEGRALS IN     25 RECORDS. CPU TIME:    11.62 SEC, REAL TIME:    18.36 SEC

 FILE SIZES:   FILE 1: 12137.5 MBYTE,  FILE 4:  9181.4 MBYTE,   TOTAL:  21318.9 MBYTE

 OPERATOR DM      FOR CENTER  0  COORDINATES:    0.000000    0.000000    0.000000


 **********************************************************************************************************************************
 DATASETS  * FILE   NREC   LENGTH (MB)   RECORD NAMES
              1      19     6374.22       500      610      700      900      950      970     1000      129      960     1100   
                                          VAR    BASINP    GEOM    SYMINP    ZMAT    AOBASIS   BASIS     P2S    ABASIS      S 
                                         1400     1410     1200     1210     1080     1600     1650     1300     1700   
                                           T        V       H0       H01     AOSYM     SMH    MOLCAS    ERIS     OPER   

 PROGRAMS   *        TOTAL       INT
 CPU TIMES  *       166.36    166.26
 REAL TIME  *       189.62 SEC
 DISK USED  *        21.32 GB      
 **********************************************************************************************************************************


 PROGRAM * RHF-SCF (CLOSED SHELL)       Authors: W. Meyer, H.-J. Werner


 NUMBER OF ELECTRONS:       8+    8-
 CONVERGENCE THRESHOLDS:    1.00E-10 (Density)    1.00E-13 (Energy)
 MAX. NUMBER OF ITERATIONS:      500
 INTERPOLATION TYPE:            DIIS
 INTERPOLATION STEPS:              2 (START)      1 (STEP)
 LEVEL SHIFTS:                  0.00 (CLOSED)  0.00 (OPEN) 



 Orbital guess generated from atomic densities. Full valence occupancy:    9   2

 Molecular orbital dump at record        2100.2

 Initial occupancy:   7   1

 ITERATION    DDIFF          GRAD             ENERGY        2-EL.EN.            DIPOLE MOMENTS         DIIS   ORB.
    1      0.000D+00      0.000D+00      -129.79508513    153.541267    0.00000    0.59906   -1.06278    0    start
    2      0.000D+00      0.650D-02      -129.82193045    154.748219    0.00000    0.61608   -0.20136    1    diag
    3      0.410D-02      0.508D-02      -129.84688581    154.896808    0.00000    0.56059   -0.60992    2    diag
    4      0.214D-02      0.779D-03      -129.84771627    154.603392    0.00000    0.56753   -0.54649    3    diag
    5      0.383D-03      0.253D-03      -129.84784739    154.698618    0.00000    0.57288   -0.54886    4    diag
    6      0.160D-03      0.735D-04      -129.84786848    154.682082    0.00000    0.57310   -0.54444    5    diag
    7      0.615D-04      0.369D-04      -129.84787476    154.684803    0.00000    0.57432   -0.54167    6    diag
    8      0.424D-04      0.134D-04      -129.84787554    154.684054    0.00000    0.57437   -0.54056    7    diag
    9      0.172D-04      0.264D-05      -129.84787558    154.683931    0.00000    0.57433   -0.54031    8    diag
   10      0.357D-05      0.585D-06      -129.84787558    154.683911    0.00000    0.57429   -0.54028    9    orth
   11      0.668D-06      0.116D-06      -129.84787558    154.683907    0.00000    0.57429   -0.54028    9    diag
   12      0.121D-06      0.240D-07      -129.84787558    154.683907    0.00000    0.57428   -0.54028    9    diag
   13      0.261D-07      0.646D-08      -129.84787558    154.683907    0.00000    0.57428   -0.54028    9    diag
   14      0.731D-08      0.125D-08      -129.84787558    154.683907    0.00000    0.57428   -0.54028    9    diag
   15      0.132D-08      0.353D-09      -129.84787558    154.683907    0.00000    0.57428   -0.54028    9    diag
   16      0.398D-09      0.103D-09      -129.84787558    154.683907    0.00000    0.57428   -0.54028    9    diag
   17      0.738D-10      0.260D-10      -129.84787558    154.683907    0.00000    0.57428   -0.54028    9    diag
   18      0.205D-10      0.863D-11      -129.84787558    154.683907    0.00000    0.57428   -0.54028    9    diag
   19      0.234D-10      0.201D-11      -129.84787558    154.683907    0.00000    0.57428   -0.54028    9    fixocc
   20      0.105D-10      0.488D-12      -129.84787558    154.683907    0.00000    0.57428   -0.54028    9    orth
   21      0.661D-11      0.323D-12      -129.84787558    154.683907    0.00000    0.57428   -0.54028    9    diag
   22      0.568D-11      0.293D-12      -129.84787558    154.683907    0.00000    0.57428   -0.54028    9    diag
   23      0.385D-11      0.321D-12      -129.84787558    154.683907    0.00000    0.57428   -0.54028    9    diag
   24      0.167D-11      0.260D-12      -129.84787558    154.683907    0.00000    0.57428   -0.54028    9    diag
   25      0.303D-11      0.234D-12      -129.84787558    154.683907    0.00000    0.57428   -0.54028    9    diag
   26      0.131D-11      0.276D-12      -129.84787558    154.683907    0.00000    0.57428   -0.54028    9    diag
   27      0.738D-12      0.271D-12      -129.84787558    154.683907    0.00000    0.57428   -0.54028    9    diag
   28      0.717D-12      0.255D-12      -129.84787558    154.683907    0.00000    0.57428   -0.54028    9    diag
   29      0.298D-12      0.245D-12      -129.84787558    154.683907    0.00000    0.57428   -0.54028    9    diag
   30      0.812D-12      0.275D-12      -129.84787558    154.683907    0.00000    0.57428   -0.54028    9    orth
   31      0.987D-12      0.249D-12      -129.84787558    154.683907    0.00000    0.57428   -0.54028    9    diag
   32      0.175D-11      0.188D-12      -129.84787558    154.683907    0.00000    0.57428   -0.54028    0    orth

 Final occupancy:   7   1

 !RHF STATE 1.1 Energy               -129.847875580264
 Nuclear energy                        30.12740973
 One-electron energy                 -237.31723891
 Two-electron energy                   77.34195360
 Virial quotient                       -1.00205792
 !RHF STATE 1.1 Dipole moment           0.00000000     0.57428377    -0.54027913
 Dipole moment /Debye                   0.00000000     1.45958815    -1.37316263

 Orbital energies:

         1.1          2.1          3.1          4.1          5.1          6.1          7.1          8.1          9.1
    -20.654041   -15.714491    -1.521069    -0.995608    -0.743621    -0.663327    -0.433086     0.022717     0.065531

         1.2          2.2          3.2
     -0.591423     0.058094     0.090819

 HOMO      7.1    -0.433086 =     -11.7849eV
 LUMO      8.1     0.022717 =       0.6182eV
 LUMO-HOMO         0.455803 =      12.4030eV


 **********************************************************************************************************************************
 DATASETS  * FILE   NREC   LENGTH (MB)   RECORD NAMES
              1      19     6374.22       500      610      700      900      950      970     1000      129      960     1100   
                                          VAR    BASINP    GEOM    SYMINP    ZMAT    AOBASIS   BASIS     P2S    ABASIS      S 
                                         1400     1410     1200     1210     1080     1600     1650     1300     1700   
                                           T        V       H0       H01     AOSYM     SMH    MOLCAS    ERIS     OPER   

              2       4        4.02       700     1000      520     2100   
                                         GEOM     BASIS   MCVARS     RHF  

 PROGRAMS   *        TOTAL        HF       INT
 CPU TIMES  *       325.19    158.83    166.26
 REAL TIME  *       394.18 SEC
 DISK USED  *        21.32 GB      
 **********************************************************************************************************************************


 PROGRAM * CCSD (Closed-shell coupled cluster)     Authors: C. Hampel, H.-J. Werner, 1991, M. Deegan, P.J. Knowles, 1992


 Convergence thresholds:  THRVAR = 1.00D-08  THRDEN = 1.00D-12

 CCSD(T)     terms to be evaluated (factor= 1.000)


 Number of core orbitals:           2 (   2   0 )
 Number of closed-shell orbitals:   6 (   5   1 )
 Number of external orbitals:     326 ( 197 129 )

 Molecular orbitals read from record     2100.2  Type=RHF/CANONICAL (state 1.1)

 Number of N-1 electron functions:               6
 Number of N-2 electron functions:              21
 Number of singly external CSFs:              1114
 Number of doubly external CSFs:            975958
 Total number of CSFs:                      977073

 Length of J-op  integral file:               0.00 MB
 Length of K-op  integral file:               4.07 MB
 Length of 3-ext integral record:             0.00 MB

 Memory could be reduced to 151.33 Mwords without degradation in triples

 Integral transformation finished. Total CPU:  17.62 sec, npass=  1  Memory used:  41.21 MW

 Reference energy:                   -129.84787558

 MP2 singlet pair energy:              -0.31229060
 MP2 triplet pair energy:              -0.17276213
 MP2 correlation energy:               -0.48505273
 MP2 total energy:                   -130.33292831

 SCS-MP2 correlation energy:           -0.48224516   (PS=  1.200000  PT=  0.333333)
 SCS-MP2 total energy:               -130.33012074

 ITER.      SQ.NORM     CORR.ENERGY   TOTAL ENERGY   ENERGY CHANGE        DEN1      VAR(S)    VAR(P)  DIIS     TIME  TIME/IT
   1      1.12182258    -0.48163045  -130.32950603     0.00342228     0.02058348  0.33D-02  0.33D-02  1  1    31.77    15.47
   2      1.13274200    -0.48142098  -130.32929656     0.00020947    -0.01297463  0.11D-03  0.50D-03  2  2    46.08    15.75
   3      1.13911573    -0.48182137  -130.32969695    -0.00040039    -0.00306909  0.52D-04  0.59D-04  3  3    60.45    15.84
   4      1.14203705    -0.48181901  -130.32969459     0.00000235    -0.00100434  0.50D-05  0.11D-04  4  4    74.80    15.88
   5      1.14325015    -0.48185032  -130.32972590    -0.00003131    -0.00026807  0.12D-05  0.17D-05  5  5    89.12    15.92
   6      1.14362831    -0.48183763  -130.32971321     0.00001269    -0.00005371  0.13D-06  0.41D-06  6  6   103.52    15.95
   7      1.14370628    -0.48183724  -130.32971282     0.00000040     0.00000379  0.18D-07  0.95D-07  6  1   118.00    15.97
   8      1.14373250    -0.48183715  -130.32971273     0.00000009    -0.00000329  0.34D-08  0.20D-07  6  2   132.43    15.97
   9      1.14374135    -0.48183653  -130.32971211     0.00000062    -0.00000011  0.23D-08  0.23D-08  6  3   146.65    15.96
  10      1.14373646    -0.48183731  -130.32971289    -0.00000078     0.00000167  0.38D-09  0.38D-09  6  5   160.79    15.93
  11      1.14373866    -0.48183729  -130.32971287     0.00000003    -0.00000042  0.11D-09  0.32D-10  6  4   174.87    15.93
  12      1.14373820    -0.48183736  -130.32971294    -0.00000007     0.00000005  0.20D-10  0.72D-11  6  6   189.39    15.94
  13      1.14373798    -0.48183736  -130.32971295    -0.00000000    -0.00000004  0.34D-11  0.10D-11  6  1   203.59    15.93
  14      1.14373768    -0.48183738  -130.32971296    -0.00000001     0.00000004  0.46D-12  0.19D-12  6  3   217.96    15.92
  15      1.14373760    -0.48183738  -130.32971296    -0.00000000     0.00000001  0.13D-12  0.24D-13  6  2   232.17    15.91
  16      1.14373758    -0.48183738  -130.32971296     0.00000000     0.00000000  0.36D-13  0.95D-14  6  4   246.40    15.91
  17      1.14373758    -0.48183738  -130.32971296    -0.00000000    -0.00000000  0.21D-14  0.12D-14  6  5   260.59    15.90
  18      1.14373759    -0.48183738  -130.32971296     0.00000000    -0.00000000  0.30D-15  0.31D-15  6  6   274.94    15.89
  19      1.14373760    -0.48183738  -130.32971296     0.00000000    -0.00000000  0.54D-16  0.42D-16  6  1   289.11    15.89
  20      1.14373760    -0.48183738  -130.32971296     0.00000000    -0.00000000  0.12D-16  0.65D-17  6  3   303.30    15.88
  21      1.14373760    -0.48183738  -130.32971296    -0.00000000     0.00000000  0.22D-17  0.12D-17  6  2   317.63    15.88
  22      1.14373760    -0.48183738  -130.32971296    -0.00000000     0.00000000  0.36D-18  0.18D-18  6  4   331.89    15.87
  23      1.14373760    -0.48183738  -130.32971296    -0.00000000     0.00000000  0.73D-19  0.44D-19  6  5   345.99    15.87
  24      1.14373760    -0.48183738  -130.32971296    -0.00000000     0.00000000  0.27D-19  0.17D-19  6  6   360.17    15.87
  25      1.14373760    -0.48183738  -130.32971296    -0.00000000     0.00000000  0.13D-19  0.70D-20  6  1   374.53    15.88

 Norm of t1 vector:      0.07819851      S-energy:    -0.00000000      T1 diagnostic:  0.01596220
                                                                       D1 diagnostic:  0.04355147

 Doubles amplitudes (print threshold =  0.500E-01):

         I         J         SYM. A    SYM. B    A         B      T(IJ, AB)

         6         6         2         2         1         1     -0.08669942
         6         6         2         2         1         2      0.05275073
         6         6         2         2         2         1      0.05275073


 Total CPU time for triples:    140.01 sec


 RESULTS
 =======

  Reference energy                   -129.847875580265
  CCSD singlet pair energy             -0.334473240765
  CCSD triplet pair energy             -0.147364139889
  CCSD correlation energy              -0.481837380657

  Triples (T) contribution             -0.023275765184
  Total correlation energy             -0.505113145842

  CCSD total energy                  -130.329712960922
  CCSD[T] energy                     -130.354118475687
  CCSD-T energy                      -130.352596737920
 !CCSD(T) total energy               -130.352988726106

 Timing summary (sec):

 STEP                 CPU(USER)    SYS     CPU(TOT)    WALL
 Transformation         17.69      2.09     19.78     19.80
 CCSD iterations       356.85     39.80    396.65    396.94
 Triples               140.01      2.54    142.55    142.56

 Program statistics:

 Available memory in ccsd:               994999756
 Min. memory needed in ccsd:               3348832
 Max. memory used in ccsd:                 4143652
 Max. memory used in cckext:               8340089 (25 integral passes)



 **********************************************************************************************************************************
 DATASETS  * FILE   NREC   LENGTH (MB)   RECORD NAMES
              1      20     6809.41       500      610      700      900      950      970     1000      129      960     1100   
                                          VAR    BASINP    GEOM    SYMINP    ZMAT    AOBASIS   BASIS     P2S    ABASIS      S 
                                         1400     1410     1200     1210     1080     1600     1650     1300     1700     1380   
                                           T        V       H0       H01     AOSYM     SMH    MOLCAS    ERIS     OPER     JKOP   

              2       4        4.02       700     1000      520     2100   
                                         GEOM     BASIS   MCVARS     RHF  

 PROGRAMS   *        TOTAL   CCSD(T)        HF       INT
 CPU TIMES  *       839.77    514.58    158.83    166.26
 REAL TIME  *       953.53 SEC
 DISK USED  *        21.32 GB      
 **********************************************************************************************************************************

 CCSD(T)/aug-cc-pV5Z energy=   -130.352988726106

        CCSD(T)         HF-SCF  
   -130.35298873   -129.84787558
 **********************************************************************************************************************************
 Molpro calculation terminated
 Variable memory released
