
 Primary working directories    : /tmp/r2666/281862.maple
 Secondary working directories  : /tmp/r2666/281862.maple
 Wavefunction directory         : /ddn/home4/r2666/wfu/
 Main file repository           : /tmp/r2666/281862.maple/

 SHA1      : d5ffa45e93fdbca01ffc919aa182cfdae0147319
 NAME      : 2015.1.35
 ARCHNAME  : linux/x86_64
 FC        : /opt/intel/composer_xe_2015.1.133/bin/intel64/ifort
 BLASLIB   : -Wl,-_start-group /opt/intel/mkl/lib/intel64/libmkl_intel_ilp64.a /opt/intel/mkl/lib/intel64/libmkl_intel_thread.a /opt/intel/mkl/lib/intel64/libmkl_core.a -Wl,-_end-group
 id        : olemiss

 Nodes     nprocs
 cn045        1

 Using customized tuning parameters: mindgm=1; mindgv=20; mindgc=4; mindgr=1; noblas=0; minvec=7
 default implementation of scratch files=df  

 ***,hno CCSD(T)/TZ-F12 QFF
 memory, 995, m;
 gthresh,energy=1.d-12,zero=1.d-22,oneint=1.d-22,twoint=1.d-22;
 gthresh,optgrad=1.d-8,optstep=1.d-8;
 nocompress;
 geomtyp=xyz
 bohr
 geometry={
 3
         17        17
 H        0.0000000000        1.6583251233       -1.9206351166
 N        0.0000000000       -0.1566276936       -1.1567412998
 O        0.0000000000        0.0400703603        1.1267868254
 }
 
 basis=av5z
   {hf,maxit=500;accu,20;}
 {ccsd(t),nocheck,maxit=250;orbital,IGNORE_ERROR;}

 Variables initialized (889), CPU time= 0.00 sec
 Commands  initialized (702), CPU time= 0.01 sec, 572 directives.
 Default parameters read. Elapsed time= 0.58 sec

 Checking input...
 Passed
1


                                         ***  PROGRAM SYSTEM MOLPRO  ***
                                       Copyright, TTI GmbH Stuttgart, 2015
                                    Version 2015.1 linked Jul  9 2018 13:16:40


 **********************************************************************************************************************************
 LABEL *   hno CCSD(T)/TZ-F12 QFF                                                        
  64 bit serial version                                                                  DATE: 04-Mar-20          TIME: 13:19:58  
 **********************************************************************************************************************************

 SHA1:             d5ffa45e93fdbca01ffc919aa182cfdae0147319
 **********************************************************************************************************************************

 THRESHOLDS:

 ZERO    =  1.00D-22  ONEINT  =  1.00D-22  TWOINT  =  1.00D-22  PREFAC  =  1.00D-14  LOCALI  =  1.00D-09  EORDER  =  1.00D-04
 ENERGY  =  1.00D-12  ETEST   =  0.00D+00  EDENS   =  0.00D+00  THRDEDEF=  1.00D-06  GRADIENT=  1.00D-02  STEP    =  1.00D-03
 ORBITAL =  1.00D-05  CIVEC   =  1.00D-05  COEFF   =  1.00D-04  PRINTCI =  5.00D-02  PUNCHCI =  9.90D+01  OPTGRAD =  3.00D-04
 OPTENERG=  1.00D-06  OPTSTEP =  3.00D-04  THRGRAD =  1.00D-10  COMPRESS=  1.00D-11  VARMIN  =  1.00D-07  VARMAX  =  1.00D-03
 THRDOUB =  0.00D+00  THRDIV  =  1.00D-05  THRRED  =  1.00D-07  THRPSP  =  1.00D+00  THRDC   =  1.00D-10  THRCS   =  1.00D-10
 THRNRM  =  1.00D-08  THREQ   =  0.00D+00  THRDE   =  1.00D+00  THRREF  =  1.00D-05  SPARFAC =  1.00D+00  THRDLP  =  1.00D-07
 THRDIA  =  1.00D-10  THRDLS  =  1.00D-07  THRGPS  =  0.00D+00  THRKEX  =  0.00D+00  THRDIS  =  2.00D-01  THRVAR  =  1.00D-10
 THRLOC  =  1.00D-06  THRGAP  =  1.00D-06  THRLOCT = -1.00D+00  THRGAPT = -1.00D+00  THRORB  =  1.00D-06  THRMLTP =  0.00D+00
 THRCPQCI=  1.00D-10  KEXTA   =  0.00D+00  THRCOARS=  0.00D+00  SYMTOL  =  1.00D-06  GRADTOL =  1.00D-06  THROVL  =  1.00D-08
 THRORTH =  1.00D-08  GRID    =  1.00D-06  GRIDMAX =  1.00D-03  DTMAX   =  0.00D+00  THROCCDE=  1.00D-01  THROCCDE=  1.00D-01



 THRESHOLDS:

 ZERO    =  1.00D-22  ONEINT  =  1.00D-22  TWOINT  =  1.00D-22  PREFAC  =  1.00D-14  LOCALI  =  1.00D-09  EORDER  =  1.00D-04
 ENERGY  =  1.00D-12  ETEST   =  0.00D+00  EDENS   =  0.00D+00  THRDEDEF=  1.00D-06  GRADIENT=  1.00D-02  STEP    =  1.00D-03
 ORBITAL =  1.00D-05  CIVEC   =  1.00D-05  COEFF   =  1.00D-04  PRINTCI =  5.00D-02  PUNCHCI =  9.90D+01  OPTGRAD =  1.00D-08
 OPTENERG=  1.00D-06  OPTSTEP =  1.00D-08  THRGRAD =  1.00D-10  COMPRESS=  1.00D-11  VARMIN  =  1.00D-07  VARMAX  =  1.00D-03
 THRDOUB =  0.00D+00  THRDIV  =  1.00D-05  THRRED  =  1.00D-07  THRPSP  =  1.00D+00  THRDC   =  1.00D-10  THRCS   =  1.00D-10
 THRNRM  =  1.00D-08  THREQ   =  0.00D+00  THRDE   =  1.00D+00  THRREF  =  1.00D-05  SPARFAC =  1.00D+00  THRDLP  =  1.00D-07
 THRDIA  =  1.00D-10  THRDLS  =  1.00D-07  THRGPS  =  0.00D+00  THRKEX  =  0.00D+00  THRDIS  =  2.00D-01  THRVAR  =  1.00D-10
 THRLOC  =  1.00D-06  THRGAP  =  1.00D-06  THRLOCT = -1.00D+00  THRGAPT = -1.00D+00  THRORB  =  1.00D-06  THRMLTP =  0.00D+00
 THRCPQCI=  1.00D-10  KEXTA   =  0.00D+00  THRCOARS=  0.00D+00  SYMTOL  =  1.00D-06  GRADTOL =  1.00D-06  THROVL  =  1.00D-08
 THRORTH =  1.00D-08  GRID    =  1.00D-06  GRIDMAX =  1.00D-03  DTMAX   =  0.00D+00  THROCCDE=  1.00D-01  THROCCDE=  1.00D-01



 Input parameters for SORTINT:

 COMPRESS =    0.000000
 C_FINAL  =    1.000000
 DEBUG    =   -1.000000
 C_SORT1  =    0.000000
 C_SEWARD =    0.000000
 THRESH   =    0.000000
 IO       =  molpro                                                          
 SPRI     =    0.000000
 SETTING GEOMTYP        =    XYZ
 ZUNIT=BOHR
 

 Variable memory set to  995000000 words,  buffer space   230000 words

 SETTING BASIS          =    AV5Z


 Recomputing integrals since basis changed


 Using spherical harmonics

 Library entry H      S aug-cc-pV5Z          selected for orbital group  1
 Library entry H      P aug-cc-pV5Z          selected for orbital group  1
 Library entry H      D aug-cc-pV5Z          selected for orbital group  1
 Library entry H      F aug-cc-pV5Z          selected for orbital group  1
 Library entry H      G aug-cc-pV5Z          selected for orbital group  1
 Library entry N      S aug-cc-pV5Z          selected for orbital group  2
 Library entry N      P aug-cc-pV5Z          selected for orbital group  2
 Library entry N      D aug-cc-pV5Z          selected for orbital group  2
 Library entry N      F aug-cc-pV5Z          selected for orbital group  2
 Library entry N      G aug-cc-pV5Z          selected for orbital group  2
 Library entry N      H aug-cc-pV5Z          selected for orbital group  2
 Library entry O      S aug-cc-pV5Z          selected for orbital group  3
 Library entry O      P aug-cc-pV5Z          selected for orbital group  3
 Library entry O      D aug-cc-pV5Z          selected for orbital group  3
 Library entry O      F aug-cc-pV5Z          selected for orbital group  3
 Library entry O      G aug-cc-pV5Z          selected for orbital group  3
 Library entry O      H aug-cc-pV5Z          selected for orbital group  3


 PROGRAM * SEWARD (Integral evaluation for generally contracted gaussian basis sets)     Author: Roland Lindh, 1990

 Geometry written to block  1 of record 700


 Point group  Cs  



 ATOMIC COORDINATES

 NR  ATOM    CHARGE       X              Y              Z

   1  H       1.00    0.000000000    1.658325123   -1.920635117
   2  N       7.00    0.000000000   -0.156627694   -1.156741300
   3  O       8.00    0.000000000    0.040070360    1.126786825

 Bond lengths in Bohr (Angstrom)

 1-2  1.969159082  2-3  2.291984036
     ( 1.042034111)     ( 1.212865720)

 Bond angles

  1-2-3  107.90251459

 NUCLEAR CHARGE:                   16
 NUMBER OF PRIMITIVE AOS:         506
 NUMBER OF SYMMETRY AOS:          371
 NUMBER OF CONTRACTIONS:          334   ( 204A'  + 130A"  )
 NUMBER OF CORE ORBITALS:           2   (   2A'  +   0A"  )
 NUMBER OF VALENCE ORBITALS:        9   (   7A'  +   2A"  )


 NUCLEAR REPULSION ENERGY   30.30634244


 Eigenvalues of metric

         1 0.111E-04 0.173E-04 0.627E-04 0.100E-03 0.106E-03 0.137E-03 0.199E-03 0.223E-03
         2 0.129E-03 0.351E-03 0.113E-02 0.160E-02 0.186E-02 0.255E-02 0.318E-02 0.383E-02


 Contracted 2-electron integrals neglected if value below      1.0D-22

      756977510. INTEGRALS WRITTEN OUT IN  184855 BLOCKS ON RECORD 1290 OF FILE 1


 NUMBER OF SORTED TWO-ELECTRON INTEGRALS:  789027325.     BUFFER LENGTH:  32768
 NUMBER OF SEGMENTS:  25  SEGMENT LENGTH:   31997130      RECORD LENGTH: 524288

 Memory used in sort:      32.55 MW

 SORT1 READ   756977510. AND WROTE   760993399. INTEGRALS IN   2189 RECORDS. CPU TIME:    24.67 SEC, REAL TIME:    32.32 SEC
 SORT2 READ   760993399. AND WROTE   789027325. INTEGRALS IN     25 RECORDS. CPU TIME:    10.38 SEC, REAL TIME:    15.52 SEC

 FILE SIZES:   FILE 1: 12137.5 MBYTE,  FILE 4:  9181.4 MBYTE,   TOTAL:  21318.9 MBYTE

 OPERATOR DM      FOR CENTER  0  COORDINATES:    0.000000    0.000000    0.000000


 **********************************************************************************************************************************
 DATASETS  * FILE   NREC   LENGTH (MB)   RECORD NAMES
              1      19     6374.22       500      610      700      900      950      970     1000      129      960     1100   
                                          VAR    BASINP    GEOM    SYMINP    ZMAT    AOBASIS   BASIS     P2S    ABASIS      S 
                                         1400     1410     1200     1210     1080     1600     1650     1300     1700   
                                           T        V       H0       H01     AOSYM     SMH    MOLCAS    ERIS     OPER   

 PROGRAMS   *        TOTAL       INT
 CPU TIMES  *       150.09    149.99
 REAL TIME  *       174.15 SEC
 DISK USED  *        21.32 GB      
 **********************************************************************************************************************************


 PROGRAM * RHF-SCF (CLOSED SHELL)       Authors: W. Meyer, H.-J. Werner


 NUMBER OF ELECTRONS:       8+    8-
 CONVERGENCE THRESHOLDS:    1.00E-10 (Density)    1.00E-13 (Energy)
 MAX. NUMBER OF ITERATIONS:      500
 INTERPOLATION TYPE:            DIIS
 INTERPOLATION STEPS:              2 (START)      1 (STEP)
 LEVEL SHIFTS:                  0.00 (CLOSED)  0.00 (OPEN) 



 Orbital guess generated from atomic densities. Full valence occupancy:    9   2

 Molecular orbital dump at record        2100.2

 Initial occupancy:   7   1

 ITERATION    DDIFF          GRAD             ENERGY        2-EL.EN.            DIPOLE MOMENTS         DIIS   ORB.
    1      0.000D+00      0.000D+00      -129.79783989    153.874382    0.00000    0.60107   -1.04266    0    start
    2      0.000D+00      0.642D-02      -129.82492131    155.072640    0.00000    0.61433   -0.20802    1    diag
    3      0.403D-02      0.493D-02      -129.84831165    155.214151    0.00000    0.56093   -0.60163    2    diag
    4      0.208D-02      0.774D-03      -129.84912706    154.926969    0.00000    0.56839   -0.53915    3    diag
    5      0.380D-03      0.250D-03      -129.84925349    155.020301    0.00000    0.57348   -0.54148    4    diag
    6      0.157D-03      0.721D-04      -129.84927364    155.004045    0.00000    0.57372   -0.53719    5    diag
    7      0.600D-04      0.361D-04      -129.84927961    155.006740    0.00000    0.57490   -0.53448    6    diag
    8      0.414D-04      0.129D-04      -129.84928032    155.006019    0.00000    0.57494   -0.53341    7    diag
    9      0.164D-04      0.250D-05      -129.84928036    155.005907    0.00000    0.57491   -0.53319    8    diag
   10      0.333D-05      0.556D-06      -129.84928036    155.005890    0.00000    0.57487   -0.53316    9    orth
   11      0.629D-06      0.111D-06      -129.84928036    155.005887    0.00000    0.57487   -0.53316    9    diag
   12      0.115D-06      0.227D-07      -129.84928036    155.005887    0.00000    0.57486   -0.53316    9    diag
   13      0.248D-07      0.601D-08      -129.84928036    155.005887    0.00000    0.57486   -0.53315    9    diag
   14      0.677D-08      0.115D-08      -129.84928036    155.005887    0.00000    0.57486   -0.53315    9    diag
   15      0.122D-08      0.326D-09      -129.84928036    155.005887    0.00000    0.57486   -0.53315    9    diag
   16      0.370D-09      0.966D-10      -129.84928036    155.005887    0.00000    0.57486   -0.53315    9    diag
   17      0.796D-10      0.242D-10      -129.84928036    155.005887    0.00000    0.57486   -0.53315    9    diag
   18      0.242D-10      0.798D-11      -129.84928036    155.005887    0.00000    0.57486   -0.53315    9    diag
   19      0.128D-10      0.188D-11      -129.84928036    155.005887    0.00000    0.57486   -0.53315    9    fixocc
   20      0.103D-10      0.575D-12      -129.84928036    155.005887    0.00000    0.57486   -0.53315    9    orth
   21      0.109D-10      0.313D-12      -129.84928036    155.005887    0.00000    0.57486   -0.53315    9    diag
   22      0.662D-11      0.309D-12      -129.84928036    155.005887    0.00000    0.57486   -0.53315    9    diag
   23      0.536D-11      0.255D-12      -129.84928036    155.005887    0.00000    0.57486   -0.53315    9    diag
   24      0.331D-11      0.385D-12      -129.84928036    155.005887    0.00000    0.57486   -0.53315    9    diag
   25      0.291D-11      0.197D-12      -129.84928036    155.005887    0.00000    0.57486   -0.53315    9    diag
   26      0.142D-11      0.241D-12      -129.84928036    155.005887    0.00000    0.57486   -0.53315    9    diag
   27      0.463D-12      0.231D-12      -129.84928036    155.005887    0.00000    0.57486   -0.53315    9    diag
   28      0.105D-11      0.319D-12      -129.84928036    155.005887    0.00000    0.57486   -0.53315    9    diag
   29      0.314D-12      0.245D-12      -129.84928036    155.005887    0.00000    0.57486   -0.53315    9    diag
   30      0.101D-12      0.265D-12      -129.84928036    155.005887    0.00000    0.57486   -0.53315    9    orth
   31      0.129D-11      0.298D-12      -129.84928036    155.005887    0.00000    0.57486   -0.53315    9    diag
   32      0.163D-11      0.215D-12      -129.84928036    155.005887    0.00000    0.57486   -0.53315    9    diag
   33      0.962D-12      0.212D-12      -129.84928036    155.005887    0.00000    0.57486   -0.53315    9    diag
   34      0.756D-12      0.203D-12      -129.84928036    155.005887    0.00000    0.57486   -0.53315    9    diag
   35      0.177D-11      0.331D-12      -129.84928036    155.005887    0.00000    0.57486   -0.53315    0    orth

 Final occupancy:   7   1

 !RHF STATE 1.1 Energy               -129.849280356595
 Nuclear energy                        30.30634244
 One-electron energy                 -237.65856610
 Two-electron energy                   77.50294331
 Virial quotient                       -1.00171726
 !RHF STATE 1.1 Dipole moment           0.00000000     0.57486370    -0.53315467
 Dipole moment /Debye                   0.00000000     1.46106208    -1.35505525

 Orbital energies:

         1.1          2.1          3.1          4.1          5.1          6.1          7.1          8.1          9.1
    -20.653159   -15.711720    -1.525600    -0.997904    -0.746811    -0.664660    -0.432854     0.022823     0.065536

         1.2          2.2          3.2
     -0.593633     0.059202     0.091088

 HOMO      7.1    -0.432854 =     -11.7786eV
 LUMO      8.1     0.022823 =       0.6210eV
 LUMO-HOMO         0.455677 =      12.3996eV


 **********************************************************************************************************************************
 DATASETS  * FILE   NREC   LENGTH (MB)   RECORD NAMES
              1      19     6374.22       500      610      700      900      950      970     1000      129      960     1100   
                                          VAR    BASINP    GEOM    SYMINP    ZMAT    AOBASIS   BASIS     P2S    ABASIS      S 
                                         1400     1410     1200     1210     1080     1600     1650     1300     1700   
                                           T        V       H0       H01     AOSYM     SMH    MOLCAS    ERIS     OPER   

              2       4        4.02       700     1000      520     2100   
                                         GEOM     BASIS   MCVARS     RHF  

 PROGRAMS   *        TOTAL        HF       INT
 CPU TIMES  *       302.75    152.66    149.99
 REAL TIME  *       375.99 SEC
 DISK USED  *        21.32 GB      
 **********************************************************************************************************************************


 PROGRAM * CCSD (Closed-shell coupled cluster)     Authors: C. Hampel, H.-J. Werner, 1991, M. Deegan, P.J. Knowles, 1992


 Convergence thresholds:  THRVAR = 1.00D-08  THRDEN = 1.00D-12

 CCSD(T)     terms to be evaluated (factor= 1.000)


 Number of core orbitals:           2 (   2   0 )
 Number of closed-shell orbitals:   6 (   5   1 )
 Number of external orbitals:     326 ( 197 129 )

 Molecular orbitals read from record     2100.2  Type=RHF/CANONICAL (state 1.1)

 Number of N-1 electron functions:               6
 Number of N-2 electron functions:              21
 Number of singly external CSFs:              1114
 Number of doubly external CSFs:            975958
 Total number of CSFs:                      977073

 Length of J-op  integral file:               0.00 MB
 Length of K-op  integral file:               4.07 MB
 Length of 3-ext integral record:             0.00 MB

 Memory could be reduced to 151.33 Mwords without degradation in triples

 Integral transformation finished. Total CPU:  14.79 sec, npass=  1  Memory used:  41.21 MW

 Reference energy:                   -129.84928036

 MP2 singlet pair energy:              -0.31144955
 MP2 triplet pair energy:              -0.17221195
 MP2 correlation energy:               -0.48366150
 MP2 total energy:                   -130.33294186

 SCS-MP2 correlation energy:           -0.48089356   (PS=  1.200000  PT=  0.333333)
 SCS-MP2 total energy:               -130.33017392

 ITER.      SQ.NORM     CORR.ENERGY   TOTAL ENERGY   ENERGY CHANGE        DEN1      VAR(S)    VAR(P)  DIIS     TIME  TIME/IT
   1      1.12076979    -0.48048703  -130.32976739     0.00317447     0.01996250  0.32D-02  0.32D-02  1  1    26.28    12.80
   2      1.13145767    -0.48033755  -130.32961790     0.00014949    -0.01274921  0.11D-03  0.49D-03  2  2    37.95    13.02
   3      1.13764446    -0.48071939  -130.32999975    -0.00038184    -0.00300977  0.48D-04  0.57D-04  3  3    49.63    13.10
   4      1.14047004    -0.48071913  -130.32999948     0.00000026    -0.00097571  0.45D-05  0.10D-04  4  4    61.35    13.14
   5      1.14161503    -0.48074852  -130.33002888    -0.00002940    -0.00025380  0.11D-05  0.17D-05  5  5    73.09    13.16
   6      1.14197413    -0.48073652  -130.33001688     0.00001200    -0.00005109  0.11D-06  0.41D-06  6  6    84.94    13.18
   7      1.14204804    -0.48073636  -130.33001672     0.00000016     0.00000384  0.15D-07  0.94D-07  6  1    96.69    13.20
   8      1.14207286    -0.48073636  -130.33001672     0.00000000    -0.00000306  0.34D-08  0.19D-07  6  2   108.40    13.20
   9      1.14207769    -0.48073599  -130.33001635     0.00000037     0.00000128  0.25D-08  0.23D-08  6  4   120.13    13.21
  10      1.14208025    -0.48073632  -130.33001667    -0.00000033    -0.00000082  0.51D-09  0.27D-09  6  3   131.90    13.22
  11      1.14208006    -0.48073641  -130.33001676    -0.00000009    -0.00000011  0.15D-09  0.39D-10  6  5   143.62    13.22
  12      1.14207912    -0.48073655  -130.33001690    -0.00000014     0.00000038  0.20D-10  0.11D-10  6  6   155.23    13.23
  13      1.14207826    -0.48073659  -130.33001695    -0.00000005     0.00000021  0.55D-11  0.26D-11  6  1   166.94    13.23
  14      1.14207757    -0.48073662  -130.33001698    -0.00000003     0.00000016  0.36D-12  0.49D-12  6  4   178.61    13.23
  15      1.14207736    -0.48073663  -130.33001699    -0.00000001     0.00000004  0.78D-13  0.43D-13  6  2   190.37    13.23
  16      1.14207731    -0.48073663  -130.33001699    -0.00000000     0.00000001  0.22D-13  0.74D-14  6  3   202.10    13.24
  17      1.14207728    -0.48073663  -130.33001699    -0.00000000     0.00000001  0.44D-14  0.11D-14  6  5   213.82    13.24
  18      1.14207728    -0.48073663  -130.33001699    -0.00000000     0.00000000  0.92D-15  0.27D-15  6  6   225.48    13.24
  19      1.14207728    -0.48073663  -130.33001699    -0.00000000     0.00000000  0.12D-15  0.54D-16  6  1   237.19    13.24
  20      1.14207728    -0.48073663  -130.33001699     0.00000000    -0.00000000  0.13D-16  0.83D-17  6  4   248.83    13.24
  21      1.14207728    -0.48073663  -130.33001699     0.00000000    -0.00000000  0.94D-18  0.13D-17  6  3   260.53    13.24
  22      1.14207728    -0.48073663  -130.33001699     0.00000000    -0.00000000  0.25D-18  0.30D-18  6  2   272.32    13.24
  23      1.14207728    -0.48073663  -130.33001699     0.00000000    -0.00000000  0.65D-19  0.13D-18  6  5   284.01    13.25
  24      1.14207728    -0.48073663  -130.33001699     0.00000000     0.00000000  0.16D-19  0.57D-19  6  6   295.69    13.25
  25      1.14207728    -0.48073663  -130.33001699    -0.00000000     0.00000000  0.56D-20  0.31D-19  6  1   307.55    13.25

 Norm of t1 vector:      0.07659417      S-energy:     0.00000000      T1 diagnostic:  0.01563472
                                                                       D1 diagnostic:  0.04279500

 Doubles amplitudes (print threshold =  0.500E-01):

         I         J         SYM. A    SYM. B    A         B      T(IJ, AB)

         6         6         2         2         1         1     -0.08294963
         6         6         2         2         1         2      0.05303405
         6         6         2         2         2         1      0.05303405


 Total CPU time for triples:    116.72 sec


 RESULTS
 =======

  Reference energy                   -129.849280356595
  CCSD singlet pair energy             -0.333525858600
  CCSD triplet pair energy             -0.147210774476
  CCSD correlation energy              -0.480736633074

  Triples (T) contribution             -0.023004803298
  Total correlation energy             -0.503741436372

  CCSD total energy                  -130.330016989669
  CCSD[T] energy                     -130.354110518345
  CCSD-T energy                      -130.352641229037
 !CCSD(T) total energy               -130.353021792966

 Timing summary (sec):

 STEP                 CPU(USER)    SYS     CPU(TOT)    WALL
 Transformation         14.86      2.17     17.03     17.04
 CCSD iterations       292.70     38.63    331.33    331.38
 Triples               116.72      2.50    119.22    119.22

 Program statistics:

 Available memory in ccsd:               994999756
 Min. memory needed in ccsd:               3348832
 Max. memory used in ccsd:                 4143652
 Max. memory used in cckext:               8340089 (25 integral passes)



 **********************************************************************************************************************************
 DATASETS  * FILE   NREC   LENGTH (MB)   RECORD NAMES
              1      20     6809.41       500      610      700      900      950      970     1000      129      960     1100   
                                          VAR    BASINP    GEOM    SYMINP    ZMAT    AOBASIS   BASIS     P2S    ABASIS      S 
                                         1400     1410     1200     1210     1080     1600     1650     1300     1700     1380   
                                           T        V       H0       H01     AOSYM     SMH    MOLCAS    ERIS     OPER     JKOP   

              2       4        4.02       700     1000      520     2100   
                                         GEOM     BASIS   MCVARS     RHF  

 PROGRAMS   *        TOTAL   CCSD(T)        HF       INT
 CPU TIMES  *       727.05    424.30    152.66    149.99
 REAL TIME  *       843.68 SEC
 DISK USED  *        21.32 GB      
 **********************************************************************************************************************************

 CCSD(T)/aug-cc-pV5Z energy=   -130.353021792966

        CCSD(T)         HF-SCF  
   -130.35302179   -129.84928036
 **********************************************************************************************************************************
 Molpro calculation terminated
 Variable memory released
