
 Primary working directories    : /tmp/r2666/281884.maple
 Secondary working directories  : /tmp/r2666/281884.maple
 Wavefunction directory         : /ddn/home4/r2666/wfu/
 Main file repository           : /tmp/r2666/281884.maple/

 SHA1      : d5ffa45e93fdbca01ffc919aa182cfdae0147319
 NAME      : 2015.1.35
 ARCHNAME  : linux/x86_64
 FC        : /opt/intel/composer_xe_2015.1.133/bin/intel64/ifort
 BLASLIB   : -Wl,-_start-group /opt/intel/mkl/lib/intel64/libmkl_intel_ilp64.a /opt/intel/mkl/lib/intel64/libmkl_intel_thread.a /opt/intel/mkl/lib/intel64/libmkl_core.a -Wl,-_end-group
 id        : olemiss

 Nodes     nprocs
 cn089        1

 Using customized tuning parameters: mindgm=1; mindgv=20; mindgc=4; mindgr=1; noblas=0; minvec=7
 default implementation of scratch files=df  

 ***,hno CCSD(T)/TZ-F12 QFF
 memory, 995, m;
 gthresh,energy=1.d-12,zero=1.d-22,oneint=1.d-22,twoint=1.d-22;
 gthresh,optgrad=1.d-8,optstep=1.d-8;
 nocompress;
 geomtyp=xyz
 bohr
 geometry={
 3
         39        39
 H        0.0000000000        1.6631024700       -1.9277628784
 N        0.0000000000       -0.1576360401       -1.1532954767
 O        0.0000000000        0.0363013601        1.1304687642
 }
 
 basis=av5z
   {hf,maxit=500;accu,20;}
 {ccsd(t),nocheck,maxit=250;orbital,IGNORE_ERROR;}

 Variables initialized (889), CPU time= 0.00 sec
 Commands  initialized (702), CPU time= 0.01 sec, 572 directives.
 Default parameters read. Elapsed time= 0.06 sec

 Checking input...
 Passed
1


                                         ***  PROGRAM SYSTEM MOLPRO  ***
                                       Copyright, TTI GmbH Stuttgart, 2015
                                    Version 2015.1 linked Jul  9 2018 13:16:40


 **********************************************************************************************************************************
 LABEL *   hno CCSD(T)/TZ-F12 QFF                                                        
  64 bit serial version                                                                  DATE: 04-Mar-20          TIME: 13:19:58  
 **********************************************************************************************************************************

 SHA1:             d5ffa45e93fdbca01ffc919aa182cfdae0147319
 **********************************************************************************************************************************

 THRESHOLDS:

 ZERO    =  1.00D-22  ONEINT  =  1.00D-22  TWOINT  =  1.00D-22  PREFAC  =  1.00D-14  LOCALI  =  1.00D-09  EORDER  =  1.00D-04
 ENERGY  =  1.00D-12  ETEST   =  0.00D+00  EDENS   =  0.00D+00  THRDEDEF=  1.00D-06  GRADIENT=  1.00D-02  STEP    =  1.00D-03
 ORBITAL =  1.00D-05  CIVEC   =  1.00D-05  COEFF   =  1.00D-04  PRINTCI =  5.00D-02  PUNCHCI =  9.90D+01  OPTGRAD =  3.00D-04
 OPTENERG=  1.00D-06  OPTSTEP =  3.00D-04  THRGRAD =  1.00D-10  COMPRESS=  1.00D-11  VARMIN  =  1.00D-07  VARMAX  =  1.00D-03
 THRDOUB =  0.00D+00  THRDIV  =  1.00D-05  THRRED  =  1.00D-07  THRPSP  =  1.00D+00  THRDC   =  1.00D-10  THRCS   =  1.00D-10
 THRNRM  =  1.00D-08  THREQ   =  0.00D+00  THRDE   =  1.00D+00  THRREF  =  1.00D-05  SPARFAC =  1.00D+00  THRDLP  =  1.00D-07
 THRDIA  =  1.00D-10  THRDLS  =  1.00D-07  THRGPS  =  0.00D+00  THRKEX  =  0.00D+00  THRDIS  =  2.00D-01  THRVAR  =  1.00D-10
 THRLOC  =  1.00D-06  THRGAP  =  1.00D-06  THRLOCT = -1.00D+00  THRGAPT = -1.00D+00  THRORB  =  1.00D-06  THRMLTP =  0.00D+00
 THRCPQCI=  1.00D-10  KEXTA   =  0.00D+00  THRCOARS=  0.00D+00  SYMTOL  =  1.00D-06  GRADTOL =  1.00D-06  THROVL  =  1.00D-08
 THRORTH =  1.00D-08  GRID    =  1.00D-06  GRIDMAX =  1.00D-03  DTMAX   =  0.00D+00  THROCCDE=  1.00D-01  THROCCDE=  1.00D-01



 THRESHOLDS:

 ZERO    =  1.00D-22  ONEINT  =  1.00D-22  TWOINT  =  1.00D-22  PREFAC  =  1.00D-14  LOCALI  =  1.00D-09  EORDER  =  1.00D-04
 ENERGY  =  1.00D-12  ETEST   =  0.00D+00  EDENS   =  0.00D+00  THRDEDEF=  1.00D-06  GRADIENT=  1.00D-02  STEP    =  1.00D-03
 ORBITAL =  1.00D-05  CIVEC   =  1.00D-05  COEFF   =  1.00D-04  PRINTCI =  5.00D-02  PUNCHCI =  9.90D+01  OPTGRAD =  1.00D-08
 OPTENERG=  1.00D-06  OPTSTEP =  1.00D-08  THRGRAD =  1.00D-10  COMPRESS=  1.00D-11  VARMIN  =  1.00D-07  VARMAX  =  1.00D-03
 THRDOUB =  0.00D+00  THRDIV  =  1.00D-05  THRRED  =  1.00D-07  THRPSP  =  1.00D+00  THRDC   =  1.00D-10  THRCS   =  1.00D-10
 THRNRM  =  1.00D-08  THREQ   =  0.00D+00  THRDE   =  1.00D+00  THRREF  =  1.00D-05  SPARFAC =  1.00D+00  THRDLP  =  1.00D-07
 THRDIA  =  1.00D-10  THRDLS  =  1.00D-07  THRGPS  =  0.00D+00  THRKEX  =  0.00D+00  THRDIS  =  2.00D-01  THRVAR  =  1.00D-10
 THRLOC  =  1.00D-06  THRGAP  =  1.00D-06  THRLOCT = -1.00D+00  THRGAPT = -1.00D+00  THRORB  =  1.00D-06  THRMLTP =  0.00D+00
 THRCPQCI=  1.00D-10  KEXTA   =  0.00D+00  THRCOARS=  0.00D+00  SYMTOL  =  1.00D-06  GRADTOL =  1.00D-06  THROVL  =  1.00D-08
 THRORTH =  1.00D-08  GRID    =  1.00D-06  GRIDMAX =  1.00D-03  DTMAX   =  0.00D+00  THROCCDE=  1.00D-01  THROCCDE=  1.00D-01



 Input parameters for SORTINT:

 COMPRESS =    0.000000
 C_FINAL  =    1.000000
 DEBUG    =   -1.000000
 C_SORT1  =    0.000000
 C_SEWARD =    0.000000
 THRESH   =    0.000000
 IO       =  molpro                                                          
 SPRI     =    0.000000
 SETTING GEOMTYP        =    XYZ
 ZUNIT=BOHR
 

 Variable memory set to  995000000 words,  buffer space   230000 words

 SETTING BASIS          =    AV5Z


 Recomputing integrals since basis changed


 Using spherical harmonics

 Library entry H      S aug-cc-pV5Z          selected for orbital group  1
 Library entry H      P aug-cc-pV5Z          selected for orbital group  1
 Library entry H      D aug-cc-pV5Z          selected for orbital group  1
 Library entry H      F aug-cc-pV5Z          selected for orbital group  1
 Library entry H      G aug-cc-pV5Z          selected for orbital group  1
 Library entry N      S aug-cc-pV5Z          selected for orbital group  2
 Library entry N      P aug-cc-pV5Z          selected for orbital group  2
 Library entry N      D aug-cc-pV5Z          selected for orbital group  2
 Library entry N      F aug-cc-pV5Z          selected for orbital group  2
 Library entry N      G aug-cc-pV5Z          selected for orbital group  2
 Library entry N      H aug-cc-pV5Z          selected for orbital group  2
 Library entry O      S aug-cc-pV5Z          selected for orbital group  3
 Library entry O      P aug-cc-pV5Z          selected for orbital group  3
 Library entry O      D aug-cc-pV5Z          selected for orbital group  3
 Library entry O      F aug-cc-pV5Z          selected for orbital group  3
 Library entry O      G aug-cc-pV5Z          selected for orbital group  3
 Library entry O      H aug-cc-pV5Z          selected for orbital group  3


 PROGRAM * SEWARD (Integral evaluation for generally contracted gaussian basis sets)     Author: Roland Lindh, 1990

 Geometry written to block  1 of record 700


 Point group  Cs  



 ATOMIC COORDINATES

 NR  ATOM    CHARGE       X              Y              Z

   1  H       1.00    0.000000000    1.663102470   -1.927762878
   2  N       7.00    0.000000000   -0.157636040   -1.153295477
   3  O       8.00    0.000000000    0.036301360    1.130468764

 Bond lengths in Bohr (Angstrom)

 1-2  1.978607712  2-3  2.291984036
     ( 1.047034111)     ( 1.212865720)

 Bond angles

  1-2-3  108.18899349

 NUCLEAR CHARGE:                   16
 NUMBER OF PRIMITIVE AOS:         506
 NUMBER OF SYMMETRY AOS:          371
 NUMBER OF CONTRACTIONS:          334   ( 204A'  + 130A"  )
 NUMBER OF CORE ORBITALS:           2   (   2A'  +   0A"  )
 NUMBER OF VALENCE ORBITALS:        9   (   7A'  +   2A"  )


 NUCLEAR REPULSION ENERGY   30.28029324


 Eigenvalues of metric

         1 0.112E-04 0.173E-04 0.632E-04 0.101E-03 0.106E-03 0.137E-03 0.199E-03 0.224E-03
         2 0.129E-03 0.358E-03 0.114E-02 0.161E-02 0.190E-02 0.256E-02 0.322E-02 0.388E-02


 Contracted 2-electron integrals neglected if value below      1.0D-22

      756977401. INTEGRALS WRITTEN OUT IN  184855 BLOCKS ON RECORD 1290 OF FILE 1


 NUMBER OF SORTED TWO-ELECTRON INTEGRALS:  789027325.     BUFFER LENGTH:  32768
 NUMBER OF SEGMENTS:  25  SEGMENT LENGTH:   31997130      RECORD LENGTH: 524288

 Memory used in sort:      32.55 MW

 SORT1 READ   756977401. AND WROTE   760993285. INTEGRALS IN   2189 RECORDS. CPU TIME:    12.94 SEC, REAL TIME:    17.53 SEC
 SORT2 READ   760993285. AND WROTE   789027325. INTEGRALS IN     25 RECORDS. CPU TIME:     8.06 SEC, REAL TIME:    11.42 SEC

 FILE SIZES:   FILE 1: 12137.5 MBYTE,  FILE 4:  9181.4 MBYTE,   TOTAL:  21318.9 MBYTE

 OPERATOR DM      FOR CENTER  0  COORDINATES:    0.000000    0.000000    0.000000


 **********************************************************************************************************************************
 DATASETS  * FILE   NREC   LENGTH (MB)   RECORD NAMES
              1      19     6374.22       500      610      700      900      950      970     1000      129      960     1100   
                                          VAR    BASINP    GEOM    SYMINP    ZMAT    AOBASIS   BASIS     P2S    ABASIS      S 
                                         1400     1410     1200     1210     1080     1600     1650     1300     1700   
                                           T        V       H0       H01     AOSYM     SMH    MOLCAS    ERIS     OPER   

 PROGRAMS   *        TOTAL       INT
 CPU TIMES  *       106.05    105.98
 REAL TIME  *       121.06 SEC
 DISK USED  *        21.32 GB      
 **********************************************************************************************************************************


 PROGRAM * RHF-SCF (CLOSED SHELL)       Authors: W. Meyer, H.-J. Werner


 NUMBER OF ELECTRONS:       8+    8-
 CONVERGENCE THRESHOLDS:    1.00E-10 (Density)    1.00E-13 (Energy)
 MAX. NUMBER OF ITERATIONS:      500
 INTERPOLATION TYPE:            DIIS
 INTERPOLATION STEPS:              2 (START)      1 (STEP)
 LEVEL SHIFTS:                  0.00 (CLOSED)  0.00 (OPEN) 



 Orbital guess generated from atomic densities. Full valence occupancy:    9   2

 Molecular orbital dump at record        2100.2

 Initial occupancy:   7   1

 ITERATION    DDIFF          GRAD             ENERGY        2-EL.EN.            DIPOLE MOMENTS         DIIS   ORB.
    1      0.000D+00      0.000D+00      -129.79748300    153.823278    0.00000    0.60056   -1.04422    0    start
    2      0.000D+00      0.644D-02      -129.82455194    155.028341    0.00000    0.61386   -0.20716    1    diag
    3      0.404D-02      0.495D-02      -129.84815948    155.168287    0.00000    0.56046   -0.60231    2    diag
    4      0.209D-02      0.774D-03      -129.84897633    154.880290    0.00000    0.56775   -0.53977    3    diag
    5      0.381D-03      0.251D-03      -129.84910360    154.974114    0.00000    0.57293   -0.54215    4    diag
    6      0.157D-03      0.724D-04      -129.84912394    154.957791    0.00000    0.57318   -0.53785    5    diag
    7      0.603D-04      0.363D-04      -129.84912994    154.960510    0.00000    0.57438   -0.53515    6    diag
    8      0.415D-04      0.130D-04      -129.84913066    154.959786    0.00000    0.57442   -0.53408    7    diag
    9      0.164D-04      0.251D-05      -129.84913069    154.959672    0.00000    0.57438   -0.53385    8    diag
   10      0.335D-05      0.561D-06      -129.84913070    154.959655    0.00000    0.57435   -0.53382    9    orth
   11      0.637D-06      0.112D-06      -129.84913070    154.959651    0.00000    0.57434   -0.53382    9    diag
   12      0.117D-06      0.229D-07      -129.84913070    154.959651    0.00000    0.57434   -0.53382    9    diag
   13      0.251D-07      0.607D-08      -129.84913070    154.959651    0.00000    0.57434   -0.53382    9    diag
   14      0.688D-08      0.117D-08      -129.84913070    154.959651    0.00000    0.57434   -0.53382    9    diag
   15      0.125D-08      0.331D-09      -129.84913070    154.959651    0.00000    0.57434   -0.53382    9    diag
   16      0.376D-09      0.979D-10      -129.84913070    154.959651    0.00000    0.57434   -0.53382    9    diag
   17      0.752D-10      0.247D-10      -129.84913070    154.959651    0.00000    0.57434   -0.53382    0    orth

 Final occupancy:   7   1

 !RHF STATE 1.1 Energy               -129.849130696335
 Nuclear energy                        30.28029324
 One-electron energy                 -237.60924932
 Two-electron energy                   77.47982539
 Virial quotient                       -1.00178678
 !RHF STATE 1.1 Dipole moment           0.00000000     0.57433760    -0.53381604
 Dipole moment /Debye                   0.00000000     1.45972497    -1.35673617

 Orbital energies:

         1.1          2.1          3.1          4.1          5.1          6.1          7.1          8.1          9.1
    -20.653315   -15.712342    -1.525375    -0.996791    -0.746247    -0.664707    -0.432363     0.022800     0.065536

         1.2          2.2          3.2
     -0.593659     0.059174     0.091128

 HOMO      7.1    -0.432363 =     -11.7652eV
 LUMO      8.1     0.022800 =       0.6204eV
 LUMO-HOMO         0.455163 =      12.3856eV


 **********************************************************************************************************************************
 DATASETS  * FILE   NREC   LENGTH (MB)   RECORD NAMES
              1      19     6374.22       500      610      700      900      950      970     1000      129      960     1100   
                                          VAR    BASINP    GEOM    SYMINP    ZMAT    AOBASIS   BASIS     P2S    ABASIS      S 
                                         1400     1410     1200     1210     1080     1600     1650     1300     1700   
                                           T        V       H0       H01     AOSYM     SMH    MOLCAS    ERIS     OPER   

              2       4        4.02       700     1000      520     2100   
                                         GEOM     BASIS   MCVARS     RHF  

 PROGRAMS   *        TOTAL        HF       INT
 CPU TIMES  *       160.89     54.84    105.98
 REAL TIME  *       191.41 SEC
 DISK USED  *        21.32 GB      
 **********************************************************************************************************************************


 PROGRAM * CCSD (Closed-shell coupled cluster)     Authors: C. Hampel, H.-J. Werner, 1991, M. Deegan, P.J. Knowles, 1992


 Convergence thresholds:  THRVAR = 1.00D-08  THRDEN = 1.00D-12

 CCSD(T)     terms to be evaluated (factor= 1.000)


 Number of core orbitals:           2 (   2   0 )
 Number of closed-shell orbitals:   6 (   5   1 )
 Number of external orbitals:     326 ( 197 129 )

 Molecular orbitals read from record     2100.2  Type=RHF/CANONICAL (state 1.1)

 Number of N-1 electron functions:               6
 Number of N-2 electron functions:              21
 Number of singly external CSFs:              1114
 Number of doubly external CSFs:            975958
 Total number of CSFs:                      977073

 Length of J-op  integral file:               0.00 MB
 Length of K-op  integral file:               4.07 MB
 Length of 3-ext integral record:             0.00 MB

 Memory could be reduced to 151.33 Mwords without degradation in triples

 Integral transformation finished. Total CPU:   9.89 sec, npass=  1  Memory used:  41.21 MW

 Reference energy:                   -129.84913070

 MP2 singlet pair energy:              -0.31155794
 MP2 triplet pair energy:              -0.17227911
 MP2 correlation energy:               -0.48383705
 MP2 total energy:                   -130.33296775

 SCS-MP2 correlation energy:           -0.48106542   (PS=  1.200000  PT=  0.333333)
 SCS-MP2 total energy:               -130.33019612

 ITER.      SQ.NORM     CORR.ENERGY   TOTAL ENERGY   ENERGY CHANGE        DEN1      VAR(S)    VAR(P)  DIIS     TIME  TIME/IT
   1      1.12094204    -0.48064862  -130.32977932     0.00318843     0.02002614  0.32D-02  0.33D-02  1  1    17.87     8.78
   2      1.13166454    -0.48049418  -130.32962488     0.00015444    -0.01277964  0.11D-03  0.49D-03  2  2    25.93     8.90
   3      1.13788194    -0.48087972  -130.33001041    -0.00038554    -0.00301984  0.49D-04  0.58D-04  3  3    34.01     8.94
   4      1.14071988    -0.48087868  -130.33000937     0.00000104    -0.00098009  0.46D-05  0.10D-04  4  4    42.03     8.96
   5      1.14187612    -0.48090840  -130.33003910    -0.00002972    -0.00025615  0.11D-05  0.17D-05  5  5    50.32     9.01
   6      1.14223875    -0.48089634  -130.33002704     0.00001206    -0.00005150  0.12D-06  0.41D-06  6  6    58.41     9.01
   7      1.14231401    -0.48089609  -130.33002679     0.00000025     0.00000373  0.16D-07  0.94D-07  6  1    66.50     9.02
   8      1.14233922    -0.48089608  -130.33002678     0.00000001    -0.00000311  0.34D-08  0.19D-07  6  2    74.65     9.02
   9      1.14234759    -0.48089552  -130.33002622     0.00000056    -0.00000015  0.23D-08  0.21D-08  6  3    82.70     9.02
  10      1.14234281    -0.48089628  -130.33002697    -0.00000076     0.00000164  0.36D-09  0.35D-09  6  5    90.74     9.02
  11      1.14234488    -0.48089626  -130.33002695     0.00000002    -0.00000039  0.10D-09  0.29D-10  6  4    98.78     9.02
  12      1.14234444    -0.48089633  -130.33002702    -0.00000007     0.00000005  0.19D-10  0.66D-11  6  6   106.86     9.02
  13      1.14234423    -0.48089633  -130.33002703    -0.00000000    -0.00000004  0.31D-11  0.94D-12  6  1   114.90     9.02
  14      1.14234396    -0.48089634  -130.33002704    -0.00000001     0.00000004  0.43D-12  0.17D-12  6  3   122.97     9.02
  15      1.14234388    -0.48089635  -130.33002704    -0.00000000     0.00000001  0.12D-12  0.22D-13  6  2   131.08     9.03
  16      1.14234387    -0.48089634  -130.33002704     0.00000000     0.00000000  0.33D-13  0.84D-14  6  4   139.20     9.03
  17      1.14234387    -0.48089635  -130.33002704    -0.00000000    -0.00000000  0.19D-14  0.11D-14  6  5   147.24     9.03
  18      1.14234388    -0.48089634  -130.33002704     0.00000000    -0.00000000  0.28D-15  0.29D-15  6  6   155.55     9.04
  19      1.14234388    -0.48089634  -130.33002704     0.00000000    -0.00000000  0.50D-16  0.40D-16  6  1   163.57     9.04
  20      1.14234388    -0.48089634  -130.33002704     0.00000000    -0.00000000  0.11D-16  0.60D-17  6  3   171.65     9.04
  21      1.14234388    -0.48089634  -130.33002704    -0.00000000     0.00000000  0.20D-17  0.11D-17  6  2   179.68     9.04
  22      1.14234388    -0.48089634  -130.33002704    -0.00000000     0.00000000  0.35D-18  0.16D-18  6  4   187.76     9.04
  23      1.14234388    -0.48089634  -130.33002704    -0.00000000     0.00000000  0.87D-19  0.45D-19  6  5   195.85     9.04
  24      1.14234388    -0.48089634  -130.33002704    -0.00000000     0.00000000  0.27D-19  0.17D-19  6  6   203.92     9.04
  25      1.14234388    -0.48089634  -130.33002704     0.00000000    -0.00000000  0.17D-19  0.11D-19  6  1   211.93     9.04

 Norm of t1 vector:      0.07686348      S-energy:     0.00000000      T1 diagnostic:  0.01568969
                                                                       D1 diagnostic:  0.04283157

 Doubles amplitudes (print threshold =  0.500E-01):

         I         J         SYM. A    SYM. B    A         B      T(IJ, AB)

         6         6         2         2         1         1     -0.08296432
         6         6         2         2         1         2      0.05300093
         6         6         2         2         2         1      0.05300093


 Total CPU time for triples:     84.16 sec


 RESULTS
 =======

  Reference energy                   -129.849130696335
  CCSD singlet pair energy             -0.333662588113
  CCSD triplet pair energy             -0.147233756439
  CCSD correlation energy              -0.480896344550

  Triples (T) contribution             -0.023041363654
  Total correlation energy             -0.503937708203

  CCSD total energy                  -130.330027040885
  CCSD[T] energy                     -130.354163512606
  CCSD-T energy                      -130.352685732219
 !CCSD(T) total energy               -130.353068404538

 Timing summary (sec):

 STEP                 CPU(USER)    SYS     CPU(TOT)    WALL
 Transformation          9.94      1.48     11.42     11.45
 CCSD iterations       202.01     24.04    226.05    226.05
 Triples                84.16      1.85     86.01     86.03

 Program statistics:

 Available memory in ccsd:               994999756
 Min. memory needed in ccsd:               3348832
 Max. memory used in ccsd:                 4143652
 Max. memory used in cckext:               8340089 (25 integral passes)



 **********************************************************************************************************************************
 DATASETS  * FILE   NREC   LENGTH (MB)   RECORD NAMES
              1      20     6809.41       500      610      700      900      950      970     1000      129      960     1100   
                                          VAR    BASINP    GEOM    SYMINP    ZMAT    AOBASIS   BASIS     P2S    ABASIS      S 
                                         1400     1410     1200     1210     1080     1600     1650     1300     1700     1380   
                                           T        V       H0       H01     AOSYM     SMH    MOLCAS    ERIS     OPER     JKOP   

              2       4        4.02       700     1000      520     2100   
                                         GEOM     BASIS   MCVARS     RHF  

 PROGRAMS   *        TOTAL   CCSD(T)        HF       INT
 CPU TIMES  *       457.02    296.13     54.84    105.98
 REAL TIME  *       515.23 SEC
 DISK USED  *        21.32 GB      
 **********************************************************************************************************************************

 CCSD(T)/aug-cc-pV5Z energy=   -130.353068404538

        CCSD(T)         HF-SCF  
   -130.35306840   -129.84913070
 **********************************************************************************************************************************
 Molpro calculation terminated
 Variable memory released
