
 Primary working directories    : /tmp/r2666/281923.maple
 Secondary working directories  : /tmp/r2666/281923.maple
 Wavefunction directory         : /ddn/home4/r2666/wfu/
 Main file repository           : /tmp/r2666/281923.maple/

 SHA1      : d5ffa45e93fdbca01ffc919aa182cfdae0147319
 NAME      : 2015.1.35
 ARCHNAME  : linux/x86_64
 FC        : /opt/intel/composer_xe_2015.1.133/bin/intel64/ifort
 BLASLIB   : -Wl,-_start-group /opt/intel/mkl/lib/intel64/libmkl_intel_ilp64.a /opt/intel/mkl/lib/intel64/libmkl_intel_thread.a /opt/intel/mkl/lib/intel64/libmkl_core.a -Wl,-_end-group
 id        : olemiss

 Nodes     nprocs
 cn094        1

 Using customized tuning parameters: mindgm=1; mindgv=20; mindgc=4; mindgr=1; noblas=0; minvec=7
 default implementation of scratch files=df  

 ***,hno CCSD(T)/TZ-F12 QFF
 memory, 995, m;
 gthresh,energy=1.d-12,zero=1.d-22,oneint=1.d-22,twoint=1.d-22;
 gthresh,optgrad=1.d-8,optstep=1.d-8;
 nocompress;
 geomtyp=xyz
 bohr
 geometry={
 3
         78        78
 H        0.0000000000        1.6682414571       -1.9299469849
 N        0.0000000000       -0.1632684515       -1.1566815234
 O        0.0000000000        0.0367947845        1.1360389173
 }
 
 basis=av5z
   {hf,maxit=500;accu,20;}
 {ccsd(t),nocheck,maxit=250;orbital,IGNORE_ERROR;}

 Variables initialized (889), CPU time= 0.01 sec
 Commands  initialized (702), CPU time= 0.02 sec, 572 directives.
 Default parameters read. Elapsed time= 0.05 sec

 Checking input...
 Passed
1


                                         ***  PROGRAM SYSTEM MOLPRO  ***
                                       Copyright, TTI GmbH Stuttgart, 2015
                                    Version 2015.1 linked Jul  9 2018 13:16:40


 **********************************************************************************************************************************
 LABEL *   hno CCSD(T)/TZ-F12 QFF                                                        
  64 bit serial version                                                                  DATE: 04-Mar-20          TIME: 13:29:40  
 **********************************************************************************************************************************

 SHA1:             d5ffa45e93fdbca01ffc919aa182cfdae0147319
 **********************************************************************************************************************************

 THRESHOLDS:

 ZERO    =  1.00D-22  ONEINT  =  1.00D-22  TWOINT  =  1.00D-22  PREFAC  =  1.00D-14  LOCALI  =  1.00D-09  EORDER  =  1.00D-04
 ENERGY  =  1.00D-12  ETEST   =  0.00D+00  EDENS   =  0.00D+00  THRDEDEF=  1.00D-06  GRADIENT=  1.00D-02  STEP    =  1.00D-03
 ORBITAL =  1.00D-05  CIVEC   =  1.00D-05  COEFF   =  1.00D-04  PRINTCI =  5.00D-02  PUNCHCI =  9.90D+01  OPTGRAD =  3.00D-04
 OPTENERG=  1.00D-06  OPTSTEP =  3.00D-04  THRGRAD =  1.00D-10  COMPRESS=  1.00D-11  VARMIN  =  1.00D-07  VARMAX  =  1.00D-03
 THRDOUB =  0.00D+00  THRDIV  =  1.00D-05  THRRED  =  1.00D-07  THRPSP  =  1.00D+00  THRDC   =  1.00D-10  THRCS   =  1.00D-10
 THRNRM  =  1.00D-08  THREQ   =  0.00D+00  THRDE   =  1.00D+00  THRREF  =  1.00D-05  SPARFAC =  1.00D+00  THRDLP  =  1.00D-07
 THRDIA  =  1.00D-10  THRDLS  =  1.00D-07  THRGPS  =  0.00D+00  THRKEX  =  0.00D+00  THRDIS  =  2.00D-01  THRVAR  =  1.00D-10
 THRLOC  =  1.00D-06  THRGAP  =  1.00D-06  THRLOCT = -1.00D+00  THRGAPT = -1.00D+00  THRORB  =  1.00D-06  THRMLTP =  0.00D+00
 THRCPQCI=  1.00D-10  KEXTA   =  0.00D+00  THRCOARS=  0.00D+00  SYMTOL  =  1.00D-06  GRADTOL =  1.00D-06  THROVL  =  1.00D-08
 THRORTH =  1.00D-08  GRID    =  1.00D-06  GRIDMAX =  1.00D-03  DTMAX   =  0.00D+00  THROCCDE=  1.00D-01  THROCCDE=  1.00D-01



 THRESHOLDS:

 ZERO    =  1.00D-22  ONEINT  =  1.00D-22  TWOINT  =  1.00D-22  PREFAC  =  1.00D-14  LOCALI  =  1.00D-09  EORDER  =  1.00D-04
 ENERGY  =  1.00D-12  ETEST   =  0.00D+00  EDENS   =  0.00D+00  THRDEDEF=  1.00D-06  GRADIENT=  1.00D-02  STEP    =  1.00D-03
 ORBITAL =  1.00D-05  CIVEC   =  1.00D-05  COEFF   =  1.00D-04  PRINTCI =  5.00D-02  PUNCHCI =  9.90D+01  OPTGRAD =  1.00D-08
 OPTENERG=  1.00D-06  OPTSTEP =  1.00D-08  THRGRAD =  1.00D-10  COMPRESS=  1.00D-11  VARMIN  =  1.00D-07  VARMAX  =  1.00D-03
 THRDOUB =  0.00D+00  THRDIV  =  1.00D-05  THRRED  =  1.00D-07  THRPSP  =  1.00D+00  THRDC   =  1.00D-10  THRCS   =  1.00D-10
 THRNRM  =  1.00D-08  THREQ   =  0.00D+00  THRDE   =  1.00D+00  THRREF  =  1.00D-05  SPARFAC =  1.00D+00  THRDLP  =  1.00D-07
 THRDIA  =  1.00D-10  THRDLS  =  1.00D-07  THRGPS  =  0.00D+00  THRKEX  =  0.00D+00  THRDIS  =  2.00D-01  THRVAR  =  1.00D-10
 THRLOC  =  1.00D-06  THRGAP  =  1.00D-06  THRLOCT = -1.00D+00  THRGAPT = -1.00D+00  THRORB  =  1.00D-06  THRMLTP =  0.00D+00
 THRCPQCI=  1.00D-10  KEXTA   =  0.00D+00  THRCOARS=  0.00D+00  SYMTOL  =  1.00D-06  GRADTOL =  1.00D-06  THROVL  =  1.00D-08
 THRORTH =  1.00D-08  GRID    =  1.00D-06  GRIDMAX =  1.00D-03  DTMAX   =  0.00D+00  THROCCDE=  1.00D-01  THROCCDE=  1.00D-01



 Input parameters for SORTINT:

 COMPRESS =    0.000000
 C_FINAL  =    1.000000
 DEBUG    =   -1.000000
 C_SORT1  =    0.000000
 C_SEWARD =    0.000000
 THRESH   =    0.000000
 IO       =  molpro                                                          
 SPRI     =    0.000000
 SETTING GEOMTYP        =    XYZ
 ZUNIT=BOHR
 

 Variable memory set to  995000000 words,  buffer space   230000 words

 SETTING BASIS          =    AV5Z


 Recomputing integrals since basis changed


 Using spherical harmonics

 Library entry H      S aug-cc-pV5Z          selected for orbital group  1
 Library entry H      P aug-cc-pV5Z          selected for orbital group  1
 Library entry H      D aug-cc-pV5Z          selected for orbital group  1
 Library entry H      F aug-cc-pV5Z          selected for orbital group  1
 Library entry H      G aug-cc-pV5Z          selected for orbital group  1
 Library entry N      S aug-cc-pV5Z          selected for orbital group  2
 Library entry N      P aug-cc-pV5Z          selected for orbital group  2
 Library entry N      D aug-cc-pV5Z          selected for orbital group  2
 Library entry N      F aug-cc-pV5Z          selected for orbital group  2
 Library entry N      G aug-cc-pV5Z          selected for orbital group  2
 Library entry N      H aug-cc-pV5Z          selected for orbital group  2
 Library entry O      S aug-cc-pV5Z          selected for orbital group  3
 Library entry O      P aug-cc-pV5Z          selected for orbital group  3
 Library entry O      D aug-cc-pV5Z          selected for orbital group  3
 Library entry O      F aug-cc-pV5Z          selected for orbital group  3
 Library entry O      G aug-cc-pV5Z          selected for orbital group  3
 Library entry O      H aug-cc-pV5Z          selected for orbital group  3


 PROGRAM * SEWARD (Integral evaluation for generally contracted gaussian basis sets)     Author: Roland Lindh, 1990

 Geometry written to block  1 of record 700


 Point group  Cs  



 ATOMIC COORDINATES

 NR  ATOM    CHARGE       X              Y              Z

   1  H       1.00    0.000000000    1.668241457   -1.929946985
   2  N       7.00    0.000000000   -0.163268451   -1.156681523
   3  O       8.00    0.000000000    0.036794784    1.136038917

 Bond lengths in Bohr (Angstrom)

 1-2  1.988056342  2-3  2.301432666
     ( 1.052034110)     ( 1.217865719)

 Bond angles

  1-2-3  107.90251459

 NUCLEAR CHARGE:                   16
 NUMBER OF PRIMITIVE AOS:         506
 NUMBER OF SYMMETRY AOS:          371
 NUMBER OF CONTRACTIONS:          334   ( 204A'  + 130A"  )
 NUMBER OF CORE ORBITALS:           2   (   2A'  +   0A"  )
 NUMBER OF VALENCE ORBITALS:        9   (   7A'  +   2A"  )


 NUCLEAR REPULSION ENERGY   30.15716513


 Eigenvalues of metric

         1 0.114E-04 0.177E-04 0.642E-04 0.103E-03 0.108E-03 0.140E-03 0.202E-03 0.225E-03
         2 0.131E-03 0.365E-03 0.116E-02 0.165E-02 0.195E-02 0.261E-02 0.329E-02 0.395E-02


 Contracted 2-electron integrals neglected if value below      1.0D-22

      756977438. INTEGRALS WRITTEN OUT IN  184855 BLOCKS ON RECORD 1290 OF FILE 1


 NUMBER OF SORTED TWO-ELECTRON INTEGRALS:  789027325.     BUFFER LENGTH:  32768
 NUMBER OF SEGMENTS:  25  SEGMENT LENGTH:   31997130      RECORD LENGTH: 524288

 Memory used in sort:      32.55 MW

 SORT1 READ   756977438. AND WROTE   760993320. INTEGRALS IN   2189 RECORDS. CPU TIME:    12.79 SEC, REAL TIME:    17.73 SEC
 SORT2 READ   760993320. AND WROTE   789027325. INTEGRALS IN     25 RECORDS. CPU TIME:     9.59 SEC, REAL TIME:    21.78 SEC

 FILE SIZES:   FILE 1: 12137.5 MBYTE,  FILE 4:  9181.4 MBYTE,   TOTAL:  21318.9 MBYTE

 OPERATOR DM      FOR CENTER  0  COORDINATES:    0.000000    0.000000    0.000000


 **********************************************************************************************************************************
 DATASETS  * FILE   NREC   LENGTH (MB)   RECORD NAMES
              1      19     6374.22       500      610      700      900      950      970     1000      129      960     1100   
                                          VAR    BASINP    GEOM    SYMINP    ZMAT    AOBASIS   BASIS     P2S    ABASIS      S 
                                         1400     1410     1200     1210     1080     1600     1650     1300     1700   
                                           T        V       H0       H01     AOSYM     SMH    MOLCAS    ERIS     OPER   

 PROGRAMS   *        TOTAL       INT
 CPU TIMES  *       107.89    107.79
 REAL TIME  *       131.79 SEC
 DISK USED  *        21.32 GB      
 **********************************************************************************************************************************


 PROGRAM * RHF-SCF (CLOSED SHELL)       Authors: W. Meyer, H.-J. Werner


 NUMBER OF ELECTRONS:       8+    8-
 CONVERGENCE THRESHOLDS:    1.00E-10 (Density)    1.00E-13 (Energy)
 MAX. NUMBER OF ITERATIONS:      500
 INTERPOLATION TYPE:            DIIS
 INTERPOLATION STEPS:              2 (START)      1 (STEP)
 LEVEL SHIFTS:                  0.00 (CLOSED)  0.00 (OPEN) 



 Orbital guess generated from atomic densities. Full valence occupancy:    9   2

 Molecular orbital dump at record        2100.2

 Initial occupancy:   7   1

 ITERATION    DDIFF          GRAD             ENERGY        2-EL.EN.            DIPOLE MOMENTS         DIIS   ORB.
    1      0.000D+00      0.000D+00      -129.79549357    153.600647    0.00000    0.59705   -1.06068    0    start
    2      0.000D+00      0.649D-02      -129.82236371    154.799252    0.00000    0.61684   -0.20101    1    diag
    3      0.409D-02      0.506D-02      -129.84712566    154.949805    0.00000    0.55995   -0.60809    2    diag
    4      0.213D-02      0.778D-03      -129.84795374    154.657381    0.00000    0.56722   -0.54480    3    diag
    5      0.383D-03      0.253D-03      -129.84808410    154.752010    0.00000    0.57245   -0.54709    4    diag
    6      0.159D-03      0.734D-04      -129.84810504    154.735535    0.00000    0.57267   -0.54268    5    diag
    7      0.613D-04      0.369D-04      -129.84811130    154.738234    0.00000    0.57387   -0.53990    6    diag
    8      0.423D-04      0.134D-04      -129.84811208    154.737484    0.00000    0.57391   -0.53879    7    diag
    9      0.172D-04      0.262D-05      -129.84811211    154.737364    0.00000    0.57387   -0.53855    8    diag
   10      0.354D-05      0.577D-06      -129.84811212    154.737346    0.00000    0.57383   -0.53852    9    orth
   11      0.656D-06      0.115D-06      -129.84811212    154.737342    0.00000    0.57383   -0.53852    9    diag
   12      0.119D-06      0.238D-07      -129.84811212    154.737342    0.00000    0.57383   -0.53852    9    diag
   13      0.257D-07      0.639D-08      -129.84811212    154.737342    0.00000    0.57383   -0.53852    9    diag
   14      0.720D-08      0.123D-08      -129.84811212    154.737342    0.00000    0.57383   -0.53852    9    diag
   15      0.129D-08      0.347D-09      -129.84811212    154.737342    0.00000    0.57383   -0.53852    9    diag
   16      0.390D-09      0.102D-09      -129.84811212    154.737342    0.00000    0.57383   -0.53852    9    diag
   17      0.712D-10      0.255D-10      -129.84811212    154.737342    0.00000    0.57383   -0.53852    9    diag
   18      0.313D-10      0.845D-11      -129.84811212    154.737342    0.00000    0.57383   -0.53852    9    diag
   19      0.342D-10      0.199D-11      -129.84811212    154.737342    0.00000    0.57383   -0.53852    9    fixocc
   20      0.173D-10      0.495D-12      -129.84811212    154.737342    0.00000    0.57383   -0.53852    9    orth
   21      0.122D-10      0.382D-12      -129.84811212    154.737342    0.00000    0.57383   -0.53852    9    diag
   22      0.685D-11      0.270D-12      -129.84811212    154.737342    0.00000    0.57383   -0.53852    0    orth

 Final occupancy:   7   1

 !RHF STATE 1.1 Energy               -129.848112115143
 Nuclear energy                        30.15716513
 One-electron energy                 -237.37394807
 Two-electron energy                   77.36867082
 Virial quotient                       -1.00198282
 !RHF STATE 1.1 Dipole moment           0.00000000     0.57382556    -0.53851538
 Dipole moment /Debye                   0.00000000     1.45842358    -1.36867991

 Orbital energies:

         1.1          2.1          3.1          4.1          5.1          6.1          7.1          8.1          9.1
    -20.653810   -15.713928    -1.521425    -0.996512    -0.744198    -0.663231    -0.433770     0.022761     0.065535

         1.2          2.2          3.2
     -0.591429     0.058166     0.090794

 HOMO      7.1    -0.433770 =     -11.8035eV
 LUMO      8.1     0.022761 =       0.6194eV
 LUMO-HOMO         0.456531 =      12.4228eV


 **********************************************************************************************************************************
 DATASETS  * FILE   NREC   LENGTH (MB)   RECORD NAMES
              1      19     6374.22       500      610      700      900      950      970     1000      129      960     1100   
                                          VAR    BASINP    GEOM    SYMINP    ZMAT    AOBASIS   BASIS     P2S    ABASIS      S 
                                         1400     1410     1200     1210     1080     1600     1650     1300     1700   
                                           T        V       H0       H01     AOSYM     SMH    MOLCAS    ERIS     OPER   

              2       4        4.02       700     1000      520     2100   
                                         GEOM     BASIS   MCVARS     RHF  

 PROGRAMS   *        TOTAL        HF       INT
 CPU TIMES  *       177.25     69.36    107.79
 REAL TIME  *       225.68 SEC
 DISK USED  *        21.32 GB      
 **********************************************************************************************************************************


 PROGRAM * CCSD (Closed-shell coupled cluster)     Authors: C. Hampel, H.-J. Werner, 1991, M. Deegan, P.J. Knowles, 1992


 Convergence thresholds:  THRVAR = 1.00D-08  THRDEN = 1.00D-12

 CCSD(T)     terms to be evaluated (factor= 1.000)


 Number of core orbitals:           2 (   2   0 )
 Number of closed-shell orbitals:   6 (   5   1 )
 Number of external orbitals:     326 ( 197 129 )

 Molecular orbitals read from record     2100.2  Type=RHF/CANONICAL (state 1.1)

 Number of N-1 electron functions:               6
 Number of N-2 electron functions:              21
 Number of singly external CSFs:              1114
 Number of doubly external CSFs:            975958
 Total number of CSFs:                      977073

 Length of J-op  integral file:               0.00 MB
 Length of K-op  integral file:               4.07 MB
 Length of 3-ext integral record:             0.00 MB

 Memory could be reduced to 151.33 Mwords without degradation in triples

 Integral transformation finished. Total CPU:   9.95 sec, npass=  1  Memory used:  41.21 MW

 Reference energy:                   -129.84811212

 MP2 singlet pair energy:              -0.31217982
 MP2 triplet pair energy:              -0.17269335
 MP2 correlation energy:               -0.48487317
 MP2 total energy:                   -130.33298528

 SCS-MP2 correlation energy:           -0.48206942   (PS=  1.200000  PT=  0.333333)
 SCS-MP2 total energy:               -130.33018154

 ITER.      SQ.NORM     CORR.ENERGY   TOTAL ENERGY   ENERGY CHANGE        DEN1      VAR(S)    VAR(P)  DIIS     TIME  TIME/IT
   1      1.12163866    -0.48146496  -130.32957708     0.00340820     0.02051196  0.33D-02  0.33D-02  1  1    17.94     8.96
   2      1.13251758    -0.48126197  -130.32937409     0.00020299    -0.01294012  0.11D-03  0.50D-03  2  2    25.96     9.07
   3      1.13885416    -0.48165774  -130.32976986    -0.00039577    -0.00305831  0.51D-04  0.59D-04  3  3    34.31     9.20
   4      1.14175842    -0.48165633  -130.32976845     0.00000141    -0.00099882  0.49D-05  0.10D-04  4  4    42.36     9.21
   5      1.14295539    -0.48168726  -130.32979937    -0.00003093    -0.00026485  0.12D-05  0.17D-05  5  5    50.49     9.21
   6      1.14332815    -0.48167464  -130.32978676     0.00001262    -0.00005312  0.12D-06  0.40D-06  6  6    58.47     9.21
   7      1.14340412    -0.48167434  -130.32978646     0.00000030     0.00000394  0.17D-07  0.94D-07  6  1    66.47     9.21
   8      1.14342975    -0.48167426  -130.32978637     0.00000009    -0.00000322  0.33D-08  0.20D-07  6  2    74.59     9.21
   9      1.14343824    -0.48167366  -130.32978578     0.00000059    -0.00000011  0.23D-08  0.22D-08  6  3    82.67     9.21
  10      1.14343336    -0.48167444  -130.32978655    -0.00000077     0.00000167  0.37D-09  0.37D-09  6  5    90.71     9.21
  11      1.14343554    -0.48167441  -130.32978652     0.00000003    -0.00000042  0.11D-09  0.31D-10  6  4    98.76     9.21
  12      1.14343509    -0.48167448  -130.32978660    -0.00000007     0.00000005  0.19D-10  0.70D-11  6  6   106.69     9.21
  13      1.14343488    -0.48167448  -130.32978660    -0.00000000    -0.00000004  0.32D-11  0.97D-12  6  1   114.69     9.21
  14      1.14343460    -0.48167450  -130.32978661    -0.00000001     0.00000004  0.43D-12  0.18D-12  6  3   122.63     9.21
  15      1.14343452    -0.48167450  -130.32978662    -0.00000000     0.00000001  0.12D-12  0.23D-13  6  2   130.67     9.21
  16      1.14343451    -0.48167450  -130.32978661     0.00000000     0.00000000  0.34D-13  0.88D-14  6  4   138.93     9.22
  17      1.14343451    -0.48167450  -130.32978662    -0.00000000    -0.00000000  0.20D-14  0.11D-14  6  5   146.90     9.22
  18      1.14343452    -0.48167450  -130.32978661     0.00000000    -0.00000000  0.29D-15  0.29D-15  6  6   154.85     9.22
  19      1.14343452    -0.48167450  -130.32978661     0.00000000    -0.00000000  0.51D-16  0.39D-16  6  1   162.91     9.22
  20      1.14343452    -0.48167450  -130.32978661     0.00000000    -0.00000000  0.11D-16  0.61D-17  6  3   170.97     9.22
  21      1.14343452    -0.48167450  -130.32978661    -0.00000000     0.00000000  0.21D-17  0.11D-17  6  2   179.11     9.22
  22      1.14343452    -0.48167450  -130.32978661    -0.00000000     0.00000000  0.36D-18  0.17D-18  6  4   187.18     9.22
  23      1.14343452    -0.48167450  -130.32978661    -0.00000000     0.00000000  0.69D-19  0.42D-19  6  5   195.25     9.22
  24      1.14343452    -0.48167450  -130.32978661    -0.00000000     0.00000000  0.27D-19  0.18D-19  6  6   203.29     9.21
  25      1.14343452    -0.48167450  -130.32978661     0.00000000    -0.00000000  0.14D-19  0.83D-20  6  1   211.27     9.21

 Norm of t1 vector:      0.07783979      S-energy:    -0.00000000      T1 diagnostic:  0.01588898
                                                                       D1 diagnostic:  0.04348548

 Doubles amplitudes (print threshold =  0.500E-01):

         I         J         SYM. A    SYM. B    A         B      T(IJ, AB)

         6         6         2         2         1         1     -0.08668027
         6         6         2         2         1         2      0.05277934
         6         6         2         2         2         1      0.05277934


 Total CPU time for triples:     84.37 sec


 RESULTS
 =======

  Reference energy                   -129.848112115143
  CCSD singlet pair energy             -0.334333004685
  CCSD triplet pair energy             -0.147341494801
  CCSD correlation energy              -0.481674499489

  Triples (T) contribution             -0.023234949650
  Total correlation energy             -0.504909449139

  CCSD total energy                  -130.329786614632
  CCSD[T] energy                     -130.354143109142
  CCSD-T energy                      -130.352632104806
 !CCSD(T) total energy               -130.353021564282

 Timing summary (sec):

 STEP                 CPU(USER)    SYS     CPU(TOT)    WALL
 Transformation         10.00      1.53     11.53     11.53
 CCSD iterations       201.28     29.03    230.31    230.39
 Triples                84.37      1.83     86.20     86.23

 Program statistics:

 Available memory in ccsd:               994999756
 Min. memory needed in ccsd:               3348832
 Max. memory used in ccsd:                 4143652
 Max. memory used in cckext:               8340089 (25 integral passes)



 **********************************************************************************************************************************
 DATASETS  * FILE   NREC   LENGTH (MB)   RECORD NAMES
              1      20     6809.41       500      610      700      900      950      970     1000      129      960     1100   
                                          VAR    BASINP    GEOM    SYMINP    ZMAT    AOBASIS   BASIS     P2S    ABASIS      S 
                                         1400     1410     1200     1210     1080     1600     1650     1300     1700     1380   
                                           T        V       H0       H01     AOSYM     SMH    MOLCAS    ERIS     OPER     JKOP   

              2       4        4.02       700     1000      520     2100   
                                         GEOM     BASIS   MCVARS     RHF  

 PROGRAMS   *        TOTAL   CCSD(T)        HF       INT
 CPU TIMES  *       472.93    295.68     69.36    107.79
 REAL TIME  *       553.87 SEC
 DISK USED  *        21.32 GB      
 **********************************************************************************************************************************

 CCSD(T)/aug-cc-pV5Z energy=   -130.353021564282

        CCSD(T)         HF-SCF  
   -130.35302156   -129.84811212
 **********************************************************************************************************************************
 Molpro calculation terminated
 Variable memory released
