
 Primary working directories    : /tmp/r2666/281883.maple
 Secondary working directories  : /tmp/r2666/281883.maple
 Wavefunction directory         : /ddn/home4/r2666/wfu/
 Main file repository           : /tmp/r2666/281883.maple/

 SHA1      : d5ffa45e93fdbca01ffc919aa182cfdae0147319
 NAME      : 2015.1.35
 ARCHNAME  : linux/x86_64
 FC        : /opt/intel/composer_xe_2015.1.133/bin/intel64/ifort
 BLASLIB   : -Wl,-_start-group /opt/intel/mkl/lib/intel64/libmkl_intel_ilp64.a /opt/intel/mkl/lib/intel64/libmkl_intel_thread.a /opt/intel/mkl/lib/intel64/libmkl_core.a -Wl,-_end-group
 id        : olemiss

 Nodes     nprocs
 cn089        1

 Using customized tuning parameters: mindgm=1; mindgv=20; mindgc=4; mindgr=1; noblas=0; minvec=7
 default implementation of scratch files=df  

 ***,hno CCSD(T)/TZ-F12 QFF
 memory, 995, m;
 gthresh,energy=1.d-12,zero=1.d-22,oneint=1.d-22,twoint=1.d-22;
 gthresh,optgrad=1.d-8,optstep=1.d-8;
 nocompress;
 geomtyp=xyz
 bohr
 geometry={
 3
         38        38
 H        0.0000000000        1.6628819028       -1.9242062493
 N        0.0000000000       -0.1600259007       -1.1548587216
 O        0.0000000000        0.0389117878        1.1284753799
 }
 
 basis=av5z
   {hf,maxit=500;accu,20;}
 {ccsd(t),nocheck,maxit=250;orbital,IGNORE_ERROR;}

 Variables initialized (889), CPU time= 0.01 sec
 Commands  initialized (702), CPU time= 0.00 sec, 572 directives.
 Default parameters read. Elapsed time= 0.05 sec

 Checking input...
 Passed
1


                                         ***  PROGRAM SYSTEM MOLPRO  ***
                                       Copyright, TTI GmbH Stuttgart, 2015
                                    Version 2015.1 linked Jul  9 2018 13:16:40


 **********************************************************************************************************************************
 LABEL *   hno CCSD(T)/TZ-F12 QFF                                                        
  64 bit serial version                                                                  DATE: 04-Mar-20          TIME: 13:19:58  
 **********************************************************************************************************************************

 SHA1:             d5ffa45e93fdbca01ffc919aa182cfdae0147319
 **********************************************************************************************************************************

 THRESHOLDS:

 ZERO    =  1.00D-22  ONEINT  =  1.00D-22  TWOINT  =  1.00D-22  PREFAC  =  1.00D-14  LOCALI  =  1.00D-09  EORDER  =  1.00D-04
 ENERGY  =  1.00D-12  ETEST   =  0.00D+00  EDENS   =  0.00D+00  THRDEDEF=  1.00D-06  GRADIENT=  1.00D-02  STEP    =  1.00D-03
 ORBITAL =  1.00D-05  CIVEC   =  1.00D-05  COEFF   =  1.00D-04  PRINTCI =  5.00D-02  PUNCHCI =  9.90D+01  OPTGRAD =  3.00D-04
 OPTENERG=  1.00D-06  OPTSTEP =  3.00D-04  THRGRAD =  1.00D-10  COMPRESS=  1.00D-11  VARMIN  =  1.00D-07  VARMAX  =  1.00D-03
 THRDOUB =  0.00D+00  THRDIV  =  1.00D-05  THRRED  =  1.00D-07  THRPSP  =  1.00D+00  THRDC   =  1.00D-10  THRCS   =  1.00D-10
 THRNRM  =  1.00D-08  THREQ   =  0.00D+00  THRDE   =  1.00D+00  THRREF  =  1.00D-05  SPARFAC =  1.00D+00  THRDLP  =  1.00D-07
 THRDIA  =  1.00D-10  THRDLS  =  1.00D-07  THRGPS  =  0.00D+00  THRKEX  =  0.00D+00  THRDIS  =  2.00D-01  THRVAR  =  1.00D-10
 THRLOC  =  1.00D-06  THRGAP  =  1.00D-06  THRLOCT = -1.00D+00  THRGAPT = -1.00D+00  THRORB  =  1.00D-06  THRMLTP =  0.00D+00
 THRCPQCI=  1.00D-10  KEXTA   =  0.00D+00  THRCOARS=  0.00D+00  SYMTOL  =  1.00D-06  GRADTOL =  1.00D-06  THROVL  =  1.00D-08
 THRORTH =  1.00D-08  GRID    =  1.00D-06  GRIDMAX =  1.00D-03  DTMAX   =  0.00D+00  THROCCDE=  1.00D-01  THROCCDE=  1.00D-01



 THRESHOLDS:

 ZERO    =  1.00D-22  ONEINT  =  1.00D-22  TWOINT  =  1.00D-22  PREFAC  =  1.00D-14  LOCALI  =  1.00D-09  EORDER  =  1.00D-04
 ENERGY  =  1.00D-12  ETEST   =  0.00D+00  EDENS   =  0.00D+00  THRDEDEF=  1.00D-06  GRADIENT=  1.00D-02  STEP    =  1.00D-03
 ORBITAL =  1.00D-05  CIVEC   =  1.00D-05  COEFF   =  1.00D-04  PRINTCI =  5.00D-02  PUNCHCI =  9.90D+01  OPTGRAD =  1.00D-08
 OPTENERG=  1.00D-06  OPTSTEP =  1.00D-08  THRGRAD =  1.00D-10  COMPRESS=  1.00D-11  VARMIN  =  1.00D-07  VARMAX  =  1.00D-03
 THRDOUB =  0.00D+00  THRDIV  =  1.00D-05  THRRED  =  1.00D-07  THRPSP  =  1.00D+00  THRDC   =  1.00D-10  THRCS   =  1.00D-10
 THRNRM  =  1.00D-08  THREQ   =  0.00D+00  THRDE   =  1.00D+00  THRREF  =  1.00D-05  SPARFAC =  1.00D+00  THRDLP  =  1.00D-07
 THRDIA  =  1.00D-10  THRDLS  =  1.00D-07  THRGPS  =  0.00D+00  THRKEX  =  0.00D+00  THRDIS  =  2.00D-01  THRVAR  =  1.00D-10
 THRLOC  =  1.00D-06  THRGAP  =  1.00D-06  THRLOCT = -1.00D+00  THRGAPT = -1.00D+00  THRORB  =  1.00D-06  THRMLTP =  0.00D+00
 THRCPQCI=  1.00D-10  KEXTA   =  0.00D+00  THRCOARS=  0.00D+00  SYMTOL  =  1.00D-06  GRADTOL =  1.00D-06  THROVL  =  1.00D-08
 THRORTH =  1.00D-08  GRID    =  1.00D-06  GRIDMAX =  1.00D-03  DTMAX   =  0.00D+00  THROCCDE=  1.00D-01  THROCCDE=  1.00D-01



 Input parameters for SORTINT:

 COMPRESS =    0.000000
 C_FINAL  =    1.000000
 DEBUG    =   -1.000000
 C_SORT1  =    0.000000
 C_SEWARD =    0.000000
 THRESH   =    0.000000
 IO       =  molpro                                                          
 SPRI     =    0.000000
 SETTING GEOMTYP        =    XYZ
 ZUNIT=BOHR
 

 Variable memory set to  995000000 words,  buffer space   230000 words

 SETTING BASIS          =    AV5Z


 Recomputing integrals since basis changed


 Using spherical harmonics

 Library entry H      S aug-cc-pV5Z          selected for orbital group  1
 Library entry H      P aug-cc-pV5Z          selected for orbital group  1
 Library entry H      D aug-cc-pV5Z          selected for orbital group  1
 Library entry H      F aug-cc-pV5Z          selected for orbital group  1
 Library entry H      G aug-cc-pV5Z          selected for orbital group  1
 Library entry N      S aug-cc-pV5Z          selected for orbital group  2
 Library entry N      P aug-cc-pV5Z          selected for orbital group  2
 Library entry N      D aug-cc-pV5Z          selected for orbital group  2
 Library entry N      F aug-cc-pV5Z          selected for orbital group  2
 Library entry N      G aug-cc-pV5Z          selected for orbital group  2
 Library entry N      H aug-cc-pV5Z          selected for orbital group  2
 Library entry O      S aug-cc-pV5Z          selected for orbital group  3
 Library entry O      P aug-cc-pV5Z          selected for orbital group  3
 Library entry O      D aug-cc-pV5Z          selected for orbital group  3
 Library entry O      F aug-cc-pV5Z          selected for orbital group  3
 Library entry O      G aug-cc-pV5Z          selected for orbital group  3
 Library entry O      H aug-cc-pV5Z          selected for orbital group  3


 PROGRAM * SEWARD (Integral evaluation for generally contracted gaussian basis sets)     Author: Roland Lindh, 1990

 Geometry written to block  1 of record 700


 Point group  Cs  



 ATOMIC COORDINATES

 NR  ATOM    CHARGE       X              Y              Z

   1  H       1.00    0.000000000    1.662881903   -1.924206249
   2  N       7.00    0.000000000   -0.160025901   -1.154858722
   3  O       8.00    0.000000000    0.038911788    1.128475380

 Bond lengths in Bohr (Angstrom)

 1-2  1.978607712  2-3  2.291984036
     ( 1.047034111)     ( 1.212865720)

 Bond angles

  1-2-3  107.90251459

 NUCLEAR CHARGE:                   16
 NUMBER OF PRIMITIVE AOS:         506
 NUMBER OF SYMMETRY AOS:          371
 NUMBER OF CONTRACTIONS:          334   ( 204A'  + 130A"  )
 NUMBER OF CORE ORBITALS:           2   (   2A'  +   0A"  )
 NUMBER OF VALENCE ORBITALS:        9   (   7A'  +   2A"  )


 NUCLEAR REPULSION ENERGY   30.28445393


 Eigenvalues of metric

         1 0.112E-04 0.173E-04 0.633E-04 0.101E-03 0.106E-03 0.138E-03 0.200E-03 0.224E-03
         2 0.129E-03 0.358E-03 0.113E-02 0.161E-02 0.190E-02 0.256E-02 0.323E-02 0.388E-02


 Contracted 2-electron integrals neglected if value below      1.0D-22

      756977495. INTEGRALS WRITTEN OUT IN  184855 BLOCKS ON RECORD 1290 OF FILE 1


 NUMBER OF SORTED TWO-ELECTRON INTEGRALS:  789027325.     BUFFER LENGTH:  32768
 NUMBER OF SEGMENTS:  25  SEGMENT LENGTH:   31997130      RECORD LENGTH: 524288

 Memory used in sort:      32.55 MW

 SORT1 READ   756977495. AND WROTE   760993383. INTEGRALS IN   2189 RECORDS. CPU TIME:    12.85 SEC, REAL TIME:    17.55 SEC
 SORT2 READ   760993383. AND WROTE   789027325. INTEGRALS IN     25 RECORDS. CPU TIME:     8.09 SEC, REAL TIME:    11.50 SEC

 FILE SIZES:   FILE 1: 12137.5 MBYTE,  FILE 4:  9181.4 MBYTE,   TOTAL:  21318.9 MBYTE

 OPERATOR DM      FOR CENTER  0  COORDINATES:    0.000000    0.000000    0.000000


 **********************************************************************************************************************************
 DATASETS  * FILE   NREC   LENGTH (MB)   RECORD NAMES
              1      19     6374.22       500      610      700      900      950      970     1000      129      960     1100   
                                          VAR    BASINP    GEOM    SYMINP    ZMAT    AOBASIS   BASIS     P2S    ABASIS      S 
                                         1400     1410     1200     1210     1080     1600     1650     1300     1700   
                                           T        V       H0       H01     AOSYM     SMH    MOLCAS    ERIS     OPER   

 PROGRAMS   *        TOTAL       INT
 CPU TIMES  *       105.04    104.97
 REAL TIME  *       120.06 SEC
 DISK USED  *        21.32 GB      
 **********************************************************************************************************************************


 PROGRAM * RHF-SCF (CLOSED SHELL)       Authors: W. Meyer, H.-J. Werner


 NUMBER OF ELECTRONS:       8+    8-
 CONVERGENCE THRESHOLDS:    1.00E-10 (Density)    1.00E-13 (Energy)
 MAX. NUMBER OF ITERATIONS:      500
 INTERPOLATION TYPE:            DIIS
 INTERPOLATION STEPS:              2 (START)      1 (STEP)
 LEVEL SHIFTS:                  0.00 (CLOSED)  0.00 (OPEN) 



 Orbital guess generated from atomic densities. Full valence occupancy:    9   2

 Molecular orbital dump at record        2100.2

 Initial occupancy:   7   1

 ITERATION    DDIFF          GRAD             ENERGY        2-EL.EN.            DIPOLE MOMENTS         DIIS   ORB.
    1      0.000D+00      0.000D+00      -129.79745692    153.832106    0.00000    0.59805   -1.04358    0    start
    2      0.000D+00      0.644D-02      -129.82453063    155.035766    0.00000    0.61406   -0.20596    1    diag
    3      0.404D-02      0.495D-02      -129.84816332    155.176032    0.00000    0.55934   -0.60118    2    diag
    4      0.209D-02      0.773D-03      -129.84897940    154.888176    0.00000    0.56677   -0.53872    3    diag
    5      0.380D-03      0.251D-03      -129.84910678    154.981911    0.00000    0.57192   -0.54107    4    diag
    6      0.157D-03      0.725D-04      -129.84912714    154.965582    0.00000    0.57217   -0.53677    5    diag
    7      0.604D-04      0.363D-04      -129.84913316    154.968302    0.00000    0.57337   -0.53406    6    diag
    8      0.416D-04      0.130D-04      -129.84913388    154.967576    0.00000    0.57341   -0.53299    7    diag
    9      0.165D-04      0.251D-05      -129.84913392    154.967463    0.00000    0.57337   -0.53276    8    diag
   10      0.335D-05      0.560D-06      -129.84913392    154.967445    0.00000    0.57334   -0.53273    9    orth
   11      0.634D-06      0.111D-06      -129.84913392    154.967442    0.00000    0.57333   -0.53273    9    diag
   12      0.116D-06      0.229D-07      -129.84913392    154.967442    0.00000    0.57333   -0.53273    9    diag
   13      0.251D-07      0.607D-08      -129.84913392    154.967441    0.00000    0.57333   -0.53273    9    diag
   14      0.688D-08      0.117D-08      -129.84913392    154.967441    0.00000    0.57333   -0.53273    9    diag
   15      0.125D-08      0.330D-09      -129.84913392    154.967441    0.00000    0.57333   -0.53273    9    diag
   16      0.377D-09      0.978D-10      -129.84913392    154.967441    0.00000    0.57333   -0.53273    9    diag
   17      0.695D-10      0.247D-10      -129.84913392    154.967441    0.00000    0.57333   -0.53273    9    diag
   18      0.241D-10      0.822D-11      -129.84913392    154.967441    0.00000    0.57333   -0.53273    9    diag
   19      0.151D-10      0.199D-11      -129.84913392    154.967441    0.00000    0.57333   -0.53273    9    fixocc
   20      0.189D-10      0.580D-12      -129.84913392    154.967441    0.00000    0.57333   -0.53273    9    orth
   21      0.109D-10      0.330D-12      -129.84913392    154.967441    0.00000    0.57333   -0.53273    0    orth

 Final occupancy:   7   1

 !RHF STATE 1.1 Energy               -129.849133917158
 Nuclear energy                        30.28445393
 One-electron energy                 -237.61730856
 Two-electron energy                   77.48372072
 Virial quotient                       -1.00177843
 !RHF STATE 1.1 Dipole moment           0.00000000     0.57332636    -0.53272969
 Dipole moment /Debye                   0.00000000     1.45715481    -1.35397512

 Orbital energies:

         1.1          2.1          3.1          4.1          5.1          6.1          7.1          8.1          9.1
    -20.653243   -15.712393    -1.525523    -0.996612    -0.746259    -0.664652    -0.432556     0.022820     0.065540

         1.2          2.2          3.2
     -0.593696     0.059216     0.091143

 HOMO      7.1    -0.432556 =     -11.7704eV
 LUMO      8.1     0.022820 =       0.6210eV
 LUMO-HOMO         0.455376 =      12.3914eV


 **********************************************************************************************************************************
 DATASETS  * FILE   NREC   LENGTH (MB)   RECORD NAMES
              1      19     6374.22       500      610      700      900      950      970     1000      129      960     1100   
                                          VAR    BASINP    GEOM    SYMINP    ZMAT    AOBASIS   BASIS     P2S    ABASIS      S 
                                         1400     1410     1200     1210     1080     1600     1650     1300     1700   
                                           T        V       H0       H01     AOSYM     SMH    MOLCAS    ERIS     OPER   

              2       4        4.02       700     1000      520     2100   
                                         GEOM     BASIS   MCVARS     RHF  

 PROGRAMS   *        TOTAL        HF       INT
 CPU TIMES  *       171.84     66.80    104.97
 REAL TIME  *       206.70 SEC
 DISK USED  *        21.32 GB      
 **********************************************************************************************************************************


 PROGRAM * CCSD (Closed-shell coupled cluster)     Authors: C. Hampel, H.-J. Werner, 1991, M. Deegan, P.J. Knowles, 1992


 Convergence thresholds:  THRVAR = 1.00D-08  THRDEN = 1.00D-12

 CCSD(T)     terms to be evaluated (factor= 1.000)


 Number of core orbitals:           2 (   2   0 )
 Number of closed-shell orbitals:   6 (   5   1 )
 Number of external orbitals:     326 ( 197 129 )

 Molecular orbitals read from record     2100.2  Type=RHF/CANONICAL (state 1.1)

 Number of N-1 electron functions:               6
 Number of N-2 electron functions:              21
 Number of singly external CSFs:              1114
 Number of doubly external CSFs:            975958
 Total number of CSFs:                      977073

 Length of J-op  integral file:               0.00 MB
 Length of K-op  integral file:               4.07 MB
 Length of 3-ext integral record:             0.00 MB

 Memory could be reduced to 151.33 Mwords without degradation in triples

 Integral transformation finished. Total CPU:  10.08 sec, npass=  1  Memory used:  41.21 MW

 Reference energy:                   -129.84913392

 MP2 singlet pair energy:              -0.31155812
 MP2 triplet pair energy:              -0.17227927
 MP2 correlation energy:               -0.48383740
 MP2 total energy:                   -130.33297131

 SCS-MP2 correlation energy:           -0.48106574   (PS=  1.200000  PT=  0.333333)
 SCS-MP2 total energy:               -130.33019966

 ITER.      SQ.NORM     CORR.ENERGY   TOTAL ENERGY   ENERGY CHANGE        DEN1      VAR(S)    VAR(P)  DIIS     TIME  TIME/IT
   1      1.12093398    -0.48064909  -130.32978301     0.00318830     0.02002024  0.32D-02  0.33D-02  1  1    18.01     8.86
   2      1.13165195    -0.48049579  -130.32962971     0.00015330    -0.01277657  0.11D-03  0.49D-03  2  2    26.08     8.98
   3      1.13786445    -0.48088065  -130.33001457    -0.00038486    -0.00301942  0.48D-04  0.57D-04  3  3    34.27     9.06
   4      1.14069877    -0.48087974  -130.33001366     0.00000091    -0.00097925  0.46D-05  0.10D-04  4  4    42.32     9.08
   5      1.14185107    -0.48090942  -130.33004334    -0.00002968    -0.00025545  0.11D-05  0.17D-05  5  5    50.41     9.08
   6      1.14221211    -0.48089737  -130.33003129     0.00001204    -0.00005133  0.12D-06  0.41D-06  6  6    58.54     9.09
   7      1.14228679    -0.48089713  -130.33003105     0.00000024     0.00000375  0.16D-07  0.93D-07  6  1    66.56     9.10
   8      1.14231186    -0.48089711  -130.33003103     0.00000002    -0.00000309  0.34D-08  0.19D-07  6  2    74.62     9.10
   9      1.14232013    -0.48089655  -130.33003047     0.00000056    -0.00000015  0.23D-08  0.21D-08  6  3    82.75     9.10
  10      1.14231539    -0.48089731  -130.33003122    -0.00000075     0.00000163  0.36D-09  0.34D-09  6  5    90.82     9.10
  11      1.14231745    -0.48089729  -130.33003120     0.00000002    -0.00000039  0.10D-09  0.29D-10  6  4    98.81     9.11
  12      1.14231700    -0.48089736  -130.33003127    -0.00000007     0.00000005  0.18D-10  0.65D-11  6  6   107.03     9.11
  13      1.14231680    -0.48089736  -130.33003128    -0.00000000    -0.00000004  0.30D-11  0.92D-12  6  1   115.12     9.11
  14      1.14231653    -0.48089737  -130.33003129    -0.00000001     0.00000004  0.42D-12  0.17D-12  6  3   123.22     9.11
  15      1.14231646    -0.48089737  -130.33003129    -0.00000000     0.00000001  0.12D-12  0.22D-13  6  2   131.45     9.11
  16      1.14231645    -0.48089737  -130.33003129     0.00000000     0.00000000  0.32D-13  0.83D-14  6  4   139.65     9.12
  17      1.14231645    -0.48089737  -130.33003129    -0.00000000    -0.00000000  0.19D-14  0.10D-14  6  5   147.79     9.12
  18      1.14231645    -0.48089737  -130.33003129     0.00000000    -0.00000000  0.28D-15  0.28D-15  6  6   155.94     9.12
  19      1.14231646    -0.48089737  -130.33003129     0.00000000    -0.00000000  0.49D-16  0.39D-16  6  1   164.06     9.12
  20      1.14231646    -0.48089737  -130.33003129     0.00000000    -0.00000000  0.11D-16  0.59D-17  6  3   172.22     9.12
  21      1.14231646    -0.48089737  -130.33003129    -0.00000000     0.00000000  0.20D-17  0.11D-17  6  2   180.31     9.12
  22      1.14231646    -0.48089737  -130.33003129    -0.00000000     0.00000000  0.34D-18  0.16D-18  6  4   188.37     9.12
  23      1.14231646    -0.48089737  -130.33003129    -0.00000000     0.00000000  0.76D-19  0.42D-19  6  5   196.46     9.12
  24      1.14231646    -0.48089737  -130.33003129    -0.00000000     0.00000000  0.30D-19  0.19D-19  6  6   204.58     9.12
  25      1.14231646    -0.48089737  -130.33003129     0.00000000    -0.00000000  0.16D-19  0.94D-20  6  1   212.68     9.12

 Norm of t1 vector:      0.07678792      S-energy:    -0.00000000      T1 diagnostic:  0.01567427
                                                                       D1 diagnostic:  0.04280533

 Doubles amplitudes (print threshold =  0.500E-01):

         I         J         SYM. A    SYM. B    A         B      T(IJ, AB)

         6         6         2         2         1         1     -0.08294980
         6         6         2         2         1         2      0.05299719
         6         6         2         2         2         1      0.05299719


 Total CPU time for triples:     84.82 sec


 RESULTS
 =======

  Reference energy                   -129.849133917158
  CCSD singlet pair energy             -0.333662365362
  CCSD triplet pair energy             -0.147235007817
  CCSD correlation energy              -0.480897373181

  Triples (T) contribution             -0.023038183832
  Total correlation energy             -0.503935557013

  CCSD total energy                  -130.330031290339
  CCSD[T] energy                     -130.354163134342
  CCSD-T energy                      -130.352687136587
 !CCSD(T) total energy               -130.353069474171

 Timing summary (sec):

 STEP                 CPU(USER)    SYS     CPU(TOT)    WALL
 Transformation         10.12      1.40     11.52     11.53
 CCSD iterations       202.57     25.41    227.98    227.99
 Triples                84.82      1.87     86.69     86.70

 Program statistics:

 Available memory in ccsd:               994999756
 Min. memory needed in ccsd:               3348832
 Max. memory used in ccsd:                 4143652
 Max. memory used in cckext:               8340089 (25 integral passes)



 **********************************************************************************************************************************
 DATASETS  * FILE   NREC   LENGTH (MB)   RECORD NAMES
              1      20     6809.41       500      610      700      900      950      970     1000      129      960     1100   
                                          VAR    BASINP    GEOM    SYMINP    ZMAT    AOBASIS   BASIS     P2S    ABASIS      S 
                                         1400     1410     1200     1210     1080     1600     1650     1300     1700     1380   
                                           T        V       H0       H01     AOSYM     SMH    MOLCAS    ERIS     OPER     JKOP   

              2       4        4.02       700     1000      520     2100   
                                         GEOM     BASIS   MCVARS     RHF  

 PROGRAMS   *        TOTAL   CCSD(T)        HF       INT
 CPU TIMES  *       469.38    297.53     66.80    104.97
 REAL TIME  *       532.98 SEC
 DISK USED  *        21.32 GB      
 **********************************************************************************************************************************

 CCSD(T)/aug-cc-pV5Z energy=   -130.353069474171

        CCSD(T)         HF-SCF  
   -130.35306947   -129.84913392
 **********************************************************************************************************************************
 Molpro calculation terminated
 Variable memory released
