
 Primary working directories    : /tmp/r2666/281948.maple
 Secondary working directories  : /tmp/r2666/281948.maple
 Wavefunction directory         : /ddn/home4/r2666/wfu/
 Main file repository           : /tmp/r2666/281948.maple/

 SHA1      : d5ffa45e93fdbca01ffc919aa182cfdae0147319
 NAME      : 2015.1.35
 ARCHNAME  : linux/x86_64
 FC        : /opt/intel/composer_xe_2015.1.133/bin/intel64/ifort
 BLASLIB   : -Wl,-_start-group /opt/intel/mkl/lib/intel64/libmkl_intel_ilp64.a /opt/intel/mkl/lib/intel64/libmkl_intel_thread.a /opt/intel/mkl/lib/intel64/libmkl_core.a -Wl,-_end-group
 id        : olemiss

 Nodes     nprocs
 cn049        1

 Using customized tuning parameters: mindgm=1; mindgv=20; mindgc=4; mindgr=1; noblas=0; minvec=7
 default implementation of scratch files=df  

 ***,hno CCSD(T)/TZ-F12 QFF
 memory, 995, m;
 gthresh,energy=1.d-12,zero=1.d-22,oneint=1.d-22,twoint=1.d-22;
 gthresh,optgrad=1.d-8,optstep=1.d-8;
 nocompress;
 geomtyp=xyz
 bohr
 geometry={
 3
        103       103
 H        0.0000000000        1.6719932434       -1.9313649475
 N        0.0000000000       -0.1668070837       -1.1510832866
 O        0.0000000000        0.0365816303        1.1318586430
 }
 
 basis=av5z
   {hf,maxit=500;accu,20;}
 {ccsd(t),nocheck,maxit=250;orbital,IGNORE_ERROR;}

 Variables initialized (889), CPU time= 0.00 sec
 Commands  initialized (702), CPU time= 0.01 sec, 572 directives.
 Default parameters read. Elapsed time= 0.05 sec

 Checking input...
 Passed
1


                                         ***  PROGRAM SYSTEM MOLPRO  ***
                                       Copyright, TTI GmbH Stuttgart, 2015
                                    Version 2015.1 linked Jul  9 2018 13:16:40


 **********************************************************************************************************************************
 LABEL *   hno CCSD(T)/TZ-F12 QFF                                                        
  64 bit serial version                                                                  DATE: 04-Mar-20          TIME: 13:33:47  
 **********************************************************************************************************************************

 SHA1:             d5ffa45e93fdbca01ffc919aa182cfdae0147319
 **********************************************************************************************************************************

 THRESHOLDS:

 ZERO    =  1.00D-22  ONEINT  =  1.00D-22  TWOINT  =  1.00D-22  PREFAC  =  1.00D-14  LOCALI  =  1.00D-09  EORDER  =  1.00D-04
 ENERGY  =  1.00D-12  ETEST   =  0.00D+00  EDENS   =  0.00D+00  THRDEDEF=  1.00D-06  GRADIENT=  1.00D-02  STEP    =  1.00D-03
 ORBITAL =  1.00D-05  CIVEC   =  1.00D-05  COEFF   =  1.00D-04  PRINTCI =  5.00D-02  PUNCHCI =  9.90D+01  OPTGRAD =  3.00D-04
 OPTENERG=  1.00D-06  OPTSTEP =  3.00D-04  THRGRAD =  1.00D-10  COMPRESS=  1.00D-11  VARMIN  =  1.00D-07  VARMAX  =  1.00D-03
 THRDOUB =  0.00D+00  THRDIV  =  1.00D-05  THRRED  =  1.00D-07  THRPSP  =  1.00D+00  THRDC   =  1.00D-10  THRCS   =  1.00D-10
 THRNRM  =  1.00D-08  THREQ   =  0.00D+00  THRDE   =  1.00D+00  THRREF  =  1.00D-05  SPARFAC =  1.00D+00  THRDLP  =  1.00D-07
 THRDIA  =  1.00D-10  THRDLS  =  1.00D-07  THRGPS  =  0.00D+00  THRKEX  =  0.00D+00  THRDIS  =  2.00D-01  THRVAR  =  1.00D-10
 THRLOC  =  1.00D-06  THRGAP  =  1.00D-06  THRLOCT = -1.00D+00  THRGAPT = -1.00D+00  THRORB  =  1.00D-06  THRMLTP =  0.00D+00
 THRCPQCI=  1.00D-10  KEXTA   =  0.00D+00  THRCOARS=  0.00D+00  SYMTOL  =  1.00D-06  GRADTOL =  1.00D-06  THROVL  =  1.00D-08
 THRORTH =  1.00D-08  GRID    =  1.00D-06  GRIDMAX =  1.00D-03  DTMAX   =  0.00D+00  THROCCDE=  1.00D-01  THROCCDE=  1.00D-01



 THRESHOLDS:

 ZERO    =  1.00D-22  ONEINT  =  1.00D-22  TWOINT  =  1.00D-22  PREFAC  =  1.00D-14  LOCALI  =  1.00D-09  EORDER  =  1.00D-04
 ENERGY  =  1.00D-12  ETEST   =  0.00D+00  EDENS   =  0.00D+00  THRDEDEF=  1.00D-06  GRADIENT=  1.00D-02  STEP    =  1.00D-03
 ORBITAL =  1.00D-05  CIVEC   =  1.00D-05  COEFF   =  1.00D-04  PRINTCI =  5.00D-02  PUNCHCI =  9.90D+01  OPTGRAD =  1.00D-08
 OPTENERG=  1.00D-06  OPTSTEP =  1.00D-08  THRGRAD =  1.00D-10  COMPRESS=  1.00D-11  VARMIN  =  1.00D-07  VARMAX  =  1.00D-03
 THRDOUB =  0.00D+00  THRDIV  =  1.00D-05  THRRED  =  1.00D-07  THRPSP  =  1.00D+00  THRDC   =  1.00D-10  THRCS   =  1.00D-10
 THRNRM  =  1.00D-08  THREQ   =  0.00D+00  THRDE   =  1.00D+00  THRREF  =  1.00D-05  SPARFAC =  1.00D+00  THRDLP  =  1.00D-07
 THRDIA  =  1.00D-10  THRDLS  =  1.00D-07  THRGPS  =  0.00D+00  THRKEX  =  0.00D+00  THRDIS  =  2.00D-01  THRVAR  =  1.00D-10
 THRLOC  =  1.00D-06  THRGAP  =  1.00D-06  THRLOCT = -1.00D+00  THRGAPT = -1.00D+00  THRORB  =  1.00D-06  THRMLTP =  0.00D+00
 THRCPQCI=  1.00D-10  KEXTA   =  0.00D+00  THRCOARS=  0.00D+00  SYMTOL  =  1.00D-06  GRADTOL =  1.00D-06  THROVL  =  1.00D-08
 THRORTH =  1.00D-08  GRID    =  1.00D-06  GRIDMAX =  1.00D-03  DTMAX   =  0.00D+00  THROCCDE=  1.00D-01  THROCCDE=  1.00D-01



 Input parameters for SORTINT:

 COMPRESS =    0.000000
 C_FINAL  =    1.000000
 DEBUG    =   -1.000000
 C_SORT1  =    0.000000
 C_SEWARD =    0.000000
 THRESH   =    0.000000
 IO       =  molpro                                                          
 SPRI     =    0.000000
 SETTING GEOMTYP        =    XYZ
 ZUNIT=BOHR
 

 Variable memory set to  995000000 words,  buffer space   230000 words

 SETTING BASIS          =    AV5Z


 Recomputing integrals since basis changed


 Using spherical harmonics

 Library entry H      S aug-cc-pV5Z          selected for orbital group  1
 Library entry H      P aug-cc-pV5Z          selected for orbital group  1
 Library entry H      D aug-cc-pV5Z          selected for orbital group  1
 Library entry H      F aug-cc-pV5Z          selected for orbital group  1
 Library entry H      G aug-cc-pV5Z          selected for orbital group  1
 Library entry N      S aug-cc-pV5Z          selected for orbital group  2
 Library entry N      P aug-cc-pV5Z          selected for orbital group  2
 Library entry N      D aug-cc-pV5Z          selected for orbital group  2
 Library entry N      F aug-cc-pV5Z          selected for orbital group  2
 Library entry N      G aug-cc-pV5Z          selected for orbital group  2
 Library entry N      H aug-cc-pV5Z          selected for orbital group  2
 Library entry O      S aug-cc-pV5Z          selected for orbital group  3
 Library entry O      P aug-cc-pV5Z          selected for orbital group  3
 Library entry O      D aug-cc-pV5Z          selected for orbital group  3
 Library entry O      F aug-cc-pV5Z          selected for orbital group  3
 Library entry O      G aug-cc-pV5Z          selected for orbital group  3
 Library entry O      H aug-cc-pV5Z          selected for orbital group  3


 PROGRAM * SEWARD (Integral evaluation for generally contracted gaussian basis sets)     Author: Roland Lindh, 1990

 Geometry written to block  1 of record 700


 Point group  Cs  



 ATOMIC COORDINATES

 NR  ATOM    CHARGE       X              Y              Z

   1  H       1.00    0.000000000    1.671993243   -1.931364948
   2  N       7.00    0.000000000   -0.166807084   -1.151083287
   3  O       8.00    0.000000000    0.036581630    1.131858643

 Bond lengths in Bohr (Angstrom)

 1-2  1.997504972  2-3  2.291984036
     ( 1.057034110)     ( 1.212865720)

 Bond angles

  1-2-3  107.90251459

 NUCLEAR CHARGE:                   16
 NUMBER OF PRIMITIVE AOS:         506
 NUMBER OF SYMMETRY AOS:          371
 NUMBER OF CONTRACTIONS:          334   ( 204A'  + 130A"  )
 NUMBER OF CORE ORBITALS:           2   (   2A'  +   0A"  )
 NUMBER OF VALENCE ORBITALS:        9   (   7A'  +   2A"  )


 NUCLEAR REPULSION ENERGY   30.24120048


 Eigenvalues of metric

         1 0.115E-04 0.176E-04 0.646E-04 0.102E-03 0.106E-03 0.139E-03 0.202E-03 0.225E-03
         2 0.129E-03 0.371E-03 0.115E-02 0.162E-02 0.199E-02 0.258E-02 0.333E-02 0.398E-02


 Contracted 2-electron integrals neglected if value below      1.0D-22

      756977463. INTEGRALS WRITTEN OUT IN  184855 BLOCKS ON RECORD 1290 OF FILE 1


 NUMBER OF SORTED TWO-ELECTRON INTEGRALS:  789027325.     BUFFER LENGTH:  32768
 NUMBER OF SEGMENTS:  25  SEGMENT LENGTH:   31997130      RECORD LENGTH: 524288

 Memory used in sort:      32.55 MW

 SORT1 READ   756977463. AND WROTE   760993345. INTEGRALS IN   2189 RECORDS. CPU TIME:    24.65 SEC, REAL TIME:    30.58 SEC
 SORT2 READ   760993345. AND WROTE   789027325. INTEGRALS IN     25 RECORDS. CPU TIME:    10.33 SEC, REAL TIME:    14.64 SEC

 FILE SIZES:   FILE 1: 12137.5 MBYTE,  FILE 4:  9181.4 MBYTE,   TOTAL:  21318.9 MBYTE

 OPERATOR DM      FOR CENTER  0  COORDINATES:    0.000000    0.000000    0.000000


 **********************************************************************************************************************************
 DATASETS  * FILE   NREC   LENGTH (MB)   RECORD NAMES
              1      19     6374.22       500      610      700      900      950      970     1000      129      960     1100   
                                          VAR    BASINP    GEOM    SYMINP    ZMAT    AOBASIS   BASIS     P2S    ABASIS      S 
                                         1400     1410     1200     1210     1080     1600     1650     1300     1700   
                                           T        V       H0       H01     AOSYM     SMH    MOLCAS    ERIS     OPER   

 PROGRAMS   *        TOTAL       INT
 CPU TIMES  *       148.11    148.01
 REAL TIME  *       165.95 SEC
 DISK USED  *        21.32 GB      
 **********************************************************************************************************************************


 PROGRAM * RHF-SCF (CLOSED SHELL)       Authors: W. Meyer, H.-J. Werner


 NUMBER OF ELECTRONS:       8+    8-
 CONVERGENCE THRESHOLDS:    1.00E-10 (Density)    1.00E-13 (Energy)
 MAX. NUMBER OF ITERATIONS:      500
 INTERPOLATION TYPE:            DIIS
 INTERPOLATION STEPS:              2 (START)      1 (STEP)
 LEVEL SHIFTS:                  0.00 (CLOSED)  0.00 (OPEN) 



 Orbital guess generated from atomic densities. Full valence occupancy:    9   2

 Molecular orbital dump at record        2100.2

 Initial occupancy:   7   1

 ITERATION    DDIFF          GRAD             ENERGY        2-EL.EN.            DIPOLE MOMENTS         DIIS   ORB.
    1      0.000D+00      0.000D+00      -129.79660827    153.747724    0.00000    0.59178   -1.04512    0    start
    2      0.000D+00      0.647D-02      -129.82366056    154.962692    0.00000    0.61344   -0.20180    1    diag
    3      0.406D-02      0.500D-02      -129.84777253    155.100213    0.00000    0.55606   -0.60016    2    diag
    4      0.211D-02      0.773D-03      -129.84859022    154.810984    0.00000    0.56341   -0.53774    3    diag
    5      0.380D-03      0.252D-03      -129.84871950    154.905538    0.00000    0.56871   -0.54014    4    diag
    6      0.158D-03      0.732D-04      -129.84874030    154.889061    0.00000    0.56894   -0.53580    5    diag
    7      0.611D-04      0.366D-04      -129.84874643    154.891832    0.00000    0.57017   -0.53310    6    diag
    8      0.420D-04      0.131D-04      -129.84874717    154.891098    0.00000    0.57022   -0.53202    7    diag
    9      0.166D-04      0.255D-05      -129.84874720    154.890981    0.00000    0.57018   -0.53179    8    diag
   10      0.340D-05      0.568D-06      -129.84874720    154.890962    0.00000    0.57015   -0.53176    9    orth
   11      0.645D-06      0.114D-06      -129.84874720    154.890958    0.00000    0.57014   -0.53176    9    diag
   12      0.119D-06      0.233D-07      -129.84874720    154.890958    0.00000    0.57014   -0.53176    9    diag
   13      0.258D-07      0.620D-08      -129.84874720    154.890958    0.00000    0.57014   -0.53176    9    diag
   14      0.711D-08      0.120D-08      -129.84874720    154.890958    0.00000    0.57014   -0.53176    9    diag
   15      0.129D-08      0.339D-09      -129.84874720    154.890958    0.00000    0.57014   -0.53176    9    diag
   16      0.386D-09      0.100D-09      -129.84874720    154.890958    0.00000    0.57014   -0.53176    9    diag
   17      0.712D-10      0.260D-10      -129.84874720    154.890958    0.00000    0.57014   -0.53176    9    diag
   18      0.228D-10      0.878D-11      -129.84874720    154.890958    0.00000    0.57014   -0.53176    9    diag
   19      0.200D-10      0.210D-11      -129.84874720    154.890958    0.00000    0.57014   -0.53176    9    fixocc
   20      0.129D-10      0.448D-12      -129.84874720    154.890958    0.00000    0.57014   -0.53176    9    orth
   21      0.740D-11      0.293D-12      -129.84874720    154.890958    0.00000    0.57014   -0.53176    9    diag
   22      0.374D-11      0.260D-12      -129.84874720    154.890958    0.00000    0.57014   -0.53176    9    diag
   23      0.397D-11      0.422D-12      -129.84874720    154.890958    0.00000    0.57014   -0.53176    9    diag
   24      0.820D-12      0.365D-12      -129.84874720    154.890958    0.00000    0.57014   -0.53176    9    diag
   25      0.104D-11      0.408D-12      -129.84874720    154.890958    0.00000    0.57014   -0.53176    9    diag
   26      0.280D-12      0.345D-12      -129.84874720    154.890958    0.00000    0.57014   -0.53176    9    diag
   27      0.988D-12      0.493D-12      -129.84874720    154.890958    0.00000    0.57014   -0.53176    0    orth

 Final occupancy:   7   1

 !RHF STATE 1.1 Energy               -129.848747201856
 Nuclear energy                        30.24120048
 One-electron energy                 -237.53542654
 Two-electron energy                   77.44547886
 Virial quotient                       -1.00189742
 !RHF STATE 1.1 Dipole moment           0.00000000     0.57013591    -0.53175634
 Dipole moment /Debye                   0.00000000     1.44904602    -1.35150127

 Orbital energies:

         1.1          2.1          3.1          4.1          5.1          6.1          7.1          8.1          9.1
    -20.653425   -15.713737    -1.525390    -0.994093    -0.745149    -0.664648    -0.431957     0.022815     0.065546

         1.2          2.2          3.2
     -0.593835     0.059239     0.091250

 HOMO      7.1    -0.431957 =     -11.7541eV
 LUMO      8.1     0.022815 =       0.6208eV
 LUMO-HOMO         0.454772 =      12.3750eV


 **********************************************************************************************************************************
 DATASETS  * FILE   NREC   LENGTH (MB)   RECORD NAMES
              1      19     6374.22       500      610      700      900      950      970     1000      129      960     1100   
                                          VAR    BASINP    GEOM    SYMINP    ZMAT    AOBASIS   BASIS     P2S    ABASIS      S 
                                         1400     1410     1200     1210     1080     1600     1650     1300     1700   
                                           T        V       H0       H01     AOSYM     SMH    MOLCAS    ERIS     OPER   

              2       4        4.02       700     1000      520     2100   
                                         GEOM     BASIS   MCVARS     RHF  

 PROGRAMS   *        TOTAL        HF       INT
 CPU TIMES  *       265.82    117.71    148.01
 REAL TIME  *       317.59 SEC
 DISK USED  *        21.32 GB      
 **********************************************************************************************************************************


 PROGRAM * CCSD (Closed-shell coupled cluster)     Authors: C. Hampel, H.-J. Werner, 1991, M. Deegan, P.J. Knowles, 1992


 Convergence thresholds:  THRVAR = 1.00D-08  THRDEN = 1.00D-12

 CCSD(T)     terms to be evaluated (factor= 1.000)


 Number of core orbitals:           2 (   2   0 )
 Number of closed-shell orbitals:   6 (   5   1 )
 Number of external orbitals:     326 ( 197 129 )

 Molecular orbitals read from record     2100.2  Type=RHF/CANONICAL (state 1.1)

 Number of N-1 electron functions:               6
 Number of N-2 electron functions:              21
 Number of singly external CSFs:              1114
 Number of doubly external CSFs:            975958
 Total number of CSFs:                      977073

 Length of J-op  integral file:               0.00 MB
 Length of K-op  integral file:               4.07 MB
 Length of 3-ext integral record:             0.00 MB

 Memory could be reduced to 151.33 Mwords without degradation in triples

 Integral transformation finished. Total CPU:  14.78 sec, npass=  1  Memory used:  41.21 MW

 Reference energy:                   -129.84874720

 MP2 singlet pair energy:              -0.31177902
 MP2 triplet pair energy:              -0.17241600
 MP2 correlation energy:               -0.48419502
 MP2 total energy:                   -130.33294222

 SCS-MP2 correlation energy:           -0.48141589   (PS=  1.200000  PT=  0.333333)
 SCS-MP2 total energy:               -130.33016310

 ITER.      SQ.NORM     CORR.ENERGY   TOTAL ENERGY   ENERGY CHANGE        DEN1      VAR(S)    VAR(P)  DIIS     TIME  TIME/IT
   1      1.12126818    -0.48097891  -130.32972612     0.00321611     0.02013788  0.32D-02  0.33D-02  1  1    26.32    12.81
   2      1.13204825    -0.48081788  -130.32956508     0.00016103    -0.01283249  0.11D-03  0.50D-03  2  2    38.18    13.04
   3      1.13831420    -0.48120902  -130.32995622    -0.00039114    -0.00303922  0.50D-04  0.58D-04  3  3    50.14    13.10
   4      1.14116726    -0.48120681  -130.32995401     0.00000221    -0.00098667  0.47D-05  0.10D-04  4  4    62.05    13.14
   5      1.14233484    -0.48123705  -130.32998425    -0.00003024    -0.00025888  0.12D-05  0.17D-05  5  5    73.97    13.16
   6      1.14269996    -0.48122493  -130.32997213     0.00001212    -0.00005184  0.13D-06  0.40D-06  6  6    85.86    13.18
   7      1.14277630    -0.48122451  -130.32997171     0.00000042     0.00000357  0.18D-07  0.93D-07  6  1    97.74    13.19
   8      1.14280191    -0.48122446  -130.32997166     0.00000005    -0.00000316  0.34D-08  0.19D-07  6  2   109.58    13.20
   9      1.14281056    -0.48122387  -130.32997107     0.00000059    -0.00000014  0.22D-08  0.21D-08  6  3   121.55    13.21
  10      1.14280586    -0.48122463  -130.32997183    -0.00000076     0.00000162  0.35D-09  0.35D-09  6  5   133.49    13.22
  11      1.14280792    -0.48122461  -130.32997181     0.00000002    -0.00000039  0.10D-09  0.29D-10  6  4   145.37    13.22
  12      1.14280748    -0.48122468  -130.32997188    -0.00000007     0.00000005  0.19D-10  0.67D-11  6  6   157.23    13.23
  13      1.14280726    -0.48122468  -130.32997188    -0.00000000    -0.00000004  0.32D-11  0.96D-12  6  1   169.23    13.24
  14      1.14280698    -0.48122469  -130.32997189    -0.00000001     0.00000004  0.45D-12  0.18D-12  6  3   181.08    13.24
  15      1.14280691    -0.48122469  -130.32997190    -0.00000000     0.00000001  0.12D-12  0.24D-13  6  2   193.01    13.25
  16      1.14280689    -0.48122469  -130.32997190     0.00000000     0.00000000  0.34D-13  0.91D-14  6  4   204.84    13.25
  17      1.14280689    -0.48122469  -130.32997190    -0.00000000    -0.00000000  0.19D-14  0.11D-14  6  5   216.80    13.25
  18      1.14280690    -0.48122469  -130.32997190     0.00000000    -0.00000000  0.29D-15  0.30D-15  6  6   228.52    13.25
  19      1.14280690    -0.48122469  -130.32997190     0.00000000    -0.00000000  0.52D-16  0.40D-16  6  1   240.50    13.25
  20      1.14280690    -0.48122469  -130.32997190     0.00000000    -0.00000000  0.11D-16  0.62D-17  6  3   252.51    13.26
  21      1.14280690    -0.48122469  -130.32997190    -0.00000000     0.00000000  0.21D-17  0.11D-17  6  2   264.29    13.26
  22      1.14280690    -0.48122469  -130.32997190    -0.00000000     0.00000000  0.36D-18  0.17D-18  6  4   276.11    13.26
  23      1.14280690    -0.48122469  -130.32997190    -0.00000000     0.00000000  0.73D-19  0.42D-19  6  5   288.04    13.26
  24      1.14280690    -0.48122469  -130.32997190    -0.00000000     0.00000000  0.27D-19  0.18D-19  6  6   299.90    13.26
  25      1.14280690    -0.48122469  -130.32997190    -0.00000000     0.00000000  0.15D-19  0.91D-20  6  1   311.66    13.26

 Norm of t1 vector:      0.07718848      S-energy:    -0.00000000      T1 diagnostic:  0.01575603
                                                                       D1 diagnostic:  0.04282554

 Doubles amplitudes (print threshold =  0.500E-01):

         I         J         SYM. A    SYM. B    A         B      T(IJ, AB)

         6         6         2         2         1         1     -0.08296213
         6         6         2         2         1         2      0.05292140
         6         6         2         2         2         1      0.05292140


 Total CPU time for triples:    121.56 sec


 RESULTS
 =======

  Reference energy                   -129.848747201857
  CCSD singlet pair energy             -0.333940381882
  CCSD triplet pair energy             -0.147284311607
  CCSD correlation energy              -0.481224693491

  Triples (T) contribution             -0.023106349907
  Total correlation energy             -0.504331043398

  CCSD total energy                  -130.329971895348
  CCSD[T] energy                     -130.354182037128
  CCSD-T energy                      -130.352692264290
 !CCSD(T) total energy               -130.353078245255

 Timing summary (sec):

 STEP                 CPU(USER)    SYS     CPU(TOT)    WALL
 Transformation         14.85      1.90     16.75     16.76
 CCSD iterations       296.82     34.69    331.51    331.55
 Triples               121.56      2.28    123.84    123.84

 Program statistics:

 Available memory in ccsd:               994999756
 Min. memory needed in ccsd:               3348832
 Max. memory used in ccsd:                 4143652
 Max. memory used in cckext:               8340089 (25 integral passes)



 **********************************************************************************************************************************
 DATASETS  * FILE   NREC   LENGTH (MB)   RECORD NAMES
              1      20     6809.41       500      610      700      900      950      970     1000      129      960     1100   
                                          VAR    BASINP    GEOM    SYMINP    ZMAT    AOBASIS   BASIS     P2S    ABASIS      S 
                                         1400     1410     1200     1210     1080     1600     1650     1300     1700     1380   
                                           T        V       H0       H01     AOSYM     SMH    MOLCAS    ERIS     OPER     JKOP   

              2       4        4.02       700     1000      520     2100   
                                         GEOM     BASIS   MCVARS     RHF  

 PROGRAMS   *        TOTAL   CCSD(T)        HF       INT
 CPU TIMES  *       699.07    433.25    117.71    148.01
 REAL TIME  *       789.79 SEC
 DISK USED  *        21.32 GB      
 **********************************************************************************************************************************

 CCSD(T)/aug-cc-pV5Z energy=   -130.353078245255

        CCSD(T)         HF-SCF  
   -130.35307825   -129.84874720
 **********************************************************************************************************************************
 Molpro calculation terminated
 Variable memory released
