
 Primary working directories    : /tmp/r2666/281910.maple
 Secondary working directories  : /tmp/r2666/281910.maple
 Wavefunction directory         : /ddn/home4/r2666/wfu/
 Main file repository           : /tmp/r2666/281910.maple/

 SHA1      : d5ffa45e93fdbca01ffc919aa182cfdae0147319
 NAME      : 2015.1.35
 ARCHNAME  : linux/x86_64
 FC        : /opt/intel/composer_xe_2015.1.133/bin/intel64/ifort
 BLASLIB   : -Wl,-_start-group /opt/intel/mkl/lib/intel64/libmkl_intel_ilp64.a /opt/intel/mkl/lib/intel64/libmkl_intel_thread.a /opt/intel/mkl/lib/intel64/libmkl_core.a -Wl,-_end-group
 id        : olemiss

 Nodes     nprocs
 cn075        1

 Using customized tuning parameters: mindgm=1; mindgv=20; mindgc=4; mindgr=1; noblas=0; minvec=7
 default implementation of scratch files=df  

 ***,hno CCSD(T)/TZ-F12 QFF
 memory, 995, m;
 gthresh,energy=1.d-12,zero=1.d-22,oneint=1.d-22,twoint=1.d-22;
 gthresh,optgrad=1.d-8,optstep=1.d-8;
 nocompress;
 geomtyp=xyz
 bohr
 geometry={
 3
         65        65
 H        0.0000000000        1.6666338987       -1.9256228379
 N        0.0000000000       -0.1635657754       -1.1492613422
 O        0.0000000000        0.0386996667        1.1242945891
 }
 
 basis=av5z
   {hf,maxit=500;accu,20;}
 {ccsd(t),nocheck,maxit=250;orbital,IGNORE_ERROR;}

 Variables initialized (889), CPU time= 0.01 sec
 Commands  initialized (702), CPU time= 0.01 sec, 572 directives.
 Default parameters read. Elapsed time= 0.06 sec

 Checking input...
 Passed
1


                                         ***  PROGRAM SYSTEM MOLPRO  ***
                                       Copyright, TTI GmbH Stuttgart, 2015
                                    Version 2015.1 linked Jul  9 2018 13:16:40


 **********************************************************************************************************************************
 LABEL *   hno CCSD(T)/TZ-F12 QFF                                                        
  64 bit serial version                                                                  DATE: 04-Mar-20          TIME: 13:20:09  
 **********************************************************************************************************************************

 SHA1:             d5ffa45e93fdbca01ffc919aa182cfdae0147319
 **********************************************************************************************************************************

 THRESHOLDS:

 ZERO    =  1.00D-22  ONEINT  =  1.00D-22  TWOINT  =  1.00D-22  PREFAC  =  1.00D-14  LOCALI  =  1.00D-09  EORDER  =  1.00D-04
 ENERGY  =  1.00D-12  ETEST   =  0.00D+00  EDENS   =  0.00D+00  THRDEDEF=  1.00D-06  GRADIENT=  1.00D-02  STEP    =  1.00D-03
 ORBITAL =  1.00D-05  CIVEC   =  1.00D-05  COEFF   =  1.00D-04  PRINTCI =  5.00D-02  PUNCHCI =  9.90D+01  OPTGRAD =  3.00D-04
 OPTENERG=  1.00D-06  OPTSTEP =  3.00D-04  THRGRAD =  1.00D-10  COMPRESS=  1.00D-11  VARMIN  =  1.00D-07  VARMAX  =  1.00D-03
 THRDOUB =  0.00D+00  THRDIV  =  1.00D-05  THRRED  =  1.00D-07  THRPSP  =  1.00D+00  THRDC   =  1.00D-10  THRCS   =  1.00D-10
 THRNRM  =  1.00D-08  THREQ   =  0.00D+00  THRDE   =  1.00D+00  THRREF  =  1.00D-05  SPARFAC =  1.00D+00  THRDLP  =  1.00D-07
 THRDIA  =  1.00D-10  THRDLS  =  1.00D-07  THRGPS  =  0.00D+00  THRKEX  =  0.00D+00  THRDIS  =  2.00D-01  THRVAR  =  1.00D-10
 THRLOC  =  1.00D-06  THRGAP  =  1.00D-06  THRLOCT = -1.00D+00  THRGAPT = -1.00D+00  THRORB  =  1.00D-06  THRMLTP =  0.00D+00
 THRCPQCI=  1.00D-10  KEXTA   =  0.00D+00  THRCOARS=  0.00D+00  SYMTOL  =  1.00D-06  GRADTOL =  1.00D-06  THROVL  =  1.00D-08
 THRORTH =  1.00D-08  GRID    =  1.00D-06  GRIDMAX =  1.00D-03  DTMAX   =  0.00D+00  THROCCDE=  1.00D-01  THROCCDE=  1.00D-01



 THRESHOLDS:

 ZERO    =  1.00D-22  ONEINT  =  1.00D-22  TWOINT  =  1.00D-22  PREFAC  =  1.00D-14  LOCALI  =  1.00D-09  EORDER  =  1.00D-04
 ENERGY  =  1.00D-12  ETEST   =  0.00D+00  EDENS   =  0.00D+00  THRDEDEF=  1.00D-06  GRADIENT=  1.00D-02  STEP    =  1.00D-03
 ORBITAL =  1.00D-05  CIVEC   =  1.00D-05  COEFF   =  1.00D-04  PRINTCI =  5.00D-02  PUNCHCI =  9.90D+01  OPTGRAD =  1.00D-08
 OPTENERG=  1.00D-06  OPTSTEP =  1.00D-08  THRGRAD =  1.00D-10  COMPRESS=  1.00D-11  VARMIN  =  1.00D-07  VARMAX  =  1.00D-03
 THRDOUB =  0.00D+00  THRDIV  =  1.00D-05  THRRED  =  1.00D-07  THRPSP  =  1.00D+00  THRDC   =  1.00D-10  THRCS   =  1.00D-10
 THRNRM  =  1.00D-08  THREQ   =  0.00D+00  THRDE   =  1.00D+00  THRREF  =  1.00D-05  SPARFAC =  1.00D+00  THRDLP  =  1.00D-07
 THRDIA  =  1.00D-10  THRDLS  =  1.00D-07  THRGPS  =  0.00D+00  THRKEX  =  0.00D+00  THRDIS  =  2.00D-01  THRVAR  =  1.00D-10
 THRLOC  =  1.00D-06  THRGAP  =  1.00D-06  THRLOCT = -1.00D+00  THRGAPT = -1.00D+00  THRORB  =  1.00D-06  THRMLTP =  0.00D+00
 THRCPQCI=  1.00D-10  KEXTA   =  0.00D+00  THRCOARS=  0.00D+00  SYMTOL  =  1.00D-06  GRADTOL =  1.00D-06  THROVL  =  1.00D-08
 THRORTH =  1.00D-08  GRID    =  1.00D-06  GRIDMAX =  1.00D-03  DTMAX   =  0.00D+00  THROCCDE=  1.00D-01  THROCCDE=  1.00D-01



 Input parameters for SORTINT:

 COMPRESS =    0.000000
 C_FINAL  =    1.000000
 DEBUG    =   -1.000000
 C_SORT1  =    0.000000
 C_SEWARD =    0.000000
 THRESH   =    0.000000
 IO       =  molpro                                                          
 SPRI     =    0.000000
 SETTING GEOMTYP        =    XYZ
 ZUNIT=BOHR
 

 Variable memory set to  995000000 words,  buffer space   230000 words

 SETTING BASIS          =    AV5Z


 Recomputing integrals since basis changed


 Using spherical harmonics

 Library entry H      S aug-cc-pV5Z          selected for orbital group  1
 Library entry H      P aug-cc-pV5Z          selected for orbital group  1
 Library entry H      D aug-cc-pV5Z          selected for orbital group  1
 Library entry H      F aug-cc-pV5Z          selected for orbital group  1
 Library entry H      G aug-cc-pV5Z          selected for orbital group  1
 Library entry N      S aug-cc-pV5Z          selected for orbital group  2
 Library entry N      P aug-cc-pV5Z          selected for orbital group  2
 Library entry N      D aug-cc-pV5Z          selected for orbital group  2
 Library entry N      F aug-cc-pV5Z          selected for orbital group  2
 Library entry N      G aug-cc-pV5Z          selected for orbital group  2
 Library entry N      H aug-cc-pV5Z          selected for orbital group  2
 Library entry O      S aug-cc-pV5Z          selected for orbital group  3
 Library entry O      P aug-cc-pV5Z          selected for orbital group  3
 Library entry O      D aug-cc-pV5Z          selected for orbital group  3
 Library entry O      F aug-cc-pV5Z          selected for orbital group  3
 Library entry O      G aug-cc-pV5Z          selected for orbital group  3
 Library entry O      H aug-cc-pV5Z          selected for orbital group  3


 PROGRAM * SEWARD (Integral evaluation for generally contracted gaussian basis sets)     Author: Roland Lindh, 1990

 Geometry written to block  1 of record 700


 Point group  Cs  



 ATOMIC COORDINATES

 NR  ATOM    CHARGE       X              Y              Z

   1  H       1.00    0.000000000    1.666633899   -1.925622838
   2  N       7.00    0.000000000   -0.163565775   -1.149261342
   3  O       8.00    0.000000000    0.038699667    1.124294589

 Bond lengths in Bohr (Angstrom)

 1-2  1.988056342  2-3  2.282535406
     ( 1.052034110)     ( 1.207865720)

 Bond angles

  1-2-3  107.90251459

 NUCLEAR CHARGE:                   16
 NUMBER OF PRIMITIVE AOS:         506
 NUMBER OF SYMMETRY AOS:          371
 NUMBER OF CONTRACTIONS:          334   ( 204A'  + 130A"  )
 NUMBER OF CORE ORBITALS:           2   (   2A'  +   0A"  )
 NUMBER OF VALENCE ORBITALS:        9   (   7A'  +   2A"  )


 NUCLEAR REPULSION ENERGY   30.36916573


 Eigenvalues of metric

         1 0.113E-04 0.172E-04 0.637E-04 0.999E-04 0.105E-03 0.137E-03 0.200E-03 0.224E-03
         2 0.127E-03 0.364E-03 0.112E-02 0.158E-02 0.193E-02 0.253E-02 0.326E-02 0.391E-02


 Contracted 2-electron integrals neglected if value below      1.0D-22

      756977495. INTEGRALS WRITTEN OUT IN  184855 BLOCKS ON RECORD 1290 OF FILE 1


 NUMBER OF SORTED TWO-ELECTRON INTEGRALS:  789027325.     BUFFER LENGTH:  32768
 NUMBER OF SEGMENTS:  25  SEGMENT LENGTH:   31997130      RECORD LENGTH: 524288

 Memory used in sort:      32.55 MW

 SORT1 READ   756977495. AND WROTE   760993382. INTEGRALS IN   2189 RECORDS. CPU TIME:    41.27 SEC, REAL TIME:   279.49 SEC
 SORT2 READ   760993382. AND WROTE   789027325. INTEGRALS IN     25 RECORDS. CPU TIME:    17.60 SEC, REAL TIME:   176.42 SEC

 FILE SIZES:   FILE 1: 12137.5 MBYTE,  FILE 4:  9181.4 MBYTE,   TOTAL:  21318.9 MBYTE

 OPERATOR DM      FOR CENTER  0  COORDINATES:    0.000000    0.000000    0.000000


 **********************************************************************************************************************************
 DATASETS  * FILE   NREC   LENGTH (MB)   RECORD NAMES
              1      19     6374.22       500      610      700      900      950      970     1000      129      960     1100   
                                          VAR    BASINP    GEOM    SYMINP    ZMAT    AOBASIS   BASIS     P2S    ABASIS      S 
                                         1400     1410     1200     1210     1080     1600     1650     1300     1700   
                                           T        V       H0       H01     AOSYM     SMH    MOLCAS    ERIS     OPER   

 PROGRAMS   *        TOTAL       INT
 CPU TIMES  *       175.73    175.61
 REAL TIME  *       671.77 SEC
 DISK USED  *        21.32 GB      
 **********************************************************************************************************************************


 PROGRAM * RHF-SCF (CLOSED SHELL)       Authors: W. Meyer, H.-J. Werner


 NUMBER OF ELECTRONS:       8+    8-
 CONVERGENCE THRESHOLDS:    1.00E-10 (Density)    1.00E-13 (Energy)
 MAX. NUMBER OF ITERATIONS:      500
 INTERPOLATION TYPE:            DIIS
 INTERPOLATION STEPS:              2 (START)      1 (STEP)
 LEVEL SHIFTS:                  0.00 (CLOSED)  0.00 (OPEN) 



 Orbital guess generated from atomic densities. Full valence occupancy:    9   2

 Molecular orbital dump at record        2100.2

 Initial occupancy:   7   1

 ITERATION    DDIFF          GRAD             ENERGY        2-EL.EN.            DIPOLE MOMENTS         DIIS   ORB.
    1      0.000D+00      0.000D+00      -129.79851767    153.980699    0.00000    0.59279   -1.02818    0    start
    2      0.000D+00      0.642D-02      -129.82575193    155.199968    0.00000    0.61064   -0.20643    1    diag
    3      0.401D-02      0.489D-02      -129.84877022    155.327476    0.00000    0.55544   -0.59320    2    diag
    4      0.207D-02      0.768D-03      -129.84957565    155.042872    0.00000    0.56295   -0.53163    3    diag
    5      0.378D-03      0.249D-03      -129.84970191    155.136532    0.00000    0.56817   -0.53409    4    diag
    6      0.156D-03      0.723D-04      -129.84972214    155.120202    0.00000    0.56844   -0.52987    5    diag
    7      0.601D-04      0.360D-04      -129.84972803    155.122994    0.00000    0.56966   -0.52723    6    diag
    8      0.412D-04      0.127D-04      -129.84972871    155.122283    0.00000    0.56971   -0.52620    7    diag
    9      0.159D-04      0.245D-05      -129.84972874    155.122172    0.00000    0.56967   -0.52598    8    diag
   10      0.321D-05      0.551D-06      -129.84972874    155.122154    0.00000    0.56964   -0.52595    9    orth
   11      0.624D-06      0.111D-06      -129.84972874    155.122150    0.00000    0.56963   -0.52595    9    diag
   12      0.116D-06      0.225D-07      -129.84972874    155.122150    0.00000    0.56963   -0.52595    9    diag
   13      0.253D-07      0.592D-08      -129.84972874    155.122150    0.00000    0.56963   -0.52595    9    diag
   14      0.684D-08      0.115D-08      -129.84972874    155.122150    0.00000    0.56963   -0.52595    9    diag
   15      0.124D-08      0.327D-09      -129.84972874    155.122150    0.00000    0.56963   -0.52595    9    diag
   16      0.372D-09      0.985D-10      -129.84972874    155.122150    0.00000    0.56963   -0.52595    9    diag
   17      0.753D-10      0.259D-10      -129.84972874    155.122150    0.00000    0.56963   -0.52595    9    diag
   18      0.218D-10      0.884D-11      -129.84972874    155.122150    0.00000    0.56963   -0.52595    9    diag
   19      0.165D-10      0.218D-11      -129.84972874    155.122150    0.00000    0.56963   -0.52595    9    fixocc
   20      0.935D-11      0.536D-12      -129.84972874    155.122150    0.00000    0.56963   -0.52595    0    orth

 Final occupancy:   7   1

 !RHF STATE 1.1 Energy               -129.849728741604
 Nuclear energy                        30.36916573
 One-electron energy                 -237.77996941
 Two-electron energy                   77.56107494
 Virial quotient                       -1.00169048
 !RHF STATE 1.1 Dipole moment           0.00000000     0.56962827    -0.52594513
 Dipole moment /Debye                   0.00000000     1.44775583    -1.33673164

 Orbital energies:

         1.1          2.1          3.1          4.1          5.1          6.1          7.1          8.1          9.1
    -20.652852   -15.712204    -1.529525    -0.994173    -0.747227    -0.666075    -0.430728     0.022874     0.065551

         1.2          2.2          3.2
     -0.596127     0.060255     0.091631

 HOMO      7.1    -0.430728 =     -11.7207eV
 LUMO      8.1     0.022874 =       0.6224eV
 LUMO-HOMO         0.453602 =      12.3431eV


 **********************************************************************************************************************************
 DATASETS  * FILE   NREC   LENGTH (MB)   RECORD NAMES
              1      19     6374.22       500      610      700      900      950      970     1000      129      960     1100   
                                          VAR    BASINP    GEOM    SYMINP    ZMAT    AOBASIS   BASIS     P2S    ABASIS      S 
                                         1400     1410     1200     1210     1080     1600     1650     1300     1700   
                                           T        V       H0       H01     AOSYM     SMH    MOLCAS    ERIS     OPER   

              2       4        4.02       700     1000      520     2100   
                                         GEOM     BASIS   MCVARS     RHF  

 PROGRAMS   *        TOTAL        HF       INT
 CPU TIMES  *       239.55     63.82    175.61
 REAL TIME  *       756.33 SEC
 DISK USED  *        21.32 GB      
 **********************************************************************************************************************************


 PROGRAM * CCSD (Closed-shell coupled cluster)     Authors: C. Hampel, H.-J. Werner, 1991, M. Deegan, P.J. Knowles, 1992


 Convergence thresholds:  THRVAR = 1.00D-08  THRDEN = 1.00D-12

 CCSD(T)     terms to be evaluated (factor= 1.000)


 Number of core orbitals:           2 (   2   0 )
 Number of closed-shell orbitals:   6 (   5   1 )
 Number of external orbitals:     326 ( 197 129 )

 Molecular orbitals read from record     2100.2  Type=RHF/CANONICAL (state 1.1)

 Number of N-1 electron functions:               6
 Number of N-2 electron functions:              21
 Number of singly external CSFs:              1114
 Number of doubly external CSFs:            975958
 Total number of CSFs:                      977073

 Length of J-op  integral file:               0.00 MB
 Length of K-op  integral file:               4.07 MB
 Length of 3-ext integral record:             0.00 MB

 Memory could be reduced to 151.33 Mwords without degradation in triples

 Integral transformation finished. Total CPU:  10.16 sec, npass=  1  Memory used:  41.21 MW

 Reference energy:                   -129.84972874

 MP2 singlet pair energy:              -0.31116007
 MP2 triplet pair energy:              -0.17200495
 MP2 correlation energy:               -0.48316502
 MP2 total energy:                   -130.33289376

 SCS-MP2 correlation energy:           -0.48041738   (PS=  1.200000  PT=  0.333333)
 SCS-MP2 total energy:               -130.33014613

 ITER.      SQ.NORM     CORR.ENERGY   TOTAL ENERGY   ENERGY CHANGE        DEN1      VAR(S)    VAR(P)  DIIS     TIME  TIME/IT
   1      1.12056499    -0.48016609  -130.32989483     0.00299893     0.01965272  0.32D-02  0.32D-02  1  1    18.47     9.16
   2      1.13118582    -0.48005330  -130.32978205     0.00011279    -0.01267094  0.11D-03  0.49D-03  2  2    27.09     9.39
   3      1.13732882    -0.48043363  -130.33016237    -0.00038033    -0.00300040  0.48D-04  0.56D-04  3  3    35.53     9.43
   4      1.14011307    -0.48043194  -130.33016068     0.00000169    -0.00096726  0.45D-05  0.99D-05  4  4    44.04     9.44
   5      1.14123746    -0.48046098  -130.33018972    -0.00002903    -0.00024975  0.11D-05  0.17D-05  5  5    52.56     9.45
   6      1.14159132    -0.48044941  -130.33017815     0.00001157    -0.00005013  0.12D-06  0.40D-06  6  6    61.04     9.46
   7      1.14166642    -0.48044904  -130.33017779     0.00000036     0.00000339  0.17D-07  0.92D-07  6  1    69.54     9.47
   8      1.14169146    -0.48044907  -130.33017781    -0.00000002    -0.00000304  0.35D-08  0.19D-07  6  2    78.06     9.48
   9      1.14169989    -0.48044851  -130.33017725     0.00000055    -0.00000018  0.22D-08  0.20D-08  6  3    86.47     9.48
  10      1.14169531    -0.48044925  -130.33017799    -0.00000073     0.00000158  0.34D-09  0.32D-09  6  5    94.93     9.48
  11      1.14169726    -0.48044923  -130.33017797     0.00000002    -0.00000036  0.99D-10  0.27D-10  6  4   103.42     9.48
  12      1.14169682    -0.48044930  -130.33017804    -0.00000007     0.00000005  0.18D-10  0.63D-11  6  6   111.77     9.48
  13      1.14169661    -0.48044930  -130.33017804    -0.00000000    -0.00000003  0.31D-11  0.91D-12  6  1   120.15     9.48
  14      1.14169635    -0.48044931  -130.33017805    -0.00000001     0.00000004  0.44D-12  0.17D-12  6  3   128.59     9.48
  15      1.14169627    -0.48044931  -130.33017806    -0.00000000     0.00000001  0.12D-12  0.22D-13  6  2   137.12     9.48
  16      1.14169626    -0.48044931  -130.33017806     0.00000000     0.00000000  0.32D-13  0.87D-14  6  4   145.56     9.48
  17      1.14169626    -0.48044931  -130.33017806    -0.00000000    -0.00000000  0.18D-14  0.11D-14  6  5   153.96     9.48
  18      1.14169627    -0.48044931  -130.33017806     0.00000000    -0.00000000  0.27D-15  0.29D-15  6  6   162.36     9.48
  19      1.14169627    -0.48044931  -130.33017806     0.00000000    -0.00000000  0.51D-16  0.40D-16  6  1   170.84     9.48
  20      1.14169627    -0.48044931  -130.33017806     0.00000000    -0.00000000  0.11D-16  0.59D-17  6  3   179.50     9.49
  21      1.14169627    -0.48044931  -130.33017806    -0.00000000     0.00000000  0.20D-17  0.11D-17  6  2   187.96     9.49
  22      1.14169627    -0.48044931  -130.33017806    -0.00000000     0.00000000  0.35D-18  0.16D-18  6  4   196.45     9.49
  23      1.14169627    -0.48044931  -130.33017806    -0.00000000     0.00000000  0.74D-19  0.40D-19  6  5   204.99     9.49
  24      1.14169627    -0.48044931  -130.33017806    -0.00000000     0.00000000  0.31D-19  0.18D-19  6  6   213.45     9.49
  25      1.14169627    -0.48044931  -130.33017806     0.00000000    -0.00000000  0.18D-19  0.10D-19  6  1   221.88     9.49

 Norm of t1 vector:      0.07614998      S-energy:    -0.00000000      T1 diagnostic:  0.01554405
                                                                       D1 diagnostic:  0.04215625

 Doubles amplitudes (print threshold =  0.500E-01):

         I         J         SYM. A    SYM. B    A         B      T(IJ, AB)

         6         6         2         2         1         1     -0.07915909
         6         6         2         2         1         2      0.05302426
         6         6         2         2         2         1      0.05302426


 Total CPU time for triples:     86.89 sec


 RESULTS
 =======

  Reference energy                   -129.849728741604
  CCSD singlet pair energy             -0.333271378438
  CCSD triplet pair energy             -0.147177935319
  CCSD correlation energy              -0.480449313759

  Triples (T) contribution             -0.022910939840
  Total correlation energy             -0.503360253599

  CCSD total energy                  -130.330178055363
  CCSD[T] energy                     -130.354165407966
  CCSD-T energy                      -130.352710146416
 !CCSD(T) total energy               -130.353088995203

 Timing summary (sec):

 STEP                 CPU(USER)    SYS     CPU(TOT)    WALL
 Transformation         10.20      1.45     11.65     11.88
 CCSD iterations       211.69     25.58    237.27    237.28
 Triples                86.89      1.52     88.41     88.43

 Program statistics:

 Available memory in ccsd:               994999756
 Min. memory needed in ccsd:               3348832
 Max. memory used in ccsd:                 4143652
 Max. memory used in cckext:               8340089 (25 integral passes)



 **********************************************************************************************************************************
 DATASETS  * FILE   NREC   LENGTH (MB)   RECORD NAMES
              1      20     6809.41       500      610      700      900      950      970     1000      129      960     1100   
                                          VAR    BASINP    GEOM    SYMINP    ZMAT    AOBASIS   BASIS     P2S    ABASIS      S 
                                         1400     1410     1200     1210     1080     1600     1650     1300     1700     1380   
                                           T        V       H0       H01     AOSYM     SMH    MOLCAS    ERIS     OPER     JKOP   

              2       4        4.02       700     1000      520     2100   
                                         GEOM     BASIS   MCVARS     RHF  

 PROGRAMS   *        TOTAL   CCSD(T)        HF       INT
 CPU TIMES  *       548.36    308.81     63.82    175.61
 REAL TIME  *      1094.11 SEC
 DISK USED  *        21.32 GB      
 **********************************************************************************************************************************

 CCSD(T)/aug-cc-pV5Z energy=   -130.353088995203

        CCSD(T)         HF-SCF  
   -130.35308900   -129.84972874
 **********************************************************************************************************************************
 Molpro calculation terminated
 Variable memory released
