
 Primary working directories    : /tmp/r2666/281933.maple
 Secondary working directories  : /tmp/r2666/281933.maple
 Wavefunction directory         : /ddn/home4/r2666/wfu/
 Main file repository           : /tmp/r2666/281933.maple/

 SHA1      : d5ffa45e93fdbca01ffc919aa182cfdae0147319
 NAME      : 2015.1.35
 ARCHNAME  : linux/x86_64
 FC        : /opt/intel/composer_xe_2015.1.133/bin/intel64/ifort
 BLASLIB   : -Wl,-_start-group /opt/intel/mkl/lib/intel64/libmkl_intel_ilp64.a /opt/intel/mkl/lib/intel64/libmkl_intel_thread.a /opt/intel/mkl/lib/intel64/libmkl_core.a -Wl,-_end-group
 id        : olemiss

 Nodes     nprocs
 cn083        1

 Using customized tuning parameters: mindgm=1; mindgv=20; mindgc=4; mindgr=1; noblas=0; minvec=7
 default implementation of scratch files=df  

 ***,hno CCSD(T)/TZ-F12 QFF
 memory, 995, m;
 gthresh,energy=1.d-12,zero=1.d-22,oneint=1.d-22,twoint=1.d-22;
 gthresh,optgrad=1.d-8,optstep=1.d-8;
 nocompress;
 geomtyp=xyz
 bohr
 geometry={
 3
         88        88
 H        0.0000000000        1.6697882508       -1.9284628273
 N        0.0000000000       -0.1648237124       -1.1383836808
 O        0.0000000000        0.0368032517        1.1162569171
 }
 
 basis=av5z
   {hf,maxit=500;accu,20;}
 {ccsd(t),nocheck,maxit=250;orbital,IGNORE_ERROR;}

 Variables initialized (889), CPU time= 0.00 sec
 Commands  initialized (702), CPU time= 0.01 sec, 572 directives.
 Default parameters read. Elapsed time= 0.06 sec

 Checking input...
 Passed
1


                                         ***  PROGRAM SYSTEM MOLPRO  ***
                                       Copyright, TTI GmbH Stuttgart, 2015
                                    Version 2015.1 linked Jul  9 2018 13:16:40


 **********************************************************************************************************************************
 LABEL *   hno CCSD(T)/TZ-F12 QFF                                                        
  64 bit serial version                                                                  DATE: 04-Mar-20          TIME: 13:31:51  
 **********************************************************************************************************************************

 SHA1:             d5ffa45e93fdbca01ffc919aa182cfdae0147319
 **********************************************************************************************************************************

 THRESHOLDS:

 ZERO    =  1.00D-22  ONEINT  =  1.00D-22  TWOINT  =  1.00D-22  PREFAC  =  1.00D-14  LOCALI  =  1.00D-09  EORDER  =  1.00D-04
 ENERGY  =  1.00D-12  ETEST   =  0.00D+00  EDENS   =  0.00D+00  THRDEDEF=  1.00D-06  GRADIENT=  1.00D-02  STEP    =  1.00D-03
 ORBITAL =  1.00D-05  CIVEC   =  1.00D-05  COEFF   =  1.00D-04  PRINTCI =  5.00D-02  PUNCHCI =  9.90D+01  OPTGRAD =  3.00D-04
 OPTENERG=  1.00D-06  OPTSTEP =  3.00D-04  THRGRAD =  1.00D-10  COMPRESS=  1.00D-11  VARMIN  =  1.00D-07  VARMAX  =  1.00D-03
 THRDOUB =  0.00D+00  THRDIV  =  1.00D-05  THRRED  =  1.00D-07  THRPSP  =  1.00D+00  THRDC   =  1.00D-10  THRCS   =  1.00D-10
 THRNRM  =  1.00D-08  THREQ   =  0.00D+00  THRDE   =  1.00D+00  THRREF  =  1.00D-05  SPARFAC =  1.00D+00  THRDLP  =  1.00D-07
 THRDIA  =  1.00D-10  THRDLS  =  1.00D-07  THRGPS  =  0.00D+00  THRKEX  =  0.00D+00  THRDIS  =  2.00D-01  THRVAR  =  1.00D-10
 THRLOC  =  1.00D-06  THRGAP  =  1.00D-06  THRLOCT = -1.00D+00  THRGAPT = -1.00D+00  THRORB  =  1.00D-06  THRMLTP =  0.00D+00
 THRCPQCI=  1.00D-10  KEXTA   =  0.00D+00  THRCOARS=  0.00D+00  SYMTOL  =  1.00D-06  GRADTOL =  1.00D-06  THROVL  =  1.00D-08
 THRORTH =  1.00D-08  GRID    =  1.00D-06  GRIDMAX =  1.00D-03  DTMAX   =  0.00D+00  THROCCDE=  1.00D-01  THROCCDE=  1.00D-01



 THRESHOLDS:

 ZERO    =  1.00D-22  ONEINT  =  1.00D-22  TWOINT  =  1.00D-22  PREFAC  =  1.00D-14  LOCALI  =  1.00D-09  EORDER  =  1.00D-04
 ENERGY  =  1.00D-12  ETEST   =  0.00D+00  EDENS   =  0.00D+00  THRDEDEF=  1.00D-06  GRADIENT=  1.00D-02  STEP    =  1.00D-03
 ORBITAL =  1.00D-05  CIVEC   =  1.00D-05  COEFF   =  1.00D-04  PRINTCI =  5.00D-02  PUNCHCI =  9.90D+01  OPTGRAD =  1.00D-08
 OPTENERG=  1.00D-06  OPTSTEP =  1.00D-08  THRGRAD =  1.00D-10  COMPRESS=  1.00D-11  VARMIN  =  1.00D-07  VARMAX  =  1.00D-03
 THRDOUB =  0.00D+00  THRDIV  =  1.00D-05  THRRED  =  1.00D-07  THRPSP  =  1.00D+00  THRDC   =  1.00D-10  THRCS   =  1.00D-10
 THRNRM  =  1.00D-08  THREQ   =  0.00D+00  THRDE   =  1.00D+00  THRREF  =  1.00D-05  SPARFAC =  1.00D+00  THRDLP  =  1.00D-07
 THRDIA  =  1.00D-10  THRDLS  =  1.00D-07  THRGPS  =  0.00D+00  THRKEX  =  0.00D+00  THRDIS  =  2.00D-01  THRVAR  =  1.00D-10
 THRLOC  =  1.00D-06  THRGAP  =  1.00D-06  THRLOCT = -1.00D+00  THRGAPT = -1.00D+00  THRORB  =  1.00D-06  THRMLTP =  0.00D+00
 THRCPQCI=  1.00D-10  KEXTA   =  0.00D+00  THRCOARS=  0.00D+00  SYMTOL  =  1.00D-06  GRADTOL =  1.00D-06  THROVL  =  1.00D-08
 THRORTH =  1.00D-08  GRID    =  1.00D-06  GRIDMAX =  1.00D-03  DTMAX   =  0.00D+00  THROCCDE=  1.00D-01  THROCCDE=  1.00D-01



 Input parameters for SORTINT:

 COMPRESS =    0.000000
 C_FINAL  =    1.000000
 DEBUG    =   -1.000000
 C_SORT1  =    0.000000
 C_SEWARD =    0.000000
 THRESH   =    0.000000
 IO       =  molpro                                                          
 SPRI     =    0.000000
 SETTING GEOMTYP        =    XYZ
 ZUNIT=BOHR
 

 Variable memory set to  995000000 words,  buffer space   230000 words

 SETTING BASIS          =    AV5Z


 Recomputing integrals since basis changed


 Using spherical harmonics

 Library entry H      S aug-cc-pV5Z          selected for orbital group  1
 Library entry H      P aug-cc-pV5Z          selected for orbital group  1
 Library entry H      D aug-cc-pV5Z          selected for orbital group  1
 Library entry H      F aug-cc-pV5Z          selected for orbital group  1
 Library entry H      G aug-cc-pV5Z          selected for orbital group  1
 Library entry N      S aug-cc-pV5Z          selected for orbital group  2
 Library entry N      P aug-cc-pV5Z          selected for orbital group  2
 Library entry N      D aug-cc-pV5Z          selected for orbital group  2
 Library entry N      F aug-cc-pV5Z          selected for orbital group  2
 Library entry N      G aug-cc-pV5Z          selected for orbital group  2
 Library entry N      H aug-cc-pV5Z          selected for orbital group  2
 Library entry O      S aug-cc-pV5Z          selected for orbital group  3
 Library entry O      P aug-cc-pV5Z          selected for orbital group  3
 Library entry O      D aug-cc-pV5Z          selected for orbital group  3
 Library entry O      F aug-cc-pV5Z          selected for orbital group  3
 Library entry O      G aug-cc-pV5Z          selected for orbital group  3
 Library entry O      H aug-cc-pV5Z          selected for orbital group  3


 PROGRAM * SEWARD (Integral evaluation for generally contracted gaussian basis sets)     Author: Roland Lindh, 1990

 Geometry written to block  1 of record 700


 Point group  Cs  



 ATOMIC COORDINATES

 NR  ATOM    CHARGE       X              Y              Z

   1  H       1.00    0.000000000    1.669788251   -1.928462827
   2  N       7.00    0.000000000   -0.164823712   -1.138383681
   3  O       8.00    0.000000000    0.036803252    1.116256917

 Bond lengths in Bohr (Angstrom)

 1-2  1.997504972  2-3  2.263638147
     ( 1.057034110)     ( 1.197865721)

 Bond angles

  1-2-3  108.18899349

 NUCLEAR CHARGE:                   16
 NUMBER OF PRIMITIVE AOS:         506
 NUMBER OF SYMMETRY AOS:          371
 NUMBER OF CONTRACTIONS:          334   ( 204A'  + 130A"  )
 NUMBER OF CORE ORBITALS:           2   (   2A'  +   0A"  )
 NUMBER OF VALENCE ORBITALS:        9   (   7A'  +   2A"  )


 NUCLEAR REPULSION ENERGY   30.55879936


 Eigenvalues of metric

         1 0.112E-04 0.169E-04 0.637E-04 0.973E-04 0.102E-03 0.134E-03 0.198E-03 0.223E-03
         2 0.123E-03 0.369E-03 0.109E-02 0.151E-02 0.195E-02 0.245E-02 0.329E-02 0.387E-02


 Contracted 2-electron integrals neglected if value below      1.0D-22

      756977501. INTEGRALS WRITTEN OUT IN  184855 BLOCKS ON RECORD 1290 OF FILE 1


 NUMBER OF SORTED TWO-ELECTRON INTEGRALS:  789027325.     BUFFER LENGTH:  32768
 NUMBER OF SEGMENTS:  25  SEGMENT LENGTH:   31997130      RECORD LENGTH: 524288

 Memory used in sort:      32.55 MW

 SORT1 READ   756977501. AND WROTE   760993388. INTEGRALS IN   2189 RECORDS. CPU TIME:    14.21 SEC, REAL TIME:    21.54 SEC
 SORT2 READ   760993388. AND WROTE   789027325. INTEGRALS IN     25 RECORDS. CPU TIME:     9.91 SEC, REAL TIME:    25.94 SEC

 FILE SIZES:   FILE 1: 12137.5 MBYTE,  FILE 4:  9181.4 MBYTE,   TOTAL:  21318.9 MBYTE

 OPERATOR DM      FOR CENTER  0  COORDINATES:    0.000000    0.000000    0.000000


 **********************************************************************************************************************************
 DATASETS  * FILE   NREC   LENGTH (MB)   RECORD NAMES
              1      19     6374.22       500      610      700      900      950      970     1000      129      960     1100   
                                          VAR    BASINP    GEOM    SYMINP    ZMAT    AOBASIS   BASIS     P2S    ABASIS      S 
                                         1400     1410     1200     1210     1080     1600     1650     1300     1700   
                                           T        V       H0       H01     AOSYM     SMH    MOLCAS    ERIS     OPER   

 PROGRAMS   *        TOTAL       INT
 CPU TIMES  *       117.47    117.39
 REAL TIME  *       147.84 SEC
 DISK USED  *        21.32 GB      
 **********************************************************************************************************************************


 PROGRAM * RHF-SCF (CLOSED SHELL)       Authors: W. Meyer, H.-J. Werner


 NUMBER OF ELECTRONS:       8+    8-
 CONVERGENCE THRESHOLDS:    1.00E-10 (Density)    1.00E-13 (Energy)
 MAX. NUMBER OF ITERATIONS:      500
 INTERPOLATION TYPE:            DIIS
 INTERPOLATION STEPS:              2 (START)      1 (STEP)
 LEVEL SHIFTS:                  0.00 (CLOSED)  0.00 (OPEN) 



 Orbital guess generated from atomic densities. Full valence occupancy:    9   2

 Molecular orbital dump at record        2100.2

 Initial occupancy:   7   1

 ITERATION    DDIFF          GRAD             ENERGY        2-EL.EN.            DIPOLE MOMENTS         DIIS   ORB.
    1      0.000D+00      0.000D+00      -129.80084094    154.314999    0.00000    0.58745   -0.99692    0    start
    2      0.000D+00      0.636D-02      -129.82834178    155.560332    0.00000    0.60350   -0.20954    1    diag
    3      0.393D-02      0.475D-02      -129.84993534    155.663707    0.00000    0.54998   -0.57839    2    diag
    4      0.202D-02      0.759D-03      -129.85071920    155.386257    0.00000    0.55755   -0.51850    3    diag
    5      0.373D-03      0.246D-03      -129.85084214    155.479456    0.00000    0.56286   -0.52121    4    diag
    6      0.154D-03      0.714D-04      -129.85086182    155.463209    0.00000    0.56318   -0.51717    5    diag
    7      0.593D-04      0.352D-04      -129.85086741    155.466122    0.00000    0.56445   -0.51468    6    diag
    8      0.403D-04      0.120D-04      -129.85086800    155.465446    0.00000    0.56451   -0.51373    7    diag
    9      0.148D-04      0.230D-05      -129.85086803    155.465340    0.00000    0.56447   -0.51352    8    diag
   10      0.293D-05      0.530D-06      -129.85086803    155.465322    0.00000    0.56444   -0.51349    9    orth
   11      0.600D-06      0.108D-06      -129.85086803    155.465318    0.00000    0.56443   -0.51349    9    diag
   12      0.116D-06      0.218D-07      -129.85086803    155.465318    0.00000    0.56443   -0.51349    9    diag
   13      0.253D-07      0.565D-08      -129.85086803    155.465317    0.00000    0.56443   -0.51349    9    diag
   14      0.670D-08      0.112D-08      -129.85086803    155.465317    0.00000    0.56443   -0.51349    9    diag
   15      0.124D-08      0.327D-09      -129.85086803    155.465317    0.00000    0.56443   -0.51349    9    diag
   16      0.369D-09      0.101D-09      -129.85086803    155.465317    0.00000    0.56443   -0.51349    9    diag
   17      0.747D-10      0.280D-10      -129.85086803    155.465317    0.00000    0.56443   -0.51349    9    diag
   18      0.294D-10      0.956D-11      -129.85086803    155.465317    0.00000    0.56443   -0.51349    9    diag
   19      0.214D-10      0.240D-11      -129.85086803    155.465317    0.00000    0.56443   -0.51349    0    orth

 Final occupancy:   7   1

 !RHF STATE 1.1 Energy               -129.850868026877
 Nuclear energy                        30.55879936
 One-electron energy                 -238.14232606
 Two-electron energy                   77.73265867
 Virial quotient                       -1.00145122
 !RHF STATE 1.1 Dipole moment           0.00000000     0.56443052    -0.51348505
 Dipole moment /Debye                   0.00000000     1.43454531    -1.30506333

 Orbital energies:

         1.1          2.1          3.1          4.1          5.1          6.1          7.1          8.1          9.1
    -20.652081   -15.711121    -1.537610    -0.990774    -0.749761    -0.669029    -0.427140     0.022969     0.065561

         1.2          2.2          3.2
     -0.600988     0.062164     0.092626

 HOMO      7.1    -0.427140 =     -11.6231eV
 LUMO      8.1     0.022969 =       0.6250eV
 LUMO-HOMO         0.450109 =      12.2481eV


 **********************************************************************************************************************************
 DATASETS  * FILE   NREC   LENGTH (MB)   RECORD NAMES
              1      19     6374.22       500      610      700      900      950      970     1000      129      960     1100   
                                          VAR    BASINP    GEOM    SYMINP    ZMAT    AOBASIS   BASIS     P2S    ABASIS      S 
                                         1400     1410     1200     1210     1080     1600     1650     1300     1700   
                                           T        V       H0       H01     AOSYM     SMH    MOLCAS    ERIS     OPER   

              2       4        4.02       700     1000      520     2100   
                                         GEOM     BASIS   MCVARS     RHF  

 PROGRAMS   *        TOTAL        HF       INT
 CPU TIMES  *       182.69     65.22    117.39
 REAL TIME  *       231.94 SEC
 DISK USED  *        21.32 GB      
 **********************************************************************************************************************************


 PROGRAM * CCSD (Closed-shell coupled cluster)     Authors: C. Hampel, H.-J. Werner, 1991, M. Deegan, P.J. Knowles, 1992


 Convergence thresholds:  THRVAR = 1.00D-08  THRDEN = 1.00D-12

 CCSD(T)     terms to be evaluated (factor= 1.000)


 Number of core orbitals:           2 (   2   0 )
 Number of closed-shell orbitals:   6 (   5   1 )
 Number of external orbitals:     326 ( 197 129 )

 Molecular orbitals read from record     2100.2  Type=RHF/CANONICAL (state 1.1)

 Number of N-1 electron functions:               6
 Number of N-2 electron functions:              21
 Number of singly external CSFs:              1114
 Number of doubly external CSFs:            975958
 Total number of CSFs:                      977073

 Length of J-op  integral file:               0.00 MB
 Length of K-op  integral file:               4.07 MB
 Length of 3-ext integral record:             0.00 MB

 Memory could be reduced to 151.33 Mwords without degradation in triples

 Integral transformation finished. Total CPU:  10.71 sec, npass=  1  Memory used:  41.21 MW

 Reference energy:                   -129.85086803

 MP2 singlet pair energy:              -0.31026806
 MP2 triplet pair energy:              -0.17140140
 MP2 correlation energy:               -0.48166946
 MP2 total energy:                   -130.33253749

 SCS-MP2 correlation energy:           -0.47897143   (PS=  1.200000  PT=  0.333333)
 SCS-MP2 total energy:               -130.32983946

 ITER.      SQ.NORM     CORR.ENERGY   TOTAL ENERGY   ENERGY CHANGE        DEN1      VAR(S)    VAR(P)  DIIS     TIME  TIME/IT
   1      1.11968324    -0.47905383  -130.32992185     0.00261563     0.01888816  0.30D-02  0.31D-02  1  1    19.59     9.87
   2      1.13009154    -0.47902073  -130.32988875     0.00003310    -0.01244249  0.10D-03  0.48D-03  2  2    28.63     9.99
   3      1.13607997    -0.47939004  -130.33025807    -0.00036932    -0.00295381  0.46D-04  0.54D-04  3  3    37.54    10.02
   4      1.13876316    -0.47938732  -130.33025535     0.00000272    -0.00094131  0.43D-05  0.96D-05  4  4    46.62    10.05
   5      1.13983278    -0.47941495  -130.33028298    -0.00002763    -0.00023825  0.11D-05  0.16D-05  5  5    55.72    10.07
   6      1.14017334    -0.47940431  -130.33027234     0.00001064    -0.00004781  0.12D-06  0.40D-06  6  6    64.77    10.08
   7      1.14024932    -0.47940379  -130.33027181     0.00000053     0.00000275  0.18D-07  0.89D-07  6  1    73.75    10.08
   8      1.14027429    -0.47940390  -130.33027193    -0.00000011    -0.00000292  0.37D-08  0.18D-07  6  2    82.72    10.08
   9      1.14028288    -0.47940337  -130.33027139     0.00000053    -0.00000024  0.21D-08  0.18D-08  6  3    91.82    10.08
  10      1.14027862    -0.47940406  -130.33027209    -0.00000070     0.00000148  0.32D-09  0.29D-09  6  5   100.85    10.08
  11      1.14028035    -0.47940406  -130.33027209     0.00000001    -0.00000030  0.91D-10  0.25D-10  6  4   109.92    10.08
  12      1.14027991    -0.47940412  -130.33027215    -0.00000006     0.00000005  0.17D-10  0.58D-11  6  6   118.92    10.08
  13      1.14027970    -0.47940413  -130.33027215    -0.00000000    -0.00000003  0.31D-11  0.88D-12  6  1   127.95    10.09
  14      1.14027944    -0.47940413  -130.33027216    -0.00000001     0.00000004  0.47D-12  0.16D-12  6  3   137.02    10.09
  15      1.14027937    -0.47940414  -130.33027217    -0.00000000     0.00000001  0.12D-12  0.23D-13  6  2   146.02    10.10
  16      1.14027936    -0.47940414  -130.33027216     0.00000000     0.00000000  0.31D-13  0.90D-14  6  4   155.10    10.10
  17      1.14027936    -0.47940414  -130.33027217    -0.00000000    -0.00000000  0.17D-14  0.11D-14  6  5   164.22    10.10
  18      1.14027936    -0.47940414  -130.33027216     0.00000000    -0.00000000  0.27D-15  0.30D-15  6  6   173.29    10.11
  19      1.14027937    -0.47940414  -130.33027216     0.00000000    -0.00000000  0.33D-16  0.44D-16  6  2   182.33    10.11
  20      1.14027937    -0.47940414  -130.33027216     0.00000000    -0.00000000  0.87D-17  0.62D-17  6  1   191.42    10.11
  21      1.14027937    -0.47940414  -130.33027216    -0.00000000     0.00000000  0.15D-17  0.87D-18  6  3   200.51    10.11
  22      1.14027937    -0.47940414  -130.33027216    -0.00000000     0.00000000  0.29D-18  0.13D-18  6  4   209.56    10.12
  23      1.14027937    -0.47940414  -130.33027216    -0.00000000     0.00000000  0.85D-19  0.44D-19  6  5   218.59    10.12
  24      1.14027937    -0.47940414  -130.33027216    -0.00000000     0.00000000  0.35D-19  0.18D-19  6  6   227.62    10.12
  25      1.14027937    -0.47940414  -130.33027216    -0.00000000     0.00000000  0.18D-19  0.81D-20  6  2   236.78    10.12

 Norm of t1 vector:      0.07481267      S-energy:    -0.00000000      T1 diagnostic:  0.01527107
                                                                       D1 diagnostic:  0.04089955

 Doubles amplitudes (print threshold =  0.500E-01):

         I         J         SYM. A    SYM. B    A         B      T(IJ, AB)

         6         6         2         2         1         1     -0.07148648
         6         6         2         2         1         2      0.05271911
         6         6         2         2         2         1      0.05271911


 Total CPU time for triples:     91.36 sec


 RESULTS
 =======

  Reference energy                   -129.850868026876
  CCSD singlet pair energy             -0.332363335895
  CCSD triplet pair energy             -0.147040801623
  CCSD correlation energy              -0.479404137519

  Triples (T) contribution             -0.022632228072
  Total correlation energy             -0.502036365592

  CCSD total energy                  -130.330272164395
  CCSD[T] energy                     -130.353944455216
  CCSD-T energy                      -130.352533842731
 !CCSD(T) total energy               -130.352904392468

 Timing summary (sec):

 STEP                 CPU(USER)    SYS     CPU(TOT)    WALL
 Transformation         10.76      1.48     12.24     12.25
 CCSD iterations       226.03     26.99    253.02    253.07
 Triples                91.36      1.88     93.24     93.24

 Program statistics:

 Available memory in ccsd:               994999756
 Min. memory needed in ccsd:               3348832
 Max. memory used in ccsd:                 4143652
 Max. memory used in cckext:               8340089 (25 integral passes)



 **********************************************************************************************************************************
 DATASETS  * FILE   NREC   LENGTH (MB)   RECORD NAMES
              1      20     6809.41       500      610      700      900      950      970     1000      129      960     1100   
                                          VAR    BASINP    GEOM    SYMINP    ZMAT    AOBASIS   BASIS     P2S    ABASIS      S 
                                         1400     1410     1200     1210     1080     1600     1650     1300     1700     1380   
                                           T        V       H0       H01     AOSYM     SMH    MOLCAS    ERIS     OPER     JKOP   

              2       4        4.02       700     1000      520     2100   
                                         GEOM     BASIS   MCVARS     RHF  

 PROGRAMS   *        TOTAL   CCSD(T)        HF       INT
 CPU TIMES  *       510.86    328.17     65.22    117.39
 REAL TIME  *       590.67 SEC
 DISK USED  *        21.32 GB      
 **********************************************************************************************************************************

 CCSD(T)/aug-cc-pV5Z energy=   -130.352904392468

        CCSD(T)         HF-SCF  
   -130.35290439   -129.85086803
 **********************************************************************************************************************************
 Molpro calculation terminated
 Variable memory released
