
 Primary working directories    : /tmp/r2666/281784.maple
 Secondary working directories  : /tmp/r2666/281784.maple
 Wavefunction directory         : /ddn/home4/r2666/wfu/
 Main file repository           : /tmp/r2666/281784.maple/

 SHA1      : d5ffa45e93fdbca01ffc919aa182cfdae0147319
 NAME      : 2015.1.35
 ARCHNAME  : linux/x86_64
 FC        : /opt/intel/composer_xe_2015.1.133/bin/intel64/ifort
 BLASLIB   : -Wl,-_start-group /opt/intel/mkl/lib/intel64/libmkl_intel_ilp64.a /opt/intel/mkl/lib/intel64/libmkl_intel_thread.a /opt/intel/mkl/lib/intel64/libmkl_core.a -Wl,-_end-group
 id        : olemiss

 Nodes     nprocs
 cn065        1

 Using customized tuning parameters: mindgm=1; mindgv=20; mindgc=4; mindgr=1; noblas=0; minvec=7
 default implementation of scratch files=df  

 ***,hno CCSD(T)/TZ-F12 QFF
 memory, 995, m;
 gthresh,energy=1.d-12,zero=1.d-22,oneint=1.d-22,twoint=1.d-22;
 gthresh,optgrad=1.d-8,optstep=1.d-8;
 nocompress;
 geomtyp=xyz
 bohr
 geometry={
 3
          1         1
 H        0.0000000000        1.6668505430       -1.9291807890
 N        0.0000000000       -0.1611701010       -1.1477023540
 O        0.0000000000        0.0360873480        1.1262935520
 }
 
 basis=av5z
   {hf,maxit=500;accu,20;}
 {ccsd(t),nocheck,maxit=250;orbital,IGNORE_ERROR;}

 Variables initialized (889), CPU time= 0.01 sec
 Commands  initialized (702), CPU time= 0.00 sec, 572 directives.
 Default parameters read. Elapsed time= 0.07 sec

 Checking input...
 Passed
1


                                         ***  PROGRAM SYSTEM MOLPRO  ***
                                       Copyright, TTI GmbH Stuttgart, 2015
                                    Version 2015.1 linked Jul  9 2018 13:16:40


 **********************************************************************************************************************************
 LABEL *   hno CCSD(T)/TZ-F12 QFF                                                        
  64 bit serial version                                                                  DATE: 03-Mar-20          TIME: 14:34:58  
 **********************************************************************************************************************************

 SHA1:             d5ffa45e93fdbca01ffc919aa182cfdae0147319
 **********************************************************************************************************************************

 THRESHOLDS:

 ZERO    =  1.00D-22  ONEINT  =  1.00D-22  TWOINT  =  1.00D-22  PREFAC  =  1.00D-14  LOCALI  =  1.00D-09  EORDER  =  1.00D-04
 ENERGY  =  1.00D-12  ETEST   =  0.00D+00  EDENS   =  0.00D+00  THRDEDEF=  1.00D-06  GRADIENT=  1.00D-02  STEP    =  1.00D-03
 ORBITAL =  1.00D-05  CIVEC   =  1.00D-05  COEFF   =  1.00D-04  PRINTCI =  5.00D-02  PUNCHCI =  9.90D+01  OPTGRAD =  3.00D-04
 OPTENERG=  1.00D-06  OPTSTEP =  3.00D-04  THRGRAD =  1.00D-10  COMPRESS=  1.00D-11  VARMIN  =  1.00D-07  VARMAX  =  1.00D-03
 THRDOUB =  0.00D+00  THRDIV  =  1.00D-05  THRRED  =  1.00D-07  THRPSP  =  1.00D+00  THRDC   =  1.00D-10  THRCS   =  1.00D-10
 THRNRM  =  1.00D-08  THREQ   =  0.00D+00  THRDE   =  1.00D+00  THRREF  =  1.00D-05  SPARFAC =  1.00D+00  THRDLP  =  1.00D-07
 THRDIA  =  1.00D-10  THRDLS  =  1.00D-07  THRGPS  =  0.00D+00  THRKEX  =  0.00D+00  THRDIS  =  2.00D-01  THRVAR  =  1.00D-10
 THRLOC  =  1.00D-06  THRGAP  =  1.00D-06  THRLOCT = -1.00D+00  THRGAPT = -1.00D+00  THRORB  =  1.00D-06  THRMLTP =  0.00D+00
 THRCPQCI=  1.00D-10  KEXTA   =  0.00D+00  THRCOARS=  0.00D+00  SYMTOL  =  1.00D-06  GRADTOL =  1.00D-06  THROVL  =  1.00D-08
 THRORTH =  1.00D-08  GRID    =  1.00D-06  GRIDMAX =  1.00D-03  DTMAX   =  0.00D+00  THROCCDE=  1.00D-01  THROCCDE=  1.00D-01



 THRESHOLDS:

 ZERO    =  1.00D-22  ONEINT  =  1.00D-22  TWOINT  =  1.00D-22  PREFAC  =  1.00D-14  LOCALI  =  1.00D-09  EORDER  =  1.00D-04
 ENERGY  =  1.00D-12  ETEST   =  0.00D+00  EDENS   =  0.00D+00  THRDEDEF=  1.00D-06  GRADIENT=  1.00D-02  STEP    =  1.00D-03
 ORBITAL =  1.00D-05  CIVEC   =  1.00D-05  COEFF   =  1.00D-04  PRINTCI =  5.00D-02  PUNCHCI =  9.90D+01  OPTGRAD =  1.00D-08
 OPTENERG=  1.00D-06  OPTSTEP =  1.00D-08  THRGRAD =  1.00D-10  COMPRESS=  1.00D-11  VARMIN  =  1.00D-07  VARMAX  =  1.00D-03
 THRDOUB =  0.00D+00  THRDIV  =  1.00D-05  THRRED  =  1.00D-07  THRPSP  =  1.00D+00  THRDC   =  1.00D-10  THRCS   =  1.00D-10
 THRNRM  =  1.00D-08  THREQ   =  0.00D+00  THRDE   =  1.00D+00  THRREF  =  1.00D-05  SPARFAC =  1.00D+00  THRDLP  =  1.00D-07
 THRDIA  =  1.00D-10  THRDLS  =  1.00D-07  THRGPS  =  0.00D+00  THRKEX  =  0.00D+00  THRDIS  =  2.00D-01  THRVAR  =  1.00D-10
 THRLOC  =  1.00D-06  THRGAP  =  1.00D-06  THRLOCT = -1.00D+00  THRGAPT = -1.00D+00  THRORB  =  1.00D-06  THRMLTP =  0.00D+00
 THRCPQCI=  1.00D-10  KEXTA   =  0.00D+00  THRCOARS=  0.00D+00  SYMTOL  =  1.00D-06  GRADTOL =  1.00D-06  THROVL  =  1.00D-08
 THRORTH =  1.00D-08  GRID    =  1.00D-06  GRIDMAX =  1.00D-03  DTMAX   =  0.00D+00  THROCCDE=  1.00D-01  THROCCDE=  1.00D-01



 Input parameters for SORTINT:

 COMPRESS =    0.000000
 C_FINAL  =    1.000000
 DEBUG    =   -1.000000
 C_SORT1  =    0.000000
 C_SEWARD =    0.000000
 THRESH   =    0.000000
 IO       =  molpro                                                          
 SPRI     =    0.000000
 SETTING GEOMTYP        =    XYZ
 ZUNIT=BOHR
 

 Variable memory set to  995000000 words,  buffer space   230000 words

 SETTING BASIS          =    AV5Z


 Recomputing integrals since basis changed


 Using spherical harmonics

 Library entry H      S aug-cc-pV5Z          selected for orbital group  1
 Library entry H      P aug-cc-pV5Z          selected for orbital group  1
 Library entry H      D aug-cc-pV5Z          selected for orbital group  1
 Library entry H      F aug-cc-pV5Z          selected for orbital group  1
 Library entry H      G aug-cc-pV5Z          selected for orbital group  1
 Library entry N      S aug-cc-pV5Z          selected for orbital group  2
 Library entry N      P aug-cc-pV5Z          selected for orbital group  2
 Library entry N      D aug-cc-pV5Z          selected for orbital group  2
 Library entry N      F aug-cc-pV5Z          selected for orbital group  2
 Library entry N      G aug-cc-pV5Z          selected for orbital group  2
 Library entry N      H aug-cc-pV5Z          selected for orbital group  2
 Library entry O      S aug-cc-pV5Z          selected for orbital group  3
 Library entry O      P aug-cc-pV5Z          selected for orbital group  3
 Library entry O      D aug-cc-pV5Z          selected for orbital group  3
 Library entry O      F aug-cc-pV5Z          selected for orbital group  3
 Library entry O      G aug-cc-pV5Z          selected for orbital group  3
 Library entry O      H aug-cc-pV5Z          selected for orbital group  3


 PROGRAM * SEWARD (Integral evaluation for generally contracted gaussian basis sets)     Author: Roland Lindh, 1990

 Geometry written to block  1 of record 700


 Point group  Cs  



 ATOMIC COORDINATES

 NR  ATOM    CHARGE       X              Y              Z

   1  H       1.00    0.000000000    1.666850543   -1.929180789
   2  N       7.00    0.000000000   -0.161170101   -1.147702354
   3  O       8.00    0.000000000    0.036087348    1.126293552

 Bond lengths in Bohr (Angstrom)

 1-2  1.988056342  2-3  2.282535406
     ( 1.052034110)     ( 1.207865720)

 Bond angles

  1-2-3  108.18899349

 NUCLEAR CHARGE:                   16
 NUMBER OF PRIMITIVE AOS:         506
 NUMBER OF SYMMETRY AOS:          371
 NUMBER OF CONTRACTIONS:          334   ( 204A'  + 130A"  )
 NUMBER OF CORE ORBITALS:           2   (   2A'  +   0A"  )
 NUMBER OF VALENCE ORBITALS:        9   (   7A'  +   2A"  )


 NUCLEAR REPULSION ENERGY   30.36500034


 Eigenvalues of metric

         1 0.113E-04 0.172E-04 0.636E-04 0.999E-04 0.105E-03 0.136E-03 0.199E-03 0.224E-03
         2 0.127E-03 0.364E-03 0.112E-02 0.158E-02 0.193E-02 0.252E-02 0.326E-02 0.391E-02


 Contracted 2-electron integrals neglected if value below      1.0D-22

      756977433. INTEGRALS WRITTEN OUT IN  184855 BLOCKS ON RECORD 1290 OF FILE 1


 NUMBER OF SORTED TWO-ELECTRON INTEGRALS:  789027325.     BUFFER LENGTH:  32768
 NUMBER OF SEGMENTS:  25  SEGMENT LENGTH:   31997130      RECORD LENGTH: 524288

 Memory used in sort:      32.55 MW

 SORT1 READ   756977433. AND WROTE   760993317. INTEGRALS IN   2189 RECORDS. CPU TIME:    25.64 SEC, REAL TIME:    32.30 SEC
 SORT2 READ   760993317. AND WROTE   789027325. INTEGRALS IN     25 RECORDS. CPU TIME:    11.32 SEC, REAL TIME:    16.16 SEC

 FILE SIZES:   FILE 1: 12137.5 MBYTE,  FILE 4:  9181.4 MBYTE,   TOTAL:  21318.9 MBYTE

 OPERATOR DM      FOR CENTER  0  COORDINATES:    0.000000    0.000000    0.000000


 **********************************************************************************************************************************
 DATASETS  * FILE   NREC   LENGTH (MB)   RECORD NAMES
              1      19     6374.22       500      610      700      900      950      970     1000      129      960     1100   
                                          VAR    BASINP    GEOM    SYMINP    ZMAT    AOBASIS   BASIS     P2S    ABASIS      S 
                                         1400     1410     1200     1210     1080     1600     1650     1300     1700   
                                           T        V       H0       H01     AOSYM     SMH    MOLCAS    ERIS     OPER   

 PROGRAMS   *        TOTAL       INT
 CPU TIMES  *       160.16    160.06
 REAL TIME  *       179.88 SEC
 DISK USED  *        21.32 GB      
 **********************************************************************************************************************************


 PROGRAM * RHF-SCF (CLOSED SHELL)       Authors: W. Meyer, H.-J. Werner


 NUMBER OF ELECTRONS:       8+    8-
 CONVERGENCE THRESHOLDS:    1.00E-10 (Density)    1.00E-13 (Energy)
 MAX. NUMBER OF ITERATIONS:      500
 INTERPOLATION TYPE:            DIIS
 INTERPOLATION STEPS:              2 (START)      1 (STEP)
 LEVEL SHIFTS:                  0.00 (CLOSED)  0.00 (OPEN) 



 Orbital guess generated from atomic densities. Full valence occupancy:    9   2

 Molecular orbital dump at record        2100.2

 Initial occupancy:   7   1

 ITERATION    DDIFF          GRAD             ENERGY        2-EL.EN.            DIPOLE MOMENTS         DIIS   ORB.
    1      0.000D+00      0.000D+00      -129.79854865    153.971841    0.00000    0.59529   -1.02882    0    start
    2      0.000D+00      0.641D-02      -129.82577760    155.192519    0.00000    0.61044   -0.20762    1    diag
    3      0.401D-02      0.489D-02      -129.84877088    155.319711    0.00000    0.55655   -0.59433    2    diag
    4      0.207D-02      0.769D-03      -129.84957707    155.034964    0.00000    0.56391   -0.53268    3    diag
    5      0.378D-03      0.249D-03      -129.84970324    155.128713    0.00000    0.56916   -0.53517    4    diag
    6      0.156D-03      0.722D-04      -129.84972344    155.112388    0.00000    0.56943   -0.53095    5    diag
    7      0.601D-04      0.360D-04      -129.84972932    155.115180    0.00000    0.57066   -0.52832    6    diag
    8      0.412D-04      0.127D-04      -129.84973000    155.114471    0.00000    0.57070   -0.52729    7    diag
    9      0.159D-04      0.245D-05      -129.84973003    155.114359    0.00000    0.57067   -0.52706    8    diag
   10      0.321D-05      0.552D-06      -129.84973003    155.114341    0.00000    0.57063   -0.52703    9    orth
   11      0.626D-06      0.111D-06      -129.84973003    155.114337    0.00000    0.57063   -0.52703    9    diag
   12      0.117D-06      0.225D-07      -129.84973003    155.114337    0.00000    0.57063   -0.52703    9    diag
   13      0.253D-07      0.592D-08      -129.84973003    155.114337    0.00000    0.57063   -0.52703    9    diag
   14      0.683D-08      0.115D-08      -129.84973003    155.114337    0.00000    0.57063   -0.52703    9    diag
   15      0.125D-08      0.327D-09      -129.84973003    155.114337    0.00000    0.57063   -0.52703    9    diag
   16      0.371D-09      0.984D-10      -129.84973003    155.114337    0.00000    0.57063   -0.52703    9    diag
   17      0.766D-10      0.258D-10      -129.84973003    155.114337    0.00000    0.57063   -0.52703    9    diag
   18      0.220D-10      0.880D-11      -129.84973003    155.114337    0.00000    0.57063   -0.52703    0    orth

 Final occupancy:   7   1

 !RHF STATE 1.1 Energy               -129.849730030315
 Nuclear energy                        30.36500034
 One-electron energy                 -237.77189891
 Two-electron energy                   77.55716854
 Virial quotient                       -1.00169892
 !RHF STATE 1.1 Dipole moment           0.00000000     0.57062545    -0.52702972
 Dipole moment /Debye                   0.00000000     1.45029023    -1.33948820

 Orbital energies:

         1.1          2.1          3.1          4.1          5.1          6.1          7.1          8.1          9.1
    -20.652926   -15.712153    -1.529379    -0.994351    -0.747212    -0.666133    -0.430538     0.022854     0.065547

         1.2          2.2          3.2
     -0.596090     0.060213     0.091615

 HOMO      7.1    -0.430538 =     -11.7155eV
 LUMO      8.1     0.022854 =       0.6219eV
 LUMO-HOMO         0.453392 =      12.3374eV


 **********************************************************************************************************************************
 DATASETS  * FILE   NREC   LENGTH (MB)   RECORD NAMES
              1      19     6374.22       500      610      700      900      950      970     1000      129      960     1100   
                                          VAR    BASINP    GEOM    SYMINP    ZMAT    AOBASIS   BASIS     P2S    ABASIS      S 
                                         1400     1410     1200     1210     1080     1600     1650     1300     1700   
                                           T        V       H0       H01     AOSYM     SMH    MOLCAS    ERIS     OPER   

              2       4        4.02       700     1000      520     2100   
                                         GEOM     BASIS   MCVARS     RHF  

 PROGRAMS   *        TOTAL        HF       INT
 CPU TIMES  *       241.24     81.08    160.06
 REAL TIME  *       285.17 SEC
 DISK USED  *        21.32 GB      
 **********************************************************************************************************************************


 PROGRAM * CCSD (Closed-shell coupled cluster)     Authors: C. Hampel, H.-J. Werner, 1991, M. Deegan, P.J. Knowles, 1992


 Convergence thresholds:  THRVAR = 1.00D-08  THRDEN = 1.00D-12

 CCSD(T)     terms to be evaluated (factor= 1.000)


 Number of core orbitals:           2 (   2   0 )
 Number of closed-shell orbitals:   6 (   5   1 )
 Number of external orbitals:     326 ( 197 129 )

 Molecular orbitals read from record     2100.2  Type=RHF/CANONICAL (state 1.1)

 Number of N-1 electron functions:               6
 Number of N-2 electron functions:              21
 Number of singly external CSFs:              1114
 Number of doubly external CSFs:            975958
 Total number of CSFs:                      977073

 Length of J-op  integral file:               0.00 MB
 Length of K-op  integral file:               4.07 MB
 Length of 3-ext integral record:             0.00 MB

 Memory could be reduced to 151.33 Mwords without degradation in triples

 Integral transformation finished. Total CPU:  15.22 sec, npass=  1  Memory used:  41.21 MW

 Reference energy:                   -129.84973003

 MP2 singlet pair energy:              -0.31116003
 MP2 triplet pair energy:              -0.17200522
 MP2 correlation energy:               -0.48316525
 MP2 total energy:                   -130.33289528

 SCS-MP2 correlation energy:           -0.48041750   (PS=  1.200000  PT=  0.333333)
 SCS-MP2 total energy:               -130.33014753

 ITER.      SQ.NORM     CORR.ENERGY   TOTAL ENERGY   ENERGY CHANGE        DEN1      VAR(S)    VAR(P)  DIIS     TIME  TIME/IT
   1      1.12057305    -0.48016589  -130.32989592     0.00299935     0.01965906  0.32D-02  0.32D-02  1  1    27.59    13.50
   2      1.13119839    -0.48005189  -130.32978192     0.00011401    -0.01267407  0.11D-03  0.49D-03  2  2    40.08    13.72
   3      1.13734620    -0.48043288  -130.33016291    -0.00038099    -0.00300079  0.48D-04  0.56D-04  3  3    52.41    13.80
   4      1.14013398    -0.48043105  -130.33016108     0.00000183    -0.00096808  0.45D-05  0.10D-04  4  4    65.06    13.88
   5      1.14126227    -0.48046013  -130.33019016    -0.00002908    -0.00025045  0.11D-05  0.17D-05  5  5    77.60    13.93
   6      1.14161772    -0.48044854  -130.33017857     0.00001158    -0.00005029  0.12D-06  0.40D-06  6  6    90.21    13.98
   7      1.14169339    -0.48044817  -130.33017820     0.00000037     0.00000337  0.17D-07  0.92D-07  6  1   102.92    14.03
   8      1.14171859    -0.48044820  -130.33017823    -0.00000003    -0.00000305  0.35D-08  0.19D-07  6  2   115.79    14.07
   9      1.14172709    -0.48044764  -130.33017767     0.00000056    -0.00000018  0.22D-08  0.20D-08  6  3   129.03    14.15
  10      1.14172250    -0.48044838  -130.33017841    -0.00000074     0.00000158  0.35D-09  0.33D-09  6  5   141.81    14.16
  11      1.14172445    -0.48044837  -130.33017840     0.00000002    -0.00000036  0.10D-09  0.28D-10  6  4   154.52    14.17
  12      1.14172401    -0.48044843  -130.33017846    -0.00000007     0.00000005  0.18D-10  0.63D-11  6  6   167.33    14.18
  13      1.14172379    -0.48044844  -130.33017847    -0.00000000    -0.00000003  0.31D-11  0.92D-12  6  1   180.11    14.19
  14      1.14172353    -0.48044845  -130.33017848    -0.00000001     0.00000004  0.45D-12  0.17D-12  6  3   192.92    14.20
  15      1.14172345    -0.48044845  -130.33017848    -0.00000000     0.00000001  0.12D-12  0.23D-13  6  2   205.74    14.20
  16      1.14172344    -0.48044845  -130.33017848     0.00000000     0.00000000  0.32D-13  0.88D-14  6  4   218.48    14.21
  17      1.14172344    -0.48044845  -130.33017848    -0.00000000    -0.00000000  0.18D-14  0.11D-14  6  5   231.18    14.20
  18      1.14172345    -0.48044845  -130.33017848     0.00000000    -0.00000000  0.28D-15  0.29D-15  6  6   243.22    14.15
  19      1.14172345    -0.48044845  -130.33017848     0.00000000    -0.00000000  0.52D-16  0.41D-16  6  1   255.50    14.13
  20      1.14172345    -0.48044845  -130.33017848     0.00000000    -0.00000000  0.11D-16  0.61D-17  6  3   268.17    14.12
  21      1.14172345    -0.48044845  -130.33017848    -0.00000000     0.00000000  0.21D-17  0.11D-17  6  2   280.88    14.11
  22      1.14172345    -0.48044845  -130.33017848    -0.00000000     0.00000000  0.40D-18  0.17D-18  6  4   293.23    14.11
  23      1.14172345    -0.48044845  -130.33017848    -0.00000000     0.00000000  0.83D-19  0.42D-19  6  5   305.80    14.10
  24      1.14172345    -0.48044845  -130.33017848    -0.00000000     0.00000000  0.27D-19  0.16D-19  6  6   318.20    14.10
  25      1.14172345    -0.48044845  -130.33017848    -0.00000000     0.00000000  0.13D-19  0.77D-20  6  1   330.71    14.09

 Norm of t1 vector:      0.07622584      S-energy:    -0.00000000      T1 diagnostic:  0.01555953
                                                                       D1 diagnostic:  0.04218160

 Doubles amplitudes (print threshold =  0.500E-01):

         I         J         SYM. A    SYM. B    A         B      T(IJ, AB)

         6         6         2         2         1         1     -0.07917584
         6         6         2         2         1         2      0.05302748
         6         6         2         2         2         1      0.05302748


 Total CPU time for triples:    125.40 sec


 RESULTS
 =======

  Reference energy                   -129.849730030315
  CCSD singlet pair energy             -0.333271496468
  CCSD triplet pair energy             -0.147176954854
  CCSD correlation energy              -0.480448451324

  Triples (T) contribution             -0.022914193393
  Total correlation energy             -0.503362644717

  CCSD total energy                  -130.330178481639
  CCSD[T] energy                     -130.354170544677
  CCSD-T energy                      -130.352713480652
 !CCSD(T) total energy               -130.353092675032

 Timing summary (sec):

 STEP                 CPU(USER)    SYS     CPU(TOT)    WALL
 Transformation         15.30      1.86     17.16     17.16
 CCSD iterations       315.42     36.85    352.27    352.29
 Triples               125.40      2.27    127.67    127.69

 Program statistics:

 Available memory in ccsd:               994999756
 Min. memory needed in ccsd:               3348832
 Max. memory used in ccsd:                 4143652
 Max. memory used in cckext:               8340089 (25 integral passes)



 **********************************************************************************************************************************
 DATASETS  * FILE   NREC   LENGTH (MB)   RECORD NAMES
              1      20     6809.41       500      610      700      900      950      970     1000      129      960     1100   
                                          VAR    BASINP    GEOM    SYMINP    ZMAT    AOBASIS   BASIS     P2S    ABASIS      S 
                                         1400     1410     1200     1210     1080     1600     1650     1300     1700     1380   
                                           T        V       H0       H01     AOSYM     SMH    MOLCAS    ERIS     OPER     JKOP   

              2       4        4.02       700     1000      520     2100   
                                         GEOM     BASIS   MCVARS     RHF  

 PROGRAMS   *        TOTAL   CCSD(T)        HF       INT
 CPU TIMES  *       697.38    456.14     81.08    160.06
 REAL TIME  *       782.37 SEC
 DISK USED  *        21.32 GB      
 **********************************************************************************************************************************

 CCSD(T)/aug-cc-pV5Z energy=   -130.353092675032

        CCSD(T)         HF-SCF  
   -130.35309268   -129.84973003
 **********************************************************************************************************************************
 Molpro calculation terminated
 Variable memory released
