
 Primary working directories    : /tmp/r2666/281968.maple
 Secondary working directories  : /tmp/r2666/281968.maple
 Wavefunction directory         : /ddn/home4/r2666/wfu/
 Main file repository           : /tmp/r2666/281968.maple/

 SHA1      : d5ffa45e93fdbca01ffc919aa182cfdae0147319
 NAME      : 2015.1.35
 ARCHNAME  : linux/x86_64
 FC        : /opt/intel/composer_xe_2015.1.133/bin/intel64/ifort
 BLASLIB   : -Wl,-_start-group /opt/intel/mkl/lib/intel64/libmkl_intel_ilp64.a /opt/intel/mkl/lib/intel64/libmkl_intel_thread.a /opt/intel/mkl/lib/intel64/libmkl_core.a -Wl,-_end-group
 id        : olemiss

 Nodes     nprocs
 cn092        1

 Using customized tuning parameters: mindgm=1; mindgv=20; mindgc=4; mindgr=1; noblas=0; minvec=7
 default implementation of scratch files=df  

 ***,hno CCSD(T)/TZ-F12 QFF
 memory, 995, m;
 gthresh,energy=1.d-12,zero=1.d-22,oneint=1.d-22,twoint=1.d-22;
 gthresh,optgrad=1.d-8,optstep=1.d-8;
 nocompress;
 geomtyp=xyz
 bohr
 geometry={
 3
        123       123
 H        0.0000000000        1.6775706023       -1.9406967482
 N        0.0000000000       -0.1676306373       -1.1513329879
 O        0.0000000000        0.0318278250        1.1414401451
 }
 
 basis=av5z
   {hf,maxit=500;accu,20;}
 {ccsd(t),nocheck,maxit=250;orbital,IGNORE_ERROR;}

 Variables initialized (889), CPU time= 0.01 sec
 Commands  initialized (702), CPU time= 0.00 sec, 572 directives.
 Default parameters read. Elapsed time= 0.04 sec

 Checking input...
 Passed
1


                                         ***  PROGRAM SYSTEM MOLPRO  ***
                                       Copyright, TTI GmbH Stuttgart, 2015
                                    Version 2015.1 linked Jul  9 2018 13:16:40


 **********************************************************************************************************************************
 LABEL *   hno CCSD(T)/TZ-F12 QFF                                                        
  64 bit serial version                                                                  DATE: 04-Mar-20          TIME: 13:35:25  
 **********************************************************************************************************************************

 SHA1:             d5ffa45e93fdbca01ffc919aa182cfdae0147319
 **********************************************************************************************************************************

 THRESHOLDS:

 ZERO    =  1.00D-22  ONEINT  =  1.00D-22  TWOINT  =  1.00D-22  PREFAC  =  1.00D-14  LOCALI  =  1.00D-09  EORDER  =  1.00D-04
 ENERGY  =  1.00D-12  ETEST   =  0.00D+00  EDENS   =  0.00D+00  THRDEDEF=  1.00D-06  GRADIENT=  1.00D-02  STEP    =  1.00D-03
 ORBITAL =  1.00D-05  CIVEC   =  1.00D-05  COEFF   =  1.00D-04  PRINTCI =  5.00D-02  PUNCHCI =  9.90D+01  OPTGRAD =  3.00D-04
 OPTENERG=  1.00D-06  OPTSTEP =  3.00D-04  THRGRAD =  1.00D-10  COMPRESS=  1.00D-11  VARMIN  =  1.00D-07  VARMAX  =  1.00D-03
 THRDOUB =  0.00D+00  THRDIV  =  1.00D-05  THRRED  =  1.00D-07  THRPSP  =  1.00D+00  THRDC   =  1.00D-10  THRCS   =  1.00D-10
 THRNRM  =  1.00D-08  THREQ   =  0.00D+00  THRDE   =  1.00D+00  THRREF  =  1.00D-05  SPARFAC =  1.00D+00  THRDLP  =  1.00D-07
 THRDIA  =  1.00D-10  THRDLS  =  1.00D-07  THRGPS  =  0.00D+00  THRKEX  =  0.00D+00  THRDIS  =  2.00D-01  THRVAR  =  1.00D-10
 THRLOC  =  1.00D-06  THRGAP  =  1.00D-06  THRLOCT = -1.00D+00  THRGAPT = -1.00D+00  THRORB  =  1.00D-06  THRMLTP =  0.00D+00
 THRCPQCI=  1.00D-10  KEXTA   =  0.00D+00  THRCOARS=  0.00D+00  SYMTOL  =  1.00D-06  GRADTOL =  1.00D-06  THROVL  =  1.00D-08
 THRORTH =  1.00D-08  GRID    =  1.00D-06  GRIDMAX =  1.00D-03  DTMAX   =  0.00D+00  THROCCDE=  1.00D-01  THROCCDE=  1.00D-01



 THRESHOLDS:

 ZERO    =  1.00D-22  ONEINT  =  1.00D-22  TWOINT  =  1.00D-22  PREFAC  =  1.00D-14  LOCALI  =  1.00D-09  EORDER  =  1.00D-04
 ENERGY  =  1.00D-12  ETEST   =  0.00D+00  EDENS   =  0.00D+00  THRDEDEF=  1.00D-06  GRADIENT=  1.00D-02  STEP    =  1.00D-03
 ORBITAL =  1.00D-05  CIVEC   =  1.00D-05  COEFF   =  1.00D-04  PRINTCI =  5.00D-02  PUNCHCI =  9.90D+01  OPTGRAD =  1.00D-08
 OPTENERG=  1.00D-06  OPTSTEP =  1.00D-08  THRGRAD =  1.00D-10  COMPRESS=  1.00D-11  VARMIN  =  1.00D-07  VARMAX  =  1.00D-03
 THRDOUB =  0.00D+00  THRDIV  =  1.00D-05  THRRED  =  1.00D-07  THRPSP  =  1.00D+00  THRDC   =  1.00D-10  THRCS   =  1.00D-10
 THRNRM  =  1.00D-08  THREQ   =  0.00D+00  THRDE   =  1.00D+00  THRREF  =  1.00D-05  SPARFAC =  1.00D+00  THRDLP  =  1.00D-07
 THRDIA  =  1.00D-10  THRDLS  =  1.00D-07  THRGPS  =  0.00D+00  THRKEX  =  0.00D+00  THRDIS  =  2.00D-01  THRVAR  =  1.00D-10
 THRLOC  =  1.00D-06  THRGAP  =  1.00D-06  THRLOCT = -1.00D+00  THRGAPT = -1.00D+00  THRORB  =  1.00D-06  THRMLTP =  0.00D+00
 THRCPQCI=  1.00D-10  KEXTA   =  0.00D+00  THRCOARS=  0.00D+00  SYMTOL  =  1.00D-06  GRADTOL =  1.00D-06  THROVL  =  1.00D-08
 THRORTH =  1.00D-08  GRID    =  1.00D-06  GRIDMAX =  1.00D-03  DTMAX   =  0.00D+00  THROCCDE=  1.00D-01  THROCCDE=  1.00D-01



 Input parameters for SORTINT:

 COMPRESS =    0.000000
 C_FINAL  =    1.000000
 DEBUG    =   -1.000000
 C_SORT1  =    0.000000
 C_SEWARD =    0.000000
 THRESH   =    0.000000
 IO       =  molpro                                                          
 SPRI     =    0.000000
 SETTING GEOMTYP        =    XYZ
 ZUNIT=BOHR
 

 Variable memory set to  995000000 words,  buffer space   230000 words

 SETTING BASIS          =    AV5Z


 Recomputing integrals since basis changed


 Using spherical harmonics

 Library entry H      S aug-cc-pV5Z          selected for orbital group  1
 Library entry H      P aug-cc-pV5Z          selected for orbital group  1
 Library entry H      D aug-cc-pV5Z          selected for orbital group  1
 Library entry H      F aug-cc-pV5Z          selected for orbital group  1
 Library entry H      G aug-cc-pV5Z          selected for orbital group  1
 Library entry N      S aug-cc-pV5Z          selected for orbital group  2
 Library entry N      P aug-cc-pV5Z          selected for orbital group  2
 Library entry N      D aug-cc-pV5Z          selected for orbital group  2
 Library entry N      F aug-cc-pV5Z          selected for orbital group  2
 Library entry N      G aug-cc-pV5Z          selected for orbital group  2
 Library entry N      H aug-cc-pV5Z          selected for orbital group  2
 Library entry O      S aug-cc-pV5Z          selected for orbital group  3
 Library entry O      P aug-cc-pV5Z          selected for orbital group  3
 Library entry O      D aug-cc-pV5Z          selected for orbital group  3
 Library entry O      F aug-cc-pV5Z          selected for orbital group  3
 Library entry O      G aug-cc-pV5Z          selected for orbital group  3
 Library entry O      H aug-cc-pV5Z          selected for orbital group  3


 PROGRAM * SEWARD (Integral evaluation for generally contracted gaussian basis sets)     Author: Roland Lindh, 1990

 Geometry written to block  1 of record 700


 Point group  Cs  



 ATOMIC COORDINATES

 NR  ATOM    CHARGE       X              Y              Z

   1  H       1.00    0.000000000    1.677570602   -1.940696748
   2  N       7.00    0.000000000   -0.167630637   -1.151332988
   3  O       8.00    0.000000000    0.031827825    1.141440145

 Bond lengths in Bohr (Angstrom)

 1-2  2.006953602  2-3  2.301432666
     ( 1.062034110)     ( 1.217865719)

 Bond angles

  1-2-3  108.18899349

 NUCLEAR CHARGE:                   16
 NUMBER OF PRIMITIVE AOS:         506
 NUMBER OF SYMMETRY AOS:          371
 NUMBER OF CONTRACTIONS:          334   ( 204A'  + 130A"  )
 NUMBER OF CORE ORBITALS:           2   (   2A'  +   0A"  )
 NUMBER OF VALENCE ORBITALS:        9   (   7A'  +   2A"  )


 NUCLEAR REPULSION ENERGY   30.11018194


 Eigenvalues of metric

         1 0.117E-04 0.179E-04 0.654E-04 0.104E-03 0.108E-03 0.141E-03 0.204E-03 0.226E-03
         2 0.131E-03 0.378E-03 0.117E-02 0.166E-02 0.204E-02 0.263E-02 0.339E-02 0.405E-02


 Contracted 2-electron integrals neglected if value below      1.0D-22

      756977332. INTEGRALS WRITTEN OUT IN  184855 BLOCKS ON RECORD 1290 OF FILE 1


 NUMBER OF SORTED TWO-ELECTRON INTEGRALS:  789027325.     BUFFER LENGTH:  32768
 NUMBER OF SEGMENTS:  25  SEGMENT LENGTH:   31997130      RECORD LENGTH: 524288

 Memory used in sort:      32.55 MW

 SORT1 READ   756977332. AND WROTE   760993204. INTEGRALS IN   2189 RECORDS. CPU TIME:    33.66 SEC, REAL TIME:   174.31 SEC
 SORT2 READ   760993204. AND WROTE   789027325. INTEGRALS IN     25 RECORDS. CPU TIME:    15.13 SEC, REAL TIME:   102.60 SEC

 FILE SIZES:   FILE 1: 12137.5 MBYTE,  FILE 4:  9181.4 MBYTE,   TOTAL:  21318.9 MBYTE

 OPERATOR DM      FOR CENTER  0  COORDINATES:    0.000000    0.000000    0.000000


 **********************************************************************************************************************************
 DATASETS  * FILE   NREC   LENGTH (MB)   RECORD NAMES
              1      19     6374.22       500      610      700      900      950      970     1000      129      960     1100   
                                          VAR    BASINP    GEOM    SYMINP    ZMAT    AOBASIS   BASIS     P2S    ABASIS      S 
                                         1400     1410     1200     1210     1080     1600     1650     1300     1700   
                                           T        V       H0       H01     AOSYM     SMH    MOLCAS    ERIS     OPER   

 PROGRAMS   *        TOTAL       INT
 CPU TIMES  *       146.74    146.66
 REAL TIME  *       382.12 SEC
 DISK USED  *        21.32 GB      
 **********************************************************************************************************************************


 PROGRAM * RHF-SCF (CLOSED SHELL)       Authors: W. Meyer, H.-J. Werner


 NUMBER OF ELECTRONS:       8+    8-
 CONVERGENCE THRESHOLDS:    1.00E-10 (Density)    1.00E-13 (Energy)
 MAX. NUMBER OF ITERATIONS:      500
 INTERPOLATION TYPE:            DIIS
 INTERPOLATION STEPS:              2 (START)      1 (STEP)
 LEVEL SHIFTS:                  0.00 (CLOSED)  0.00 (OPEN) 



 Orbital guess generated from atomic densities. Full valence occupancy:    9   2

 Molecular orbital dump at record        2100.2

 Initial occupancy:   7   1

 ITERATION    DDIFF          GRAD             ENERGY        2-EL.EN.            DIPOLE MOMENTS         DIIS   ORB.
    1      0.000D+00      0.000D+00      -129.79459743    153.508205    0.00000    0.59331   -1.06287    0    start
    2      0.000D+00      0.652D-02      -129.82142950    154.719477    0.00000    0.61604   -0.19806    1    diag
    3      0.412D-02      0.511D-02      -129.84665762    154.866920    0.00000    0.55782   -0.60827    2    diag
    4      0.215D-02      0.778D-03      -129.84748816    154.572958    0.00000    0.56487   -0.54493    3    diag
    5      0.383D-03      0.254D-03      -129.84762036    154.668508    0.00000    0.57026   -0.54730    4    diag
    6      0.160D-03      0.740D-04      -129.84764172    154.651889    0.00000    0.57048   -0.54285    5    diag
    7      0.619D-04      0.371D-04      -129.84764807    154.654637    0.00000    0.57171   -0.54008    6    diag
    8      0.426D-04      0.135D-04      -129.84764886    154.653881    0.00000    0.57175   -0.53897    7    diag
    9      0.173D-04      0.266D-05      -129.84764890    154.653756    0.00000    0.57171   -0.53872    8    diag
   10      0.360D-05      0.588D-06      -129.84764890    154.653736    0.00000    0.57168   -0.53869    9    orth
   11      0.671D-06      0.117D-06      -129.84764890    154.653732    0.00000    0.57167   -0.53869    9    diag
   12      0.122D-06      0.242D-07      -129.84764890    154.653732    0.00000    0.57167   -0.53869    9    diag
   13      0.264D-07      0.652D-08      -129.84764890    154.653732    0.00000    0.57167   -0.53869    9    diag
   14      0.743D-08      0.127D-08      -129.84764890    154.653732    0.00000    0.57167   -0.53869    9    diag
   15      0.135D-08      0.356D-09      -129.84764890    154.653732    0.00000    0.57167   -0.53869    9    diag
   16      0.404D-09      0.104D-09      -129.84764890    154.653732    0.00000    0.57167   -0.53869    9    diag
   17      0.734D-10      0.264D-10      -129.84764890    154.653732    0.00000    0.57167   -0.53869    9    diag
   18      0.234D-10      0.886D-11      -129.84764890    154.653732    0.00000    0.57167   -0.53869    9    diag
   19      0.260D-10      0.211D-11      -129.84764890    154.653732    0.00000    0.57167   -0.53869    9    fixocc
   20      0.174D-10      0.481D-12      -129.84764890    154.653732    0.00000    0.57167   -0.53869    0    orth

 Final occupancy:   7   1

 !RHF STATE 1.1 Energy               -129.847648899123
 Nuclear energy                        30.11018194
 One-electron energy                 -237.28469674
 Two-electron energy                   77.32686589
 Virial quotient                       -1.00210760
 !RHF STATE 1.1 Dipole moment           0.00000000     0.57166843    -0.53868794
 Dipole moment /Debye                   0.00000000     1.45294105    -1.36911850

 Orbital energies:

         1.1          2.1          3.1          4.1          5.1          6.1          7.1          8.1          9.1
    -20.654062   -15.715210    -1.521152    -0.994205    -0.743066    -0.663277    -0.432980     0.022734     0.065538

         1.2          2.2          3.2
     -0.591531     0.058146     0.090887

 HOMO      7.1    -0.432980 =     -11.7820eV
 LUMO      8.1     0.022734 =       0.6186eV
 LUMO-HOMO         0.455714 =      12.4006eV


 **********************************************************************************************************************************
 DATASETS  * FILE   NREC   LENGTH (MB)   RECORD NAMES
              1      19     6374.22       500      610      700      900      950      970     1000      129      960     1100   
                                          VAR    BASINP    GEOM    SYMINP    ZMAT    AOBASIS   BASIS     P2S    ABASIS      S 
                                         1400     1410     1200     1210     1080     1600     1650     1300     1700   
                                           T        V       H0       H01     AOSYM     SMH    MOLCAS    ERIS     OPER   

              2       4        4.02       700     1000      520     2100   
                                         GEOM     BASIS   MCVARS     RHF  

 PROGRAMS   *        TOTAL        HF       INT
 CPU TIMES  *       214.22     67.48    146.66
 REAL TIME  *       473.29 SEC
 DISK USED  *        21.32 GB      
 **********************************************************************************************************************************


 PROGRAM * CCSD (Closed-shell coupled cluster)     Authors: C. Hampel, H.-J. Werner, 1991, M. Deegan, P.J. Knowles, 1992


 Convergence thresholds:  THRVAR = 1.00D-08  THRDEN = 1.00D-12

 CCSD(T)     terms to be evaluated (factor= 1.000)


 Number of core orbitals:           2 (   2   0 )
 Number of closed-shell orbitals:   6 (   5   1 )
 Number of external orbitals:     326 ( 197 129 )

 Molecular orbitals read from record     2100.2  Type=RHF/CANONICAL (state 1.1)

 Number of N-1 electron functions:               6
 Number of N-2 electron functions:              21
 Number of singly external CSFs:              1114
 Number of doubly external CSFs:            975958
 Total number of CSFs:                      977073

 Length of J-op  integral file:               0.00 MB
 Length of K-op  integral file:               4.07 MB
 Length of 3-ext integral record:             0.00 MB

 Memory could be reduced to 151.33 Mwords without degradation in triples

 Integral transformation finished. Total CPU:  10.47 sec, npass=  1  Memory used:  41.21 MW

 Reference energy:                   -129.84764890

 MP2 singlet pair energy:              -0.31240279
 MP2 triplet pair energy:              -0.17283141
 MP2 correlation energy:               -0.48523420
 MP2 total energy:                   -130.33288310

 SCS-MP2 correlation energy:           -0.48242289   (PS=  1.200000  PT=  0.333333)
 SCS-MP2 total energy:               -130.33007179

 ITER.      SQ.NORM     CORR.ENERGY   TOTAL ENERGY   ENERGY CHANGE        DEN1      VAR(S)    VAR(P)  DIIS     TIME  TIME/IT
   1      1.12198373    -0.48179799  -130.32944689     0.00343622     0.02063758  0.33D-02  0.34D-02  1  1    19.34     9.99
   2      1.13293040    -0.48158561  -130.32923451     0.00021237    -0.01300008  0.11D-03  0.51D-03  2  2    28.38    10.12
   3      1.13932677    -0.48198859  -130.32963749    -0.00040298    -0.00307877  0.52D-04  0.59D-04  3  3    37.59    10.19
   4      1.14225437    -0.48198571  -130.32963461     0.00000288    -0.00100737  0.51D-05  0.11D-04  4  4    46.83    10.24
   5      1.14347141    -0.48201727  -130.32966617    -0.00003156    -0.00026914  0.13D-05  0.17D-05  5  5    56.05    10.28
   6      1.14385009    -0.48200455  -130.32965345     0.00001271    -0.00005381  0.13D-06  0.40D-06  6  6    65.15    10.29
   7      1.14392836    -0.48200408  -130.32965297     0.00000048     0.00000373  0.19D-07  0.94D-07  6  1    74.21    10.30
   8      1.14395472    -0.48200397  -130.32965286     0.00000011    -0.00000331  0.34D-08  0.20D-07  6  2    83.50    10.30
   9      1.14396367    -0.48200333  -130.32965223     0.00000063    -0.00000010  0.23D-08  0.23D-08  6  3    92.58    10.31
  10      1.14395884    -0.48200411  -130.32965301    -0.00000078     0.00000165  0.37D-09  0.37D-09  6  5   101.59    10.31
  11      1.14396103    -0.48200409  -130.32965299     0.00000002    -0.00000041  0.11D-09  0.32D-10  6  4   110.80    10.31
  12      1.14396057    -0.48200416  -130.32965306    -0.00000007     0.00000005  0.20D-10  0.72D-11  6  6   119.99    10.31
  13      1.14396035    -0.48200416  -130.32965306    -0.00000000    -0.00000004  0.34D-11  0.10D-11  6  1   129.04    10.31
  14      1.14396005    -0.48200418  -130.32965308    -0.00000001     0.00000004  0.46D-12  0.19D-12  6  3   138.17    10.31
  15      1.14395997    -0.48200418  -130.32965308    -0.00000000     0.00000001  0.13D-12  0.25D-13  6  2   147.24    10.32
  16      1.14395995    -0.48200418  -130.32965308     0.00000000     0.00000000  0.36D-13  0.98D-14  6  4   156.38    10.32
  17      1.14395995    -0.48200418  -130.32965308    -0.00000000    -0.00000000  0.21D-14  0.12D-14  6  5   165.54    10.32
  18      1.14395996    -0.48200418  -130.32965308     0.00000000    -0.00000000  0.30D-15  0.32D-15  6  6   174.67    10.32
  19      1.14395996    -0.48200418  -130.32965308     0.00000000    -0.00000000  0.55D-16  0.42D-16  6  1   183.81    10.32
  20      1.14395996    -0.48200418  -130.32965308     0.00000000    -0.00000000  0.12D-16  0.66D-17  6  3   192.95    10.32
  21      1.14395996    -0.48200418  -130.32965308    -0.00000000     0.00000000  0.22D-17  0.12D-17  6  2   201.92    10.32
  22      1.14395996    -0.48200418  -130.32965308    -0.00000000     0.00000000  0.39D-18  0.19D-18  6  4   210.96    10.33
  23      1.14395996    -0.48200418  -130.32965308    -0.00000000     0.00000000  0.68D-19  0.42D-19  6  5   220.04    10.33
  24      1.14395996    -0.48200418  -130.32965308    -0.00000000     0.00000000  0.35D-19  0.25D-19  6  6   229.19    10.33
  25      1.14395996    -0.48200418  -130.32965308     0.00000000     0.00000000  0.15D-19  0.89D-20  6  1   238.37    10.33

 Norm of t1 vector:      0.07832555      S-energy:    -0.00000000      T1 diagnostic:  0.01598814
                                                                       D1 diagnostic:  0.04353472

 Doubles amplitudes (print threshold =  0.500E-01):

         I         J         SYM. A    SYM. B    A         B      T(IJ, AB)

         6         6         2         2         1         1     -0.08669184
         6         6         2         2         1         2      0.05270907
         6         6         2         2         2         1      0.05270907


 Total CPU time for triples:     92.11 sec


 RESULTS
 =======

  Reference energy                   -129.847648899124
  CCSD singlet pair energy             -0.334614133964
  CCSD triplet pair energy             -0.147390045335
  CCSD correlation energy              -0.482004179303

  Triples (T) contribution             -0.023307174913
  Total correlation energy             -0.505311354215

  CCSD total energy                  -130.329653078427
  CCSD[T] energy                     -130.354093725766
  CCSD-T energy                      -130.352566739421
 !CCSD(T) total energy               -130.352960253339

 Timing summary (sec):

 STEP                 CPU(USER)    SYS     CPU(TOT)    WALL
 Transformation         10.52      1.89     12.41     12.71
 CCSD iterations       227.86     30.39    258.25    258.28
 Triples                92.11      1.72     93.83     93.84

 Program statistics:

 Available memory in ccsd:               994999756
 Min. memory needed in ccsd:               3348832
 Max. memory used in ccsd:                 4143652
 Max. memory used in cckext:               8340089 (25 integral passes)



 **********************************************************************************************************************************
 DATASETS  * FILE   NREC   LENGTH (MB)   RECORD NAMES
              1      20     6809.41       500      610      700      900      950      970     1000      129      960     1100   
                                          VAR    BASINP    GEOM    SYMINP    ZMAT    AOBASIS   BASIS     P2S    ABASIS      S 
                                         1400     1410     1200     1210     1080     1600     1650     1300     1700     1380   
                                           T        V       H0       H01     AOSYM     SMH    MOLCAS    ERIS     OPER     JKOP   

              2       4        4.02       700     1000      520     2100   
                                         GEOM     BASIS   MCVARS     RHF  

 PROGRAMS   *        TOTAL   CCSD(T)        HF       INT
 CPU TIMES  *       544.73    330.51     67.48    146.66
 REAL TIME  *       838.36 SEC
 DISK USED  *        21.32 GB      
 **********************************************************************************************************************************

 CCSD(T)/aug-cc-pV5Z energy=   -130.352960253339

        CCSD(T)         HF-SCF  
   -130.35296025   -129.84764890
 **********************************************************************************************************************************
 Molpro calculation terminated
 Variable memory released
