
 Primary working directories    : /tmp/r2666/281898.maple
 Secondary working directories  : /tmp/r2666/281898.maple
 Wavefunction directory         : /ddn/home4/r2666/wfu/
 Main file repository           : /tmp/r2666/281898.maple/

 SHA1      : d5ffa45e93fdbca01ffc919aa182cfdae0147319
 NAME      : 2015.1.35
 ARCHNAME  : linux/x86_64
 FC        : /opt/intel/composer_xe_2015.1.133/bin/intel64/ifort
 BLASLIB   : -Wl,-_start-group /opt/intel/mkl/lib/intel64/libmkl_intel_ilp64.a /opt/intel/mkl/lib/intel64/libmkl_intel_thread.a /opt/intel/mkl/lib/intel64/libmkl_core.a -Wl,-_end-group
 id        : olemiss

 Nodes     nprocs
 cn079        1

 Using customized tuning parameters: mindgm=1; mindgv=20; mindgc=4; mindgr=1; noblas=0; minvec=7
 default implementation of scratch files=df  

 ***,hno CCSD(T)/TZ-F12 QFF
 memory, 995, m;
 gthresh,energy=1.d-12,zero=1.d-22,oneint=1.d-22,twoint=1.d-22;
 gthresh,optgrad=1.d-8,optstep=1.d-8;
 nocompress;
 geomtyp=xyz
 bohr
 geometry={
 3
         53        53
 H        0.0000000000        1.6654399497       -1.9283931837
 N        0.0000000000       -0.1590615668       -1.1387336143
 O        0.0000000000        0.0353894072        1.1165372070
 }
 
 basis=av5z
   {hf,maxit=500;accu,20;}
 {ccsd(t),nocheck,maxit=250;orbital,IGNORE_ERROR;}

 Variables initialized (889), CPU time= 0.01 sec
 Commands  initialized (702), CPU time= 0.01 sec, 572 directives.
 Default parameters read. Elapsed time= 0.05 sec

 Checking input...
 Passed
1


                                         ***  PROGRAM SYSTEM MOLPRO  ***
                                       Copyright, TTI GmbH Stuttgart, 2015
                                    Version 2015.1 linked Jul  9 2018 13:16:40


 **********************************************************************************************************************************
 LABEL *   hno CCSD(T)/TZ-F12 QFF                                                        
  64 bit serial version                                                                  DATE: 04-Mar-20          TIME: 13:19:58  
 **********************************************************************************************************************************

 SHA1:             d5ffa45e93fdbca01ffc919aa182cfdae0147319
 **********************************************************************************************************************************

 THRESHOLDS:

 ZERO    =  1.00D-22  ONEINT  =  1.00D-22  TWOINT  =  1.00D-22  PREFAC  =  1.00D-14  LOCALI  =  1.00D-09  EORDER  =  1.00D-04
 ENERGY  =  1.00D-12  ETEST   =  0.00D+00  EDENS   =  0.00D+00  THRDEDEF=  1.00D-06  GRADIENT=  1.00D-02  STEP    =  1.00D-03
 ORBITAL =  1.00D-05  CIVEC   =  1.00D-05  COEFF   =  1.00D-04  PRINTCI =  5.00D-02  PUNCHCI =  9.90D+01  OPTGRAD =  3.00D-04
 OPTENERG=  1.00D-06  OPTSTEP =  3.00D-04  THRGRAD =  1.00D-10  COMPRESS=  1.00D-11  VARMIN  =  1.00D-07  VARMAX  =  1.00D-03
 THRDOUB =  0.00D+00  THRDIV  =  1.00D-05  THRRED  =  1.00D-07  THRPSP  =  1.00D+00  THRDC   =  1.00D-10  THRCS   =  1.00D-10
 THRNRM  =  1.00D-08  THREQ   =  0.00D+00  THRDE   =  1.00D+00  THRREF  =  1.00D-05  SPARFAC =  1.00D+00  THRDLP  =  1.00D-07
 THRDIA  =  1.00D-10  THRDLS  =  1.00D-07  THRGPS  =  0.00D+00  THRKEX  =  0.00D+00  THRDIS  =  2.00D-01  THRVAR  =  1.00D-10
 THRLOC  =  1.00D-06  THRGAP  =  1.00D-06  THRLOCT = -1.00D+00  THRGAPT = -1.00D+00  THRORB  =  1.00D-06  THRMLTP =  0.00D+00
 THRCPQCI=  1.00D-10  KEXTA   =  0.00D+00  THRCOARS=  0.00D+00  SYMTOL  =  1.00D-06  GRADTOL =  1.00D-06  THROVL  =  1.00D-08
 THRORTH =  1.00D-08  GRID    =  1.00D-06  GRIDMAX =  1.00D-03  DTMAX   =  0.00D+00  THROCCDE=  1.00D-01  THROCCDE=  1.00D-01



 THRESHOLDS:

 ZERO    =  1.00D-22  ONEINT  =  1.00D-22  TWOINT  =  1.00D-22  PREFAC  =  1.00D-14  LOCALI  =  1.00D-09  EORDER  =  1.00D-04
 ENERGY  =  1.00D-12  ETEST   =  0.00D+00  EDENS   =  0.00D+00  THRDEDEF=  1.00D-06  GRADIENT=  1.00D-02  STEP    =  1.00D-03
 ORBITAL =  1.00D-05  CIVEC   =  1.00D-05  COEFF   =  1.00D-04  PRINTCI =  5.00D-02  PUNCHCI =  9.90D+01  OPTGRAD =  1.00D-08
 OPTENERG=  1.00D-06  OPTSTEP =  1.00D-08  THRGRAD =  1.00D-10  COMPRESS=  1.00D-11  VARMIN  =  1.00D-07  VARMAX  =  1.00D-03
 THRDOUB =  0.00D+00  THRDIV  =  1.00D-05  THRRED  =  1.00D-07  THRPSP  =  1.00D+00  THRDC   =  1.00D-10  THRCS   =  1.00D-10
 THRNRM  =  1.00D-08  THREQ   =  0.00D+00  THRDE   =  1.00D+00  THRREF  =  1.00D-05  SPARFAC =  1.00D+00  THRDLP  =  1.00D-07
 THRDIA  =  1.00D-10  THRDLS  =  1.00D-07  THRGPS  =  0.00D+00  THRKEX  =  0.00D+00  THRDIS  =  2.00D-01  THRVAR  =  1.00D-10
 THRLOC  =  1.00D-06  THRGAP  =  1.00D-06  THRLOCT = -1.00D+00  THRGAPT = -1.00D+00  THRORB  =  1.00D-06  THRMLTP =  0.00D+00
 THRCPQCI=  1.00D-10  KEXTA   =  0.00D+00  THRCOARS=  0.00D+00  SYMTOL  =  1.00D-06  GRADTOL =  1.00D-06  THROVL  =  1.00D-08
 THRORTH =  1.00D-08  GRID    =  1.00D-06  GRIDMAX =  1.00D-03  DTMAX   =  0.00D+00  THROCCDE=  1.00D-01  THROCCDE=  1.00D-01



 Input parameters for SORTINT:

 COMPRESS =    0.000000
 C_FINAL  =    1.000000
 DEBUG    =   -1.000000
 C_SORT1  =    0.000000
 C_SEWARD =    0.000000
 THRESH   =    0.000000
 IO       =  molpro                                                          
 SPRI     =    0.000000
 SETTING GEOMTYP        =    XYZ
 ZUNIT=BOHR
 

 Variable memory set to  995000000 words,  buffer space   230000 words

 SETTING BASIS          =    AV5Z


 Recomputing integrals since basis changed


 Using spherical harmonics

 Library entry H      S aug-cc-pV5Z          selected for orbital group  1
 Library entry H      P aug-cc-pV5Z          selected for orbital group  1
 Library entry H      D aug-cc-pV5Z          selected for orbital group  1
 Library entry H      F aug-cc-pV5Z          selected for orbital group  1
 Library entry H      G aug-cc-pV5Z          selected for orbital group  1
 Library entry N      S aug-cc-pV5Z          selected for orbital group  2
 Library entry N      P aug-cc-pV5Z          selected for orbital group  2
 Library entry N      D aug-cc-pV5Z          selected for orbital group  2
 Library entry N      F aug-cc-pV5Z          selected for orbital group  2
 Library entry N      G aug-cc-pV5Z          selected for orbital group  2
 Library entry N      H aug-cc-pV5Z          selected for orbital group  2
 Library entry O      S aug-cc-pV5Z          selected for orbital group  3
 Library entry O      P aug-cc-pV5Z          selected for orbital group  3
 Library entry O      D aug-cc-pV5Z          selected for orbital group  3
 Library entry O      F aug-cc-pV5Z          selected for orbital group  3
 Library entry O      G aug-cc-pV5Z          selected for orbital group  3
 Library entry O      H aug-cc-pV5Z          selected for orbital group  3


 PROGRAM * SEWARD (Integral evaluation for generally contracted gaussian basis sets)     Author: Roland Lindh, 1990

 Geometry written to block  1 of record 700


 Point group  Cs  



 ATOMIC COORDINATES

 NR  ATOM    CHARGE       X              Y              Z

   1  H       1.00    0.000000000    1.665439950   -1.928393184
   2  N       7.00    0.000000000   -0.159061567   -1.138733614
   3  O       8.00    0.000000000    0.035389407    1.116537207

 Bond lengths in Bohr (Angstrom)

 1-2  1.988056342  2-3  2.263638147
     ( 1.052034110)     ( 1.197865721)

 Bond angles

  1-2-3  108.47547239

 NUCLEAR CHARGE:                   16
 NUMBER OF PRIMITIVE AOS:         506
 NUMBER OF SYMMETRY AOS:          371
 NUMBER OF CONTRACTIONS:          334   ( 204A'  + 130A"  )
 NUMBER OF CORE ORBITALS:           2   (   2A'  +   0A"  )
 NUMBER OF VALENCE ORBITALS:        9   (   7A'  +   2A"  )


 NUCLEAR REPULSION ENERGY   30.57625927


 Eigenvalues of metric

         1 0.111E-04 0.167E-04 0.630E-04 0.969E-04 0.102E-03 0.133E-03 0.197E-03 0.223E-03
         2 0.123E-03 0.362E-03 0.109E-02 0.151E-02 0.191E-02 0.244E-02 0.324E-02 0.385E-02


 Contracted 2-electron integrals neglected if value below      1.0D-22

      756977483. INTEGRALS WRITTEN OUT IN  184855 BLOCKS ON RECORD 1290 OF FILE 1


 NUMBER OF SORTED TWO-ELECTRON INTEGRALS:  789027325.     BUFFER LENGTH:  32768
 NUMBER OF SEGMENTS:  25  SEGMENT LENGTH:   31997130      RECORD LENGTH: 524288

 Memory used in sort:      32.55 MW

 SORT1 READ   756977483. AND WROTE   760993372. INTEGRALS IN   2189 RECORDS. CPU TIME:    25.78 SEC, REAL TIME:    90.06 SEC
 SORT2 READ   760993372. AND WROTE   789027325. INTEGRALS IN     25 RECORDS. CPU TIME:    11.28 SEC, REAL TIME:    35.59 SEC

 FILE SIZES:   FILE 1: 12137.5 MBYTE,  FILE 4:  9181.4 MBYTE,   TOTAL:  21318.9 MBYTE

 OPERATOR DM      FOR CENTER  0  COORDINATES:    0.000000    0.000000    0.000000


 **********************************************************************************************************************************
 DATASETS  * FILE   NREC   LENGTH (MB)   RECORD NAMES
              1      19     6374.22       500      610      700      900      950      970     1000      129      960     1100   
                                          VAR    BASINP    GEOM    SYMINP    ZMAT    AOBASIS   BASIS     P2S    ABASIS      S 
                                         1400     1410     1200     1210     1080     1600     1650     1300     1700   
                                           T        V       H0       H01     AOSYM     SMH    MOLCAS    ERIS     OPER   

 PROGRAMS   *        TOTAL       INT
 CPU TIMES  *       122.28    122.19
 REAL TIME  *       217.57 SEC
 DISK USED  *        21.32 GB      
 **********************************************************************************************************************************


 PROGRAM * RHF-SCF (CLOSED SHELL)       Authors: W. Meyer, H.-J. Werner


 NUMBER OF ELECTRONS:       8+    8-
 CONVERGENCE THRESHOLDS:    1.00E-10 (Density)    1.00E-13 (Energy)
 MAX. NUMBER OF ITERATIONS:      500
 INTERPOLATION TYPE:            DIIS
 INTERPOLATION STEPS:              2 (START)      1 (STEP)
 LEVEL SHIFTS:                  0.00 (CLOSED)  0.00 (OPEN) 



 Orbital guess generated from atomic densities. Full valence occupancy:    9   2

 Molecular orbital dump at record        2100.2

 Initial occupancy:   7   1

 ITERATION    DDIFF          GRAD             ENERGY        2-EL.EN.            DIPOLE MOMENTS         DIIS   ORB.
    1      0.000D+00      0.000D+00      -129.80128006    154.349314    0.00000    0.59319   -0.99716    0    start
    2      0.000D+00      0.634D-02      -129.82877597    155.589714    0.00000    0.60390   -0.21287    1    diag
    3      0.392D-02      0.473D-02      -129.85013336    155.694306    0.00000    0.55291   -0.58020    2    diag
    4      0.201D-02      0.759D-03      -129.85091695    155.417428    0.00000    0.56037   -0.52023    3    diag
    5      0.373D-03      0.245D-03      -129.85103889    155.510304    0.00000    0.56563   -0.52294    4    diag
    6      0.153D-03      0.710D-04      -129.85105833    155.494130    0.00000    0.56596   -0.51891    5    diag
    7      0.589D-04      0.350D-04      -129.85106386    155.497014    0.00000    0.56722   -0.51643    6    diag
    8      0.401D-04      0.120D-04      -129.85106445    155.496343    0.00000    0.56727   -0.51548    7    diag
    9      0.148D-04      0.228D-05      -129.85106447    155.496239    0.00000    0.56723   -0.51527    8    diag
   10      0.291D-05      0.528D-06      -129.85106447    155.496221    0.00000    0.56720   -0.51524    9    orth
   11      0.597D-06      0.108D-06      -129.85106447    155.496217    0.00000    0.56719   -0.51524    9    diag
   12      0.115D-06      0.216D-07      -129.85106447    155.496217    0.00000    0.56719   -0.51524    9    diag
   13      0.249D-07      0.557D-08      -129.85106447    155.496217    0.00000    0.56719   -0.51524    9    diag
   14      0.657D-08      0.110D-08      -129.85106447    155.496217    0.00000    0.56719   -0.51524    9    diag
   15      0.122D-08      0.320D-09      -129.85106447    155.496217    0.00000    0.56719   -0.51524    9    diag
   16      0.365D-09      0.993D-10      -129.85106447    155.496217    0.00000    0.56719   -0.51524    9    diag
   17      0.711D-10      0.271D-10      -129.85106447    155.496217    0.00000    0.56719   -0.51524    9    diag
   18      0.331D-10      0.924D-11      -129.85106447    155.496217    0.00000    0.56719   -0.51524    9    diag
   19      0.269D-10      0.239D-11      -129.85106447    155.496217    0.00000    0.56719   -0.51524    9    fixocc
   20      0.325D-10      0.670D-12      -129.85106447    155.496217    0.00000    0.56719   -0.51524    9    orth
   21      0.134D-10      0.390D-12      -129.85106447    155.496217    0.00000    0.56719   -0.51524    9    diag
   22      0.618D-11      0.430D-12      -129.85106447    155.496217    0.00000    0.56719   -0.51524    9    diag
   23      0.464D-11      0.252D-12      -129.85106447    155.496217    0.00000    0.56719   -0.51524    9    diag
   24      0.370D-11      0.356D-12      -129.85106447    155.496217    0.00000    0.56719   -0.51524    9    diag
   25      0.139D-11      0.304D-12      -129.85106447    155.496217    0.00000    0.56719   -0.51524    9    diag
   26      0.162D-11      0.408D-12      -129.85106447    155.496217    0.00000    0.56719   -0.51524    9    diag
   27      0.789D-12      0.245D-12      -129.85106447    155.496217    0.00000    0.56719   -0.51524    9    diag
   28      0.923D-12      0.232D-12      -129.85106447    155.496217    0.00000    0.56719   -0.51524    9    diag
   29      0.147D-11      0.211D-12      -129.85106447    155.496217    0.00000    0.56719   -0.51524    9    diag
   30      0.125D-11      0.289D-12      -129.85106447    155.496217    0.00000    0.56719   -0.51524    9    orth
   31      0.798D-12      0.257D-12      -129.85106447    155.496217    0.00000    0.56719   -0.51524    9    diag
   32      0.101D-11      0.254D-12      -129.85106447    155.496217    0.00000    0.56719   -0.51524    9    diag
   33      0.625D-12      0.260D-12      -129.85106447    155.496217    0.00000    0.56719   -0.51524    9    diag
   34      0.858D-12      0.282D-12      -129.85106447    155.496217    0.00000    0.56719   -0.51524    9    diag
   35      0.790D-12      0.328D-12      -129.85106447    155.496217    0.00000    0.56719   -0.51524    0    orth

 Final occupancy:   7   1

 !RHF STATE 1.1 Energy               -129.851064472836
 Nuclear energy                        30.57625927
 One-electron energy                 -238.17543213
 Two-electron energy                   77.74810839
 Virial quotient                       -1.00140046
 !RHF STATE 1.1 Dipole moment           0.00000000     0.56719202    -0.51523519
 Dipole moment /Debye                   0.00000000     1.44156390    -1.30951145

 Orbital energies:

         1.1          2.1          3.1          4.1          5.1          6.1          7.1          8.1          9.1
    -20.652043   -15.710385    -1.537508    -0.992201    -0.750280    -0.669083    -0.427241     0.022950     0.065555

         1.2          2.2          3.2
     -0.600867     0.062112     0.092562

 HOMO      7.1    -0.427241 =     -11.6258eV
 LUMO      8.1     0.022950 =       0.6245eV
 LUMO-HOMO         0.450191 =      12.2503eV


 **********************************************************************************************************************************
 DATASETS  * FILE   NREC   LENGTH (MB)   RECORD NAMES
              1      19     6374.22       500      610      700      900      950      970     1000      129      960     1100   
                                          VAR    BASINP    GEOM    SYMINP    ZMAT    AOBASIS   BASIS     P2S    ABASIS      S 
                                         1400     1410     1200     1210     1080     1600     1650     1300     1700   
                                           T        V       H0       H01     AOSYM     SMH    MOLCAS    ERIS     OPER   

              2       4        4.02       700     1000      520     2100   
                                         GEOM     BASIS   MCVARS     RHF  

 PROGRAMS   *        TOTAL        HF       INT
 CPU TIMES  *       231.17    108.89    122.19
 REAL TIME  *       358.28 SEC
 DISK USED  *        21.32 GB      
 **********************************************************************************************************************************


 PROGRAM * CCSD (Closed-shell coupled cluster)     Authors: C. Hampel, H.-J. Werner, 1991, M. Deegan, P.J. Knowles, 1992


 Convergence thresholds:  THRVAR = 1.00D-08  THRDEN = 1.00D-12

 CCSD(T)     terms to be evaluated (factor= 1.000)


 Number of core orbitals:           2 (   2   0 )
 Number of closed-shell orbitals:   6 (   5   1 )
 Number of external orbitals:     326 ( 197 129 )

 Molecular orbitals read from record     2100.2  Type=RHF/CANONICAL (state 1.1)

 Number of N-1 electron functions:               6
 Number of N-2 electron functions:              21
 Number of singly external CSFs:              1114
 Number of doubly external CSFs:            975958
 Total number of CSFs:                      977073

 Length of J-op  integral file:               0.00 MB
 Length of K-op  integral file:               4.07 MB
 Length of 3-ext integral record:             0.00 MB

 Memory could be reduced to 151.33 Mwords without degradation in triples

 Integral transformation finished. Total CPU:  10.11 sec, npass=  1  Memory used:  41.21 MW

 Reference energy:                   -129.85106447

 MP2 singlet pair energy:              -0.31015681
 MP2 triplet pair energy:              -0.17133341
 MP2 correlation energy:               -0.48149023
 MP2 total energy:                   -130.33255470

 SCS-MP2 correlation energy:           -0.47879564   (PS=  1.200000  PT=  0.333333)
 SCS-MP2 total energy:               -130.32986011

 ITER.      SQ.NORM     CORR.ENERGY   TOTAL ENERGY   ENERGY CHANGE        DEN1      VAR(S)    VAR(P)  DIIS     TIME  TIME/IT
   1      1.11952144    -0.47888759  -130.32995206     0.00260264     0.01883612  0.30D-02  0.31D-02  1  1    17.98     8.81
   2      1.12990235    -0.47885672  -130.32992119     0.00003087    -0.01241748  0.10D-03  0.47D-03  2  2    26.08     8.93
   3      1.13586817    -0.47922357  -130.33028804    -0.00036685    -0.00294411  0.45D-04  0.54D-04  3  3    34.20     8.98
   4      1.13854522    -0.47922137  -130.33028584     0.00000220    -0.00093838  0.42D-05  0.96D-05  4  4    42.19     9.00
   5      1.13961106    -0.47924878  -130.33031325    -0.00002741    -0.00023723  0.11D-05  0.16D-05  5  5    50.27     9.01
   6      1.13995117    -0.47923817  -130.33030264     0.00001062    -0.00004772  0.11D-06  0.40D-06  6  6    58.34     9.02
   7      1.14002688    -0.47923772  -130.33030219     0.00000044     0.00000281  0.17D-07  0.90D-07  6  1    66.42     9.03
   8      1.14005170    -0.47923786  -130.33030233    -0.00000014    -0.00000290  0.37D-08  0.18D-07  6  2    74.51     9.04
   9      1.14006018    -0.47923733  -130.33030181     0.00000052    -0.00000024  0.21D-08  0.18D-08  6  3    82.67     9.04
  10      1.14005587    -0.47923804  -130.33030251    -0.00000070     0.00000149  0.33D-09  0.29D-09  6  5    90.71     9.04
  11      1.14005760    -0.47923803  -130.33030250     0.00000001    -0.00000030  0.92D-10  0.25D-10  6  4    98.83     9.04
  12      1.14005716    -0.47923809  -130.33030257    -0.00000006     0.00000005  0.17D-10  0.58D-11  6  6   106.88     9.05
  13      1.14005695    -0.47923810  -130.33030257    -0.00000000    -0.00000003  0.30D-11  0.88D-12  6  1   115.03     9.06
  14      1.14005670    -0.47923811  -130.33030258    -0.00000001     0.00000004  0.47D-12  0.16D-12  6  3   123.07     9.06
  15      1.14005662    -0.47923811  -130.33030258    -0.00000000     0.00000001  0.12D-12  0.22D-13  6  2   131.19     9.06
  16      1.14005661    -0.47923811  -130.33030258     0.00000000     0.00000000  0.31D-13  0.88D-14  6  4   139.33     9.06
  17      1.14005661    -0.47923811  -130.33030258    -0.00000000    -0.00000000  0.17D-14  0.11D-14  6  5   147.35     9.06
  18      1.14005662    -0.47923811  -130.33030258     0.00000000    -0.00000000  0.27D-15  0.30D-15  6  6   155.38     9.06
  19      1.14005662    -0.47923811  -130.33030258     0.00000000    -0.00000000  0.34D-16  0.44D-16  6  2   163.45     9.06
  20      1.14005662    -0.47923811  -130.33030258     0.00000000    -0.00000000  0.88D-17  0.62D-17  6  1   171.58     9.06
  21      1.14005662    -0.47923811  -130.33030258    -0.00000000     0.00000000  0.15D-17  0.88D-18  6  3   179.58     9.06
  22      1.14005662    -0.47923811  -130.33030258    -0.00000000     0.00000000  0.31D-18  0.14D-18  6  4   187.59     9.06
  23      1.14005662    -0.47923811  -130.33030258    -0.00000000     0.00000000  0.78D-19  0.37D-19  6  5   195.64     9.06
  24      1.14005662    -0.47923811  -130.33030258    -0.00000000     0.00000000  0.34D-19  0.16D-19  6  6   203.78     9.06
  25      1.14005662    -0.47923811  -130.33030258    -0.00000000     0.00000000  0.19D-19  0.84D-20  6  2   211.85     9.06

 Norm of t1 vector:      0.07467849      S-energy:    -0.00000000      T1 diagnostic:  0.01524368
                                                                       D1 diagnostic:  0.04091625

 Doubles amplitudes (print threshold =  0.500E-01):

         I         J         SYM. A    SYM. B    A         B      T(IJ, AB)

         6         6         2         2         1         1     -0.07147145
         6         6         2         2         1         2      0.05276041
         6         6         2         2         2         1      0.05276041


 Total CPU time for triples:     85.34 sec


 RESULTS
 =======

  Reference energy                   -129.851064472835
  CCSD singlet pair energy             -0.332223227198
  CCSD triplet pair energy             -0.147014882308
  CCSD correlation energy              -0.479238109508

  Triples (T) contribution             -0.022600876480
  Total correlation energy             -0.501838985988

  CCSD total energy                  -130.330302582344
  CCSD[T] energy                     -130.353939887544
  CCSD-T energy                      -130.352534422649
 !CCSD(T) total energy               -130.352903458823

 Timing summary (sec):

 STEP                 CPU(USER)    SYS     CPU(TOT)    WALL
 Transformation         10.15      1.35     11.50     11.50
 CCSD iterations       201.71     24.85    226.56    226.62
 Triples                85.34      1.74     87.08     87.10

 Program statistics:

 Available memory in ccsd:               994999756
 Min. memory needed in ccsd:               3348832
 Max. memory used in ccsd:                 4143652
 Max. memory used in cckext:               8340089 (25 integral passes)



 **********************************************************************************************************************************
 DATASETS  * FILE   NREC   LENGTH (MB)   RECORD NAMES
              1      20     6809.41       500      610      700      900      950      970     1000      129      960     1100   
                                          VAR    BASINP    GEOM    SYMINP    ZMAT    AOBASIS   BASIS     P2S    ABASIS      S 
                                         1400     1410     1200     1210     1080     1600     1650     1300     1700     1380   
                                           T        V       H0       H01     AOSYM     SMH    MOLCAS    ERIS     OPER     JKOP   

              2       4        4.02       700     1000      520     2100   
                                         GEOM     BASIS   MCVARS     RHF  

 PROGRAMS   *        TOTAL   CCSD(T)        HF       INT
 CPU TIMES  *       528.39    297.22    108.89    122.19
 REAL TIME  *       683.54 SEC
 DISK USED  *        21.32 GB      
 **********************************************************************************************************************************

 CCSD(T)/aug-cc-pV5Z energy=   -130.352903458823

        CCSD(T)         HF-SCF  
   -130.35290346   -129.85106447
 **********************************************************************************************************************************
 Molpro calculation terminated
 Variable memory released
