
 Primary working directories    : /tmp/r2666/281903.maple
 Secondary working directories  : /tmp/r2666/281903.maple
 Wavefunction directory         : /ddn/home4/r2666/wfu/
 Main file repository           : /tmp/r2666/281903.maple/

 SHA1      : d5ffa45e93fdbca01ffc919aa182cfdae0147319
 NAME      : 2015.1.35
 ARCHNAME  : linux/x86_64
 FC        : /opt/intel/composer_xe_2015.1.133/bin/intel64/ifort
 BLASLIB   : -Wl,-_start-group /opt/intel/mkl/lib/intel64/libmkl_intel_ilp64.a /opt/intel/mkl/lib/intel64/libmkl_intel_thread.a /opt/intel/mkl/lib/intel64/libmkl_core.a -Wl,-_end-group
 id        : olemiss

 Nodes     nprocs
 cn077        1

 Using customized tuning parameters: mindgm=1; mindgv=20; mindgc=4; mindgr=1; noblas=0; minvec=7
 default implementation of scratch files=df  

 ***,hno CCSD(T)/TZ-F12 QFF
 memory, 995, m;
 gthresh,energy=1.d-12,zero=1.d-22,oneint=1.d-22,twoint=1.d-22;
 gthresh,optgrad=1.d-8,optstep=1.d-8;
 nocompress;
 geomtyp=xyz
 bohr
 geometry={
 3
         58        58
 H        0.0000000000        1.6660436853       -1.9270175150
 N        0.0000000000       -0.1613156255       -1.1439939083
 O        0.0000000000        0.0370397302        1.1204218323
 }
 
 basis=av5z
   {hf,maxit=500;accu,20;}
 {ccsd(t),nocheck,maxit=250;orbital,IGNORE_ERROR;}

 Variables initialized (889), CPU time= 0.01 sec
 Commands  initialized (702), CPU time= 0.01 sec, 572 directives.
 Default parameters read. Elapsed time= 0.06 sec

 Checking input...
 Passed
1


                                         ***  PROGRAM SYSTEM MOLPRO  ***
                                       Copyright, TTI GmbH Stuttgart, 2015
                                    Version 2015.1 linked Jul  9 2018 13:16:40


 **********************************************************************************************************************************
 LABEL *   hno CCSD(T)/TZ-F12 QFF                                                        
  64 bit serial version                                                                  DATE: 04-Mar-20          TIME: 13:20:13  
 **********************************************************************************************************************************

 SHA1:             d5ffa45e93fdbca01ffc919aa182cfdae0147319
 **********************************************************************************************************************************

 THRESHOLDS:

 ZERO    =  1.00D-22  ONEINT  =  1.00D-22  TWOINT  =  1.00D-22  PREFAC  =  1.00D-14  LOCALI  =  1.00D-09  EORDER  =  1.00D-04
 ENERGY  =  1.00D-12  ETEST   =  0.00D+00  EDENS   =  0.00D+00  THRDEDEF=  1.00D-06  GRADIENT=  1.00D-02  STEP    =  1.00D-03
 ORBITAL =  1.00D-05  CIVEC   =  1.00D-05  COEFF   =  1.00D-04  PRINTCI =  5.00D-02  PUNCHCI =  9.90D+01  OPTGRAD =  3.00D-04
 OPTENERG=  1.00D-06  OPTSTEP =  3.00D-04  THRGRAD =  1.00D-10  COMPRESS=  1.00D-11  VARMIN  =  1.00D-07  VARMAX  =  1.00D-03
 THRDOUB =  0.00D+00  THRDIV  =  1.00D-05  THRRED  =  1.00D-07  THRPSP  =  1.00D+00  THRDC   =  1.00D-10  THRCS   =  1.00D-10
 THRNRM  =  1.00D-08  THREQ   =  0.00D+00  THRDE   =  1.00D+00  THRREF  =  1.00D-05  SPARFAC =  1.00D+00  THRDLP  =  1.00D-07
 THRDIA  =  1.00D-10  THRDLS  =  1.00D-07  THRGPS  =  0.00D+00  THRKEX  =  0.00D+00  THRDIS  =  2.00D-01  THRVAR  =  1.00D-10
 THRLOC  =  1.00D-06  THRGAP  =  1.00D-06  THRLOCT = -1.00D+00  THRGAPT = -1.00D+00  THRORB  =  1.00D-06  THRMLTP =  0.00D+00
 THRCPQCI=  1.00D-10  KEXTA   =  0.00D+00  THRCOARS=  0.00D+00  SYMTOL  =  1.00D-06  GRADTOL =  1.00D-06  THROVL  =  1.00D-08
 THRORTH =  1.00D-08  GRID    =  1.00D-06  GRIDMAX =  1.00D-03  DTMAX   =  0.00D+00  THROCCDE=  1.00D-01  THROCCDE=  1.00D-01



 THRESHOLDS:

 ZERO    =  1.00D-22  ONEINT  =  1.00D-22  TWOINT  =  1.00D-22  PREFAC  =  1.00D-14  LOCALI  =  1.00D-09  EORDER  =  1.00D-04
 ENERGY  =  1.00D-12  ETEST   =  0.00D+00  EDENS   =  0.00D+00  THRDEDEF=  1.00D-06  GRADIENT=  1.00D-02  STEP    =  1.00D-03
 ORBITAL =  1.00D-05  CIVEC   =  1.00D-05  COEFF   =  1.00D-04  PRINTCI =  5.00D-02  PUNCHCI =  9.90D+01  OPTGRAD =  1.00D-08
 OPTENERG=  1.00D-06  OPTSTEP =  1.00D-08  THRGRAD =  1.00D-10  COMPRESS=  1.00D-11  VARMIN  =  1.00D-07  VARMAX  =  1.00D-03
 THRDOUB =  0.00D+00  THRDIV  =  1.00D-05  THRRED  =  1.00D-07  THRPSP  =  1.00D+00  THRDC   =  1.00D-10  THRCS   =  1.00D-10
 THRNRM  =  1.00D-08  THREQ   =  0.00D+00  THRDE   =  1.00D+00  THRREF  =  1.00D-05  SPARFAC =  1.00D+00  THRDLP  =  1.00D-07
 THRDIA  =  1.00D-10  THRDLS  =  1.00D-07  THRGPS  =  0.00D+00  THRKEX  =  0.00D+00  THRDIS  =  2.00D-01  THRVAR  =  1.00D-10
 THRLOC  =  1.00D-06  THRGAP  =  1.00D-06  THRLOCT = -1.00D+00  THRGAPT = -1.00D+00  THRORB  =  1.00D-06  THRMLTP =  0.00D+00
 THRCPQCI=  1.00D-10  KEXTA   =  0.00D+00  THRCOARS=  0.00D+00  SYMTOL  =  1.00D-06  GRADTOL =  1.00D-06  THROVL  =  1.00D-08
 THRORTH =  1.00D-08  GRID    =  1.00D-06  GRIDMAX =  1.00D-03  DTMAX   =  0.00D+00  THROCCDE=  1.00D-01  THROCCDE=  1.00D-01



 Input parameters for SORTINT:

 COMPRESS =    0.000000
 C_FINAL  =    1.000000
 DEBUG    =   -1.000000
 C_SORT1  =    0.000000
 C_SEWARD =    0.000000
 THRESH   =    0.000000
 IO       =  molpro                                                          
 SPRI     =    0.000000
 SETTING GEOMTYP        =    XYZ
 ZUNIT=BOHR
 

 Variable memory set to  995000000 words,  buffer space   230000 words

 SETTING BASIS          =    AV5Z


 Recomputing integrals since basis changed


 Using spherical harmonics

 Library entry H      S aug-cc-pV5Z          selected for orbital group  1
 Library entry H      P aug-cc-pV5Z          selected for orbital group  1
 Library entry H      D aug-cc-pV5Z          selected for orbital group  1
 Library entry H      F aug-cc-pV5Z          selected for orbital group  1
 Library entry H      G aug-cc-pV5Z          selected for orbital group  1
 Library entry N      S aug-cc-pV5Z          selected for orbital group  2
 Library entry N      P aug-cc-pV5Z          selected for orbital group  2
 Library entry N      D aug-cc-pV5Z          selected for orbital group  2
 Library entry N      F aug-cc-pV5Z          selected for orbital group  2
 Library entry N      G aug-cc-pV5Z          selected for orbital group  2
 Library entry N      H aug-cc-pV5Z          selected for orbital group  2
 Library entry O      S aug-cc-pV5Z          selected for orbital group  3
 Library entry O      P aug-cc-pV5Z          selected for orbital group  3
 Library entry O      D aug-cc-pV5Z          selected for orbital group  3
 Library entry O      F aug-cc-pV5Z          selected for orbital group  3
 Library entry O      G aug-cc-pV5Z          selected for orbital group  3
 Library entry O      H aug-cc-pV5Z          selected for orbital group  3


 PROGRAM * SEWARD (Integral evaluation for generally contracted gaussian basis sets)     Author: Roland Lindh, 1990

 Geometry written to block  1 of record 700


 Point group  Cs  



 ATOMIC COORDINATES

 NR  ATOM    CHARGE       X              Y              Z

   1  H       1.00    0.000000000    1.666043685   -1.927017515
   2  N       7.00    0.000000000   -0.161315626   -1.143993908
   3  O       8.00    0.000000000    0.037039730    1.120421832

 Bond lengths in Bohr (Angstrom)

 1-2  1.988056342  2-3  2.273086776
     ( 1.052034110)     ( 1.202865721)

 Bond angles

  1-2-3  108.18899349

 NUCLEAR CHARGE:                   16
 NUMBER OF PRIMITIVE AOS:         506
 NUMBER OF SYMMETRY AOS:          371
 NUMBER OF CONTRACTIONS:          334   ( 204A'  + 130A"  )
 NUMBER OF CORE ORBITALS:           2   (   2A'  +   0A"  )
 NUMBER OF VALENCE ORBITALS:        9   (   7A'  +   2A"  )


 NUCLEAR REPULSION ENERGY   30.47227392


 Eigenvalues of metric

         1 0.112E-04 0.170E-04 0.633E-04 0.984E-04 0.103E-03 0.135E-03 0.198E-03 0.223E-03
         2 0.125E-03 0.363E-03 0.110E-02 0.154E-02 0.192E-02 0.248E-02 0.325E-02 0.388E-02


 Contracted 2-electron integrals neglected if value below      1.0D-22

      756977483. INTEGRALS WRITTEN OUT IN  184855 BLOCKS ON RECORD 1290 OF FILE 1


 NUMBER OF SORTED TWO-ELECTRON INTEGRALS:  789027325.     BUFFER LENGTH:  32768
 NUMBER OF SEGMENTS:  25  SEGMENT LENGTH:   31997130      RECORD LENGTH: 524288

 Memory used in sort:      32.55 MW

 SORT1 READ   756977483. AND WROTE   760993370. INTEGRALS IN   2189 RECORDS. CPU TIME:    36.10 SEC, REAL TIME:  1392.23 SEC
 SORT2 READ   760993370. AND WROTE   789027325. INTEGRALS IN     25 RECORDS. CPU TIME:     9.39 SEC, REAL TIME:   342.01 SEC

 FILE SIZES:   FILE 1: 12137.5 MBYTE,  FILE 4:  9181.4 MBYTE,   TOTAL:  21318.9 MBYTE

 OPERATOR DM      FOR CENTER  0  COORDINATES:    0.000000    0.000000    0.000000


 **********************************************************************************************************************************
 DATASETS  * FILE   NREC   LENGTH (MB)   RECORD NAMES
              1      19     6374.22       500      610      700      900      950      970     1000      129      960     1100   
                                          VAR    BASINP    GEOM    SYMINP    ZMAT    AOBASIS   BASIS     P2S    ABASIS      S 
                                         1400     1410     1200     1210     1080     1600     1650     1300     1700   
                                           T        V       H0       H01     AOSYM     SMH    MOLCAS    ERIS     OPER   

 PROGRAMS   *        TOTAL       INT
 CPU TIMES  *       175.03    174.95
 REAL TIME  *      2038.76 SEC
 DISK USED  *        21.32 GB      
 **********************************************************************************************************************************


 PROGRAM * RHF-SCF (CLOSED SHELL)       Authors: W. Meyer, H.-J. Werner


 NUMBER OF ELECTRONS:       8+    8-
 CONVERGENCE THRESHOLDS:    1.00E-10 (Density)    1.00E-13 (Energy)
 MAX. NUMBER OF ITERATIONS:      500
 INTERPOLATION TYPE:            DIIS
 INTERPOLATION STEPS:              2 (START)      1 (STEP)
 LEVEL SHIFTS:                  0.00 (CLOSED)  0.00 (OPEN) 



 Orbital guess generated from atomic densities. Full valence occupancy:    9   2

 Molecular orbital dump at record        2100.2

 Initial occupancy:   7   1

 ITERATION    DDIFF          GRAD             ENERGY        2-EL.EN.            DIPOLE MOMENTS         DIIS   ORB.
    1      0.000D+00      0.000D+00      -129.79994147    154.164202    0.00000    0.59305   -1.01265    0    start
    2      0.000D+00      0.638D-02      -129.82731773    155.394335    0.00000    0.60728   -0.20982    1    diag
    3      0.396D-02      0.481D-02      -129.84948929    155.510291    0.00000    0.55421   -0.58675    2    diag
    4      0.204D-02      0.764D-03      -129.85028389    155.229526    0.00000    0.56169   -0.52598    3    diag
    5      0.376D-03      0.247D-03      -129.85040799    155.322794    0.00000    0.56694   -0.52856    4    diag
    6      0.155D-03      0.717D-04      -129.85042783    155.306542    0.00000    0.56723   -0.52443    5    diag
    7      0.595D-04      0.355D-04      -129.85043354    155.309380    0.00000    0.56847   -0.52187    6    diag
    8      0.407D-04      0.123D-04      -129.85043417    155.308690    0.00000    0.56852   -0.52088    7    diag
    9      0.153D-04      0.236D-05      -129.85043419    155.308582    0.00000    0.56849   -0.52067    8    diag
   10      0.306D-05      0.539D-06      -129.85043419    155.308564    0.00000    0.56845   -0.52064    9    orth
   11      0.610D-06      0.109D-06      -129.85043419    155.308560    0.00000    0.56845   -0.52064    9    diag
   12      0.116D-06      0.220D-07      -129.85043419    155.308560    0.00000    0.56845   -0.52063    9    diag
   13      0.251D-07      0.573D-08      -129.85043419    155.308560    0.00000    0.56845   -0.52063    9    diag
   14      0.670D-08      0.112D-08      -129.85043419    155.308560    0.00000    0.56845   -0.52063    9    diag
   15      0.124D-08      0.323D-09      -129.85043419    155.308560    0.00000    0.56845   -0.52063    9    diag
   16      0.370D-09      0.988D-10      -129.85043419    155.308560    0.00000    0.56845   -0.52063    9    diag
   17      0.729D-10      0.266D-10      -129.85043419    155.308560    0.00000    0.56845   -0.52063    9    diag
   18      0.280D-10      0.911D-11      -129.85043419    155.308560    0.00000    0.56845   -0.52063    9    diag
   19      0.228D-10      0.231D-11      -129.85043419    155.308560    0.00000    0.56845   -0.52063    9    fixocc
   20      0.203D-10      0.665D-12      -129.85043419    155.308560    0.00000    0.56845   -0.52063    9    orth
   21      0.111D-10      0.370D-12      -129.85043419    155.308560    0.00000    0.56845   -0.52063    9    diag
   22      0.876D-11      0.321D-12      -129.85043419    155.308560    0.00000    0.56845   -0.52063    0    orth

 Final occupancy:   7   1

 !RHF STATE 1.1 Energy               -129.850434194609
 Nuclear energy                        30.47227392
 One-electron energy                 -237.97698802
 Two-electron energy                   77.65427991
 Virial quotient                       -1.00154733
 !RHF STATE 1.1 Dipole moment           0.00000000     0.56844520    -0.52063401
 Dipole moment /Debye                   0.00000000     1.44474895    -1.32323298

 Orbital energies:

         1.1          2.1          3.1          4.1          5.1          6.1          7.1          8.1          9.1
    -20.652447   -15.711294    -1.533494    -0.993185    -0.748747    -0.667571    -0.428994     0.022912     0.065553

         1.2          2.2          3.2
     -0.598482     0.061203     0.092081

 HOMO      7.1    -0.428994 =     -11.6735eV
 LUMO      8.1     0.022912 =       0.6235eV
 LUMO-HOMO         0.451905 =      12.2970eV


 **********************************************************************************************************************************
 DATASETS  * FILE   NREC   LENGTH (MB)   RECORD NAMES
              1      19     6374.22       500      610      700      900      950      970     1000      129      960     1100   
                                          VAR    BASINP    GEOM    SYMINP    ZMAT    AOBASIS   BASIS     P2S    ABASIS      S 
                                         1400     1410     1200     1210     1080     1600     1650     1300     1700   
                                           T        V       H0       H01     AOSYM     SMH    MOLCAS    ERIS     OPER   

              2       4        4.02       700     1000      520     2100   
                                         GEOM     BASIS   MCVARS     RHF  

 PROGRAMS   *        TOTAL        HF       INT
 CPU TIMES  *       249.22     74.19    174.95
 REAL TIME  *      2139.26 SEC
 DISK USED  *        21.32 GB      
 **********************************************************************************************************************************


 PROGRAM * CCSD (Closed-shell coupled cluster)     Authors: C. Hampel, H.-J. Werner, 1991, M. Deegan, P.J. Knowles, 1992


 Convergence thresholds:  THRVAR = 1.00D-08  THRDEN = 1.00D-12

 CCSD(T)     terms to be evaluated (factor= 1.000)


 Number of core orbitals:           2 (   2   0 )
 Number of closed-shell orbitals:   6 (   5   1 )
 Number of external orbitals:     326 ( 197 129 )

 Molecular orbitals read from record     2100.2  Type=RHF/CANONICAL (state 1.1)

 Number of N-1 electron functions:               6
 Number of N-2 electron functions:              21
 Number of singly external CSFs:              1114
 Number of doubly external CSFs:            975958
 Total number of CSFs:                      977073

 Length of J-op  integral file:               0.00 MB
 Length of K-op  integral file:               4.07 MB
 Length of 3-ext integral record:             0.00 MB

 Memory could be reduced to 151.33 Mwords without degradation in triples

 Integral transformation finished. Total CPU:  10.38 sec, npass=  1  Memory used:  41.21 MW

 Reference energy:                   -129.85043419

 MP2 singlet pair energy:              -0.31065624
 MP2 triplet pair energy:              -0.17166688
 MP2 correlation energy:               -0.48232313
 MP2 total energy:                   -130.33275732

 SCS-MP2 correlation energy:           -0.47960244   (PS=  1.200000  PT=  0.333333)
 SCS-MP2 total energy:               -130.33003663

 ITER.      SQ.NORM     CORR.ENERGY   TOTAL ENERGY   ENERGY CHANGE        DEN1      VAR(S)    VAR(P)  DIIS     TIME  TIME/IT
   1      1.12004139    -0.47952402  -130.32995821     0.00279911     0.01924055  0.31D-02  0.31D-02  1  1    19.26     9.90
   2      1.13054115    -0.47945291  -130.32988711     0.00007110    -0.01254303  0.10D-03  0.48D-03  2  2    28.17    10.05
   3      1.13659476    -0.47982643  -130.33026062    -0.00037351    -0.00297216  0.46D-04  0.55D-04  3  3    37.12    10.10
   4      1.13932473    -0.47982447  -130.33025867     0.00000195    -0.00095269  0.43D-05  0.97D-05  4  4    46.01    10.11
   5      1.14041913    -0.47985268  -130.33028687    -0.00002820    -0.00024335  0.11D-05  0.17D-05  5  5    54.90    10.13
   6      1.14076588    -0.47984159  -130.33027579     0.00001108    -0.00004889  0.12D-06  0.40D-06  6  6    63.94    10.14
   7      1.14084124    -0.47984119  -130.33027538     0.00000040     0.00000310  0.17D-07  0.91D-07  6  1    72.95    10.15
   8      1.14086617    -0.47984127  -130.33027546    -0.00000008    -0.00000296  0.36D-08  0.18D-07  6  2    81.92    10.15
   9      1.14087462    -0.47984073  -130.33027492     0.00000054    -0.00000021  0.22D-08  0.19D-08  6  3    90.88    10.15
  10      1.14087018    -0.47984145  -130.33027564    -0.00000072     0.00000153  0.34D-09  0.31D-09  6  5    99.86    10.16
  11      1.14087202    -0.47984144  -130.33027563     0.00000001    -0.00000033  0.95D-10  0.26D-10  6  4   108.73    10.16
  12      1.14087158    -0.47984150  -130.33027570    -0.00000006     0.00000005  0.18D-10  0.60D-11  6  6   117.76    10.17
  13      1.14087137    -0.47984151  -130.33027570    -0.00000000    -0.00000003  0.30D-11  0.89D-12  6  1   126.67    10.17
  14      1.14087111    -0.47984152  -130.33027571    -0.00000001     0.00000004  0.46D-12  0.16D-12  6  3   135.66    10.17
  15      1.14087104    -0.47984152  -130.33027571    -0.00000000     0.00000001  0.12D-12  0.22D-13  6  2   144.69    10.18
  16      1.14087103    -0.47984152  -130.33027571     0.00000000     0.00000000  0.31D-13  0.87D-14  6  4   153.67    10.18
  17      1.14087103    -0.47984152  -130.33027571    -0.00000000    -0.00000000  0.17D-14  0.11D-14  6  5   162.62    10.18
  18      1.14087103    -0.47984152  -130.33027571     0.00000000    -0.00000000  0.27D-15  0.29D-15  6  6   171.53    10.18
  19      1.14087104    -0.47984152  -130.33027571     0.00000000    -0.00000000  0.52D-16  0.41D-16  6  1   180.46    10.18
  20      1.14087104    -0.47984152  -130.33027571     0.00000000    -0.00000000  0.11D-16  0.60D-17  6  3   189.49    10.18
  21      1.14087104    -0.47984152  -130.33027571    -0.00000000     0.00000000  0.21D-17  0.11D-17  6  2   198.47    10.18
  22      1.14087104    -0.47984152  -130.33027571    -0.00000000     0.00000000  0.41D-18  0.17D-18  6  4   207.26    10.18
  23      1.14087104    -0.47984152  -130.33027571    -0.00000000     0.00000000  0.86D-19  0.42D-19  6  5   216.02    10.18
  24      1.14087104    -0.47984152  -130.33027571    -0.00000000     0.00000000  0.32D-19  0.18D-19  6  6   225.01    10.18
  25      1.14087104    -0.47984152  -130.33027571     0.00000000    -0.00000000  0.16D-19  0.95D-20  6  1   233.73    10.17

 Norm of t1 vector:      0.07540632      S-energy:    -0.00000000      T1 diagnostic:  0.01539225
                                                                       D1 diagnostic:  0.04153186

 Doubles amplitudes (print threshold =  0.500E-01):

         I         J         SYM. A    SYM. B    A         B      T(IJ, AB)

         6         6         2         2         1         1     -0.07533036
         6         6         2         2         1         2      0.05296283
         6         6         2         2         2         1      0.05296283


 Total CPU time for triples:     87.85 sec


 RESULTS
 =======

  Reference energy                   -129.850434194608
  CCSD singlet pair energy             -0.332745591699
  CCSD triplet pair energy             -0.147095927277
  CCSD correlation energy              -0.479841518979

  Triples (T) contribution             -0.022754945805
  Total correlation energy             -0.502596464783

  CCSD total energy                  -130.330275713586
  CCSD[T] energy                     -130.354086816624
  CCSD-T energy                      -130.352656731904
 !CCSD(T) total energy               -130.353030659391

 Timing summary (sec):

 STEP                 CPU(USER)    SYS     CPU(TOT)    WALL
 Transformation         10.42      1.73     12.15     12.15
 CCSD iterations       223.32     30.99    254.31    254.35
 Triples                87.85      1.72     89.57     89.58

 Program statistics:

 Available memory in ccsd:               994999756
 Min. memory needed in ccsd:               3348832
 Max. memory used in ccsd:                 4143652
 Max. memory used in cckext:               8340089 (25 integral passes)



 **********************************************************************************************************************************
 DATASETS  * FILE   NREC   LENGTH (MB)   RECORD NAMES
              1      20     6809.41       500      610      700      900      950      970     1000      129      960     1100   
                                          VAR    BASINP    GEOM    SYMINP    ZMAT    AOBASIS   BASIS     P2S    ABASIS      S 
                                         1400     1410     1200     1210     1080     1600     1650     1300     1700     1380   
                                           T        V       H0       H01     AOSYM     SMH    MOLCAS    ERIS     OPER     JKOP   

              2       4        4.02       700     1000      520     2100   
                                         GEOM     BASIS   MCVARS     RHF  

 PROGRAMS   *        TOTAL   CCSD(T)        HF       INT
 CPU TIMES  *       570.84    321.61     74.19    174.95
 REAL TIME  *      2495.40 SEC
 DISK USED  *        21.32 GB      
 **********************************************************************************************************************************

 CCSD(T)/aug-cc-pV5Z energy=   -130.353030659391

        CCSD(T)         HF-SCF  
   -130.35303066   -129.85043419
 **********************************************************************************************************************************
 Molpro calculation terminated
 Variable memory released
