
 Primary working directories    : /tmp/r2666/281911.maple
 Secondary working directories  : /tmp/r2666/281911.maple
 Wavefunction directory         : /ddn/home4/r2666/wfu/
 Main file repository           : /tmp/r2666/281911.maple/

 SHA1      : d5ffa45e93fdbca01ffc919aa182cfdae0147319
 NAME      : 2015.1.35
 ARCHNAME  : linux/x86_64
 FC        : /opt/intel/composer_xe_2015.1.133/bin/intel64/ifort
 BLASLIB   : -Wl,-_start-group /opt/intel/mkl/lib/intel64/libmkl_intel_ilp64.a /opt/intel/mkl/lib/intel64/libmkl_intel_thread.a /opt/intel/mkl/lib/intel64/libmkl_core.a -Wl,-_end-group
 id        : olemiss

 Nodes     nprocs
 cn075        1

 Using customized tuning parameters: mindgm=1; mindgv=20; mindgc=4; mindgr=1; noblas=0; minvec=7
 default implementation of scratch files=df  

 ***,hno CCSD(T)/TZ-F12 QFF
 memory, 995, m;
 gthresh,energy=1.d-12,zero=1.d-22,oneint=1.d-22,twoint=1.d-22;
 gthresh,optgrad=1.d-8,optstep=1.d-8;
 nocompress;
 geomtyp=xyz
 bohr
 geometry={
 3
         66        66
 H        0.0000000000        1.6670587455       -1.9327302875
 N        0.0000000000       -0.1587690386       -1.1461421347
 O        0.0000000000        0.0334780830        1.1282828312
 }
 
 basis=av5z
   {hf,maxit=500;accu,20;}
 {ccsd(t),nocheck,maxit=250;orbital,IGNORE_ERROR;}

 Variables initialized (889), CPU time= 0.00 sec
 Commands  initialized (702), CPU time= 0.02 sec, 572 directives.
 Default parameters read. Elapsed time= 0.07 sec

 Checking input...
 Passed
1


                                         ***  PROGRAM SYSTEM MOLPRO  ***
                                       Copyright, TTI GmbH Stuttgart, 2015
                                    Version 2015.1 linked Jul  9 2018 13:16:40


 **********************************************************************************************************************************
 LABEL *   hno CCSD(T)/TZ-F12 QFF                                                        
  64 bit serial version                                                                  DATE: 04-Mar-20          TIME: 13:20:09  
 **********************************************************************************************************************************

 SHA1:             d5ffa45e93fdbca01ffc919aa182cfdae0147319
 **********************************************************************************************************************************

 THRESHOLDS:

 ZERO    =  1.00D-22  ONEINT  =  1.00D-22  TWOINT  =  1.00D-22  PREFAC  =  1.00D-14  LOCALI  =  1.00D-09  EORDER  =  1.00D-04
 ENERGY  =  1.00D-12  ETEST   =  0.00D+00  EDENS   =  0.00D+00  THRDEDEF=  1.00D-06  GRADIENT=  1.00D-02  STEP    =  1.00D-03
 ORBITAL =  1.00D-05  CIVEC   =  1.00D-05  COEFF   =  1.00D-04  PRINTCI =  5.00D-02  PUNCHCI =  9.90D+01  OPTGRAD =  3.00D-04
 OPTENERG=  1.00D-06  OPTSTEP =  3.00D-04  THRGRAD =  1.00D-10  COMPRESS=  1.00D-11  VARMIN  =  1.00D-07  VARMAX  =  1.00D-03
 THRDOUB =  0.00D+00  THRDIV  =  1.00D-05  THRRED  =  1.00D-07  THRPSP  =  1.00D+00  THRDC   =  1.00D-10  THRCS   =  1.00D-10
 THRNRM  =  1.00D-08  THREQ   =  0.00D+00  THRDE   =  1.00D+00  THRREF  =  1.00D-05  SPARFAC =  1.00D+00  THRDLP  =  1.00D-07
 THRDIA  =  1.00D-10  THRDLS  =  1.00D-07  THRGPS  =  0.00D+00  THRKEX  =  0.00D+00  THRDIS  =  2.00D-01  THRVAR  =  1.00D-10
 THRLOC  =  1.00D-06  THRGAP  =  1.00D-06  THRLOCT = -1.00D+00  THRGAPT = -1.00D+00  THRORB  =  1.00D-06  THRMLTP =  0.00D+00
 THRCPQCI=  1.00D-10  KEXTA   =  0.00D+00  THRCOARS=  0.00D+00  SYMTOL  =  1.00D-06  GRADTOL =  1.00D-06  THROVL  =  1.00D-08
 THRORTH =  1.00D-08  GRID    =  1.00D-06  GRIDMAX =  1.00D-03  DTMAX   =  0.00D+00  THROCCDE=  1.00D-01  THROCCDE=  1.00D-01



 THRESHOLDS:

 ZERO    =  1.00D-22  ONEINT  =  1.00D-22  TWOINT  =  1.00D-22  PREFAC  =  1.00D-14  LOCALI  =  1.00D-09  EORDER  =  1.00D-04
 ENERGY  =  1.00D-12  ETEST   =  0.00D+00  EDENS   =  0.00D+00  THRDEDEF=  1.00D-06  GRADIENT=  1.00D-02  STEP    =  1.00D-03
 ORBITAL =  1.00D-05  CIVEC   =  1.00D-05  COEFF   =  1.00D-04  PRINTCI =  5.00D-02  PUNCHCI =  9.90D+01  OPTGRAD =  1.00D-08
 OPTENERG=  1.00D-06  OPTSTEP =  1.00D-08  THRGRAD =  1.00D-10  COMPRESS=  1.00D-11  VARMIN  =  1.00D-07  VARMAX  =  1.00D-03
 THRDOUB =  0.00D+00  THRDIV  =  1.00D-05  THRRED  =  1.00D-07  THRPSP  =  1.00D+00  THRDC   =  1.00D-10  THRCS   =  1.00D-10
 THRNRM  =  1.00D-08  THREQ   =  0.00D+00  THRDE   =  1.00D+00  THRREF  =  1.00D-05  SPARFAC =  1.00D+00  THRDLP  =  1.00D-07
 THRDIA  =  1.00D-10  THRDLS  =  1.00D-07  THRGPS  =  0.00D+00  THRKEX  =  0.00D+00  THRDIS  =  2.00D-01  THRVAR  =  1.00D-10
 THRLOC  =  1.00D-06  THRGAP  =  1.00D-06  THRLOCT = -1.00D+00  THRGAPT = -1.00D+00  THRORB  =  1.00D-06  THRMLTP =  0.00D+00
 THRCPQCI=  1.00D-10  KEXTA   =  0.00D+00  THRCOARS=  0.00D+00  SYMTOL  =  1.00D-06  GRADTOL =  1.00D-06  THROVL  =  1.00D-08
 THRORTH =  1.00D-08  GRID    =  1.00D-06  GRIDMAX =  1.00D-03  DTMAX   =  0.00D+00  THROCCDE=  1.00D-01  THROCCDE=  1.00D-01



 Input parameters for SORTINT:

 COMPRESS =    0.000000
 C_FINAL  =    1.000000
 DEBUG    =   -1.000000
 C_SORT1  =    0.000000
 C_SEWARD =    0.000000
 THRESH   =    0.000000
 IO       =  molpro                                                          
 SPRI     =    0.000000
 SETTING GEOMTYP        =    XYZ
 ZUNIT=BOHR
 

 Variable memory set to  995000000 words,  buffer space   230000 words

 SETTING BASIS          =    AV5Z


 Recomputing integrals since basis changed


 Using spherical harmonics

 Library entry H      S aug-cc-pV5Z          selected for orbital group  1
 Library entry H      P aug-cc-pV5Z          selected for orbital group  1
 Library entry H      D aug-cc-pV5Z          selected for orbital group  1
 Library entry H      F aug-cc-pV5Z          selected for orbital group  1
 Library entry H      G aug-cc-pV5Z          selected for orbital group  1
 Library entry N      S aug-cc-pV5Z          selected for orbital group  2
 Library entry N      P aug-cc-pV5Z          selected for orbital group  2
 Library entry N      D aug-cc-pV5Z          selected for orbital group  2
 Library entry N      F aug-cc-pV5Z          selected for orbital group  2
 Library entry N      G aug-cc-pV5Z          selected for orbital group  2
 Library entry N      H aug-cc-pV5Z          selected for orbital group  2
 Library entry O      S aug-cc-pV5Z          selected for orbital group  3
 Library entry O      P aug-cc-pV5Z          selected for orbital group  3
 Library entry O      D aug-cc-pV5Z          selected for orbital group  3
 Library entry O      F aug-cc-pV5Z          selected for orbital group  3
 Library entry O      G aug-cc-pV5Z          selected for orbital group  3
 Library entry O      H aug-cc-pV5Z          selected for orbital group  3


 PROGRAM * SEWARD (Integral evaluation for generally contracted gaussian basis sets)     Author: Roland Lindh, 1990

 Geometry written to block  1 of record 700


 Point group  Cs  



 ATOMIC COORDINATES

 NR  ATOM    CHARGE       X              Y              Z

   1  H       1.00    0.000000000    1.667058746   -1.932730288
   2  N       7.00    0.000000000   -0.158769039   -1.146142135
   3  O       8.00    0.000000000    0.033478083    1.128282831

 Bond lengths in Bohr (Angstrom)

 1-2  1.988056342  2-3  2.282535406
     ( 1.052034110)     ( 1.207865720)

 Bond angles

  1-2-3  108.47547239

 NUCLEAR CHARGE:                   16
 NUMBER OF PRIMITIVE AOS:         506
 NUMBER OF SYMMETRY AOS:          371
 NUMBER OF CONTRACTIONS:          334   ( 204A'  + 130A"  )
 NUMBER OF CORE ORBITALS:           2   (   2A'  +   0A"  )
 NUMBER OF VALENCE ORBITALS:        9   (   7A'  +   2A"  )


 NUCLEAR REPULSION ENERGY   30.36086415


 Eigenvalues of metric

         1 0.112E-04 0.172E-04 0.635E-04 0.100E-03 0.105E-03 0.136E-03 0.199E-03 0.224E-03
         2 0.127E-03 0.363E-03 0.112E-02 0.158E-02 0.193E-02 0.252E-02 0.326E-02 0.391E-02


 Contracted 2-electron integrals neglected if value below      1.0D-22

      756977425. INTEGRALS WRITTEN OUT IN  184855 BLOCKS ON RECORD 1290 OF FILE 1


 NUMBER OF SORTED TWO-ELECTRON INTEGRALS:  789027325.     BUFFER LENGTH:  32768
 NUMBER OF SEGMENTS:  25  SEGMENT LENGTH:   31997130      RECORD LENGTH: 524288

 Memory used in sort:      32.55 MW

 SORT1 READ   756977425. AND WROTE   760993308. INTEGRALS IN   2189 RECORDS. CPU TIME:    41.37 SEC, REAL TIME:   274.88 SEC
 SORT2 READ   760993308. AND WROTE   789027325. INTEGRALS IN     25 RECORDS. CPU TIME:    17.14 SEC, REAL TIME:   172.72 SEC

 FILE SIZES:   FILE 1: 12137.5 MBYTE,  FILE 4:  9181.4 MBYTE,   TOTAL:  21318.9 MBYTE

 OPERATOR DM      FOR CENTER  0  COORDINATES:    0.000000    0.000000    0.000000


 **********************************************************************************************************************************
 DATASETS  * FILE   NREC   LENGTH (MB)   RECORD NAMES
              1      19     6374.22       500      610      700      900      950      970     1000      129      960     1100   
                                          VAR    BASINP    GEOM    SYMINP    ZMAT    AOBASIS   BASIS     P2S    ABASIS      S 
                                         1400     1410     1200     1210     1080     1600     1650     1300     1700   
                                           T        V       H0       H01     AOSYM     SMH    MOLCAS    ERIS     OPER   

 PROGRAMS   *        TOTAL       INT
 CPU TIMES  *       177.17    177.06
 REAL TIME  *       674.25 SEC
 DISK USED  *        21.32 GB      
 **********************************************************************************************************************************


 PROGRAM * RHF-SCF (CLOSED SHELL)       Authors: W. Meyer, H.-J. Werner


 NUMBER OF ELECTRONS:       8+    8-
 CONVERGENCE THRESHOLDS:    1.00E-10 (Density)    1.00E-13 (Energy)
 MAX. NUMBER OF ITERATIONS:      500
 INTERPOLATION TYPE:            DIIS
 INTERPOLATION STEPS:              2 (START)      1 (STEP)
 LEVEL SHIFTS:                  0.00 (CLOSED)  0.00 (OPEN) 



 Orbital guess generated from atomic densities. Full valence occupancy:    9   2

 Molecular orbital dump at record        2100.2

 Initial occupancy:   7   1

 ITERATION    DDIFF          GRAD             ENERGY        2-EL.EN.            DIPOLE MOMENTS         DIIS   ORB.
    1      0.000D+00      0.000D+00      -129.79857130    153.963055    0.00000    0.59778   -1.02945    0    start
    2      0.000D+00      0.641D-02      -129.82579494    155.185134    0.00000    0.61023   -0.20881    1    diag
    3      0.400D-02      0.489D-02      -129.84876308    155.312008    0.00000    0.55765   -0.59546    2    diag
    4      0.207D-02      0.770D-03      -129.84957003    155.027118    0.00000    0.56487   -0.53373    3    diag
    5      0.378D-03      0.249D-03      -129.84969611    155.120957    0.00000    0.57015   -0.53625    4    diag
    6      0.156D-03      0.721D-04      -129.84971627    155.104638    0.00000    0.57043   -0.53203    5    diag
    7      0.600D-04      0.359D-04      -129.84972214    155.107428    0.00000    0.57166   -0.52940    6    diag
    8      0.412D-04      0.127D-04      -129.84972282    155.106721    0.00000    0.57170   -0.52837    7    diag
    9      0.159D-04      0.245D-05      -129.84972285    155.106609    0.00000    0.57167   -0.52815    8    diag
   10      0.321D-05      0.554D-06      -129.84972285    155.106591    0.00000    0.57163   -0.52812    9    orth
   11      0.629D-06      0.111D-06      -129.84972285    155.106587    0.00000    0.57162   -0.52812    9    diag
   12      0.117D-06      0.225D-07      -129.84972285    155.106587    0.00000    0.57162   -0.52812    9    diag
   13      0.252D-07      0.592D-08      -129.84972285    155.106587    0.00000    0.57162   -0.52811    9    diag
   14      0.683D-08      0.115D-08      -129.84972285    155.106587    0.00000    0.57162   -0.52811    9    diag
   15      0.125D-08      0.327D-09      -129.84972285    155.106587    0.00000    0.57162   -0.52811    9    diag
   16      0.374D-09      0.983D-10      -129.84972285    155.106587    0.00000    0.57162   -0.52811    9    diag
   17      0.725D-10      0.256D-10      -129.84972285    155.106587    0.00000    0.57162   -0.52811    9    diag
   18      0.277D-10      0.874D-11      -129.84972285    155.106587    0.00000    0.57162   -0.52811    9    diag
   19      0.244D-10      0.220D-11      -129.84972285    155.106587    0.00000    0.57162   -0.52811    9    fixocc
   20      0.240D-10      0.677D-12      -129.84972285    155.106587    0.00000    0.57162   -0.52811    9    orth
   21      0.189D-10      0.345D-12      -129.84972285    155.106587    0.00000    0.57162   -0.52811    9    diag
   22      0.669D-11      0.251D-12      -129.84972285    155.106587    0.00000    0.57162   -0.52811    9    diag
   23      0.306D-11      0.321D-12      -129.84972285    155.106587    0.00000    0.57162   -0.52811    9    diag
   24      0.289D-11      0.257D-12      -129.84972285    155.106587    0.00000    0.57162   -0.52811    9    diag
   25      0.111D-11      0.278D-12      -129.84972285    155.106587    0.00000    0.57162   -0.52811    9    diag
   26      0.148D-11      0.169D-12      -129.84972285    155.106587    0.00000    0.57162   -0.52811    0    orth

 Final occupancy:   7   1

 !RHF STATE 1.1 Energy               -129.849722850685
 Nuclear energy                        30.36086415
 One-electron energy                 -237.76388038
 Two-electron energy                   77.55329337
 Virial quotient                       -1.00170722
 !RHF STATE 1.1 Dipole moment           0.00000000     0.57162173    -0.52811456
 Dipole moment /Debye                   0.00000000     1.45282235    -1.34224541

 Orbital energies:

         1.1          2.1          3.1          4.1          5.1          6.1          7.1          8.1          9.1
    -20.652999   -15.712101    -1.529233    -0.994528    -0.747199    -0.666189    -0.430343     0.022834     0.065543

         1.2          2.2          3.2
     -0.596054     0.060170     0.091599

 HOMO      7.1    -0.430343 =     -11.7102eV
 LUMO      8.1     0.022834 =       0.6214eV
 LUMO-HOMO         0.453177 =      12.3316eV


 **********************************************************************************************************************************
 DATASETS  * FILE   NREC   LENGTH (MB)   RECORD NAMES
              1      19     6374.22       500      610      700      900      950      970     1000      129      960     1100   
                                          VAR    BASINP    GEOM    SYMINP    ZMAT    AOBASIS   BASIS     P2S    ABASIS      S 
                                         1400     1410     1200     1210     1080     1600     1650     1300     1700   
                                           T        V       H0       H01     AOSYM     SMH    MOLCAS    ERIS     OPER   

              2       4        4.02       700     1000      520     2100   
                                         GEOM     BASIS   MCVARS     RHF  

 PROGRAMS   *        TOTAL        HF       INT
 CPU TIMES  *       262.24     85.07    177.06
 REAL TIME  *       784.86 SEC
 DISK USED  *        21.32 GB      
 **********************************************************************************************************************************


 PROGRAM * CCSD (Closed-shell coupled cluster)     Authors: C. Hampel, H.-J. Werner, 1991, M. Deegan, P.J. Knowles, 1992


 Convergence thresholds:  THRVAR = 1.00D-08  THRDEN = 1.00D-12

 CCSD(T)     terms to be evaluated (factor= 1.000)


 Number of core orbitals:           2 (   2   0 )
 Number of closed-shell orbitals:   6 (   5   1 )
 Number of external orbitals:     326 ( 197 129 )

 Molecular orbitals read from record     2100.2  Type=RHF/CANONICAL (state 1.1)

 Number of N-1 electron functions:               6
 Number of N-2 electron functions:              21
 Number of singly external CSFs:              1114
 Number of doubly external CSFs:            975958
 Total number of CSFs:                      977073

 Length of J-op  integral file:               0.00 MB
 Length of K-op  integral file:               4.07 MB
 Length of 3-ext integral record:             0.00 MB

 Memory could be reduced to 151.33 Mwords without degradation in triples

 Integral transformation finished. Total CPU:  10.40 sec, npass=  1  Memory used:  41.21 MW

 Reference energy:                   -129.84972285

 MP2 singlet pair energy:              -0.31116020
 MP2 triplet pair energy:              -0.17200580
 MP2 correlation energy:               -0.48316600
 MP2 total energy:                   -130.33288885

 SCS-MP2 correlation energy:           -0.48041807   (PS=  1.200000  PT=  0.333333)
 SCS-MP2 total energy:               -130.33014092

 ITER.      SQ.NORM     CORR.ENERGY   TOTAL ENERGY   ENERGY CHANGE        DEN1      VAR(S)    VAR(P)  DIIS     TIME  TIME/IT
   1      1.12058127    -0.48016613  -130.32988898     0.00299987     0.01966551  0.32D-02  0.32D-02  1  1    19.16     9.56
   2      1.13121116    -0.48005090  -130.32977376     0.00011522    -0.01267722  0.11D-03  0.49D-03  2  2    27.99     9.70
   3      1.13736381    -0.48043256  -130.33015542    -0.00038166    -0.00300118  0.48D-04  0.56D-04  3  3    36.87     9.75
   4      1.14015517    -0.48043060  -130.33015345     0.00000196    -0.00096892  0.45D-05  0.10D-04  4  4    46.03     9.85
   5      1.14128742    -0.48045972  -130.33018257    -0.00002912    -0.00025116  0.11D-05  0.17D-05  5  5    55.02     9.85
   6      1.14164446    -0.48044813  -130.33017098     0.00001160    -0.00005045  0.12D-06  0.41D-06  6  6    63.98     9.85
   7      1.14172072    -0.48044775  -130.33017060     0.00000038     0.00000334  0.17D-07  0.93D-07  6  1    72.88     9.85
   8      1.14174606    -0.48044779  -130.33017064    -0.00000004    -0.00000307  0.35D-08  0.19D-07  6  2    81.74     9.86
   9      1.14175465    -0.48044723  -130.33017008     0.00000056    -0.00000018  0.22D-08  0.20D-08  6  3    90.67     9.86
  10      1.14175004    -0.48044797  -130.33017082    -0.00000074     0.00000158  0.35D-09  0.33D-09  6  5    99.43     9.86
  11      1.14175200    -0.48044795  -130.33017080     0.00000002    -0.00000036  0.10D-09  0.28D-10  6  4   108.36     9.86
  12      1.14175155    -0.48044802  -130.33017087    -0.00000007     0.00000005  0.18D-10  0.64D-11  6  6   117.25     9.86
  13      1.14175134    -0.48044802  -130.33017088    -0.00000000    -0.00000003  0.32D-11  0.94D-12  6  1   126.10     9.86
  14      1.14175107    -0.48044804  -130.33017089    -0.00000001     0.00000004  0.46D-12  0.17D-12  6  3   135.02     9.86
  15      1.14175099    -0.48044804  -130.33017089    -0.00000000     0.00000001  0.12D-12  0.23D-13  6  2   143.86     9.86
  16      1.14175098    -0.48044804  -130.33017089     0.00000000     0.00000000  0.33D-13  0.89D-14  6  4   152.97     9.87
  17      1.14175098    -0.48044804  -130.33017089    -0.00000000    -0.00000000  0.19D-14  0.11D-14  6  5   161.89     9.87
  18      1.14175098    -0.48044804  -130.33017089     0.00000000    -0.00000000  0.28D-15  0.30D-15  6  6   170.76     9.87
  19      1.14175099    -0.48044804  -130.33017089     0.00000000    -0.00000000  0.53D-16  0.42D-16  6  1   179.60     9.87
  20      1.14175099    -0.48044804  -130.33017089     0.00000000    -0.00000000  0.11D-16  0.62D-17  6  3   188.42     9.87
  21      1.14175099    -0.48044804  -130.33017089    -0.00000000     0.00000000  0.21D-17  0.11D-17  6  2   197.21     9.87
  22      1.14175099    -0.48044804  -130.33017089    -0.00000000     0.00000000  0.42D-18  0.18D-18  6  4   206.08     9.87
  23      1.14175099    -0.48044804  -130.33017089    -0.00000000     0.00000000  0.80D-19  0.42D-19  6  5   215.04     9.87
  24      1.14175099    -0.48044804  -130.33017089    -0.00000000     0.00000000  0.27D-19  0.16D-19  6  6   223.94     9.87
  25      1.14175099    -0.48044804  -130.33017089    -0.00000000     0.00000000  0.13D-19  0.79D-20  6  1   232.72     9.87

 Norm of t1 vector:      0.07630214      S-energy:    -0.00000000      T1 diagnostic:  0.01557511
                                                                       D1 diagnostic:  0.04220729

 Doubles amplitudes (print threshold =  0.500E-01):

         I         J         SYM. A    SYM. B    A         B      T(IJ, AB)

         6         6         2         2         1         1     -0.07919173
         6         6         2         2         1         2      0.05303054
         6         6         2         2         2         1      0.05303054


 Total CPU time for triples:     89.18 sec


 RESULTS
 =======

  Reference energy                   -129.849722850684
  CCSD singlet pair energy             -0.333271828028
  CCSD triplet pair energy             -0.147176210749
  CCSD correlation energy              -0.480448038780

  Triples (T) contribution             -0.022917514120
  Total correlation energy             -0.503365552899

  CCSD total energy                  -130.330170889464
  CCSD[T] energy                     -130.354167735548
  CCSD-T energy                      -130.352708865812
 !CCSD(T) total energy               -130.353088403584

 Timing summary (sec):

 STEP                 CPU(USER)    SYS     CPU(TOT)    WALL
 Transformation         10.44      1.49     11.93     12.56
 CCSD iterations       222.30     24.40    246.70    246.73
 Triples                89.18      1.51     90.69     90.71

 Program statistics:

 Available memory in ccsd:               994999756
 Min. memory needed in ccsd:               3348832
 Max. memory used in ccsd:                 4143652
 Max. memory used in cckext:               8340089 (25 integral passes)



 **********************************************************************************************************************************
 DATASETS  * FILE   NREC   LENGTH (MB)   RECORD NAMES
              1      20     6809.41       500      610      700      900      950      970     1000      129      960     1100   
                                          VAR    BASINP    GEOM    SYMINP    ZMAT    AOBASIS   BASIS     P2S    ABASIS      S 
                                         1400     1410     1200     1210     1080     1600     1650     1300     1700     1380   
                                           T        V       H0       H01     AOSYM     SMH    MOLCAS    ERIS     OPER     JKOP   

              2       4        4.02       700     1000      520     2100   
                                         GEOM     BASIS   MCVARS     RHF  

 PROGRAMS   *        TOTAL   CCSD(T)        HF       INT
 CPU TIMES  *       584.18    321.94     85.07    177.06
 REAL TIME  *      1135.09 SEC
 DISK USED  *        21.32 GB      
 **********************************************************************************************************************************

 CCSD(T)/aug-cc-pV5Z energy=   -130.353088403584

        CCSD(T)         HF-SCF  
   -130.35308840   -129.84972285
 **********************************************************************************************************************************
 Molpro calculation terminated
 Variable memory released
