
 Primary working directories    : /tmp/r2666/281861.maple
 Secondary working directories  : /tmp/r2666/281861.maple
 Wavefunction directory         : /ddn/home4/r2666/wfu/
 Main file repository           : /tmp/r2666/281861.maple/

 SHA1      : d5ffa45e93fdbca01ffc919aa182cfdae0147319
 NAME      : 2015.1.35
 ARCHNAME  : linux/x86_64
 FC        : /opt/intel/composer_xe_2015.1.133/bin/intel64/ifort
 BLASLIB   : -Wl,-_start-group /opt/intel/mkl/lib/intel64/libmkl_intel_ilp64.a /opt/intel/mkl/lib/intel64/libmkl_intel_thread.a /opt/intel/mkl/lib/intel64/libmkl_core.a -Wl,-_end-group
 id        : olemiss

 Nodes     nprocs
 cn046        1

 Using customized tuning parameters: mindgm=1; mindgv=20; mindgc=4; mindgr=1; noblas=0; minvec=7
 default implementation of scratch files=df  

 ***,hno CCSD(T)/TZ-F12 QFF
 memory, 995, m;
 gthresh,energy=1.d-12,zero=1.d-22,oneint=1.d-22,twoint=1.d-22;
 gthresh,optgrad=1.d-8,optstep=1.d-8;
 nocompress;
 geomtyp=xyz
 bohr
 geometry={
 3
         16        16
 H        0.0000000000        1.6581567403       -1.9290626522
 N        0.0000000000       -0.1496304913       -1.1483624433
 O        0.0000000000        0.0332415411        1.1268355045
 }
 
 basis=av5z
   {hf,maxit=500;accu,20;}
 {ccsd(t),nocheck,maxit=250;orbital,IGNORE_ERROR;}

 Variables initialized (889), CPU time= 0.01 sec
 Commands  initialized (702), CPU time= 0.01 sec, 572 directives.
 Default parameters read. Elapsed time= 0.07 sec

 Checking input...
 Passed
1


                                         ***  PROGRAM SYSTEM MOLPRO  ***
                                       Copyright, TTI GmbH Stuttgart, 2015
                                    Version 2015.1 linked Jul  9 2018 13:16:40


 **********************************************************************************************************************************
 LABEL *   hno CCSD(T)/TZ-F12 QFF                                                        
  64 bit serial version                                                                  DATE: 04-Mar-20          TIME: 13:19:58  
 **********************************************************************************************************************************

 SHA1:             d5ffa45e93fdbca01ffc919aa182cfdae0147319
 **********************************************************************************************************************************

 THRESHOLDS:

 ZERO    =  1.00D-22  ONEINT  =  1.00D-22  TWOINT  =  1.00D-22  PREFAC  =  1.00D-14  LOCALI  =  1.00D-09  EORDER  =  1.00D-04
 ENERGY  =  1.00D-12  ETEST   =  0.00D+00  EDENS   =  0.00D+00  THRDEDEF=  1.00D-06  GRADIENT=  1.00D-02  STEP    =  1.00D-03
 ORBITAL =  1.00D-05  CIVEC   =  1.00D-05  COEFF   =  1.00D-04  PRINTCI =  5.00D-02  PUNCHCI =  9.90D+01  OPTGRAD =  3.00D-04
 OPTENERG=  1.00D-06  OPTSTEP =  3.00D-04  THRGRAD =  1.00D-10  COMPRESS=  1.00D-11  VARMIN  =  1.00D-07  VARMAX  =  1.00D-03
 THRDOUB =  0.00D+00  THRDIV  =  1.00D-05  THRRED  =  1.00D-07  THRPSP  =  1.00D+00  THRDC   =  1.00D-10  THRCS   =  1.00D-10
 THRNRM  =  1.00D-08  THREQ   =  0.00D+00  THRDE   =  1.00D+00  THRREF  =  1.00D-05  SPARFAC =  1.00D+00  THRDLP  =  1.00D-07
 THRDIA  =  1.00D-10  THRDLS  =  1.00D-07  THRGPS  =  0.00D+00  THRKEX  =  0.00D+00  THRDIS  =  2.00D-01  THRVAR  =  1.00D-10
 THRLOC  =  1.00D-06  THRGAP  =  1.00D-06  THRLOCT = -1.00D+00  THRGAPT = -1.00D+00  THRORB  =  1.00D-06  THRMLTP =  0.00D+00
 THRCPQCI=  1.00D-10  KEXTA   =  0.00D+00  THRCOARS=  0.00D+00  SYMTOL  =  1.00D-06  GRADTOL =  1.00D-06  THROVL  =  1.00D-08
 THRORTH =  1.00D-08  GRID    =  1.00D-06  GRIDMAX =  1.00D-03  DTMAX   =  0.00D+00  THROCCDE=  1.00D-01  THROCCDE=  1.00D-01



 THRESHOLDS:

 ZERO    =  1.00D-22  ONEINT  =  1.00D-22  TWOINT  =  1.00D-22  PREFAC  =  1.00D-14  LOCALI  =  1.00D-09  EORDER  =  1.00D-04
 ENERGY  =  1.00D-12  ETEST   =  0.00D+00  EDENS   =  0.00D+00  THRDEDEF=  1.00D-06  GRADIENT=  1.00D-02  STEP    =  1.00D-03
 ORBITAL =  1.00D-05  CIVEC   =  1.00D-05  COEFF   =  1.00D-04  PRINTCI =  5.00D-02  PUNCHCI =  9.90D+01  OPTGRAD =  1.00D-08
 OPTENERG=  1.00D-06  OPTSTEP =  1.00D-08  THRGRAD =  1.00D-10  COMPRESS=  1.00D-11  VARMIN  =  1.00D-07  VARMAX  =  1.00D-03
 THRDOUB =  0.00D+00  THRDIV  =  1.00D-05  THRRED  =  1.00D-07  THRPSP  =  1.00D+00  THRDC   =  1.00D-10  THRCS   =  1.00D-10
 THRNRM  =  1.00D-08  THREQ   =  0.00D+00  THRDE   =  1.00D+00  THRREF  =  1.00D-05  SPARFAC =  1.00D+00  THRDLP  =  1.00D-07
 THRDIA  =  1.00D-10  THRDLS  =  1.00D-07  THRGPS  =  0.00D+00  THRKEX  =  0.00D+00  THRDIS  =  2.00D-01  THRVAR  =  1.00D-10
 THRLOC  =  1.00D-06  THRGAP  =  1.00D-06  THRLOCT = -1.00D+00  THRGAPT = -1.00D+00  THRORB  =  1.00D-06  THRMLTP =  0.00D+00
 THRCPQCI=  1.00D-10  KEXTA   =  0.00D+00  THRCOARS=  0.00D+00  SYMTOL  =  1.00D-06  GRADTOL =  1.00D-06  THROVL  =  1.00D-08
 THRORTH =  1.00D-08  GRID    =  1.00D-06  GRIDMAX =  1.00D-03  DTMAX   =  0.00D+00  THROCCDE=  1.00D-01  THROCCDE=  1.00D-01



 Input parameters for SORTINT:

 COMPRESS =    0.000000
 C_FINAL  =    1.000000
 DEBUG    =   -1.000000
 C_SORT1  =    0.000000
 C_SEWARD =    0.000000
 THRESH   =    0.000000
 IO       =  molpro                                                          
 SPRI     =    0.000000
 SETTING GEOMTYP        =    XYZ
 ZUNIT=BOHR
 

 Variable memory set to  995000000 words,  buffer space   230000 words

 SETTING BASIS          =    AV5Z


 Recomputing integrals since basis changed


 Using spherical harmonics

 Library entry H      S aug-cc-pV5Z          selected for orbital group  1
 Library entry H      P aug-cc-pV5Z          selected for orbital group  1
 Library entry H      D aug-cc-pV5Z          selected for orbital group  1
 Library entry H      F aug-cc-pV5Z          selected for orbital group  1
 Library entry H      G aug-cc-pV5Z          selected for orbital group  1
 Library entry N      S aug-cc-pV5Z          selected for orbital group  2
 Library entry N      P aug-cc-pV5Z          selected for orbital group  2
 Library entry N      D aug-cc-pV5Z          selected for orbital group  2
 Library entry N      F aug-cc-pV5Z          selected for orbital group  2
 Library entry N      G aug-cc-pV5Z          selected for orbital group  2
 Library entry N      H aug-cc-pV5Z          selected for orbital group  2
 Library entry O      S aug-cc-pV5Z          selected for orbital group  3
 Library entry O      P aug-cc-pV5Z          selected for orbital group  3
 Library entry O      D aug-cc-pV5Z          selected for orbital group  3
 Library entry O      F aug-cc-pV5Z          selected for orbital group  3
 Library entry O      G aug-cc-pV5Z          selected for orbital group  3
 Library entry O      H aug-cc-pV5Z          selected for orbital group  3


 PROGRAM * SEWARD (Integral evaluation for generally contracted gaussian basis sets)     Author: Roland Lindh, 1990

 Geometry written to block  1 of record 700


 Point group  Cs  



 ATOMIC COORDINATES

 NR  ATOM    CHARGE       X              Y              Z

   1  H       1.00    0.000000000    1.658156740   -1.929062652
   2  N       7.00    0.000000000   -0.149630491   -1.148362443
   3  O       8.00    0.000000000    0.033241541    1.126835505

 Bond lengths in Bohr (Angstrom)

 1-2  1.969159082  2-3  2.282535406
     ( 1.042034111)     ( 1.207865720)

 Bond angles

  1-2-3  108.76195128

 NUCLEAR CHARGE:                   16
 NUMBER OF PRIMITIVE AOS:         506
 NUMBER OF SYMMETRY AOS:          371
 NUMBER OF CONTRACTIONS:          334   ( 204A'  + 130A"  )
 NUMBER OF CORE ORBITALS:           2   (   2A'  +   0A"  )
 NUMBER OF VALENCE ORBITALS:        9   (   7A'  +   2A"  )


 NUCLEAR REPULSION ENERGY   30.40037566


 Eigenvalues of metric

         1 0.110E-04 0.169E-04 0.621E-04 0.990E-04 0.105E-03 0.134E-03 0.196E-03 0.223E-03
         2 0.127E-03 0.350E-03 0.111E-02 0.157E-02 0.185E-02 0.250E-02 0.316E-02 0.381E-02


 Contracted 2-electron integrals neglected if value below      1.0D-22

      756977199. INTEGRALS WRITTEN OUT IN  184855 BLOCKS ON RECORD 1290 OF FILE 1


 NUMBER OF SORTED TWO-ELECTRON INTEGRALS:  789027325.     BUFFER LENGTH:  32768
 NUMBER OF SEGMENTS:  25  SEGMENT LENGTH:   31997130      RECORD LENGTH: 524288

 Memory used in sort:      32.55 MW

 SORT1 READ   756977199. AND WROTE   760993083. INTEGRALS IN   2189 RECORDS. CPU TIME:    25.42 SEC, REAL TIME:    31.68 SEC
 SORT2 READ   760993083. AND WROTE   789027325. INTEGRALS IN     25 RECORDS. CPU TIME:    10.11 SEC, REAL TIME:    14.34 SEC

 FILE SIZES:   FILE 1: 12137.5 MBYTE,  FILE 4:  9181.4 MBYTE,   TOTAL:  21318.9 MBYTE

 OPERATOR DM      FOR CENTER  0  COORDINATES:    0.000000    0.000000    0.000000


 **********************************************************************************************************************************
 DATASETS  * FILE   NREC   LENGTH (MB)   RECORD NAMES
              1      19     6374.22       500      610      700      900      950      970     1000      129      960     1100   
                                          VAR    BASINP    GEOM    SYMINP    ZMAT    AOBASIS   BASIS     P2S    ABASIS      S 
                                         1400     1410     1200     1210     1080     1600     1650     1300     1700   
                                           T        V       H0       H01     AOSYM     SMH    MOLCAS    ERIS     OPER   

 PROGRAMS   *        TOTAL       INT
 CPU TIMES  *       153.23    153.12
 REAL TIME  *       172.25 SEC
 DISK USED  *        21.32 GB      
 **********************************************************************************************************************************


 PROGRAM * RHF-SCF (CLOSED SHELL)       Authors: W. Meyer, H.-J. Werner


 NUMBER OF ELECTRONS:       8+    8-
 CONVERGENCE THRESHOLDS:    1.00E-10 (Density)    1.00E-13 (Energy)
 MAX. NUMBER OF ITERATIONS:      500
 INTERPOLATION TYPE:            DIIS
 INTERPOLATION STEPS:              2 (START)      1 (STEP)
 LEVEL SHIFTS:                  0.00 (CLOSED)  0.00 (OPEN) 



 Orbital guess generated from atomic densities. Full valence occupancy:    9   2

 Molecular orbital dump at record        2100.2

 Initial occupancy:   7   1

 ITERATION    DDIFF          GRAD             ENERGY        2-EL.EN.            DIPOLE MOMENTS         DIIS   ORB.
    1      0.000D+00      0.000D+00      -129.79935605    154.039482    0.00000    0.60645   -1.02856    0    start
    2      0.000D+00      0.638D-02      -129.82658500    155.251580    0.00000    0.61085   -0.21414    1    diag
    3      0.398D-02      0.484D-02      -129.84906649    155.380748    0.00000    0.56210   -0.59760    2    diag
    4      0.205D-02      0.771D-03      -129.84987259    155.097113    0.00000    0.56925   -0.53577    3    diag
    5      0.379D-03      0.248D-03      -129.84999670    155.190223    0.00000    0.57441   -0.53826    4    diag
    6      0.155D-03      0.714D-04      -129.85001641    155.174050    0.00000    0.57470   -0.53407    5    diag
    7      0.593D-04      0.356D-04      -129.85002216    155.176786    0.00000    0.57590   -0.53145    6    diag
    8      0.407D-04      0.125D-04      -129.85002282    155.176090    0.00000    0.57594   -0.53042    7    diag
    9      0.157D-04      0.242D-05      -129.85002285    155.175981    0.00000    0.57590   -0.53020    8    diag
   10      0.317D-05      0.547D-06      -129.85002285    155.175964    0.00000    0.57587   -0.53017    9    orth
   11      0.621D-06      0.109D-06      -129.85002285    155.175960    0.00000    0.57587   -0.53017    9    diag
   12      0.115D-06      0.221D-07      -129.85002285    155.175960    0.00000    0.57586   -0.53017    9    diag
   13      0.245D-07      0.578D-08      -129.85002285    155.175960    0.00000    0.57586   -0.53017    9    diag
   14      0.660D-08      0.112D-08      -129.85002285    155.175960    0.00000    0.57586   -0.53017    9    diag
   15      0.121D-08      0.318D-09      -129.85002285    155.175960    0.00000    0.57586   -0.53017    9    diag
   16      0.362D-09      0.953D-10      -129.85002285    155.175960    0.00000    0.57586   -0.53017    9    diag
   17      0.699D-10      0.242D-10      -129.85002285    155.175960    0.00000    0.57586   -0.53017    9    diag
   18      0.210D-10      0.810D-11      -129.85002285    155.175960    0.00000    0.57586   -0.53017    9    diag
   19      0.168D-10      0.196D-11      -129.85002285    155.175960    0.00000    0.57586   -0.53017    9    fixocc
   20      0.121D-10      0.502D-12      -129.85002285    155.175960    0.00000    0.57586   -0.53017    9    orth
   21      0.557D-11      0.365D-12      -129.85002285    155.175960    0.00000    0.57586   -0.53017    9    diag
   22      0.687D-11      0.314D-12      -129.85002285    155.175960    0.00000    0.57586   -0.53017    9    diag
   23      0.470D-11      0.373D-12      -129.85002285    155.175960    0.00000    0.57586   -0.53017    9    diag
   24      0.191D-11      0.296D-12      -129.85002285    155.175960    0.00000    0.57586   -0.53017    9    diag
   25      0.247D-11      0.425D-12      -129.85002285    155.175960    0.00000    0.57586   -0.53017    9    diag
   26      0.142D-11      0.253D-12      -129.85002285    155.175960    0.00000    0.57586   -0.53017    9    diag
   27      0.119D-11      0.216D-12      -129.85002285    155.175960    0.00000    0.57586   -0.53017    0    orth

 Final occupancy:   7   1

 !RHF STATE 1.1 Energy               -129.850022853539
 Nuclear energy                        30.40037566
 One-electron energy                 -237.83837864
 Two-electron energy                   77.58798013
 Virial quotient                       -1.00159411
 !RHF STATE 1.1 Dipole moment           0.00000000     0.57586289    -0.53016902
 Dipole moment /Debye                   0.00000000     1.46360161    -1.34746699

 Orbital energies:

         1.1          2.1          3.1          4.1          5.1          6.1          7.1          8.1          9.1
    -20.652884   -15.710695    -1.529211    -0.997281    -0.748283    -0.666250    -0.430730     0.022818     0.065533

         1.2          2.2          3.2
     -0.595874     0.060104     0.091476

 HOMO      7.1    -0.430730 =     -11.7208eV
 LUMO      8.1     0.022818 =       0.6209eV
 LUMO-HOMO         0.453548 =      12.3417eV


 **********************************************************************************************************************************
 DATASETS  * FILE   NREC   LENGTH (MB)   RECORD NAMES
              1      19     6374.22       500      610      700      900      950      970     1000      129      960     1100   
                                          VAR    BASINP    GEOM    SYMINP    ZMAT    AOBASIS   BASIS     P2S    ABASIS      S 
                                         1400     1410     1200     1210     1080     1600     1650     1300     1700   
                                           T        V       H0       H01     AOSYM     SMH    MOLCAS    ERIS     OPER   

              2       4        4.02       700     1000      520     2100   
                                         GEOM     BASIS   MCVARS     RHF  

 PROGRAMS   *        TOTAL        HF       INT
 CPU TIMES  *       273.54    120.32    153.12
 REAL TIME  *       321.81 SEC
 DISK USED  *        21.32 GB      
 **********************************************************************************************************************************


 PROGRAM * CCSD (Closed-shell coupled cluster)     Authors: C. Hampel, H.-J. Werner, 1991, M. Deegan, P.J. Knowles, 1992


 Convergence thresholds:  THRVAR = 1.00D-08  THRDEN = 1.00D-12

 CCSD(T)     terms to be evaluated (factor= 1.000)


 Number of core orbitals:           2 (   2   0 )
 Number of closed-shell orbitals:   6 (   5   1 )
 Number of external orbitals:     326 ( 197 129 )

 Molecular orbitals read from record     2100.2  Type=RHF/CANONICAL (state 1.1)

 Number of N-1 electron functions:               6
 Number of N-2 electron functions:              21
 Number of singly external CSFs:              1114
 Number of doubly external CSFs:            975958
 Total number of CSFs:                      977073

 Length of J-op  integral file:               0.00 MB
 Length of K-op  integral file:               4.07 MB
 Length of 3-ext integral record:             0.00 MB

 Memory could be reduced to 151.33 Mwords without degradation in triples

 Integral transformation finished. Total CPU:  14.88 sec, npass=  1  Memory used:  41.21 MW

 Reference energy:                   -129.85002285

 MP2 singlet pair energy:              -0.31094158
 MP2 triplet pair energy:              -0.17187019
 MP2 correlation energy:               -0.48281177
 MP2 total energy:                   -130.33283462

 SCS-MP2 correlation energy:           -0.48007134   (PS=  1.200000  PT=  0.333333)
 SCS-MP2 total energy:               -130.33009420

 ITER.      SQ.NORM     CORR.ENERGY   TOTAL ENERGY   ENERGY CHANGE        DEN1      VAR(S)    VAR(P)  DIIS     TIME  TIME/IT
   1      1.12025798    -0.47983941  -130.32986227     0.00297235     0.01955503  0.31D-02  0.32D-02  1  1    26.77    12.93
   2      1.13083119    -0.47973066  -130.32975351     0.00010876    -0.01262497  0.10D-03  0.48D-03  2  2    38.96    13.18
   3      1.13693643    -0.48010692  -130.33012977    -0.00037626    -0.00298210  0.47D-04  0.56D-04  3  3    51.17    13.25
   4      1.13971353    -0.48010615  -130.33012900     0.00000077    -0.00096258  0.44D-05  0.10D-04  4  4    63.26    13.28
   5      1.14083481    -0.48013479  -130.33015765    -0.00002864    -0.00024849  0.11D-05  0.17D-05  5  5    75.49    13.30
   6      1.14118952    -0.48012326  -130.33014611     0.00001153    -0.00005012  0.11D-06  0.42D-06  6  6    87.59    13.31
   7      1.14126477    -0.48012305  -130.33014591     0.00000020     0.00000349  0.15D-07  0.95D-07  6  1    99.70    13.33
   8      1.14128974    -0.48012313  -130.33014598    -0.00000008    -0.00000301  0.36D-08  0.19D-07  6  2   111.88    13.33
   9      1.14129806    -0.48012260  -130.33014545     0.00000054    -0.00000019  0.23D-08  0.20D-08  6  3   124.02    13.34
  10      1.14129338    -0.48012334  -130.33014619    -0.00000074     0.00000160  0.36D-09  0.33D-09  6  5   136.17    13.34
  11      1.14129534    -0.48012332  -130.33014618     0.00000002    -0.00000037  0.10D-09  0.28D-10  6  4   148.22    13.35
  12      1.14129490    -0.48012339  -130.33014624    -0.00000007     0.00000005  0.18D-10  0.64D-11  6  6   160.33    13.35
  13      1.14129469    -0.48012339  -130.33014625    -0.00000000    -0.00000003  0.30D-11  0.92D-12  6  1   172.50    13.35
  14      1.14129443    -0.48012340  -130.33014626    -0.00000001     0.00000004  0.44D-12  0.17D-12  6  3   184.57    13.36
  15      1.14129436    -0.48012341  -130.33014626    -0.00000000     0.00000001  0.12D-12  0.22D-13  6  2   196.71    13.36
  16      1.14129434    -0.48012341  -130.33014626     0.00000000     0.00000000  0.32D-13  0.82D-14  6  4   209.00    13.36
  17      1.14129434    -0.48012341  -130.33014626    -0.00000000    -0.00000000  0.18D-14  0.11D-14  6  5   221.25    13.36
  18      1.14129435    -0.48012341  -130.33014626     0.00000000    -0.00000000  0.28D-15  0.28D-15  6  6   233.38    13.36
  19      1.14129435    -0.48012341  -130.33014626     0.00000000    -0.00000000  0.51D-16  0.41D-16  6  1   245.51    13.36
  20      1.14129436    -0.48012341  -130.33014626     0.00000000    -0.00000000  0.11D-16  0.60D-17  6  3   257.79    13.37
  21      1.14129436    -0.48012341  -130.33014626    -0.00000000     0.00000000  0.20D-17  0.10D-17  6  2   269.98    13.37
  22      1.14129436    -0.48012341  -130.33014626    -0.00000000     0.00000000  0.35D-18  0.16D-18  6  4   282.29    13.37
  23      1.14129436    -0.48012341  -130.33014626    -0.00000000     0.00000000  0.79D-19  0.41D-19  6  5   294.44    13.37
  24      1.14129436    -0.48012341  -130.33014626    -0.00000000     0.00000000  0.26D-19  0.15D-19  6  6   306.57    13.37
  25      1.14129436    -0.48012341  -130.33014626     0.00000000    -0.00000000  0.13D-19  0.69D-20  6  1   318.70    13.37

 Norm of t1 vector:      0.07597690      S-energy:    -0.00000000      T1 diagnostic:  0.01550872
                                                                       D1 diagnostic:  0.04221454

 Doubles amplitudes (print threshold =  0.500E-01):

         I         J         SYM. A    SYM. B    A         B      T(IJ, AB)

         6         6         2         2         1         1     -0.07918687
         6         6         2         2         1         2      0.05311091
         6         6         2         2         2         1      0.05311091


 Total CPU time for triples:    121.63 sec


 RESULTS
 =======

  Reference energy                   -129.850022853539
  CCSD singlet pair energy             -0.332997601167
  CCSD triplet pair energy             -0.147125806669
  CCSD correlation energy              -0.480123407838

  Triples (T) contribution             -0.022853149532
  Total correlation energy             -0.502976557370

  CCSD total energy                  -130.330146261378
  CCSD[T] energy                     -130.354070135428
  CCSD-T energy                      -130.352623173101
 !CCSD(T) total energy               -130.352999410909

 Timing summary (sec):

 STEP                 CPU(USER)    SYS     CPU(TOT)    WALL
 Transformation         14.95      1.82     16.77     16.77
 CCSD iterations       303.76     30.46    334.22    334.27
 Triples               121.63      2.19    123.82    123.82

 Program statistics:

 Available memory in ccsd:               994999756
 Min. memory needed in ccsd:               3348832
 Max. memory used in ccsd:                 4143652
 Max. memory used in cckext:               8340089 (25 integral passes)



 **********************************************************************************************************************************
 DATASETS  * FILE   NREC   LENGTH (MB)   RECORD NAMES
              1      20     6809.41       500      610      700      900      950      970     1000      129      960     1100   
                                          VAR    BASINP    GEOM    SYMINP    ZMAT    AOBASIS   BASIS     P2S    ABASIS      S 
                                         1400     1410     1200     1210     1080     1600     1650     1300     1700     1380   
                                           T        V       H0       H01     AOSYM     SMH    MOLCAS    ERIS     OPER     JKOP   

              2       4        4.02       700     1000      520     2100   
                                         GEOM     BASIS   MCVARS     RHF  

 PROGRAMS   *        TOTAL   CCSD(T)        HF       INT
 CPU TIMES  *       713.91    440.36    120.32    153.12
 REAL TIME  *       796.73 SEC
 DISK USED  *        21.32 GB      
 **********************************************************************************************************************************

 CCSD(T)/aug-cc-pV5Z energy=   -130.352999410909

        CCSD(T)         HF-SCF  
   -130.35299941   -129.85002285
 **********************************************************************************************************************************
 Molpro calculation terminated
 Variable memory released
