
 Primary working directories    : /tmp/r2666/281928.maple
 Secondary working directories  : /tmp/r2666/281928.maple
 Wavefunction directory         : /ddn/home4/r2666/wfu/
 Main file repository           : /tmp/r2666/281928.maple/

 SHA1      : d5ffa45e93fdbca01ffc919aa182cfdae0147319
 NAME      : 2015.1.35
 ARCHNAME  : linux/x86_64
 FC        : /opt/intel/composer_xe_2015.1.133/bin/intel64/ifort
 BLASLIB   : -Wl,-_start-group /opt/intel/mkl/lib/intel64/libmkl_intel_ilp64.a /opt/intel/mkl/lib/intel64/libmkl_intel_thread.a /opt/intel/mkl/lib/intel64/libmkl_core.a -Wl,-_end-group
 id        : olemiss

 Nodes     nprocs
 cn079        1

 Using customized tuning parameters: mindgm=1; mindgv=20; mindgc=4; mindgr=1; noblas=0; minvec=7
 default implementation of scratch files=df  

 ***,hno CCSD(T)/TZ-F12 QFF
 memory, 995, m;
 gthresh,energy=1.d-12,zero=1.d-22,oneint=1.d-22,twoint=1.d-22;
 gthresh,optgrad=1.d-8,optstep=1.d-8;
 nocompress;
 geomtyp=xyz
 bohr
 geometry={
 3
         83        83
 H        0.0000000000        1.6692679447       -1.9356948799
 N        0.0000000000       -0.1607106920       -1.1588125151
 O        0.0000000000        0.0332105373        1.1439178040
 }
 
 basis=av5z
   {hf,maxit=500;accu,20;}
 {ccsd(t),nocheck,maxit=250;orbital,IGNORE_ERROR;}

 Variables initialized (889), CPU time= 0.01 sec
 Commands  initialized (702), CPU time= 0.01 sec, 572 directives.
 Default parameters read. Elapsed time= 0.04 sec

 Checking input...
 Passed
1


                                         ***  PROGRAM SYSTEM MOLPRO  ***
                                       Copyright, TTI GmbH Stuttgart, 2015
                                    Version 2015.1 linked Jul  9 2018 13:16:40


 **********************************************************************************************************************************
 LABEL *   hno CCSD(T)/TZ-F12 QFF                                                        
  64 bit serial version                                                                  DATE: 04-Mar-20          TIME: 13:30:49  
 **********************************************************************************************************************************

 SHA1:             d5ffa45e93fdbca01ffc919aa182cfdae0147319
 **********************************************************************************************************************************

 THRESHOLDS:

 ZERO    =  1.00D-22  ONEINT  =  1.00D-22  TWOINT  =  1.00D-22  PREFAC  =  1.00D-14  LOCALI  =  1.00D-09  EORDER  =  1.00D-04
 ENERGY  =  1.00D-12  ETEST   =  0.00D+00  EDENS   =  0.00D+00  THRDEDEF=  1.00D-06  GRADIENT=  1.00D-02  STEP    =  1.00D-03
 ORBITAL =  1.00D-05  CIVEC   =  1.00D-05  COEFF   =  1.00D-04  PRINTCI =  5.00D-02  PUNCHCI =  9.90D+01  OPTGRAD =  3.00D-04
 OPTENERG=  1.00D-06  OPTSTEP =  3.00D-04  THRGRAD =  1.00D-10  COMPRESS=  1.00D-11  VARMIN  =  1.00D-07  VARMAX  =  1.00D-03
 THRDOUB =  0.00D+00  THRDIV  =  1.00D-05  THRRED  =  1.00D-07  THRPSP  =  1.00D+00  THRDC   =  1.00D-10  THRCS   =  1.00D-10
 THRNRM  =  1.00D-08  THREQ   =  0.00D+00  THRDE   =  1.00D+00  THRREF  =  1.00D-05  SPARFAC =  1.00D+00  THRDLP  =  1.00D-07
 THRDIA  =  1.00D-10  THRDLS  =  1.00D-07  THRGPS  =  0.00D+00  THRKEX  =  0.00D+00  THRDIS  =  2.00D-01  THRVAR  =  1.00D-10
 THRLOC  =  1.00D-06  THRGAP  =  1.00D-06  THRLOCT = -1.00D+00  THRGAPT = -1.00D+00  THRORB  =  1.00D-06  THRMLTP =  0.00D+00
 THRCPQCI=  1.00D-10  KEXTA   =  0.00D+00  THRCOARS=  0.00D+00  SYMTOL  =  1.00D-06  GRADTOL =  1.00D-06  THROVL  =  1.00D-08
 THRORTH =  1.00D-08  GRID    =  1.00D-06  GRIDMAX =  1.00D-03  DTMAX   =  0.00D+00  THROCCDE=  1.00D-01  THROCCDE=  1.00D-01



 THRESHOLDS:

 ZERO    =  1.00D-22  ONEINT  =  1.00D-22  TWOINT  =  1.00D-22  PREFAC  =  1.00D-14  LOCALI  =  1.00D-09  EORDER  =  1.00D-04
 ENERGY  =  1.00D-12  ETEST   =  0.00D+00  EDENS   =  0.00D+00  THRDEDEF=  1.00D-06  GRADIENT=  1.00D-02  STEP    =  1.00D-03
 ORBITAL =  1.00D-05  CIVEC   =  1.00D-05  COEFF   =  1.00D-04  PRINTCI =  5.00D-02  PUNCHCI =  9.90D+01  OPTGRAD =  1.00D-08
 OPTENERG=  1.00D-06  OPTSTEP =  1.00D-08  THRGRAD =  1.00D-10  COMPRESS=  1.00D-11  VARMIN  =  1.00D-07  VARMAX  =  1.00D-03
 THRDOUB =  0.00D+00  THRDIV  =  1.00D-05  THRRED  =  1.00D-07  THRPSP  =  1.00D+00  THRDC   =  1.00D-10  THRCS   =  1.00D-10
 THRNRM  =  1.00D-08  THREQ   =  0.00D+00  THRDE   =  1.00D+00  THRREF  =  1.00D-05  SPARFAC =  1.00D+00  THRDLP  =  1.00D-07
 THRDIA  =  1.00D-10  THRDLS  =  1.00D-07  THRGPS  =  0.00D+00  THRKEX  =  0.00D+00  THRDIS  =  2.00D-01  THRVAR  =  1.00D-10
 THRLOC  =  1.00D-06  THRGAP  =  1.00D-06  THRLOCT = -1.00D+00  THRGAPT = -1.00D+00  THRORB  =  1.00D-06  THRMLTP =  0.00D+00
 THRCPQCI=  1.00D-10  KEXTA   =  0.00D+00  THRCOARS=  0.00D+00  SYMTOL  =  1.00D-06  GRADTOL =  1.00D-06  THROVL  =  1.00D-08
 THRORTH =  1.00D-08  GRID    =  1.00D-06  GRIDMAX =  1.00D-03  DTMAX   =  0.00D+00  THROCCDE=  1.00D-01  THROCCDE=  1.00D-01



 Input parameters for SORTINT:

 COMPRESS =    0.000000
 C_FINAL  =    1.000000
 DEBUG    =   -1.000000
 C_SORT1  =    0.000000
 C_SEWARD =    0.000000
 THRESH   =    0.000000
 IO       =  molpro                                                          
 SPRI     =    0.000000
 SETTING GEOMTYP        =    XYZ
 ZUNIT=BOHR
 

 Variable memory set to  995000000 words,  buffer space   230000 words

 SETTING BASIS          =    AV5Z


 Recomputing integrals since basis changed


 Using spherical harmonics

 Library entry H      S aug-cc-pV5Z          selected for orbital group  1
 Library entry H      P aug-cc-pV5Z          selected for orbital group  1
 Library entry H      D aug-cc-pV5Z          selected for orbital group  1
 Library entry H      F aug-cc-pV5Z          selected for orbital group  1
 Library entry H      G aug-cc-pV5Z          selected for orbital group  1
 Library entry N      S aug-cc-pV5Z          selected for orbital group  2
 Library entry N      P aug-cc-pV5Z          selected for orbital group  2
 Library entry N      D aug-cc-pV5Z          selected for orbital group  2
 Library entry N      F aug-cc-pV5Z          selected for orbital group  2
 Library entry N      G aug-cc-pV5Z          selected for orbital group  2
 Library entry N      H aug-cc-pV5Z          selected for orbital group  2
 Library entry O      S aug-cc-pV5Z          selected for orbital group  3
 Library entry O      P aug-cc-pV5Z          selected for orbital group  3
 Library entry O      D aug-cc-pV5Z          selected for orbital group  3
 Library entry O      F aug-cc-pV5Z          selected for orbital group  3
 Library entry O      G aug-cc-pV5Z          selected for orbital group  3
 Library entry O      H aug-cc-pV5Z          selected for orbital group  3


 PROGRAM * SEWARD (Integral evaluation for generally contracted gaussian basis sets)     Author: Roland Lindh, 1990

 Geometry written to block  1 of record 700


 Point group  Cs  



 ATOMIC COORDINATES

 NR  ATOM    CHARGE       X              Y              Z

   1  H       1.00    0.000000000    1.669267945   -1.935694880
   2  N       7.00    0.000000000   -0.160710692   -1.158812515
   3  O       8.00    0.000000000    0.033210537    1.143917804

 Bond lengths in Bohr (Angstrom)

 1-2  1.988056342  2-3  2.310881296
     ( 1.052034110)     ( 1.222865719)

 Bond angles

  1-2-3  108.18899349

 NUCLEAR CHARGE:                   16
 NUMBER OF PRIMITIVE AOS:         506
 NUMBER OF SYMMETRY AOS:          371
 NUMBER OF CONTRACTIONS:          334   ( 204A'  + 130A"  )
 NUMBER OF CORE ORBITALS:           2   (   2A'  +   0A"  )
 NUMBER OF VALENCE ORBITALS:        9   (   7A'  +   2A"  )


 NUCLEAR REPULSION ENERGY   30.04829741


 Eigenvalues of metric

         1 0.115E-04 0.179E-04 0.643E-04 0.104E-03 0.110E-03 0.141E-03 0.203E-03 0.225E-03
         2 0.133E-03 0.365E-03 0.118E-02 0.169E-02 0.196E-02 0.265E-02 0.330E-02 0.396E-02


 Contracted 2-electron integrals neglected if value below      1.0D-22

      756977339. INTEGRALS WRITTEN OUT IN  184855 BLOCKS ON RECORD 1290 OF FILE 1


 NUMBER OF SORTED TWO-ELECTRON INTEGRALS:  789027325.     BUFFER LENGTH:  32768
 NUMBER OF SEGMENTS:  25  SEGMENT LENGTH:   31997130      RECORD LENGTH: 524288

 Memory used in sort:      32.55 MW

 SORT1 READ   756977339. AND WROTE   760993215. INTEGRALS IN   2189 RECORDS. CPU TIME:    15.72 SEC, REAL TIME:    29.41 SEC
 SORT2 READ   760993215. AND WROTE   789027325. INTEGRALS IN     25 RECORDS. CPU TIME:    14.53 SEC, REAL TIME:    84.35 SEC

 FILE SIZES:   FILE 1: 12137.5 MBYTE,  FILE 4:  9181.4 MBYTE,   TOTAL:  21318.9 MBYTE

 OPERATOR DM      FOR CENTER  0  COORDINATES:    0.000000    0.000000    0.000000


 **********************************************************************************************************************************
 DATASETS  * FILE   NREC   LENGTH (MB)   RECORD NAMES
              1      19     6374.22       500      610      700      900      950      970     1000      129      960     1100   
                                          VAR    BASINP    GEOM    SYMINP    ZMAT    AOBASIS   BASIS     P2S    ABASIS      S 
                                         1400     1410     1200     1210     1080     1600     1650     1300     1700   
                                           T        V       H0       H01     AOSYM     SMH    MOLCAS    ERIS     OPER   

 PROGRAMS   *        TOTAL       INT
 CPU TIMES  *       118.25    118.16
 REAL TIME  *       208.42 SEC
 DISK USED  *        21.32 GB      
 **********************************************************************************************************************************


 PROGRAM * RHF-SCF (CLOSED SHELL)       Authors: W. Meyer, H.-J. Werner


 NUMBER OF ELECTRONS:       8+    8-
 CONVERGENCE THRESHOLDS:    1.00E-10 (Density)    1.00E-13 (Energy)
 MAX. NUMBER OF ITERATIONS:      500
 INTERPOLATION TYPE:            DIIS
 INTERPOLATION STEPS:              2 (START)      1 (STEP)
 LEVEL SHIFTS:                  0.00 (CLOSED)  0.00 (OPEN) 



 Orbital guess generated from atomic densities. Full valence occupancy:    9   2

 Molecular orbital dump at record        2100.2

 Initial occupancy:   7   1

 ITERATION    DDIFF          GRAD             ENERGY        2-EL.EN.            DIPOLE MOMENTS         DIIS   ORB.
    1      0.000D+00      0.000D+00      -129.79388109    153.404186    0.00000    0.60170   -1.07767    0    start
    2      0.000D+00      0.652D-02      -129.82052878    154.592990    0.00000    0.61962   -0.19900    1    diag
    3      0.414D-02      0.515D-02      -129.84618719    154.755046    0.00000    0.56328   -0.61656    2    diag
    4      0.216D-02      0.783D-03      -129.84702710    154.458636    0.00000    0.57028   -0.55236    3    diag
    5      0.385D-03      0.255D-03      -129.84715938    154.553848    0.00000    0.57554   -0.55459    4    diag
    6      0.160D-03      0.738D-04      -129.84718063    154.537308    0.00000    0.57573   -0.55009    5    diag
    7      0.618D-04      0.372D-04      -129.84718705    154.539959    0.00000    0.57693   -0.54725    6    diag
    8      0.428D-04      0.137D-04      -129.84718788    154.539191    0.00000    0.57696   -0.54610    7    diag
    9      0.178D-04      0.271D-05      -129.84718792    154.539066    0.00000    0.57692   -0.54584    8    diag
   10      0.373D-05      0.593D-06      -129.84718792    154.539047    0.00000    0.57689   -0.54581    9    orth
   11      0.676D-06      0.117D-06      -129.84718792    154.539043    0.00000    0.57688   -0.54581    9    diag
   12      0.121D-06      0.246D-07      -129.84718792    154.539043    0.00000    0.57688   -0.54581    9    diag
   13      0.261D-07      0.671D-08      -129.84718792    154.539043    0.00000    0.57688   -0.54581    9    diag
   14      0.744D-08      0.130D-08      -129.84718792    154.539043    0.00000    0.57688   -0.54581    9    diag
   15      0.135D-08      0.368D-09      -129.84718792    154.539043    0.00000    0.57688   -0.54581    9    diag
   16      0.411D-09      0.108D-09      -129.84718792    154.539043    0.00000    0.57688   -0.54581    9    diag
   17      0.764D-10      0.272D-10      -129.84718792    154.539043    0.00000    0.57688   -0.54581    9    diag
   18      0.260D-10      0.911D-11      -129.84718792    154.539043    0.00000    0.57688   -0.54581    9    diag
   19      0.157D-10      0.222D-11      -129.84718792    154.539043    0.00000    0.57688   -0.54581    9    fixocc
   20      0.140D-10      0.512D-12      -129.84718792    154.539043    0.00000    0.57688   -0.54581    9    orth
   21      0.110D-10      0.360D-12      -129.84718792    154.539043    0.00000    0.57688   -0.54581    9    diag
   22      0.504D-11      0.356D-12      -129.84718792    154.539043    0.00000    0.57688   -0.54581    9    diag
   23      0.358D-11      0.239D-12      -129.84718792    154.539043    0.00000    0.57688   -0.54581    9    diag
   24      0.265D-11      0.228D-12      -129.84718792    154.539043    0.00000    0.57688   -0.54581    9    diag
   25      0.167D-11      0.275D-12      -129.84718792    154.539043    0.00000    0.57688   -0.54581    9    diag
   26      0.898D-12      0.203D-12      -129.84718792    154.539043    0.00000    0.57688   -0.54581    9    diag
   27      0.129D-11      0.307D-12      -129.84718792    154.539043    0.00000    0.57688   -0.54581    0    orth

 Final occupancy:   7   1

 !RHF STATE 1.1 Energy               -129.847187924528
 Nuclear energy                        30.04829741
 One-electron energy                 -237.16500684
 Two-electron energy                   77.26952150
 Virial quotient                       -1.00213173
 !RHF STATE 1.1 Dipole moment           0.00000000     0.57687950    -0.54581099
 Dipole moment /Debye                   0.00000000     1.46618539    -1.38722231

 Orbital energies:

         1.1          2.1          3.1          4.1          5.1          6.1          7.1          8.1          9.1
    -20.654357   -15.714739    -1.517294    -0.997860    -0.742701    -0.661869    -0.435076     0.022685     0.065523

         1.2          2.2          3.2
     -0.589085     0.057030     0.090406

 HOMO      7.1    -0.435076 =     -11.8390eV
 LUMO      8.1     0.022685 =       0.6173eV
 LUMO-HOMO         0.457761 =      12.4563eV


 **********************************************************************************************************************************
 DATASETS  * FILE   NREC   LENGTH (MB)   RECORD NAMES
              1      19     6374.22       500      610      700      900      950      970     1000      129      960     1100   
                                          VAR    BASINP    GEOM    SYMINP    ZMAT    AOBASIS   BASIS     P2S    ABASIS      S 
                                         1400     1410     1200     1210     1080     1600     1650     1300     1700   
                                           T        V       H0       H01     AOSYM     SMH    MOLCAS    ERIS     OPER   

              2       4        4.02       700     1000      520     2100   
                                         GEOM     BASIS   MCVARS     RHF  

 PROGRAMS   *        TOTAL        HF       INT
 CPU TIMES  *       204.42     86.17    118.16
 REAL TIME  *       319.69 SEC
 DISK USED  *        21.32 GB      
 **********************************************************************************************************************************


 PROGRAM * CCSD (Closed-shell coupled cluster)     Authors: C. Hampel, H.-J. Werner, 1991, M. Deegan, P.J. Knowles, 1992


 Convergence thresholds:  THRVAR = 1.00D-08  THRDEN = 1.00D-12

 CCSD(T)     terms to be evaluated (factor= 1.000)


 Number of core orbitals:           2 (   2   0 )
 Number of closed-shell orbitals:   6 (   5   1 )
 Number of external orbitals:     326 ( 197 129 )

 Molecular orbitals read from record     2100.2  Type=RHF/CANONICAL (state 1.1)

 Number of N-1 electron functions:               6
 Number of N-2 electron functions:              21
 Number of singly external CSFs:              1114
 Number of doubly external CSFs:            975958
 Total number of CSFs:                      977073

 Length of J-op  integral file:               0.00 MB
 Length of K-op  integral file:               4.07 MB
 Length of 3-ext integral record:             0.00 MB

 Memory could be reduced to 151.33 Mwords without degradation in triples

 Integral transformation finished. Total CPU:  10.20 sec, npass=  1  Memory used:  41.21 MW

 Reference energy:                   -129.84718792

 MP2 singlet pair energy:              -0.31269534
 MP2 triplet pair energy:              -0.17304255
 MP2 correlation energy:               -0.48573790
 MP2 total energy:                   -130.33292582

 SCS-MP2 correlation energy:           -0.48290533   (PS=  1.200000  PT=  0.333333)
 SCS-MP2 total energy:               -130.33009326

 ITER.      SQ.NORM     CORR.ENERGY   TOTAL ENERGY   ENERGY CHANGE        DEN1      VAR(S)    VAR(P)  DIIS     TIME  TIME/IT
   1      1.12218876    -0.48212123  -130.32930915     0.00361667     0.02095815  0.34D-02  0.34D-02  1  1    18.51     9.16
   2      1.13320493    -0.48186974  -130.32905766     0.00025149    -0.01308141  0.11D-03  0.51D-03  2  2    26.84     9.27
   3      1.13964620    -0.48227423  -130.32946215    -0.00040449    -0.00308804  0.52D-04  0.60D-04  3  3    35.30     9.32
   4      1.14261663    -0.48227283  -130.32946076     0.00000139    -0.00101590  0.51D-05  0.11D-04  4  4    43.68     9.34
   5      1.14385667    -0.48230483  -130.32949276    -0.00003200    -0.00027361  0.13D-05  0.17D-05  5  5    51.99     9.35
   6      1.14424139    -0.48229165  -130.32947957     0.00001319    -0.00005489  0.13D-06  0.41D-06  6  6    60.41     9.37
   7      1.14431849    -0.48229138  -130.32947930     0.00000027     0.00000418  0.17D-07  0.96D-07  6  1    68.87     9.37
   8      1.14434460    -0.48229124  -130.32947916     0.00000014    -0.00000333  0.33D-08  0.21D-07  6  2    77.23     9.38
   9      1.14435320    -0.48229062  -130.32947855     0.00000062    -0.00000006  0.24D-08  0.24D-08  6  3    85.74     9.39
  10      1.14434814    -0.48229142  -130.32947934    -0.00000080     0.00000172  0.39D-09  0.39D-09  6  5    94.11     9.39
  11      1.14435046    -0.48229139  -130.32947931     0.00000003    -0.00000046  0.12D-09  0.33D-10  6  4   102.59     9.40
  12      1.14435000    -0.48229146  -130.32947939    -0.00000008     0.00000005  0.20D-10  0.75D-11  6  6   111.01     9.40
  13      1.14434978    -0.48229146  -130.32947939    -0.00000000    -0.00000004  0.33D-11  0.10D-11  6  1   119.27     9.40
  14      1.14434949    -0.48229148  -130.32947940    -0.00000001     0.00000004  0.43D-12  0.19D-12  6  3   127.73     9.40
  15      1.14434941    -0.48229148  -130.32947940    -0.00000000     0.00000001  0.12D-12  0.24D-13  6  2   136.02     9.40
  16      1.14434939    -0.48229148  -130.32947940     0.00000000     0.00000000  0.35D-13  0.89D-14  6  4   144.38     9.41
  17      1.14434939    -0.48229148  -130.32947940    -0.00000000    -0.00000000  0.22D-14  0.11D-14  6  5   152.71     9.41
  18      1.14434940    -0.48229148  -130.32947940     0.00000000    -0.00000000  0.31D-15  0.30D-15  6  6   160.98     9.41
  19      1.14434940    -0.48229148  -130.32947940     0.00000000    -0.00000000  0.52D-16  0.40D-16  6  1   169.43     9.41
  20      1.14434940    -0.48229148  -130.32947940     0.00000000    -0.00000000  0.12D-16  0.63D-17  6  3   177.79     9.41
  21      1.14434940    -0.48229148  -130.32947940    -0.00000000     0.00000000  0.22D-17  0.12D-17  6  2   186.17     9.41
  22      1.14434940    -0.48229148  -130.32947940    -0.00000000     0.00000000  0.38D-18  0.18D-18  6  4   194.62     9.41
  23      1.14434940    -0.48229148  -130.32947940    -0.00000000     0.00000000  0.79D-19  0.48D-19  6  5   203.01     9.41
  24      1.14434940    -0.48229148  -130.32947940    -0.00000000     0.00000000  0.29D-19  0.21D-19  6  6   211.70     9.42
  25      1.14434940    -0.48229148  -130.32947940    -0.00000000    -0.00000000  0.13D-19  0.88D-20  6  1   220.08     9.42

 Norm of t1 vector:      0.07879026      S-energy:    -0.00000000      T1 diagnostic:  0.01608300
                                                                       D1 diagnostic:  0.04419474

 Doubles amplitudes (print threshold =  0.500E-01):

         I         J         SYM. A    SYM. B    A         B      T(IJ, AB)

         6         6         2         2         1         1     -0.09033494
         6         6         2         2         1         2      0.05250262
         6         6         2         2         2         1      0.05250262


 Total CPU time for triples:     86.44 sec


 RESULTS
 =======

  Reference energy                   -129.847187924528
  CCSD singlet pair energy             -0.334869040341
  CCSD triplet pair energy             -0.147422439300
  CCSD correlation energy              -0.482291479644

  Triples (T) contribution             -0.023402893375
  Total correlation energy             -0.505694373019

  CCSD total energy                  -130.329479404171
  CCSD[T] energy                     -130.354028837707
  CCSD-T energy                      -130.352487166137
 !CCSD(T) total energy               -130.352882297546

 Timing summary (sec):

 STEP                 CPU(USER)    SYS     CPU(TOT)    WALL
 Transformation         10.24      1.40     11.64     11.98
 CCSD iterations       209.85     25.74    235.59    235.60
 Triples                86.44      1.69     88.13     88.14

 Program statistics:

 Available memory in ccsd:               994999756
 Min. memory needed in ccsd:               3348832
 Max. memory used in ccsd:                 4143652
 Max. memory used in cckext:               8340089 (25 integral passes)



 **********************************************************************************************************************************
 DATASETS  * FILE   NREC   LENGTH (MB)   RECORD NAMES
              1      20     6809.41       500      610      700      900      950      970     1000      129      960     1100   
                                          VAR    BASINP    GEOM    SYMINP    ZMAT    AOBASIS   BASIS     P2S    ABASIS      S 
                                         1400     1410     1200     1210     1080     1600     1650     1300     1700     1380   
                                           T        V       H0       H01     AOSYM     SMH    MOLCAS    ERIS     OPER     JKOP   

              2       4        4.02       700     1000      520     2100   
                                         GEOM     BASIS   MCVARS     RHF  

 PROGRAMS   *        TOTAL   CCSD(T)        HF       INT
 CPU TIMES  *       510.98    306.56     86.17    118.16
 REAL TIME  *       656.12 SEC
 DISK USED  *        21.32 GB      
 **********************************************************************************************************************************

 CCSD(T)/aug-cc-pV5Z energy=   -130.352882297546

        CCSD(T)         HF-SCF  
   -130.35288230   -129.84718792
 **********************************************************************************************************************************
 Molpro calculation terminated
 Variable memory released
