
 Primary working directories    : /tmp/r2666/281916.maple
 Secondary working directories  : /tmp/r2666/281916.maple
 Wavefunction directory         : /ddn/home4/r2666/wfu/
 Main file repository           : /tmp/r2666/281916.maple/

 SHA1      : d5ffa45e93fdbca01ffc919aa182cfdae0147319
 NAME      : 2015.1.35
 ARCHNAME  : linux/x86_64
 FC        : /opt/intel/composer_xe_2015.1.133/bin/intel64/ifort
 BLASLIB   : -Wl,-_start-group /opt/intel/mkl/lib/intel64/libmkl_intel_ilp64.a /opt/intel/mkl/lib/intel64/libmkl_intel_thread.a /opt/intel/mkl/lib/intel64/libmkl_core.a -Wl,-_end-group
 id        : olemiss

 Nodes     nprocs
 cn081        1

 Using customized tuning parameters: mindgm=1; mindgv=20; mindgc=4; mindgr=1; noblas=0; minvec=7
 default implementation of scratch files=df  

 ***,hno CCSD(T)/TZ-F12 QFF
 memory, 995, m;
 gthresh,energy=1.d-12,zero=1.d-22,oneint=1.d-22,twoint=1.d-22;
 gthresh,optgrad=1.d-8,optstep=1.d-8;
 nocompress;
 geomtyp=xyz
 bohr
 geometry={
 3
         71        71
 H        0.0000000000        1.6672105031       -1.9242092052
 N        0.0000000000       -0.1658118757       -1.1545359121
 O        0.0000000000        0.0403691626        1.1281555262
 }
 
 basis=av5z
   {hf,maxit=500;accu,20;}
 {ccsd(t),nocheck,maxit=250;orbital,IGNORE_ERROR;}

 Variables initialized (889), CPU time= 0.00 sec
 Commands  initialized (702), CPU time= 0.01 sec, 572 directives.
 Default parameters read. Elapsed time= 0.08 sec

 Checking input...
 Passed
1


                                         ***  PROGRAM SYSTEM MOLPRO  ***
                                       Copyright, TTI GmbH Stuttgart, 2015
                                    Version 2015.1 linked Jul  9 2018 13:16:40


 **********************************************************************************************************************************
 LABEL *   hno CCSD(T)/TZ-F12 QFF                                                        
  64 bit serial version                                                                  DATE: 04-Mar-20          TIME: 13:19:59  
 **********************************************************************************************************************************

 SHA1:             d5ffa45e93fdbca01ffc919aa182cfdae0147319
 **********************************************************************************************************************************

 THRESHOLDS:

 ZERO    =  1.00D-22  ONEINT  =  1.00D-22  TWOINT  =  1.00D-22  PREFAC  =  1.00D-14  LOCALI  =  1.00D-09  EORDER  =  1.00D-04
 ENERGY  =  1.00D-12  ETEST   =  0.00D+00  EDENS   =  0.00D+00  THRDEDEF=  1.00D-06  GRADIENT=  1.00D-02  STEP    =  1.00D-03
 ORBITAL =  1.00D-05  CIVEC   =  1.00D-05  COEFF   =  1.00D-04  PRINTCI =  5.00D-02  PUNCHCI =  9.90D+01  OPTGRAD =  3.00D-04
 OPTENERG=  1.00D-06  OPTSTEP =  3.00D-04  THRGRAD =  1.00D-10  COMPRESS=  1.00D-11  VARMIN  =  1.00D-07  VARMAX  =  1.00D-03
 THRDOUB =  0.00D+00  THRDIV  =  1.00D-05  THRRED  =  1.00D-07  THRPSP  =  1.00D+00  THRDC   =  1.00D-10  THRCS   =  1.00D-10
 THRNRM  =  1.00D-08  THREQ   =  0.00D+00  THRDE   =  1.00D+00  THRREF  =  1.00D-05  SPARFAC =  1.00D+00  THRDLP  =  1.00D-07
 THRDIA  =  1.00D-10  THRDLS  =  1.00D-07  THRGPS  =  0.00D+00  THRKEX  =  0.00D+00  THRDIS  =  2.00D-01  THRVAR  =  1.00D-10
 THRLOC  =  1.00D-06  THRGAP  =  1.00D-06  THRLOCT = -1.00D+00  THRGAPT = -1.00D+00  THRORB  =  1.00D-06  THRMLTP =  0.00D+00
 THRCPQCI=  1.00D-10  KEXTA   =  0.00D+00  THRCOARS=  0.00D+00  SYMTOL  =  1.00D-06  GRADTOL =  1.00D-06  THROVL  =  1.00D-08
 THRORTH =  1.00D-08  GRID    =  1.00D-06  GRIDMAX =  1.00D-03  DTMAX   =  0.00D+00  THROCCDE=  1.00D-01  THROCCDE=  1.00D-01



 THRESHOLDS:

 ZERO    =  1.00D-22  ONEINT  =  1.00D-22  TWOINT  =  1.00D-22  PREFAC  =  1.00D-14  LOCALI  =  1.00D-09  EORDER  =  1.00D-04
 ENERGY  =  1.00D-12  ETEST   =  0.00D+00  EDENS   =  0.00D+00  THRDEDEF=  1.00D-06  GRADIENT=  1.00D-02  STEP    =  1.00D-03
 ORBITAL =  1.00D-05  CIVEC   =  1.00D-05  COEFF   =  1.00D-04  PRINTCI =  5.00D-02  PUNCHCI =  9.90D+01  OPTGRAD =  1.00D-08
 OPTENERG=  1.00D-06  OPTSTEP =  1.00D-08  THRGRAD =  1.00D-10  COMPRESS=  1.00D-11  VARMIN  =  1.00D-07  VARMAX  =  1.00D-03
 THRDOUB =  0.00D+00  THRDIV  =  1.00D-05  THRRED  =  1.00D-07  THRPSP  =  1.00D+00  THRDC   =  1.00D-10  THRCS   =  1.00D-10
 THRNRM  =  1.00D-08  THREQ   =  0.00D+00  THRDE   =  1.00D+00  THRREF  =  1.00D-05  SPARFAC =  1.00D+00  THRDLP  =  1.00D-07
 THRDIA  =  1.00D-10  THRDLS  =  1.00D-07  THRGPS  =  0.00D+00  THRKEX  =  0.00D+00  THRDIS  =  2.00D-01  THRVAR  =  1.00D-10
 THRLOC  =  1.00D-06  THRGAP  =  1.00D-06  THRLOCT = -1.00D+00  THRGAPT = -1.00D+00  THRORB  =  1.00D-06  THRMLTP =  0.00D+00
 THRCPQCI=  1.00D-10  KEXTA   =  0.00D+00  THRCOARS=  0.00D+00  SYMTOL  =  1.00D-06  GRADTOL =  1.00D-06  THROVL  =  1.00D-08
 THRORTH =  1.00D-08  GRID    =  1.00D-06  GRIDMAX =  1.00D-03  DTMAX   =  0.00D+00  THROCCDE=  1.00D-01  THROCCDE=  1.00D-01



 Input parameters for SORTINT:

 COMPRESS =    0.000000
 C_FINAL  =    1.000000
 DEBUG    =   -1.000000
 C_SORT1  =    0.000000
 C_SEWARD =    0.000000
 THRESH   =    0.000000
 IO       =  molpro                                                          
 SPRI     =    0.000000
 SETTING GEOMTYP        =    XYZ
 ZUNIT=BOHR
 

 Variable memory set to  995000000 words,  buffer space   230000 words

 SETTING BASIS          =    AV5Z


 Recomputing integrals since basis changed


 Using spherical harmonics

 Library entry H      S aug-cc-pV5Z          selected for orbital group  1
 Library entry H      P aug-cc-pV5Z          selected for orbital group  1
 Library entry H      D aug-cc-pV5Z          selected for orbital group  1
 Library entry H      F aug-cc-pV5Z          selected for orbital group  1
 Library entry H      G aug-cc-pV5Z          selected for orbital group  1
 Library entry N      S aug-cc-pV5Z          selected for orbital group  2
 Library entry N      P aug-cc-pV5Z          selected for orbital group  2
 Library entry N      D aug-cc-pV5Z          selected for orbital group  2
 Library entry N      F aug-cc-pV5Z          selected for orbital group  2
 Library entry N      G aug-cc-pV5Z          selected for orbital group  2
 Library entry N      H aug-cc-pV5Z          selected for orbital group  2
 Library entry O      S aug-cc-pV5Z          selected for orbital group  3
 Library entry O      P aug-cc-pV5Z          selected for orbital group  3
 Library entry O      D aug-cc-pV5Z          selected for orbital group  3
 Library entry O      F aug-cc-pV5Z          selected for orbital group  3
 Library entry O      G aug-cc-pV5Z          selected for orbital group  3
 Library entry O      H aug-cc-pV5Z          selected for orbital group  3


 PROGRAM * SEWARD (Integral evaluation for generally contracted gaussian basis sets)     Author: Roland Lindh, 1990

 Geometry written to block  1 of record 700


 Point group  Cs  



 ATOMIC COORDINATES

 NR  ATOM    CHARGE       X              Y              Z

   1  H       1.00    0.000000000    1.667210503   -1.924209205
   2  N       7.00    0.000000000   -0.165811876   -1.154535912
   3  O       8.00    0.000000000    0.040369163    1.128155526

 Bond lengths in Bohr (Angstrom)

 1-2  1.988056342  2-3  2.291984036
     ( 1.052034110)     ( 1.212865720)

 Bond angles

  1-2-3  107.61603570

 NUCLEAR CHARGE:                   16
 NUMBER OF PRIMITIVE AOS:         506
 NUMBER OF SYMMETRY AOS:          371
 NUMBER OF CONTRACTIONS:          334   ( 204A'  + 130A"  )
 NUMBER OF CORE ORBITALS:           2   (   2A'  +   0A"  )
 NUMBER OF VALENCE ORBITALS:        9   (   7A'  +   2A"  )


 NUCLEAR REPULSION ENERGY   30.26692407


 Eigenvalues of metric

         1 0.114E-04 0.175E-04 0.640E-04 0.101E-03 0.106E-03 0.139E-03 0.202E-03 0.224E-03
         2 0.129E-03 0.365E-03 0.114E-02 0.161E-02 0.194E-02 0.257E-02 0.328E-02 0.393E-02


 Contracted 2-electron integrals neglected if value below      1.0D-22

      756977495. INTEGRALS WRITTEN OUT IN  184855 BLOCKS ON RECORD 1290 OF FILE 1


 NUMBER OF SORTED TWO-ELECTRON INTEGRALS:  789027325.     BUFFER LENGTH:  32768
 NUMBER OF SEGMENTS:  25  SEGMENT LENGTH:   31997130      RECORD LENGTH: 524288

 Memory used in sort:      32.55 MW

 SORT1 READ   756977495. AND WROTE   760993382. INTEGRALS IN   2189 RECORDS. CPU TIME:    12.86 SEC, REAL TIME:    17.64 SEC
 SORT2 READ   760993382. AND WROTE   789027325. INTEGRALS IN     25 RECORDS. CPU TIME:     7.83 SEC, REAL TIME:    11.32 SEC

 FILE SIZES:   FILE 1: 12137.5 MBYTE,  FILE 4:  9181.4 MBYTE,   TOTAL:  21318.9 MBYTE

 OPERATOR DM      FOR CENTER  0  COORDINATES:    0.000000    0.000000    0.000000


 **********************************************************************************************************************************
 DATASETS  * FILE   NREC   LENGTH (MB)   RECORD NAMES
              1      19     6374.22       500      610      700      900      950      970     1000      129      960     1100   
                                          VAR    BASINP    GEOM    SYMINP    ZMAT    AOBASIS   BASIS     P2S    ABASIS      S 
                                         1400     1410     1200     1210     1080     1600     1650     1300     1700   
                                           T        V       H0       H01     AOSYM     SMH    MOLCAS    ERIS     OPER   

 PROGRAMS   *        TOTAL       INT
 CPU TIMES  *       106.23    106.13
 REAL TIME  *       121.34 SEC
 DISK USED  *        21.32 GB      
 **********************************************************************************************************************************


 PROGRAM * RHF-SCF (CLOSED SHELL)       Authors: W. Meyer, H.-J. Werner


 NUMBER OF ELECTRONS:       8+    8-
 CONVERGENCE THRESHOLDS:    1.00E-10 (Density)    1.00E-13 (Energy)
 MAX. NUMBER OF ITERATIONS:      500
 INTERPOLATION TYPE:            DIIS
 INTERPOLATION STEPS:              2 (START)      1 (STEP)
 LEVEL SHIFTS:                  0.00 (CLOSED)  0.00 (OPEN) 



 Orbital guess generated from atomic densities. Full valence occupancy:    9   2

 Molecular orbital dump at record        2100.2

 Initial occupancy:   7   1

 ITERATION    DDIFF          GRAD             ENERGY        2-EL.EN.            DIPOLE MOMENTS         DIIS   ORB.
    1      0.000D+00      0.000D+00      -129.79701093    153.798790    0.00000    0.59243   -1.04376    0    start
    2      0.000D+00      0.645D-02      -129.82407979    155.006606    0.00000    0.61399   -0.20270    1    diag
    3      0.405D-02      0.498D-02      -129.84797866    155.145849    0.00000    0.55660   -0.59955    2    diag
    4      0.210D-02      0.772D-03      -129.84879474    154.857458    0.00000    0.56414   -0.53719    3    diag
    5      0.380D-03      0.251D-03      -129.84892315    154.951511    0.00000    0.56934   -0.53954    4    diag
    6      0.158D-03      0.729D-04      -129.84894377    154.935102    0.00000    0.56957   -0.53522    5    diag
    7      0.608D-04      0.365D-04      -129.84894986    154.937848    0.00000    0.57078   -0.53251    6    diag
    8      0.418D-04      0.130D-04      -129.84895058    154.937116    0.00000    0.57082   -0.53144    7    diag
    9      0.166D-04      0.253D-05      -129.84895062    154.937001    0.00000    0.57079   -0.53120    8    diag
   10      0.337D-05      0.562D-06      -129.84895062    154.936983    0.00000    0.57075   -0.53117    9    orth
   11      0.637D-06      0.112D-06      -129.84895062    154.936979    0.00000    0.57075   -0.53117    9    diag
   12      0.117D-06      0.231D-07      -129.84895062    154.936979    0.00000    0.57074   -0.53117    9    diag
   13      0.255D-07      0.613D-08      -129.84895062    154.936979    0.00000    0.57074   -0.53117    9    diag
   14      0.700D-08      0.118D-08      -129.84895062    154.936979    0.00000    0.57074   -0.53117    9    diag
   15      0.127D-08      0.334D-09      -129.84895062    154.936979    0.00000    0.57074   -0.53117    9    diag
   16      0.382D-09      0.990D-10      -129.84895062    154.936979    0.00000    0.57074   -0.53117    9    diag
   17      0.708D-10      0.254D-10      -129.84895062    154.936979    0.00000    0.57074   -0.53117    9    diag
   18      0.225D-10      0.854D-11      -129.84895062    154.936979    0.00000    0.57074   -0.53117    9    diag
   19      0.230D-10      0.205D-11      -129.84895062    154.936979    0.00000    0.57074   -0.53117    9    fixocc
   20      0.213D-10      0.516D-12      -129.84895062    154.936979    0.00000    0.57074   -0.53117    9    orth
   21      0.984D-11      0.338D-12      -129.84895062    154.936979    0.00000    0.57074   -0.53117    9    diag
   22      0.636D-11      0.311D-12      -129.84895062    154.936979    0.00000    0.57074   -0.53117    9    diag
   23      0.472D-11      0.275D-12      -129.84895062    154.936979    0.00000    0.57074   -0.53117    9    diag
   24      0.318D-11      0.236D-12      -129.84895062    154.936979    0.00000    0.57074   -0.53117    9    diag
   25      0.218D-11      0.246D-12      -129.84895062    154.936979    0.00000    0.57074   -0.53117    9    diag
   26      0.138D-11      0.228D-12      -129.84895062    154.936979    0.00000    0.57074   -0.53117    9    diag
   27      0.109D-11      0.223D-12      -129.84895062    154.936979    0.00000    0.57074   -0.53117    9    diag
   28      0.618D-12      0.229D-12      -129.84895062    154.936979    0.00000    0.57074   -0.53117    9    diag
   29      0.398D-12      0.214D-12      -129.84895062    154.936979    0.00000    0.57074   -0.53117    9    diag
   30      0.945D-12      0.285D-12      -129.84895062    154.936979    0.00000    0.57074   -0.53117    0    orth

 Final occupancy:   7   1

 !RHF STATE 1.1 Energy               -129.848950616663
 Nuclear energy                        30.26692407
 One-electron energy                 -237.58436418
 Two-electron energy                   77.46848950
 Virial quotient                       -1.00183000
 !RHF STATE 1.1 Dipole moment           0.00000000     0.57074310    -0.53117124
 Dipole moment /Debye                   0.00000000     1.45058926    -1.35001419

 Orbital energies:

         1.1          2.1          3.1          4.1          5.1          6.1          7.1          8.1          9.1
    -20.653258   -15.713115    -1.525600    -0.995164    -0.745718    -0.664593    -0.432443     0.022838     0.065547

         1.2          2.2          3.2
     -0.593801     0.059271     0.091213

 HOMO      7.1    -0.432443 =     -11.7674eV
 LUMO      8.1     0.022838 =       0.6214eV
 LUMO-HOMO         0.455281 =      12.3888eV


 **********************************************************************************************************************************
 DATASETS  * FILE   NREC   LENGTH (MB)   RECORD NAMES
              1      19     6374.22       500      610      700      900      950      970     1000      129      960     1100   
                                          VAR    BASINP    GEOM    SYMINP    ZMAT    AOBASIS   BASIS     P2S    ABASIS      S 
                                         1400     1410     1200     1210     1080     1600     1650     1300     1700   
                                           T        V       H0       H01     AOSYM     SMH    MOLCAS    ERIS     OPER   

              2       4        4.02       700     1000      520     2100   
                                         GEOM     BASIS   MCVARS     RHF  

 PROGRAMS   *        TOTAL        HF       INT
 CPU TIMES  *       199.66     93.43    106.13
 REAL TIME  *       243.55 SEC
 DISK USED  *        21.32 GB      
 **********************************************************************************************************************************


 PROGRAM * CCSD (Closed-shell coupled cluster)     Authors: C. Hampel, H.-J. Werner, 1991, M. Deegan, P.J. Knowles, 1992


 Convergence thresholds:  THRVAR = 1.00D-08  THRDEN = 1.00D-12

 CCSD(T)     terms to be evaluated (factor= 1.000)


 Number of core orbitals:           2 (   2   0 )
 Number of closed-shell orbitals:   6 (   5   1 )
 Number of external orbitals:     326 ( 197 129 )

 Molecular orbitals read from record     2100.2  Type=RHF/CANONICAL (state 1.1)

 Number of N-1 electron functions:               6
 Number of N-2 electron functions:              21
 Number of singly external CSFs:              1114
 Number of doubly external CSFs:            975958
 Total number of CSFs:                      977073

 Length of J-op  integral file:               0.00 MB
 Length of K-op  integral file:               4.07 MB
 Length of 3-ext integral record:             0.00 MB

 Memory could be reduced to 151.33 Mwords without degradation in triples

 Integral transformation finished. Total CPU:  10.04 sec, npass=  1  Memory used:  41.21 MW

 Reference energy:                   -129.84895062

 MP2 singlet pair energy:              -0.31166829
 MP2 triplet pair energy:              -0.17234760
 MP2 correlation energy:               -0.48401589
 MP2 total energy:                   -130.33296650

 SCS-MP2 correlation energy:           -0.48124045   (PS=  1.200000  PT=  0.333333)
 SCS-MP2 total energy:               -130.33019107

 ITER.      SQ.NORM     CORR.ENERGY   TOTAL ENERGY   ENERGY CHANGE        DEN1      VAR(S)    VAR(P)  DIIS     TIME  TIME/IT
   1      1.12109217    -0.48081381  -130.32976443     0.00320208     0.02007273  0.32D-02  0.33D-02  1  1    18.05     8.91
   2      1.13183635    -0.48065785  -130.32960846     0.00015596    -0.01280124  0.11D-03  0.49D-03  2  2    26.10     9.02
   3      1.13807036    -0.48104514  -130.32999576    -0.00038729    -0.00302884  0.49D-04  0.58D-04  3  3    34.19     9.06
   4      1.14091026    -0.48104372  -130.32999434     0.00000142    -0.00098207  0.46D-05  0.10D-04  4  4    42.32     9.09
   5      1.14206615    -0.48107363  -130.33002425    -0.00002991    -0.00025644  0.12D-05  0.17D-05  5  5    50.32     9.11
   6      1.14242761    -0.48106157  -130.33001218     0.00001207    -0.00005142  0.12D-06  0.40D-06  6  6    58.40     9.11
   7      1.14250254    -0.48106124  -130.33001186     0.00000033     0.00000369  0.17D-07  0.92D-07  6  1    66.58     9.12
   8      1.14252772    -0.48106120  -130.33001182     0.00000004    -0.00000311  0.34D-08  0.19D-07  6  2    74.73     9.13
   9      1.14253609    -0.48106063  -130.33001125     0.00000057    -0.00000014  0.22D-08  0.21D-08  6  3    82.95     9.13
  10      1.14253139    -0.48106138  -130.33001200    -0.00000075     0.00000162  0.35D-09  0.34D-09  6  5    90.96     9.13
  11      1.14253345    -0.48106136  -130.33001198     0.00000002    -0.00000039  0.10D-09  0.29D-10  6  4    99.05     9.14
  12      1.14253300    -0.48106143  -130.33001205    -0.00000007     0.00000005  0.18D-10  0.65D-11  6  6   107.26     9.14
  13      1.14253280    -0.48106143  -130.33001205    -0.00000000    -0.00000004  0.31D-11  0.93D-12  6  1   115.35     9.14
  14      1.14253253    -0.48106144  -130.33001206    -0.00000001     0.00000004  0.43D-12  0.17D-12  6  3   123.45     9.15
  15      1.14253245    -0.48106145  -130.33001207    -0.00000000     0.00000001  0.12D-12  0.22D-13  6  2   131.55     9.15
  16      1.14253244    -0.48106145  -130.33001206     0.00000000     0.00000000  0.32D-13  0.86D-14  6  4   139.72     9.15
  17      1.14253244    -0.48106145  -130.33001206    -0.00000000    -0.00000000  0.19D-14  0.11D-14  6  5   147.87     9.15
  18      1.14253245    -0.48106145  -130.33001206     0.00000000    -0.00000000  0.28D-15  0.29D-15  6  6   155.94     9.15
  19      1.14253245    -0.48106145  -130.33001206     0.00000000    -0.00000000  0.50D-16  0.38D-16  6  1   163.99     9.15
  20      1.14253245    -0.48106145  -130.33001206     0.00000000    -0.00000000  0.11D-16  0.59D-17  6  3   172.08     9.15
  21      1.14253245    -0.48106145  -130.33001206    -0.00000000     0.00000000  0.20D-17  0.11D-17  6  2   180.12     9.15
  22      1.14253245    -0.48106145  -130.33001206    -0.00000000     0.00000000  0.33D-18  0.16D-18  6  4   188.18     9.15
  23      1.14253245    -0.48106145  -130.33001206    -0.00000000     0.00000000  0.76D-19  0.42D-19  6  5   196.25     9.15
  24      1.14253245    -0.48106145  -130.33001206    -0.00000000     0.00000000  0.27D-19  0.17D-19  6  6   204.35     9.15
  25      1.14253245    -0.48106145  -130.33001206     0.00000000    -0.00000000  0.16D-19  0.97D-20  6  1   212.54     9.15

 Norm of t1 vector:      0.07690980      S-energy:    -0.00000000      T1 diagnostic:  0.01569915
                                                                       D1 diagnostic:  0.04278959

 Doubles amplitudes (print threshold =  0.500E-01):

         I         J         SYM. A    SYM. B    A         B      T(IJ, AB)

         6         6         2         2         1         1     -0.08293919
         6         6         2         2         1         2      0.05295591
         6         6         2         2         2         1      0.05295591


 Total CPU time for triples:     85.56 sec


 RESULTS
 =======

  Reference energy                   -129.848950616663
  CCSD singlet pair energy             -0.333800573350
  CCSD triplet pair energy             -0.147260874111
  CCSD correlation energy              -0.481061447464

  Triples (T) contribution             -0.023068865439
  Total correlation energy             -0.504130312903

  CCSD total energy                  -130.330012064127
  CCSD[T] energy                     -130.354178140155
  CCSD-T energy                      -130.352697131956
 !CCSD(T) total energy               -130.353080929566

 Timing summary (sec):

 STEP                 CPU(USER)    SYS     CPU(TOT)    WALL
 Transformation         10.09      1.51     11.60     11.91
 CCSD iterations       202.46     26.39    228.85    228.88
 Triples                85.56      1.83     87.39     87.39

 Program statistics:

 Available memory in ccsd:               994999756
 Min. memory needed in ccsd:               3348832
 Max. memory used in ccsd:                 4143652
 Max. memory used in cckext:               8340089 (25 integral passes)



 **********************************************************************************************************************************
 DATASETS  * FILE   NREC   LENGTH (MB)   RECORD NAMES
              1      20     6809.41       500      610      700      900      950      970     1000      129      960     1100   
                                          VAR    BASINP    GEOM    SYMINP    ZMAT    AOBASIS   BASIS     P2S    ABASIS      S 
                                         1400     1410     1200     1210     1080     1600     1650     1300     1700     1380   
                                           T        V       H0       H01     AOSYM     SMH    MOLCAS    ERIS     OPER     JKOP   

              2       4        4.02       700     1000      520     2100   
                                         GEOM     BASIS   MCVARS     RHF  

 PROGRAMS   *        TOTAL   CCSD(T)        HF       INT
 CPU TIMES  *       497.79    298.13     93.43    106.13
 REAL TIME  *       571.78 SEC
 DISK USED  *        21.32 GB      
 **********************************************************************************************************************************

 CCSD(T)/aug-cc-pV5Z energy=   -130.353080929566

        CCSD(T)         HF-SCF  
   -130.35308093   -129.84895062
 **********************************************************************************************************************************
 Molpro calculation terminated
 Variable memory released
