
 Primary working directories    : /tmp/r2666/281859.maple
 Secondary working directories  : /tmp/r2666/281859.maple
 Wavefunction directory         : /ddn/home4/r2666/wfu/
 Main file repository           : /tmp/r2666/281859.maple/

 SHA1      : d5ffa45e93fdbca01ffc919aa182cfdae0147319
 NAME      : 2015.1.35
 ARCHNAME  : linux/x86_64
 FC        : /opt/intel/composer_xe_2015.1.133/bin/intel64/ifort
 BLASLIB   : -Wl,-_start-group /opt/intel/mkl/lib/intel64/libmkl_intel_ilp64.a /opt/intel/mkl/lib/intel64/libmkl_intel_thread.a /opt/intel/mkl/lib/intel64/libmkl_core.a -Wl,-_end-group
 id        : olemiss

 Nodes     nprocs
 cn049        1

 Using customized tuning parameters: mindgm=1; mindgv=20; mindgc=4; mindgr=1; noblas=0; minvec=7
 default implementation of scratch files=df  

 ***,hno CCSD(T)/TZ-F12 QFF
 memory, 995, m;
 gthresh,energy=1.d-12,zero=1.d-22,oneint=1.d-22,twoint=1.d-22;
 gthresh,optgrad=1.d-8,optstep=1.d-8;
 nocompress;
 geomtyp=xyz
 bohr
 geometry={
 3
         14        14
 H        0.0000000000        1.6577422462       -1.9220063741
 N        0.0000000000       -0.1544043873       -1.1514792367
 O        0.0000000000        0.0384299311        1.1228960198
 }
 
 basis=av5z
   {hf,maxit=500;accu,20;}
 {ccsd(t),nocheck,maxit=250;orbital,IGNORE_ERROR;}

 Variables initialized (889), CPU time= 0.00 sec
 Commands  initialized (702), CPU time= 0.01 sec, 572 directives.
 Default parameters read. Elapsed time= 0.48 sec

 Checking input...
 Passed
1


                                         ***  PROGRAM SYSTEM MOLPRO  ***
                                       Copyright, TTI GmbH Stuttgart, 2015
                                    Version 2015.1 linked Jul  9 2018 13:16:40


 **********************************************************************************************************************************
 LABEL *   hno CCSD(T)/TZ-F12 QFF                                                        
  64 bit serial version                                                                  DATE: 04-Mar-20          TIME: 13:19:57  
 **********************************************************************************************************************************

 SHA1:             d5ffa45e93fdbca01ffc919aa182cfdae0147319
 **********************************************************************************************************************************

 THRESHOLDS:

 ZERO    =  1.00D-22  ONEINT  =  1.00D-22  TWOINT  =  1.00D-22  PREFAC  =  1.00D-14  LOCALI  =  1.00D-09  EORDER  =  1.00D-04
 ENERGY  =  1.00D-12  ETEST   =  0.00D+00  EDENS   =  0.00D+00  THRDEDEF=  1.00D-06  GRADIENT=  1.00D-02  STEP    =  1.00D-03
 ORBITAL =  1.00D-05  CIVEC   =  1.00D-05  COEFF   =  1.00D-04  PRINTCI =  5.00D-02  PUNCHCI =  9.90D+01  OPTGRAD =  3.00D-04
 OPTENERG=  1.00D-06  OPTSTEP =  3.00D-04  THRGRAD =  1.00D-10  COMPRESS=  1.00D-11  VARMIN  =  1.00D-07  VARMAX  =  1.00D-03
 THRDOUB =  0.00D+00  THRDIV  =  1.00D-05  THRRED  =  1.00D-07  THRPSP  =  1.00D+00  THRDC   =  1.00D-10  THRCS   =  1.00D-10
 THRNRM  =  1.00D-08  THREQ   =  0.00D+00  THRDE   =  1.00D+00  THRREF  =  1.00D-05  SPARFAC =  1.00D+00  THRDLP  =  1.00D-07
 THRDIA  =  1.00D-10  THRDLS  =  1.00D-07  THRGPS  =  0.00D+00  THRKEX  =  0.00D+00  THRDIS  =  2.00D-01  THRVAR  =  1.00D-10
 THRLOC  =  1.00D-06  THRGAP  =  1.00D-06  THRLOCT = -1.00D+00  THRGAPT = -1.00D+00  THRORB  =  1.00D-06  THRMLTP =  0.00D+00
 THRCPQCI=  1.00D-10  KEXTA   =  0.00D+00  THRCOARS=  0.00D+00  SYMTOL  =  1.00D-06  GRADTOL =  1.00D-06  THROVL  =  1.00D-08
 THRORTH =  1.00D-08  GRID    =  1.00D-06  GRIDMAX =  1.00D-03  DTMAX   =  0.00D+00  THROCCDE=  1.00D-01  THROCCDE=  1.00D-01



 THRESHOLDS:

 ZERO    =  1.00D-22  ONEINT  =  1.00D-22  TWOINT  =  1.00D-22  PREFAC  =  1.00D-14  LOCALI  =  1.00D-09  EORDER  =  1.00D-04
 ENERGY  =  1.00D-12  ETEST   =  0.00D+00  EDENS   =  0.00D+00  THRDEDEF=  1.00D-06  GRADIENT=  1.00D-02  STEP    =  1.00D-03
 ORBITAL =  1.00D-05  CIVEC   =  1.00D-05  COEFF   =  1.00D-04  PRINTCI =  5.00D-02  PUNCHCI =  9.90D+01  OPTGRAD =  1.00D-08
 OPTENERG=  1.00D-06  OPTSTEP =  1.00D-08  THRGRAD =  1.00D-10  COMPRESS=  1.00D-11  VARMIN  =  1.00D-07  VARMAX  =  1.00D-03
 THRDOUB =  0.00D+00  THRDIV  =  1.00D-05  THRRED  =  1.00D-07  THRPSP  =  1.00D+00  THRDC   =  1.00D-10  THRCS   =  1.00D-10
 THRNRM  =  1.00D-08  THREQ   =  0.00D+00  THRDE   =  1.00D+00  THRREF  =  1.00D-05  SPARFAC =  1.00D+00  THRDLP  =  1.00D-07
 THRDIA  =  1.00D-10  THRDLS  =  1.00D-07  THRGPS  =  0.00D+00  THRKEX  =  0.00D+00  THRDIS  =  2.00D-01  THRVAR  =  1.00D-10
 THRLOC  =  1.00D-06  THRGAP  =  1.00D-06  THRLOCT = -1.00D+00  THRGAPT = -1.00D+00  THRORB  =  1.00D-06  THRMLTP =  0.00D+00
 THRCPQCI=  1.00D-10  KEXTA   =  0.00D+00  THRCOARS=  0.00D+00  SYMTOL  =  1.00D-06  GRADTOL =  1.00D-06  THROVL  =  1.00D-08
 THRORTH =  1.00D-08  GRID    =  1.00D-06  GRIDMAX =  1.00D-03  DTMAX   =  0.00D+00  THROCCDE=  1.00D-01  THROCCDE=  1.00D-01



 Input parameters for SORTINT:

 COMPRESS =    0.000000
 C_FINAL  =    1.000000
 DEBUG    =   -1.000000
 C_SORT1  =    0.000000
 C_SEWARD =    0.000000
 THRESH   =    0.000000
 IO       =  molpro                                                          
 SPRI     =    0.000000
 SETTING GEOMTYP        =    XYZ
 ZUNIT=BOHR
 

 Variable memory set to  995000000 words,  buffer space   230000 words

 SETTING BASIS          =    AV5Z


 Recomputing integrals since basis changed


 Using spherical harmonics

 Library entry H      S aug-cc-pV5Z          selected for orbital group  1
 Library entry H      P aug-cc-pV5Z          selected for orbital group  1
 Library entry H      D aug-cc-pV5Z          selected for orbital group  1
 Library entry H      F aug-cc-pV5Z          selected for orbital group  1
 Library entry H      G aug-cc-pV5Z          selected for orbital group  1
 Library entry N      S aug-cc-pV5Z          selected for orbital group  2
 Library entry N      P aug-cc-pV5Z          selected for orbital group  2
 Library entry N      D aug-cc-pV5Z          selected for orbital group  2
 Library entry N      F aug-cc-pV5Z          selected for orbital group  2
 Library entry N      G aug-cc-pV5Z          selected for orbital group  2
 Library entry N      H aug-cc-pV5Z          selected for orbital group  2
 Library entry O      S aug-cc-pV5Z          selected for orbital group  3
 Library entry O      P aug-cc-pV5Z          selected for orbital group  3
 Library entry O      D aug-cc-pV5Z          selected for orbital group  3
 Library entry O      F aug-cc-pV5Z          selected for orbital group  3
 Library entry O      G aug-cc-pV5Z          selected for orbital group  3
 Library entry O      H aug-cc-pV5Z          selected for orbital group  3


 PROGRAM * SEWARD (Integral evaluation for generally contracted gaussian basis sets)     Author: Roland Lindh, 1990

 Geometry written to block  1 of record 700


 Point group  Cs  



 ATOMIC COORDINATES

 NR  ATOM    CHARGE       X              Y              Z

   1  H       1.00    0.000000000    1.657742246   -1.922006374
   2  N       7.00    0.000000000   -0.154404387   -1.151479237
   3  O       8.00    0.000000000    0.038429931    1.122896020

 Bond lengths in Bohr (Angstrom)

 1-2  1.969159082  2-3  2.282535406
     ( 1.042034111)     ( 1.207865720)

 Bond angles

  1-2-3  108.18899349

 NUCLEAR CHARGE:                   16
 NUMBER OF PRIMITIVE AOS:         506
 NUMBER OF SYMMETRY AOS:          371
 NUMBER OF CONTRACTIONS:          334   ( 204A'  + 130A"  )
 NUMBER OF CORE ORBITALS:           2   (   2A'  +   0A"  )
 NUMBER OF VALENCE ORBITALS:        9   (   7A'  +   2A"  )


 NUCLEAR REPULSION ENERGY   30.40864570


 Eigenvalues of metric

         1 0.110E-04 0.170E-04 0.623E-04 0.990E-04 0.105E-03 0.135E-03 0.197E-03 0.223E-03
         2 0.127E-03 0.351E-03 0.111E-02 0.157E-02 0.185E-02 0.251E-02 0.316E-02 0.381E-02


 Contracted 2-electron integrals neglected if value below      1.0D-22

      756977401. INTEGRALS WRITTEN OUT IN  184855 BLOCKS ON RECORD 1290 OF FILE 1


 NUMBER OF SORTED TWO-ELECTRON INTEGRALS:  789027325.     BUFFER LENGTH:  32768
 NUMBER OF SEGMENTS:  25  SEGMENT LENGTH:   31997130      RECORD LENGTH: 524288

 Memory used in sort:      32.55 MW

 SORT1 READ   756977401. AND WROTE   760993291. INTEGRALS IN   2189 RECORDS. CPU TIME:    25.32 SEC, REAL TIME:    31.47 SEC
 SORT2 READ   760993291. AND WROTE   789027325. INTEGRALS IN     25 RECORDS. CPU TIME:    10.56 SEC, REAL TIME:    14.92 SEC

 FILE SIZES:   FILE 1: 12137.5 MBYTE,  FILE 4:  9181.4 MBYTE,   TOTAL:  21318.9 MBYTE

 OPERATOR DM      FOR CENTER  0  COORDINATES:    0.000000    0.000000    0.000000


 **********************************************************************************************************************************
 DATASETS  * FILE   NREC   LENGTH (MB)   RECORD NAMES
              1      19     6374.22       500      610      700      900      950      970     1000      129      960     1100   
                                          VAR    BASINP    GEOM    SYMINP    ZMAT    AOBASIS   BASIS     P2S    ABASIS      S 
                                         1400     1410     1200     1210     1080     1600     1650     1300     1700   
                                           T        V       H0       H01     AOSYM     SMH    MOLCAS    ERIS     OPER   

 PROGRAMS   *        TOTAL       INT
 CPU TIMES  *       153.22    153.12
 REAL TIME  *       172.15 SEC
 DISK USED  *        21.32 GB      
 **********************************************************************************************************************************


 PROGRAM * RHF-SCF (CLOSED SHELL)       Authors: W. Meyer, H.-J. Werner


 NUMBER OF ELECTRONS:       8+    8-
 CONVERGENCE THRESHOLDS:    1.00E-10 (Density)    1.00E-13 (Energy)
 MAX. NUMBER OF ITERATIONS:      500
 INTERPOLATION TYPE:            DIIS
 INTERPOLATION STEPS:              2 (START)      1 (STEP)
 LEVEL SHIFTS:                  0.00 (CLOSED)  0.00 (OPEN) 



 Orbital guess generated from atomic densities. Full valence occupancy:    9   2

 Molecular orbital dump at record        2100.2

 Initial occupancy:   7   1

 ITERATION    DDIFF          GRAD             ENERGY        2-EL.EN.            DIPOLE MOMENTS         DIIS   ORB.
    1      0.000D+00      0.000D+00      -129.79932192    154.056980    0.00000    0.60149   -1.02730    0    start
    2      0.000D+00      0.638D-02      -129.82656101    155.266293    0.00000    0.61119   -0.21178    1    diag
    3      0.398D-02      0.485D-02      -129.84909049    155.396134    0.00000    0.55987   -0.59537    2    diag
    4      0.205D-02      0.770D-03      -129.84989511    155.112763    0.00000    0.56731   -0.53369    3    diag
    5      0.378D-03      0.248D-03      -129.85001941    155.205699    0.00000    0.57242   -0.53613    4    diag
    6      0.155D-03      0.715D-04      -129.85003918    155.189517    0.00000    0.57269   -0.53194    5    diag
    7      0.594D-04      0.357D-04      -129.85004496    155.192256    0.00000    0.57389   -0.52930    6    diag
    8      0.408D-04      0.125D-04      -129.85004562    155.191556    0.00000    0.57393   -0.52828    7    diag
    9      0.158D-04      0.241D-05      -129.85004565    155.191448    0.00000    0.57389   -0.52806    8    diag
   10      0.317D-05      0.544D-06      -129.85004565    155.191431    0.00000    0.57386   -0.52803    9    orth
   11      0.616D-06      0.109D-06      -129.85004565    155.191428    0.00000    0.57386   -0.52803    9    diag
   12      0.114D-06      0.221D-07      -129.85004565    155.191428    0.00000    0.57385   -0.52802    9    diag
   13      0.246D-07      0.579D-08      -129.85004565    155.191428    0.00000    0.57385   -0.52802    9    diag
   14      0.660D-08      0.112D-08      -129.85004565    155.191428    0.00000    0.57385   -0.52802    9    diag
   15      0.120D-08      0.317D-09      -129.85004565    155.191428    0.00000    0.57385   -0.52802    9    diag
   16      0.362D-09      0.953D-10      -129.85004565    155.191428    0.00000    0.57385   -0.52802    9    diag
   17      0.738D-10      0.244D-10      -129.85004565    155.191428    0.00000    0.57385   -0.52802    9    diag
   18      0.220D-10      0.820D-11      -129.85004565    155.191428    0.00000    0.57385   -0.52802    9    diag
   19      0.214D-10      0.199D-11      -129.85004565    155.191428    0.00000    0.57385   -0.52802    9    fixocc
   20      0.119D-10      0.519D-12      -129.85004565    155.191428    0.00000    0.57385   -0.52802    9    orth
   21      0.937D-11      0.383D-12      -129.85004565    155.191428    0.00000    0.57385   -0.52802    9    diag
   22      0.573D-11      0.320D-12      -129.85004565    155.191428    0.00000    0.57385   -0.52802    9    diag
   23      0.518D-11      0.248D-12      -129.85004565    155.191428    0.00000    0.57385   -0.52802    9    diag
   24      0.260D-11      0.355D-12      -129.85004565    155.191428    0.00000    0.57385   -0.52802    9    diag
   25      0.138D-11      0.282D-12      -129.85004565    155.191428    0.00000    0.57385   -0.52802    9    diag
   26      0.179D-12      0.212D-12      -129.85004565    155.191428    0.00000    0.57385   -0.52802    9    diag
   27      0.132D-11      0.296D-12      -129.85004565    155.191428    0.00000    0.57385   -0.52802    9    diag
   28      0.145D-12      0.250D-12      -129.85004565    155.191428    0.00000    0.57385   -0.52802    9    diag
   29      0.147D-11      0.289D-12      -129.85004565    155.191428    0.00000    0.57385   -0.52802    9    diag
   30      0.163D-11      0.270D-12      -129.85004565    155.191428    0.00000    0.57385   -0.52802    9    orth
   31      0.894D-12      0.266D-12      -129.85004565    155.191428    0.00000    0.57385   -0.52802    0    orth

 Final occupancy:   7   1

 !RHF STATE 1.1 Energy               -129.850045651881
 Nuclear energy                        30.40864570
 One-electron energy                 -237.85440517
 Two-electron energy                   77.59571382
 Virial quotient                       -1.00157755
 !RHF STATE 1.1 Dipole moment           0.00000000     0.57385279    -0.52802403
 Dipole moment /Debye                   0.00000000     1.45849278    -1.34201531

 Orbital energies:

         1.1          2.1          3.1          4.1          5.1          6.1          7.1          8.1          9.1
    -20.652740   -15.710800    -1.529509    -0.996917    -0.748307    -0.666137    -0.431130     0.022858     0.065541

         1.2          2.2          3.2
     -0.595950     0.060189     0.091509

 HOMO      7.1    -0.431130 =     -11.7316eV
 LUMO      8.1     0.022858 =       0.6220eV
 LUMO-HOMO         0.453988 =      12.3536eV


 **********************************************************************************************************************************
 DATASETS  * FILE   NREC   LENGTH (MB)   RECORD NAMES
              1      19     6374.22       500      610      700      900      950      970     1000      129      960     1100   
                                          VAR    BASINP    GEOM    SYMINP    ZMAT    AOBASIS   BASIS     P2S    ABASIS      S 
                                         1400     1410     1200     1210     1080     1600     1650     1300     1700   
                                           T        V       H0       H01     AOSYM     SMH    MOLCAS    ERIS     OPER   

              2       4        4.02       700     1000      520     2100   
                                         GEOM     BASIS   MCVARS     RHF  

 PROGRAMS   *        TOTAL        HF       INT
 CPU TIMES  *       291.57    138.35    153.12
 REAL TIME  *       349.74 SEC
 DISK USED  *        21.32 GB      
 **********************************************************************************************************************************


 PROGRAM * CCSD (Closed-shell coupled cluster)     Authors: C. Hampel, H.-J. Werner, 1991, M. Deegan, P.J. Knowles, 1992


 Convergence thresholds:  THRVAR = 1.00D-08  THRDEN = 1.00D-12

 CCSD(T)     terms to be evaluated (factor= 1.000)


 Number of core orbitals:           2 (   2   0 )
 Number of closed-shell orbitals:   6 (   5   1 )
 Number of external orbitals:     326 ( 197 129 )

 Molecular orbitals read from record     2100.2  Type=RHF/CANONICAL (state 1.1)

 Number of N-1 electron functions:               6
 Number of N-2 electron functions:              21
 Number of singly external CSFs:              1114
 Number of doubly external CSFs:            975958
 Total number of CSFs:                      977073

 Length of J-op  integral file:               0.00 MB
 Length of K-op  integral file:               4.07 MB
 Length of 3-ext integral record:             0.00 MB

 Memory could be reduced to 151.33 Mwords without degradation in triples

 Integral transformation finished. Total CPU:  15.31 sec, npass=  1  Memory used:  41.21 MW

 Reference energy:                   -129.85004565

 MP2 singlet pair energy:              -0.31094123
 MP2 triplet pair energy:              -0.17186940
 MP2 correlation energy:               -0.48281063
 MP2 total energy:                   -130.33285628

 SCS-MP2 correlation energy:           -0.48007044   (PS=  1.200000  PT=  0.333333)
 SCS-MP2 total energy:               -130.33011609

 ITER.      SQ.NORM     CORR.ENERGY   TOTAL ENERGY   ENERGY CHANGE        DEN1      VAR(S)    VAR(P)  DIIS     TIME  TIME/IT
   1      1.12024148    -0.47983911  -130.32988476     0.00297152     0.01954276  0.31D-02  0.32D-02  1  1    27.18    13.18
   2      1.13080566    -0.47973258  -130.32977824     0.00010653    -0.01261886  0.10D-03  0.48D-03  2  2    39.47    13.42
   3      1.13690124    -0.48010750  -130.33015315    -0.00037492    -0.00298127  0.47D-04  0.56D-04  3  3    51.48    13.41
   4      1.13967114    -0.48010698  -130.33015263     0.00000052    -0.00096091  0.43D-05  0.99D-05  4  4    63.42    13.39
   5      1.14078467    -0.48013552  -130.33018117    -0.00002854    -0.00024711  0.11D-05  0.17D-05  5  5    75.34    13.36
   6      1.14113619    -0.48012401  -130.33016967     0.00001151    -0.00004980  0.11D-06  0.41D-06  6  6    87.26    13.34
   7      1.14121027    -0.48012382  -130.33016947     0.00000020     0.00000354  0.15D-07  0.93D-07  6  1    99.33    13.33
   8      1.14123494    -0.48012388  -130.33016953    -0.00000006    -0.00000298  0.35D-08  0.19D-07  6  2   111.19    13.32
   9      1.14124309    -0.48012335  -130.33016900     0.00000053    -0.00000019  0.23D-08  0.20D-08  6  3   123.27    13.33
  10      1.14123845    -0.48012408  -130.33016974    -0.00000074     0.00000160  0.35D-09  0.32D-09  6  5   135.17    13.32
  11      1.14124040    -0.48012407  -130.33016972     0.00000002    -0.00000037  0.99D-10  0.27D-10  6  4   147.05    13.32
  12      1.14123997    -0.48012414  -130.33016979    -0.00000007     0.00000005  0.18D-10  0.62D-11  6  6   158.99    13.32
  13      1.14123977    -0.48012414  -130.33016979    -0.00000000    -0.00000003  0.29D-11  0.89D-12  6  1   170.78    13.31
  14      1.14123951    -0.48012415  -130.33016980    -0.00000001     0.00000004  0.42D-12  0.16D-12  6  3   182.78    13.31
  15      1.14123944    -0.48012415  -130.33016980    -0.00000000     0.00000001  0.11D-12  0.21D-13  6  2   194.72    13.31
  16      1.14123943    -0.48012415  -130.33016980     0.00000000     0.00000000  0.31D-13  0.80D-14  6  4   206.77    13.32
  17      1.14123943    -0.48012415  -130.33016980    -0.00000000    -0.00000000  0.18D-14  0.10D-14  6  5   218.81    13.34
  18      1.14123943    -0.48012415  -130.33016980     0.00000000    -0.00000000  0.27D-15  0.27D-15  6  6   230.82    13.34
  19      1.14123944    -0.48012415  -130.33016980     0.00000000    -0.00000000  0.49D-16  0.39D-16  6  1   242.79    13.34
  20      1.14123944    -0.48012415  -130.33016980     0.00000000    -0.00000000  0.11D-16  0.57D-17  6  3   254.66    13.34
  21      1.14123944    -0.48012415  -130.33016980    -0.00000000     0.00000000  0.20D-17  0.10D-17  6  2   266.51    13.34
  22      1.14123944    -0.48012415  -130.33016980    -0.00000000     0.00000000  0.38D-18  0.16D-18  6  4   278.40    13.33
  23      1.14123944    -0.48012415  -130.33016980    -0.00000000     0.00000000  0.82D-19  0.43D-19  6  5   290.20    13.33
  24      1.14123944    -0.48012415  -130.33016980    -0.00000000     0.00000000  0.27D-19  0.17D-19  6  6   302.21    13.33
  25      1.14123944    -0.48012415  -130.33016980     0.00000000    -0.00000000  0.19D-19  0.12D-19  6  1   314.11    13.33

 Norm of t1 vector:      0.07582833      S-energy:    -0.00000000      T1 diagnostic:  0.01547839
                                                                       D1 diagnostic:  0.04216297

 Doubles amplitudes (print threshold =  0.500E-01):

         I         J         SYM. A    SYM. B    A         B      T(IJ, AB)

         6         6         2         2         1         1     -0.07915354
         6         6         2         2         1         2      0.05310430
         6         6         2         2         2         1      0.05310430


 Total CPU time for triples:    121.51 sec


 RESULTS
 =======

  Reference energy                   -129.850045651880
  CCSD singlet pair energy             -0.332996549397
  CCSD triplet pair energy             -0.147127602321
  CCSD correlation energy              -0.480124151720

  Triples (T) contribution             -0.022846652955
  Total correlation energy             -0.502970804674

  CCSD total energy                  -130.330169803600
  CCSD[T] energy                     -130.354084366929
  CCSD-T energy                      -130.352640869591
 !CCSD(T) total energy               -130.353016456555

 Timing summary (sec):

 STEP                 CPU(USER)    SYS     CPU(TOT)    WALL
 Transformation         15.39      1.80     17.19     17.21
 CCSD iterations       298.73     34.53    333.26    333.32
 Triples               121.51      2.17    123.68    123.70

 Program statistics:

 Available memory in ccsd:               994999756
 Min. memory needed in ccsd:               3348832
 Max. memory used in ccsd:                 4143652
 Max. memory used in cckext:               8340089 (25 integral passes)



 **********************************************************************************************************************************
 DATASETS  * FILE   NREC   LENGTH (MB)   RECORD NAMES
              1      20     6809.41       500      610      700      900      950      970     1000      129      960     1100   
                                          VAR    BASINP    GEOM    SYMINP    ZMAT    AOBASIS   BASIS     P2S    ABASIS      S 
                                         1400     1410     1200     1210     1080     1600     1650     1300     1700     1380   
                                           T        V       H0       H01     AOSYM     SMH    MOLCAS    ERIS     OPER     JKOP   

              2       4        4.02       700     1000      520     2100   
                                         GEOM     BASIS   MCVARS     RHF  

 PROGRAMS   *        TOTAL   CCSD(T)        HF       INT
 CPU TIMES  *       727.23    435.66    138.35    153.12
 REAL TIME  *       824.02 SEC
 DISK USED  *        21.32 GB      
 **********************************************************************************************************************************

 CCSD(T)/aug-cc-pV5Z energy=   -130.353016456555

        CCSD(T)         HF-SCF  
   -130.35301646   -129.85004565
 **********************************************************************************************************************************
 Molpro calculation terminated
 Variable memory released
