
 Primary working directories    : /tmp/r2666/281879.maple
 Secondary working directories  : /tmp/r2666/281879.maple
 Wavefunction directory         : /ddn/home4/r2666/wfu/
 Main file repository           : /tmp/r2666/281879.maple/

 SHA1      : d5ffa45e93fdbca01ffc919aa182cfdae0147319
 NAME      : 2015.1.35
 ARCHNAME  : linux/x86_64
 FC        : /opt/intel/composer_xe_2015.1.133/bin/intel64/ifort
 BLASLIB   : -Wl,-_start-group /opt/intel/mkl/lib/intel64/libmkl_intel_ilp64.a /opt/intel/mkl/lib/intel64/libmkl_intel_thread.a /opt/intel/mkl/lib/intel64/libmkl_core.a -Wl,-_end-group
 id        : olemiss

 Nodes     nprocs
 cn091        1

 Using customized tuning parameters: mindgm=1; mindgv=20; mindgc=4; mindgr=1; noblas=0; minvec=7
 default implementation of scratch files=df  

 ***,hno CCSD(T)/TZ-F12 QFF
 memory, 995, m;
 gthresh,energy=1.d-12,zero=1.d-22,oneint=1.d-22,twoint=1.d-22;
 gthresh,optgrad=1.d-8,optstep=1.d-8;
 nocompress;
 geomtyp=xyz
 bohr
 geometry={
 3
         34        34
 H        0.0000000000        1.6625065754       -1.9291318417
 N        0.0000000000       -0.1553971036       -1.1480334533
 O        0.0000000000        0.0346583183        1.1265757040
 }
 
 basis=av5z
   {hf,maxit=500;accu,20;}
 {ccsd(t),nocheck,maxit=250;orbital,IGNORE_ERROR;}

 Variables initialized (889), CPU time= 0.00 sec
 Commands  initialized (702), CPU time= 0.00 sec, 572 directives.
 Default parameters read. Elapsed time= 0.07 sec

 Checking input...
 Passed
1


                                         ***  PROGRAM SYSTEM MOLPRO  ***
                                       Copyright, TTI GmbH Stuttgart, 2015
                                    Version 2015.1 linked Jul  9 2018 13:16:40


 **********************************************************************************************************************************
 LABEL *   hno CCSD(T)/TZ-F12 QFF                                                        
  64 bit serial version                                                                  DATE: 04-Mar-20          TIME: 13:20:09  
 **********************************************************************************************************************************

 SHA1:             d5ffa45e93fdbca01ffc919aa182cfdae0147319
 **********************************************************************************************************************************

 THRESHOLDS:

 ZERO    =  1.00D-22  ONEINT  =  1.00D-22  TWOINT  =  1.00D-22  PREFAC  =  1.00D-14  LOCALI  =  1.00D-09  EORDER  =  1.00D-04
 ENERGY  =  1.00D-12  ETEST   =  0.00D+00  EDENS   =  0.00D+00  THRDEDEF=  1.00D-06  GRADIENT=  1.00D-02  STEP    =  1.00D-03
 ORBITAL =  1.00D-05  CIVEC   =  1.00D-05  COEFF   =  1.00D-04  PRINTCI =  5.00D-02  PUNCHCI =  9.90D+01  OPTGRAD =  3.00D-04
 OPTENERG=  1.00D-06  OPTSTEP =  3.00D-04  THRGRAD =  1.00D-10  COMPRESS=  1.00D-11  VARMIN  =  1.00D-07  VARMAX  =  1.00D-03
 THRDOUB =  0.00D+00  THRDIV  =  1.00D-05  THRRED  =  1.00D-07  THRPSP  =  1.00D+00  THRDC   =  1.00D-10  THRCS   =  1.00D-10
 THRNRM  =  1.00D-08  THREQ   =  0.00D+00  THRDE   =  1.00D+00  THRREF  =  1.00D-05  SPARFAC =  1.00D+00  THRDLP  =  1.00D-07
 THRDIA  =  1.00D-10  THRDLS  =  1.00D-07  THRGPS  =  0.00D+00  THRKEX  =  0.00D+00  THRDIS  =  2.00D-01  THRVAR  =  1.00D-10
 THRLOC  =  1.00D-06  THRGAP  =  1.00D-06  THRLOCT = -1.00D+00  THRGAPT = -1.00D+00  THRORB  =  1.00D-06  THRMLTP =  0.00D+00
 THRCPQCI=  1.00D-10  KEXTA   =  0.00D+00  THRCOARS=  0.00D+00  SYMTOL  =  1.00D-06  GRADTOL =  1.00D-06  THROVL  =  1.00D-08
 THRORTH =  1.00D-08  GRID    =  1.00D-06  GRIDMAX =  1.00D-03  DTMAX   =  0.00D+00  THROCCDE=  1.00D-01  THROCCDE=  1.00D-01



 THRESHOLDS:

 ZERO    =  1.00D-22  ONEINT  =  1.00D-22  TWOINT  =  1.00D-22  PREFAC  =  1.00D-14  LOCALI  =  1.00D-09  EORDER  =  1.00D-04
 ENERGY  =  1.00D-12  ETEST   =  0.00D+00  EDENS   =  0.00D+00  THRDEDEF=  1.00D-06  GRADIENT=  1.00D-02  STEP    =  1.00D-03
 ORBITAL =  1.00D-05  CIVEC   =  1.00D-05  COEFF   =  1.00D-04  PRINTCI =  5.00D-02  PUNCHCI =  9.90D+01  OPTGRAD =  1.00D-08
 OPTENERG=  1.00D-06  OPTSTEP =  1.00D-08  THRGRAD =  1.00D-10  COMPRESS=  1.00D-11  VARMIN  =  1.00D-07  VARMAX  =  1.00D-03
 THRDOUB =  0.00D+00  THRDIV  =  1.00D-05  THRRED  =  1.00D-07  THRPSP  =  1.00D+00  THRDC   =  1.00D-10  THRCS   =  1.00D-10
 THRNRM  =  1.00D-08  THREQ   =  0.00D+00  THRDE   =  1.00D+00  THRREF  =  1.00D-05  SPARFAC =  1.00D+00  THRDLP  =  1.00D-07
 THRDIA  =  1.00D-10  THRDLS  =  1.00D-07  THRGPS  =  0.00D+00  THRKEX  =  0.00D+00  THRDIS  =  2.00D-01  THRVAR  =  1.00D-10
 THRLOC  =  1.00D-06  THRGAP  =  1.00D-06  THRLOCT = -1.00D+00  THRGAPT = -1.00D+00  THRORB  =  1.00D-06  THRMLTP =  0.00D+00
 THRCPQCI=  1.00D-10  KEXTA   =  0.00D+00  THRCOARS=  0.00D+00  SYMTOL  =  1.00D-06  GRADTOL =  1.00D-06  THROVL  =  1.00D-08
 THRORTH =  1.00D-08  GRID    =  1.00D-06  GRIDMAX =  1.00D-03  DTMAX   =  0.00D+00  THROCCDE=  1.00D-01  THROCCDE=  1.00D-01



 Input parameters for SORTINT:

 COMPRESS =    0.000000
 C_FINAL  =    1.000000
 DEBUG    =   -1.000000
 C_SORT1  =    0.000000
 C_SEWARD =    0.000000
 THRESH   =    0.000000
 IO       =  molpro                                                          
 SPRI     =    0.000000
 SETTING GEOMTYP        =    XYZ
 ZUNIT=BOHR
 

 Variable memory set to  995000000 words,  buffer space   230000 words

 SETTING BASIS          =    AV5Z


 Recomputing integrals since basis changed


 Using spherical harmonics

 Library entry H      S aug-cc-pV5Z          selected for orbital group  1
 Library entry H      P aug-cc-pV5Z          selected for orbital group  1
 Library entry H      D aug-cc-pV5Z          selected for orbital group  1
 Library entry H      F aug-cc-pV5Z          selected for orbital group  1
 Library entry H      G aug-cc-pV5Z          selected for orbital group  1
 Library entry N      S aug-cc-pV5Z          selected for orbital group  2
 Library entry N      P aug-cc-pV5Z          selected for orbital group  2
 Library entry N      D aug-cc-pV5Z          selected for orbital group  2
 Library entry N      F aug-cc-pV5Z          selected for orbital group  2
 Library entry N      G aug-cc-pV5Z          selected for orbital group  2
 Library entry N      H aug-cc-pV5Z          selected for orbital group  2
 Library entry O      S aug-cc-pV5Z          selected for orbital group  3
 Library entry O      P aug-cc-pV5Z          selected for orbital group  3
 Library entry O      D aug-cc-pV5Z          selected for orbital group  3
 Library entry O      F aug-cc-pV5Z          selected for orbital group  3
 Library entry O      G aug-cc-pV5Z          selected for orbital group  3
 Library entry O      H aug-cc-pV5Z          selected for orbital group  3


 PROGRAM * SEWARD (Integral evaluation for generally contracted gaussian basis sets)     Author: Roland Lindh, 1990

 Geometry written to block  1 of record 700


 Point group  Cs  



 ATOMIC COORDINATES

 NR  ATOM    CHARGE       X              Y              Z

   1  H       1.00    0.000000000    1.662506575   -1.929131842
   2  N       7.00    0.000000000   -0.155397104   -1.148033453
   3  O       8.00    0.000000000    0.034658318    1.126575704

 Bond lengths in Bohr (Angstrom)

 1-2  1.978607712  2-3  2.282535406
     ( 1.047034111)     ( 1.207865720)

 Bond angles

  1-2-3  108.47547239

 NUCLEAR CHARGE:                   16
 NUMBER OF PRIMITIVE AOS:         506
 NUMBER OF SYMMETRY AOS:          371
 NUMBER OF CONTRACTIONS:          334   ( 204A'  + 130A"  )
 NUMBER OF CORE ORBITALS:           2   (   2A'  +   0A"  )
 NUMBER OF VALENCE ORBITALS:        9   (   7A'  +   2A"  )


 NUCLEAR REPULSION ENERGY   30.38259235


 Eigenvalues of metric

         1 0.111E-04 0.171E-04 0.628E-04 0.995E-04 0.105E-03 0.135E-03 0.198E-03 0.223E-03
         2 0.127E-03 0.357E-03 0.112E-02 0.157E-02 0.189E-02 0.251E-02 0.321E-02 0.386E-02


 Contracted 2-electron integrals neglected if value below      1.0D-22

      756977437. INTEGRALS WRITTEN OUT IN  184855 BLOCKS ON RECORD 1290 OF FILE 1


 NUMBER OF SORTED TWO-ELECTRON INTEGRALS:  789027325.     BUFFER LENGTH:  32768
 NUMBER OF SEGMENTS:  25  SEGMENT LENGTH:   31997130      RECORD LENGTH: 524288

 Memory used in sort:      32.55 MW

 SORT1 READ   756977437. AND WROTE   760993321. INTEGRALS IN   2189 RECORDS. CPU TIME:    41.35 SEC, REAL TIME:   235.01 SEC
 SORT2 READ   760993321. AND WROTE   789027325. INTEGRALS IN     25 RECORDS. CPU TIME:    12.19 SEC, REAL TIME:    65.52 SEC

 FILE SIZES:   FILE 1: 12137.5 MBYTE,  FILE 4:  9181.4 MBYTE,   TOTAL:  21318.9 MBYTE

 OPERATOR DM      FOR CENTER  0  COORDINATES:    0.000000    0.000000    0.000000


 **********************************************************************************************************************************
 DATASETS  * FILE   NREC   LENGTH (MB)   RECORD NAMES
              1      19     6374.22       500      610      700      900      950      970     1000      129      960     1100   
                                          VAR    BASINP    GEOM    SYMINP    ZMAT    AOBASIS   BASIS     P2S    ABASIS      S 
                                         1400     1410     1200     1210     1080     1600     1650     1300     1700   
                                           T        V       H0       H01     AOSYM     SMH    MOLCAS    ERIS     OPER   

 PROGRAMS   *        TOTAL       INT
 CPU TIMES  *       164.37    164.31
 REAL TIME  *       438.39 SEC
 DISK USED  *        21.32 GB      
 **********************************************************************************************************************************


 PROGRAM * RHF-SCF (CLOSED SHELL)       Authors: W. Meyer, H.-J. Werner


 NUMBER OF ELECTRONS:       8+    8-
 CONVERGENCE THRESHOLDS:    1.00E-10 (Density)    1.00E-13 (Energy)
 MAX. NUMBER OF ITERATIONS:      500
 INTERPOLATION TYPE:            DIIS
 INTERPOLATION STEPS:              2 (START)      1 (STEP)
 LEVEL SHIFTS:                  0.00 (CLOSED)  0.00 (OPEN) 



 Orbital guess generated from atomic densities. Full valence occupancy:    9   2

 Molecular orbital dump at record        2100.2

 Initial occupancy:   7   1

 ITERATION    DDIFF          GRAD             ENERGY        2-EL.EN.            DIPOLE MOMENTS         DIIS   ORB.
    1      0.000D+00      0.000D+00      -129.79897117    154.005598    0.00000    0.60091   -1.02874    0    start
    2      0.000D+00      0.640D-02      -129.82620099    155.221907    0.00000    0.61064   -0.21089    1    diag
    3      0.399D-02      0.487D-02      -129.84893872    155.350139    0.00000    0.55934   -0.59599    2    diag
    4      0.206D-02      0.770D-03      -129.84974484    155.065947    0.00000    0.56660   -0.53425    3    diag
    5      0.378D-03      0.249D-03      -129.84986997    155.159376    0.00000    0.57180   -0.53674    4    diag
    6      0.156D-03      0.718D-04      -129.84988992    155.143128    0.00000    0.57208   -0.53254    5    diag
    7      0.597D-04      0.358D-04      -129.84989574    155.145891    0.00000    0.57329   -0.52991    6    diag
    8      0.410D-04      0.126D-04      -129.84989641    155.145189    0.00000    0.57334   -0.52888    7    diag
    9      0.158D-04      0.243D-05      -129.84989644    155.145079    0.00000    0.57330   -0.52866    8    diag
   10      0.319D-05      0.550D-06      -129.84989644    155.145061    0.00000    0.57327   -0.52863    9    orth
   11      0.623D-06      0.110D-06      -129.84989644    155.145057    0.00000    0.57326   -0.52863    9    diag
   12      0.116D-06      0.223D-07      -129.84989644    155.145057    0.00000    0.57326   -0.52863    9    diag
   13      0.249D-07      0.585D-08      -129.84989644    155.145057    0.00000    0.57326   -0.52863    9    diag
   14      0.671D-08      0.113D-08      -129.84989644    155.145057    0.00000    0.57326   -0.52863    9    diag
   15      0.123D-08      0.322D-09      -129.84989644    155.145057    0.00000    0.57326   -0.52863    9    diag
   16      0.370D-09      0.968D-10      -129.84989644    155.145057    0.00000    0.57326   -0.52863    9    diag
   17      0.727D-10      0.249D-10      -129.84989644    155.145057    0.00000    0.57326   -0.52863    9    diag
   18      0.233D-10      0.844D-11      -129.84989644    155.145057    0.00000    0.57326   -0.52863    0    orth

 Final occupancy:   7   1

 !RHF STATE 1.1 Energy               -129.849896440377
 Nuclear energy                        30.38259235
 One-electron energy                 -237.80501743
 Two-electron energy                   77.57252864
 Virial quotient                       -1.00164712
 !RHF STATE 1.1 Dipole moment           0.00000000     0.57325983    -0.52862645
 Dipole moment /Debye                   0.00000000     1.45698571    -1.34354642

 Orbital energies:

         1.1          2.1          3.1          4.1          5.1          6.1          7.1          8.1          9.1
    -20.652903   -15.711425    -1.529293    -0.995802    -0.747748    -0.666190    -0.430638     0.022836     0.065540

         1.2          2.2          3.2
     -0.595981     0.060159     0.091547

 HOMO      7.1    -0.430638 =     -11.7183eV
 LUMO      8.1     0.022836 =       0.6214eV
 LUMO-HOMO         0.453474 =      12.3397eV


 **********************************************************************************************************************************
 DATASETS  * FILE   NREC   LENGTH (MB)   RECORD NAMES
              1      19     6374.22       500      610      700      900      950      970     1000      129      960     1100   
                                          VAR    BASINP    GEOM    SYMINP    ZMAT    AOBASIS   BASIS     P2S    ABASIS      S 
                                         1400     1410     1200     1210     1080     1600     1650     1300     1700   
                                           T        V       H0       H01     AOSYM     SMH    MOLCAS    ERIS     OPER   

              2       4        4.02       700     1000      520     2100   
                                         GEOM     BASIS   MCVARS     RHF  

 PROGRAMS   *        TOTAL        HF       INT
 CPU TIMES  *       226.83     62.46    164.31
 REAL TIME  *       520.22 SEC
 DISK USED  *        21.32 GB      
 **********************************************************************************************************************************


 PROGRAM * CCSD (Closed-shell coupled cluster)     Authors: C. Hampel, H.-J. Werner, 1991, M. Deegan, P.J. Knowles, 1992


 Convergence thresholds:  THRVAR = 1.00D-08  THRDEN = 1.00D-12

 CCSD(T)     terms to be evaluated (factor= 1.000)


 Number of core orbitals:           2 (   2   0 )
 Number of closed-shell orbitals:   6 (   5   1 )
 Number of external orbitals:     326 ( 197 129 )

 Molecular orbitals read from record     2100.2  Type=RHF/CANONICAL (state 1.1)

 Number of N-1 electron functions:               6
 Number of N-2 electron functions:              21
 Number of singly external CSFs:              1114
 Number of doubly external CSFs:            975958
 Total number of CSFs:                      977073

 Length of J-op  integral file:               0.00 MB
 Length of K-op  integral file:               4.07 MB
 Length of 3-ext integral record:             0.00 MB

 Memory could be reduced to 151.33 Mwords without degradation in triples

 Integral transformation finished. Total CPU:  12.35 sec, npass=  1  Memory used:  41.21 MW

 Reference energy:                   -129.84989644

 MP2 singlet pair energy:              -0.31105012
 MP2 triplet pair energy:              -0.17193737
 MP2 correlation energy:               -0.48298749
 MP2 total energy:                   -130.33288393

 SCS-MP2 correlation energy:           -0.48024340   (PS=  1.200000  PT=  0.333333)
 SCS-MP2 total energy:               -130.33013984

 ITER.      SQ.NORM     CORR.ENERGY   TOTAL ENERGY   ENERGY CHANGE        DEN1      VAR(S)    VAR(P)  DIIS     TIME  TIME/IT
   1      1.12041449    -0.48000163  -130.32989807     0.00298586     0.01960681  0.32D-02  0.32D-02  1  1    21.89    10.45
   2      1.13101345    -0.47989022  -130.32978666     0.00011142    -0.01264936  0.10D-03  0.49D-03  2  2    31.61    10.66
   3      1.13713963    -0.48026880  -130.33016524    -0.00037858    -0.00299135  0.47D-04  0.56D-04  3  3    41.19    10.73
   4      1.13992185    -0.48026750  -130.33016394     0.00000130    -0.00096527  0.45D-05  0.10D-04  4  4    50.56    10.72
   5      1.14104655    -0.48029635  -130.33019279    -0.00002886    -0.00024946  0.11D-05  0.17D-05  5  5    59.57    10.59
   6      1.14140159    -0.48028479  -130.33018123     0.00001156    -0.00005020  0.11D-06  0.41D-06  6  6    68.83    10.57
   7      1.14147703    -0.48028450  -130.33018095     0.00000029     0.00000343  0.16D-07  0.94D-07  6  1    78.46    10.62
   8      1.14150210    -0.48028456  -130.33018100    -0.00000005    -0.00000303  0.35D-08  0.19D-07  6  2    88.08    10.67
   9      1.14151051    -0.48028401  -130.33018045     0.00000055    -0.00000019  0.23D-08  0.20D-08  6  3    97.65    10.70
  10      1.14150588    -0.48028475  -130.33018119    -0.00000074     0.00000159  0.36D-09  0.33D-09  6  5   107.27    10.72
  11      1.14150783    -0.48028474  -130.33018118     0.00000002    -0.00000036  0.10D-09  0.28D-10  6  4   116.87    10.74
  12      1.14150739    -0.48028480  -130.33018124    -0.00000007     0.00000005  0.18D-10  0.64D-11  6  6   126.52    10.76
  13      1.14150718    -0.48028481  -130.33018125    -0.00000000    -0.00000003  0.31D-11  0.92D-12  6  1   136.14    10.76
  14      1.14150692    -0.48028482  -130.33018126    -0.00000001     0.00000004  0.45D-12  0.17D-12  6  3   145.78    10.77
  15      1.14150684    -0.48028482  -130.33018126    -0.00000000     0.00000001  0.12D-12  0.22D-13  6  2   155.45    10.78
  16      1.14150683    -0.48028482  -130.33018126     0.00000000     0.00000000  0.32D-13  0.85D-14  6  4   165.00    10.78
  17      1.14150683    -0.48028482  -130.33018126    -0.00000000    -0.00000000  0.18D-14  0.11D-14  6  5   174.75    10.79
  18      1.14150683    -0.48028482  -130.33018126     0.00000000    -0.00000000  0.28D-15  0.29D-15  6  6   184.21    10.79
  19      1.14150684    -0.48028482  -130.33018126     0.00000000    -0.00000000  0.51D-16  0.41D-16  6  1   193.80    10.80
  20      1.14150684    -0.48028482  -130.33018126     0.00000000    -0.00000000  0.11D-16  0.60D-17  6  3   203.34    10.80
  21      1.14150684    -0.48028482  -130.33018126    -0.00000000     0.00000000  0.21D-17  0.11D-17  6  2   212.88    10.80
  22      1.14150684    -0.48028482  -130.33018126    -0.00000000     0.00000000  0.38D-18  0.16D-18  6  4   222.45    10.80
  23      1.14150684    -0.48028482  -130.33018126    -0.00000000     0.00000000  0.83D-19  0.43D-19  6  5   232.03    10.80
  24      1.14150684    -0.48028482  -130.33018126    -0.00000000     0.00000000  0.33D-19  0.19D-19  6  6   241.78    10.80
  25      1.14150684    -0.48028482  -130.33018126    -0.00000000     0.00000000  0.16D-19  0.92D-20  6  1   251.32    10.80

 Norm of t1 vector:      0.07610007      S-energy:    -0.00000000      T1 diagnostic:  0.01553386
                                                                       D1 diagnostic:  0.04219801

 Doubles amplitudes (print threshold =  0.500E-01):

         I         J         SYM. A    SYM. B    A         B      T(IJ, AB)

         6         6         2         2         1         1     -0.07917916
         6         6         2         2         1         2      0.05306937
         6         6         2         2         2         1      0.05306937


 Total CPU time for triples:     94.69 sec


 RESULTS
 =======

  Reference energy                   -129.849896440377
  CCSD singlet pair energy             -0.333133565029
  CCSD triplet pair energy             -0.147151256222
  CCSD correlation energy              -0.480284821253

  Triples (T) contribution             -0.022883455048
  Total correlation energy             -0.503168276301

  CCSD total energy                  -130.330181261630
  CCSD[T] energy                     -130.354138996232
  CCSD-T energy                      -130.352687007040
 !CCSD(T) total energy               -130.353064716678

 Timing summary (sec):

 STEP                 CPU(USER)    SYS     CPU(TOT)    WALL
 Transformation         12.41      1.76     14.17     14.59
 CCSD iterations       238.92     31.06    269.98    270.17
 Triples                94.69      1.77     96.46     96.48

 Program statistics:

 Available memory in ccsd:               994999756
 Min. memory needed in ccsd:               3348832
 Max. memory used in ccsd:                 4143652
 Max. memory used in cckext:               8340089 (25 integral passes)



 **********************************************************************************************************************************
 DATASETS  * FILE   NREC   LENGTH (MB)   RECORD NAMES
              1      20     6809.41       500      610      700      900      950      970     1000      129      960     1100   
                                          VAR    BASINP    GEOM    SYMINP    ZMAT    AOBASIS   BASIS     P2S    ABASIS      S 
                                         1400     1410     1200     1210     1080     1600     1650     1300     1700     1380   
                                           T        V       H0       H01     AOSYM     SMH    MOLCAS    ERIS     OPER     JKOP   

              2       4        4.02       700     1000      520     2100   
                                         GEOM     BASIS   MCVARS     RHF  

 PROGRAMS   *        TOTAL   CCSD(T)        HF       INT
 CPU TIMES  *       572.88    346.05     62.46    164.31
 REAL TIME  *       901.90 SEC
 DISK USED  *        21.32 GB      
 **********************************************************************************************************************************

 CCSD(T)/aug-cc-pV5Z energy=   -130.353064716678

        CCSD(T)         HF-SCF  
   -130.35306472   -129.84989644
 **********************************************************************************************************************************
 Molpro calculation terminated
 Variable memory released
