
 Primary working directories    : /tmp/r2666/281863.maple
 Secondary working directories  : /tmp/r2666/281863.maple
 Wavefunction directory         : /ddn/home4/r2666/wfu/
 Main file repository           : /tmp/r2666/281863.maple/

 SHA1      : d5ffa45e93fdbca01ffc919aa182cfdae0147319
 NAME      : 2015.1.35
 ARCHNAME  : linux/x86_64
 FC        : /opt/intel/composer_xe_2015.1.133/bin/intel64/ifort
 BLASLIB   : -Wl,-_start-group /opt/intel/mkl/lib/intel64/libmkl_intel_ilp64.a /opt/intel/mkl/lib/intel64/libmkl_intel_thread.a /opt/intel/mkl/lib/intel64/libmkl_core.a -Wl,-_end-group
 id        : olemiss

 Nodes     nprocs
 cn039        1

 Using customized tuning parameters: mindgm=1; mindgv=20; mindgc=4; mindgr=1; noblas=0; minvec=7
 default implementation of scratch files=df  

 ***,hno CCSD(T)/TZ-F12 QFF
 memory, 995, m;
 gthresh,energy=1.d-12,zero=1.d-22,oneint=1.d-22,twoint=1.d-22;
 gthresh,optgrad=1.d-8,optstep=1.d-8;
 nocompress;
 geomtyp=xyz
 bohr
 geometry={
 3
         18        18
 H        0.0000000000        1.6585473352       -1.9241830682
 N        0.0000000000       -0.1542462744       -1.1551792843
 O        0.0000000000        0.0374667292        1.1287727615
 }
 
 basis=av5z
   {hf,maxit=500;accu,20;}
 {ccsd(t),nocheck,maxit=250;orbital,IGNORE_ERROR;}

 Variables initialized (889), CPU time= 0.01 sec
 Commands  initialized (702), CPU time= 0.01 sec, 572 directives.
 Default parameters read. Elapsed time= 0.07 sec

 Checking input...
 Passed
1


                                         ***  PROGRAM SYSTEM MOLPRO  ***
                                       Copyright, TTI GmbH Stuttgart, 2015
                                    Version 2015.1 linked Jul  9 2018 13:16:40


 **********************************************************************************************************************************
 LABEL *   hno CCSD(T)/TZ-F12 QFF                                                        
  64 bit serial version                                                                  DATE: 04-Mar-20          TIME: 13:19:59  
 **********************************************************************************************************************************

 SHA1:             d5ffa45e93fdbca01ffc919aa182cfdae0147319
 **********************************************************************************************************************************

 THRESHOLDS:

 ZERO    =  1.00D-22  ONEINT  =  1.00D-22  TWOINT  =  1.00D-22  PREFAC  =  1.00D-14  LOCALI  =  1.00D-09  EORDER  =  1.00D-04
 ENERGY  =  1.00D-12  ETEST   =  0.00D+00  EDENS   =  0.00D+00  THRDEDEF=  1.00D-06  GRADIENT=  1.00D-02  STEP    =  1.00D-03
 ORBITAL =  1.00D-05  CIVEC   =  1.00D-05  COEFF   =  1.00D-04  PRINTCI =  5.00D-02  PUNCHCI =  9.90D+01  OPTGRAD =  3.00D-04
 OPTENERG=  1.00D-06  OPTSTEP =  3.00D-04  THRGRAD =  1.00D-10  COMPRESS=  1.00D-11  VARMIN  =  1.00D-07  VARMAX  =  1.00D-03
 THRDOUB =  0.00D+00  THRDIV  =  1.00D-05  THRRED  =  1.00D-07  THRPSP  =  1.00D+00  THRDC   =  1.00D-10  THRCS   =  1.00D-10
 THRNRM  =  1.00D-08  THREQ   =  0.00D+00  THRDE   =  1.00D+00  THRREF  =  1.00D-05  SPARFAC =  1.00D+00  THRDLP  =  1.00D-07
 THRDIA  =  1.00D-10  THRDLS  =  1.00D-07  THRGPS  =  0.00D+00  THRKEX  =  0.00D+00  THRDIS  =  2.00D-01  THRVAR  =  1.00D-10
 THRLOC  =  1.00D-06  THRGAP  =  1.00D-06  THRLOCT = -1.00D+00  THRGAPT = -1.00D+00  THRORB  =  1.00D-06  THRMLTP =  0.00D+00
 THRCPQCI=  1.00D-10  KEXTA   =  0.00D+00  THRCOARS=  0.00D+00  SYMTOL  =  1.00D-06  GRADTOL =  1.00D-06  THROVL  =  1.00D-08
 THRORTH =  1.00D-08  GRID    =  1.00D-06  GRIDMAX =  1.00D-03  DTMAX   =  0.00D+00  THROCCDE=  1.00D-01  THROCCDE=  1.00D-01



 THRESHOLDS:

 ZERO    =  1.00D-22  ONEINT  =  1.00D-22  TWOINT  =  1.00D-22  PREFAC  =  1.00D-14  LOCALI  =  1.00D-09  EORDER  =  1.00D-04
 ENERGY  =  1.00D-12  ETEST   =  0.00D+00  EDENS   =  0.00D+00  THRDEDEF=  1.00D-06  GRADIENT=  1.00D-02  STEP    =  1.00D-03
 ORBITAL =  1.00D-05  CIVEC   =  1.00D-05  COEFF   =  1.00D-04  PRINTCI =  5.00D-02  PUNCHCI =  9.90D+01  OPTGRAD =  1.00D-08
 OPTENERG=  1.00D-06  OPTSTEP =  1.00D-08  THRGRAD =  1.00D-10  COMPRESS=  1.00D-11  VARMIN  =  1.00D-07  VARMAX  =  1.00D-03
 THRDOUB =  0.00D+00  THRDIV  =  1.00D-05  THRRED  =  1.00D-07  THRPSP  =  1.00D+00  THRDC   =  1.00D-10  THRCS   =  1.00D-10
 THRNRM  =  1.00D-08  THREQ   =  0.00D+00  THRDE   =  1.00D+00  THRREF  =  1.00D-05  SPARFAC =  1.00D+00  THRDLP  =  1.00D-07
 THRDIA  =  1.00D-10  THRDLS  =  1.00D-07  THRGPS  =  0.00D+00  THRKEX  =  0.00D+00  THRDIS  =  2.00D-01  THRVAR  =  1.00D-10
 THRLOC  =  1.00D-06  THRGAP  =  1.00D-06  THRLOCT = -1.00D+00  THRGAPT = -1.00D+00  THRORB  =  1.00D-06  THRMLTP =  0.00D+00
 THRCPQCI=  1.00D-10  KEXTA   =  0.00D+00  THRCOARS=  0.00D+00  SYMTOL  =  1.00D-06  GRADTOL =  1.00D-06  THROVL  =  1.00D-08
 THRORTH =  1.00D-08  GRID    =  1.00D-06  GRIDMAX =  1.00D-03  DTMAX   =  0.00D+00  THROCCDE=  1.00D-01  THROCCDE=  1.00D-01



 Input parameters for SORTINT:

 COMPRESS =    0.000000
 C_FINAL  =    1.000000
 DEBUG    =   -1.000000
 C_SORT1  =    0.000000
 C_SEWARD =    0.000000
 THRESH   =    0.000000
 IO       =  molpro                                                          
 SPRI     =    0.000000
 SETTING GEOMTYP        =    XYZ
 ZUNIT=BOHR
 

 Variable memory set to  995000000 words,  buffer space   230000 words

 SETTING BASIS          =    AV5Z


 Recomputing integrals since basis changed


 Using spherical harmonics

 Library entry H      S aug-cc-pV5Z          selected for orbital group  1
 Library entry H      P aug-cc-pV5Z          selected for orbital group  1
 Library entry H      D aug-cc-pV5Z          selected for orbital group  1
 Library entry H      F aug-cc-pV5Z          selected for orbital group  1
 Library entry H      G aug-cc-pV5Z          selected for orbital group  1
 Library entry N      S aug-cc-pV5Z          selected for orbital group  2
 Library entry N      P aug-cc-pV5Z          selected for orbital group  2
 Library entry N      D aug-cc-pV5Z          selected for orbital group  2
 Library entry N      F aug-cc-pV5Z          selected for orbital group  2
 Library entry N      G aug-cc-pV5Z          selected for orbital group  2
 Library entry N      H aug-cc-pV5Z          selected for orbital group  2
 Library entry O      S aug-cc-pV5Z          selected for orbital group  3
 Library entry O      P aug-cc-pV5Z          selected for orbital group  3
 Library entry O      D aug-cc-pV5Z          selected for orbital group  3
 Library entry O      F aug-cc-pV5Z          selected for orbital group  3
 Library entry O      G aug-cc-pV5Z          selected for orbital group  3
 Library entry O      H aug-cc-pV5Z          selected for orbital group  3


 PROGRAM * SEWARD (Integral evaluation for generally contracted gaussian basis sets)     Author: Roland Lindh, 1990

 Geometry written to block  1 of record 700


 Point group  Cs  



 ATOMIC COORDINATES

 NR  ATOM    CHARGE       X              Y              Z

   1  H       1.00    0.000000000    1.658547335   -1.924183068
   2  N       7.00    0.000000000   -0.154246274   -1.155179284
   3  O       8.00    0.000000000    0.037466729    1.128772762

 Bond lengths in Bohr (Angstrom)

 1-2  1.969159082  2-3  2.291984036
     ( 1.042034111)     ( 1.212865720)

 Bond angles

  1-2-3  108.18899349

 NUCLEAR CHARGE:                   16
 NUMBER OF PRIMITIVE AOS:         506
 NUMBER OF SYMMETRY AOS:          371
 NUMBER OF CONTRACTIONS:          334   ( 204A'  + 130A"  )
 NUMBER OF CORE ORBITALS:           2   (   2A'  +   0A"  )
 NUMBER OF VALENCE ORBITALS:        9   (   7A'  +   2A"  )


 NUCLEAR REPULSION ENERGY   30.30217518


 Eigenvalues of metric

         1 0.111E-04 0.172E-04 0.626E-04 0.100E-03 0.106E-03 0.137E-03 0.198E-03 0.223E-03
         2 0.129E-03 0.351E-03 0.113E-02 0.161E-02 0.186E-02 0.255E-02 0.317E-02 0.383E-02


 Contracted 2-electron integrals neglected if value below      1.0D-22

      756977388. INTEGRALS WRITTEN OUT IN  184855 BLOCKS ON RECORD 1290 OF FILE 1


 NUMBER OF SORTED TWO-ELECTRON INTEGRALS:  789027325.     BUFFER LENGTH:  32768
 NUMBER OF SEGMENTS:  25  SEGMENT LENGTH:   31997130      RECORD LENGTH: 524288

 Memory used in sort:      32.55 MW

 SORT1 READ   756977388. AND WROTE   760993276. INTEGRALS IN   2189 RECORDS. CPU TIME:    28.61 SEC, REAL TIME:    39.52 SEC
 SORT2 READ   760993276. AND WROTE   789027325. INTEGRALS IN     25 RECORDS. CPU TIME:    12.80 SEC, REAL TIME:    28.46 SEC

 FILE SIZES:   FILE 1: 12137.5 MBYTE,  FILE 4:  9181.4 MBYTE,   TOTAL:  21318.9 MBYTE

 OPERATOR DM      FOR CENTER  0  COORDINATES:    0.000000    0.000000    0.000000


 **********************************************************************************************************************************
 DATASETS  * FILE   NREC   LENGTH (MB)   RECORD NAMES
              1      19     6374.22       500      610      700      900      950      970     1000      129      960     1100   
                                          VAR    BASINP    GEOM    SYMINP    ZMAT    AOBASIS   BASIS     P2S    ABASIS      S 
                                         1400     1410     1200     1210     1080     1600     1650     1300     1700   
                                           T        V       H0       H01     AOSYM     SMH    MOLCAS    ERIS     OPER   

 PROGRAMS   *        TOTAL       INT
 CPU TIMES  *       167.16    167.05
 REAL TIME  *       203.31 SEC
 DISK USED  *        21.32 GB      
 **********************************************************************************************************************************


 PROGRAM * RHF-SCF (CLOSED SHELL)       Authors: W. Meyer, H.-J. Werner


 NUMBER OF ELECTRONS:       8+    8-
 CONVERGENCE THRESHOLDS:    1.00E-10 (Density)    1.00E-13 (Energy)
 MAX. NUMBER OF ITERATIONS:      500
 INTERPOLATION TYPE:            DIIS
 INTERPOLATION STEPS:              2 (START)      1 (STEP)
 LEVEL SHIFTS:                  0.00 (CLOSED)  0.00 (OPEN) 



 Orbital guess generated from atomic densities. Full valence occupancy:    9   2

 Molecular orbital dump at record        2100.2

 Initial occupancy:   7   1

 ITERATION    DDIFF          GRAD             ENERGY        2-EL.EN.            DIPOLE MOMENTS         DIIS   ORB.
    1      0.000D+00      0.000D+00      -129.79786523    153.865554    0.00000    0.60358   -1.04330    0    start
    2      0.000D+00      0.642D-02      -129.82494201    155.065214    0.00000    0.61414   -0.20921    1    diag
    3      0.402D-02      0.493D-02      -129.84830781    155.206397    0.00000    0.56205   -0.60275    2    diag
    4      0.208D-02      0.774D-03      -129.84912397    154.919079    0.00000    0.56937   -0.54020    3    diag
    5      0.381D-03      0.250D-03      -129.84925030    155.012498    0.00000    0.57449   -0.54255    4    diag
    6      0.157D-03      0.721D-04      -129.84927042    154.996248    0.00000    0.57473   -0.53827    5    diag
    7      0.600D-04      0.361D-04      -129.84927638    154.998941    0.00000    0.57592   -0.53556    6    diag
    8      0.413D-04      0.129D-04      -129.84927709    154.998222    0.00000    0.57596   -0.53450    7    diag
    9      0.164D-04      0.250D-05      -129.84927712    154.998110    0.00000    0.57592   -0.53427    8    diag
   10      0.333D-05      0.557D-06      -129.84927712    154.998093    0.00000    0.57589   -0.53424    9    orth
   11      0.631D-06      0.111D-06      -129.84927712    154.998089    0.00000    0.57588   -0.53424    9    diag
   12      0.115D-06      0.227D-07      -129.84927712    154.998089    0.00000    0.57588   -0.53424    9    diag
   13      0.248D-07      0.601D-08      -129.84927712    154.998089    0.00000    0.57588   -0.53423    9    diag
   14      0.677D-08      0.116D-08      -129.84927712    154.998089    0.00000    0.57588   -0.53423    9    diag
   15      0.123D-08      0.327D-09      -129.84927712    154.998089    0.00000    0.57588   -0.53423    9    diag
   16      0.369D-09      0.968D-10      -129.84927712    154.998089    0.00000    0.57588   -0.53423    9    diag
   17      0.659D-10      0.242D-10      -129.84927712    154.998089    0.00000    0.57588   -0.53423    9    diag
   18      0.231D-10      0.797D-11      -129.84927712    154.998089    0.00000    0.57588   -0.53423    9    diag
   19      0.279D-10      0.192D-11      -129.84927712    154.998089    0.00000    0.57588   -0.53423    9    fixocc
   20      0.202D-10      0.503D-12      -129.84927712    154.998089    0.00000    0.57588   -0.53423    9    orth
   21      0.667D-11      0.328D-12      -129.84927712    154.998089    0.00000    0.57588   -0.53423    0    orth

 Final occupancy:   7   1

 !RHF STATE 1.1 Energy               -129.849277121031
 Nuclear energy                        30.30217518
 One-electron energy                 -237.65049688
 Two-electron energy                   77.49904457
 Virial quotient                       -1.00172565
 !RHF STATE 1.1 Dipole moment           0.00000000     0.57587965    -0.53423473
 Dipole moment /Debye                   0.00000000     1.46364420    -1.35780029

 Orbital energies:

         1.1          2.1          3.1          4.1          5.1          6.1          7.1          8.1          9.1
    -20.653231   -15.711669    -1.525449    -0.998086    -0.746800    -0.664714    -0.432660     0.022803     0.065533

         1.2          2.2          3.2
     -0.593595     0.059160     0.091072

 HOMO      7.1    -0.432660 =     -11.7733eV
 LUMO      8.1     0.022803 =       0.6205eV
 LUMO-HOMO         0.455463 =      12.3938eV


 **********************************************************************************************************************************
 DATASETS  * FILE   NREC   LENGTH (MB)   RECORD NAMES
              1      19     6374.22       500      610      700      900      950      970     1000      129      960     1100   
                                          VAR    BASINP    GEOM    SYMINP    ZMAT    AOBASIS   BASIS     P2S    ABASIS      S 
                                         1400     1410     1200     1210     1080     1600     1650     1300     1700   
                                           T        V       H0       H01     AOSYM     SMH    MOLCAS    ERIS     OPER   

              2       4        4.02       700     1000      520     2100   
                                         GEOM     BASIS   MCVARS     RHF  

 PROGRAMS   *        TOTAL        HF       INT
 CPU TIMES  *       272.91    105.75    167.05
 REAL TIME  *       337.32 SEC
 DISK USED  *        21.32 GB      
 **********************************************************************************************************************************


 PROGRAM * CCSD (Closed-shell coupled cluster)     Authors: C. Hampel, H.-J. Werner, 1991, M. Deegan, P.J. Knowles, 1992


 Convergence thresholds:  THRVAR = 1.00D-08  THRDEN = 1.00D-12

 CCSD(T)     terms to be evaluated (factor= 1.000)


 Number of core orbitals:           2 (   2   0 )
 Number of closed-shell orbitals:   6 (   5   1 )
 Number of external orbitals:     326 ( 197 129 )

 Molecular orbitals read from record     2100.2  Type=RHF/CANONICAL (state 1.1)

 Number of N-1 electron functions:               6
 Number of N-2 electron functions:              21
 Number of singly external CSFs:              1114
 Number of doubly external CSFs:            975958
 Total number of CSFs:                      977073

 Length of J-op  integral file:               0.00 MB
 Length of K-op  integral file:               4.07 MB
 Length of 3-ext integral record:             0.00 MB

 Memory could be reduced to 151.33 Mwords without degradation in triples

 Integral transformation finished. Total CPU:  17.21 sec, npass=  1  Memory used:  41.21 MW

 Reference energy:                   -129.84927712

 MP2 singlet pair energy:              -0.31144932
 MP2 triplet pair energy:              -0.17221161
 MP2 correlation energy:               -0.48366093
 MP2 total energy:                   -130.33293805

 SCS-MP2 correlation energy:           -0.48089308   (PS=  1.200000  PT=  0.333333)
 SCS-MP2 total energy:               -130.33017020

 ITER.      SQ.NORM     CORR.ENERGY   TOTAL ENERGY   ENERGY CHANGE        DEN1      VAR(S)    VAR(P)  DIIS     TIME  TIME/IT
   1      1.12077783    -0.48048641  -130.32976353     0.00317452     0.01996821  0.32D-02  0.32D-02  1  1    31.06    15.19
   2      1.13147021    -0.48033584  -130.32961296     0.00015057    -0.01275221  0.11D-03  0.49D-03  2  2    45.13    15.43
   3      1.13766188    -0.48071836  -130.32999548    -0.00038252    -0.00301019  0.48D-04  0.57D-04  3  3    59.56    15.64
   4      1.14049109    -0.48071797  -130.32999509     0.00000039    -0.00097654  0.45D-05  0.10D-04  4  4    74.13    15.79
   5      1.14163997    -0.48074742  -130.33002454    -0.00002945    -0.00025449  0.11D-05  0.17D-05  5  5    88.44    15.80
   6      1.14200066    -0.48073540  -130.33001252     0.00001202    -0.00005125  0.11D-06  0.41D-06  6  6   103.11    15.88
   7      1.14207513    -0.48073524  -130.33001236     0.00000016     0.00000381  0.15D-07  0.94D-07  6  1   117.71    15.92
   8      1.14210010    -0.48073524  -130.33001236    -0.00000000    -0.00000307  0.34D-08  0.19D-07  6  2   132.31    15.96
   9      1.14210829    -0.48073469  -130.33001181     0.00000055    -0.00000015  0.23D-08  0.21D-08  6  3   147.06    16.00
  10      1.14210350    -0.48073545  -130.33001257    -0.00000076     0.00000165  0.36D-09  0.35D-09  6  5   161.72    16.03
  11      1.14210557    -0.48073543  -130.33001255     0.00000002    -0.00000040  0.10D-09  0.29D-10  6  4   176.44    16.05
  12      1.14210513    -0.48073550  -130.33001262    -0.00000007     0.00000005  0.18D-10  0.65D-11  6  6   191.16    16.07
  13      1.14210492    -0.48073550  -130.33001262    -0.00000000    -0.00000004  0.30D-11  0.92D-12  6  1   205.89    16.10
  14      1.14210466    -0.48073551  -130.33001263    -0.00000001     0.00000004  0.41D-12  0.17D-12  6  3   220.63    16.12
  15      1.14210458    -0.48073552  -130.33001264    -0.00000000     0.00000001  0.11D-12  0.21D-13  6  2   235.34    16.13
  16      1.14210457    -0.48073551  -130.33001264     0.00000000     0.00000000  0.32D-13  0.80D-14  6  4   249.52    16.11
  17      1.14210457    -0.48073551  -130.33001264    -0.00000000    -0.00000000  0.19D-14  0.10D-14  6  5   264.16    16.13
  18      1.14210458    -0.48073551  -130.33001264     0.00000000    -0.00000000  0.28D-15  0.27D-15  6  6   278.53    16.14
  19      1.14210458    -0.48073551  -130.33001264     0.00000000    -0.00000000  0.49D-16  0.39D-16  6  1   293.21    16.14
  20      1.14210458    -0.48073551  -130.33001264     0.00000000    -0.00000000  0.11D-16  0.58D-17  6  3   307.80    16.15
  21      1.14210458    -0.48073551  -130.33001264    -0.00000000     0.00000000  0.20D-17  0.10D-17  6  2   322.44    16.16
  22      1.14210458    -0.48073551  -130.33001264    -0.00000000     0.00000000  0.34D-18  0.15D-18  6  4   337.04    16.16
  23      1.14210458    -0.48073551  -130.33001264    -0.00000000     0.00000000  0.76D-19  0.42D-19  6  5   351.66    16.16
  24      1.14210458    -0.48073551  -130.33001264    -0.00000000     0.00000000  0.30D-19  0.18D-19  6  6   366.06    16.16
  25      1.14210458    -0.48073551  -130.33001264    -0.00000000     0.00000000  0.15D-19  0.89D-20  6  1   380.96    16.17

 Norm of t1 vector:      0.07666861      S-energy:    -0.00000000      T1 diagnostic:  0.01564991
                                                                       D1 diagnostic:  0.04282121

 Doubles amplitudes (print threshold =  0.500E-01):

         I         J         SYM. A    SYM. B    A         B      T(IJ, AB)

         6         6         2         2         1         1     -0.08296476
         6         6         2         2         1         2      0.05303793
         6         6         2         2         2         1      0.05303793


 Total CPU time for triples:    138.41 sec


 RESULTS
 =======

  Reference energy                   -129.849277121030
  CCSD singlet pair energy             -0.333526128648
  CCSD triplet pair energy             -0.147209385551
  CCSD correlation energy              -0.480735514201

  Triples (T) contribution             -0.023007930679
  Total correlation energy             -0.503743444879

  CCSD total energy                  -130.330012635231
  CCSD[T] energy                     -130.354110709821
  CCSD-T energy                      -130.352639675864
 !CCSD(T) total energy               -130.353020565910

 Timing summary (sec):

 STEP                 CPU(USER)    SYS     CPU(TOT)    WALL
 Transformation         17.29      2.06     19.35     19.36
 CCSD iterations       363.68     40.55    404.23    404.29
 Triples               138.41      2.40    140.81    140.82

 Program statistics:

 Available memory in ccsd:               994999756
 Min. memory needed in ccsd:               3348832
 Max. memory used in ccsd:                 4143652
 Max. memory used in cckext:               8340089 (25 integral passes)



 **********************************************************************************************************************************
 DATASETS  * FILE   NREC   LENGTH (MB)   RECORD NAMES
              1      20     6809.41       500      610      700      900      950      970     1000      129      960     1100   
                                          VAR    BASINP    GEOM    SYMINP    ZMAT    AOBASIS   BASIS     P2S    ABASIS      S 
                                         1400     1410     1200     1210     1080     1600     1650     1300     1700     1380   
                                           T        V       H0       H01     AOSYM     SMH    MOLCAS    ERIS     OPER     JKOP   

              2       4        4.02       700     1000      520     2100   
                                         GEOM     BASIS   MCVARS     RHF  

 PROGRAMS   *        TOTAL   CCSD(T)        HF       INT
 CPU TIMES  *       792.32    519.41    105.75    167.05
 REAL TIME  *       901.85 SEC
 DISK USED  *        21.32 GB      
 **********************************************************************************************************************************

 CCSD(T)/aug-cc-pV5Z energy=   -130.353020565910

        CCSD(T)         HF-SCF  
   -130.35302057   -129.84927712
 **********************************************************************************************************************************
 Molpro calculation terminated
 Variable memory released
