
 Primary working directories    : /tmp/r2666/281870.maple
 Secondary working directories  : /tmp/r2666/281870.maple
 Wavefunction directory         : /ddn/home4/r2666/wfu/
 Main file repository           : /tmp/r2666/281870.maple/

 SHA1      : d5ffa45e93fdbca01ffc919aa182cfdae0147319
 NAME      : 2015.1.35
 ARCHNAME  : linux/x86_64
 FC        : /opt/intel/composer_xe_2015.1.133/bin/intel64/ifort
 BLASLIB   : -Wl,-_start-group /opt/intel/mkl/lib/intel64/libmkl_intel_ilp64.a /opt/intel/mkl/lib/intel64/libmkl_intel_thread.a /opt/intel/mkl/lib/intel64/libmkl_core.a -Wl,-_end-group
 id        : olemiss

 Nodes     nprocs
 cn094        1

 Using customized tuning parameters: mindgm=1; mindgv=20; mindgc=4; mindgr=1; noblas=0; minvec=7
 default implementation of scratch files=df  

 ***,hno CCSD(T)/TZ-F12 QFF
 memory, 995, m;
 gthresh,energy=1.d-12,zero=1.d-22,oneint=1.d-22,twoint=1.d-22;
 gthresh,optgrad=1.d-8,optstep=1.d-8;
 nocompress;
 geomtyp=xyz
 bohr
 geometry={
 3
         25        25
 H        0.0000000000        1.6610501612       -1.9163303170
 N        0.0000000000       -0.1627036796       -1.1489904923
 O        0.0000000000        0.0434213083        1.1147312183
 }
 
 basis=av5z
   {hf,maxit=500;accu,20;}
 {ccsd(t),nocheck,maxit=250;orbital,IGNORE_ERROR;}

 Variables initialized (889), CPU time= 0.00 sec
 Commands  initialized (702), CPU time= 0.01 sec, 572 directives.
 Default parameters read. Elapsed time= 0.06 sec

 Checking input...
 Passed
1


                                         ***  PROGRAM SYSTEM MOLPRO  ***
                                       Copyright, TTI GmbH Stuttgart, 2015
                                    Version 2015.1 linked Jul  9 2018 13:16:40


 **********************************************************************************************************************************
 LABEL *   hno CCSD(T)/TZ-F12 QFF                                                        
  64 bit serial version                                                                  DATE: 04-Mar-20          TIME: 13:20:09  
 **********************************************************************************************************************************

 SHA1:             d5ffa45e93fdbca01ffc919aa182cfdae0147319
 **********************************************************************************************************************************

 THRESHOLDS:

 ZERO    =  1.00D-22  ONEINT  =  1.00D-22  TWOINT  =  1.00D-22  PREFAC  =  1.00D-14  LOCALI  =  1.00D-09  EORDER  =  1.00D-04
 ENERGY  =  1.00D-12  ETEST   =  0.00D+00  EDENS   =  0.00D+00  THRDEDEF=  1.00D-06  GRADIENT=  1.00D-02  STEP    =  1.00D-03
 ORBITAL =  1.00D-05  CIVEC   =  1.00D-05  COEFF   =  1.00D-04  PRINTCI =  5.00D-02  PUNCHCI =  9.90D+01  OPTGRAD =  3.00D-04
 OPTENERG=  1.00D-06  OPTSTEP =  3.00D-04  THRGRAD =  1.00D-10  COMPRESS=  1.00D-11  VARMIN  =  1.00D-07  VARMAX  =  1.00D-03
 THRDOUB =  0.00D+00  THRDIV  =  1.00D-05  THRRED  =  1.00D-07  THRPSP  =  1.00D+00  THRDC   =  1.00D-10  THRCS   =  1.00D-10
 THRNRM  =  1.00D-08  THREQ   =  0.00D+00  THRDE   =  1.00D+00  THRREF  =  1.00D-05  SPARFAC =  1.00D+00  THRDLP  =  1.00D-07
 THRDIA  =  1.00D-10  THRDLS  =  1.00D-07  THRGPS  =  0.00D+00  THRKEX  =  0.00D+00  THRDIS  =  2.00D-01  THRVAR  =  1.00D-10
 THRLOC  =  1.00D-06  THRGAP  =  1.00D-06  THRLOCT = -1.00D+00  THRGAPT = -1.00D+00  THRORB  =  1.00D-06  THRMLTP =  0.00D+00
 THRCPQCI=  1.00D-10  KEXTA   =  0.00D+00  THRCOARS=  0.00D+00  SYMTOL  =  1.00D-06  GRADTOL =  1.00D-06  THROVL  =  1.00D-08
 THRORTH =  1.00D-08  GRID    =  1.00D-06  GRIDMAX =  1.00D-03  DTMAX   =  0.00D+00  THROCCDE=  1.00D-01  THROCCDE=  1.00D-01



 THRESHOLDS:

 ZERO    =  1.00D-22  ONEINT  =  1.00D-22  TWOINT  =  1.00D-22  PREFAC  =  1.00D-14  LOCALI  =  1.00D-09  EORDER  =  1.00D-04
 ENERGY  =  1.00D-12  ETEST   =  0.00D+00  EDENS   =  0.00D+00  THRDEDEF=  1.00D-06  GRADIENT=  1.00D-02  STEP    =  1.00D-03
 ORBITAL =  1.00D-05  CIVEC   =  1.00D-05  COEFF   =  1.00D-04  PRINTCI =  5.00D-02  PUNCHCI =  9.90D+01  OPTGRAD =  1.00D-08
 OPTENERG=  1.00D-06  OPTSTEP =  1.00D-08  THRGRAD =  1.00D-10  COMPRESS=  1.00D-11  VARMIN  =  1.00D-07  VARMAX  =  1.00D-03
 THRDOUB =  0.00D+00  THRDIV  =  1.00D-05  THRRED  =  1.00D-07  THRPSP  =  1.00D+00  THRDC   =  1.00D-10  THRCS   =  1.00D-10
 THRNRM  =  1.00D-08  THREQ   =  0.00D+00  THRDE   =  1.00D+00  THRREF  =  1.00D-05  SPARFAC =  1.00D+00  THRDLP  =  1.00D-07
 THRDIA  =  1.00D-10  THRDLS  =  1.00D-07  THRGPS  =  0.00D+00  THRKEX  =  0.00D+00  THRDIS  =  2.00D-01  THRVAR  =  1.00D-10
 THRLOC  =  1.00D-06  THRGAP  =  1.00D-06  THRLOCT = -1.00D+00  THRGAPT = -1.00D+00  THRORB  =  1.00D-06  THRMLTP =  0.00D+00
 THRCPQCI=  1.00D-10  KEXTA   =  0.00D+00  THRCOARS=  0.00D+00  SYMTOL  =  1.00D-06  GRADTOL =  1.00D-06  THROVL  =  1.00D-08
 THRORTH =  1.00D-08  GRID    =  1.00D-06  GRIDMAX =  1.00D-03  DTMAX   =  0.00D+00  THROCCDE=  1.00D-01  THROCCDE=  1.00D-01



 Input parameters for SORTINT:

 COMPRESS =    0.000000
 C_FINAL  =    1.000000
 DEBUG    =   -1.000000
 C_SORT1  =    0.000000
 C_SEWARD =    0.000000
 THRESH   =    0.000000
 IO       =  molpro                                                          
 SPRI     =    0.000000
 SETTING GEOMTYP        =    XYZ
 ZUNIT=BOHR
 

 Variable memory set to  995000000 words,  buffer space   230000 words

 SETTING BASIS          =    AV5Z


 Recomputing integrals since basis changed


 Using spherical harmonics

 Library entry H      S aug-cc-pV5Z          selected for orbital group  1
 Library entry H      P aug-cc-pV5Z          selected for orbital group  1
 Library entry H      D aug-cc-pV5Z          selected for orbital group  1
 Library entry H      F aug-cc-pV5Z          selected for orbital group  1
 Library entry H      G aug-cc-pV5Z          selected for orbital group  1
 Library entry N      S aug-cc-pV5Z          selected for orbital group  2
 Library entry N      P aug-cc-pV5Z          selected for orbital group  2
 Library entry N      D aug-cc-pV5Z          selected for orbital group  2
 Library entry N      F aug-cc-pV5Z          selected for orbital group  2
 Library entry N      G aug-cc-pV5Z          selected for orbital group  2
 Library entry N      H aug-cc-pV5Z          selected for orbital group  2
 Library entry O      S aug-cc-pV5Z          selected for orbital group  3
 Library entry O      P aug-cc-pV5Z          selected for orbital group  3
 Library entry O      D aug-cc-pV5Z          selected for orbital group  3
 Library entry O      F aug-cc-pV5Z          selected for orbital group  3
 Library entry O      G aug-cc-pV5Z          selected for orbital group  3
 Library entry O      H aug-cc-pV5Z          selected for orbital group  3


 PROGRAM * SEWARD (Integral evaluation for generally contracted gaussian basis sets)     Author: Roland Lindh, 1990

 Geometry written to block  1 of record 700


 Point group  Cs  



 ATOMIC COORDINATES

 NR  ATOM    CHARGE       X              Y              Z

   1  H       1.00    0.000000000    1.661050161   -1.916330317
   2  N       7.00    0.000000000   -0.162703680   -1.148990492
   3  O       8.00    0.000000000    0.043421308    1.114731218

 Bond lengths in Bohr (Angstrom)

 1-2  1.978607712  2-3  2.273086777
     ( 1.047034111)     ( 1.202865721)

 Bond angles

  1-2-3  107.61603569

 NUCLEAR CHARGE:                   16
 NUMBER OF PRIMITIVE AOS:         506
 NUMBER OF SYMMETRY AOS:          371
 NUMBER OF CONTRACTIONS:          334   ( 204A'  + 130A"  )
 NUMBER OF CORE ORBITALS:           2   (   2A'  +   0A"  )
 NUMBER OF VALENCE ORBITALS:        9   (   7A'  +   2A"  )


 NUCLEAR REPULSION ENERGY   30.50243406


 Eigenvalues of metric

         1 0.111E-04 0.169E-04 0.629E-04 0.979E-04 0.103E-03 0.135E-03 0.198E-03 0.222E-03
         2 0.125E-03 0.357E-03 0.110E-02 0.153E-02 0.188E-02 0.248E-02 0.320E-02 0.384E-02


 Contracted 2-electron integrals neglected if value below      1.0D-22

      756977544. INTEGRALS WRITTEN OUT IN  184855 BLOCKS ON RECORD 1290 OF FILE 1


 NUMBER OF SORTED TWO-ELECTRON INTEGRALS:  789027325.     BUFFER LENGTH:  32768
 NUMBER OF SEGMENTS:  25  SEGMENT LENGTH:   31997130      RECORD LENGTH: 524288

 Memory used in sort:      32.55 MW

 SORT1 READ   756977544. AND WROTE   760993439. INTEGRALS IN   2189 RECORDS. CPU TIME:    23.46 SEC, REAL TIME:    57.36 SEC
 SORT2 READ   760993439. AND WROTE   789027325. INTEGRALS IN     25 RECORDS. CPU TIME:     9.35 SEC, REAL TIME:    19.44 SEC

 FILE SIZES:   FILE 1: 12137.5 MBYTE,  FILE 4:  9181.4 MBYTE,   TOTAL:  21318.9 MBYTE

 OPERATOR DM      FOR CENTER  0  COORDINATES:    0.000000    0.000000    0.000000


 **********************************************************************************************************************************
 DATASETS  * FILE   NREC   LENGTH (MB)   RECORD NAMES
              1      19     6374.22       500      610      700      900      950      970     1000      129      960     1100   
                                          VAR    BASINP    GEOM    SYMINP    ZMAT    AOBASIS   BASIS     P2S    ABASIS      S 
                                         1400     1410     1200     1210     1080     1600     1650     1300     1700   
                                           T        V       H0       H01     AOSYM     SMH    MOLCAS    ERIS     OPER   

 PROGRAMS   *        TOTAL       INT
 CPU TIMES  *       118.00    117.89
 REAL TIME  *       168.75 SEC
 DISK USED  *        21.32 GB      
 **********************************************************************************************************************************


 PROGRAM * RHF-SCF (CLOSED SHELL)       Authors: W. Meyer, H.-J. Werner


 NUMBER OF ELECTRONS:       8+    8-
 CONVERGENCE THRESHOLDS:    1.00E-10 (Density)    1.00E-13 (Energy)
 MAX. NUMBER OF ITERATIONS:      500
 INTERPOLATION TYPE:            DIIS
 INTERPOLATION STEPS:              2 (START)      1 (STEP)
 LEVEL SHIFTS:                  0.00 (CLOSED)  0.00 (OPEN) 



 Orbital guess generated from atomic densities. Full valence occupancy:    9   2

 Molecular orbital dump at record        2100.2

 Initial occupancy:   7   1

 ITERATION    DDIFF          GRAD             ENERGY        2-EL.EN.            DIPOLE MOMENTS         DIIS   ORB.
    1      0.000D+00      0.000D+00      -129.80025493    154.224914    0.00000    0.59133   -1.01079    0    start
    2      0.000D+00      0.637D-02      -129.82764489    155.446254    0.00000    0.60810   -0.20959    1    diag
    3      0.395D-02      0.479D-02      -129.84964128    155.564281    0.00000    0.55375   -0.58512    2    diag
    4      0.203D-02      0.763D-03      -129.85043352    155.284486    0.00000    0.56155   -0.52449    3    diag
    5      0.375D-03      0.247D-03      -129.85055687    155.377172    0.00000    0.56667   -0.52699    4    diag
    6      0.154D-03      0.715D-04      -129.85057655    155.360979    0.00000    0.56696   -0.52288    5    diag
    7      0.593D-04      0.354D-04      -129.85058222    155.363793    0.00000    0.56818   -0.52031    6    diag
    8      0.405D-04      0.123D-04      -129.85058285    155.363103    0.00000    0.56822   -0.51932    7    diag
    9      0.153D-04      0.234D-05      -129.85058288    155.362997    0.00000    0.56819   -0.51910    8    diag
   10      0.303D-05      0.533D-06      -129.85058288    155.362981    0.00000    0.56816   -0.51907    9    orth
   11      0.601D-06      0.108D-06      -129.85058288    155.362977    0.00000    0.56815   -0.51907    9    diag
   12      0.113D-06      0.218D-07      -129.85058288    155.362977    0.00000    0.56815   -0.51907    9    diag
   13      0.248D-07      0.567D-08      -129.85058288    155.362977    0.00000    0.56815   -0.51907    9    diag
   14      0.659D-08      0.110D-08      -129.85058288    155.362977    0.00000    0.56815   -0.51907    9    diag
   15      0.121D-08      0.318D-09      -129.85058288    155.362977    0.00000    0.56815   -0.51907    9    diag
   16      0.361D-09      0.974D-10      -129.85058288    155.362977    0.00000    0.56815   -0.51907    9    diag
   17      0.702D-10      0.261D-10      -129.85058288    155.362977    0.00000    0.56815   -0.51907    9    diag
   18      0.269D-10      0.892D-11      -129.85058288    155.362977    0.00000    0.56815   -0.51907    9    diag
   19      0.299D-10      0.224D-11      -129.85058288    155.362977    0.00000    0.56815   -0.51907    9    fixocc
   20      0.175D-10      0.676D-12      -129.85058288    155.362977    0.00000    0.56815   -0.51907    9    orth
   21      0.127D-10      0.509D-12      -129.85058288    155.362977    0.00000    0.56815   -0.51907    9    diag
   22      0.858D-11      0.322D-12      -129.85058288    155.362977    0.00000    0.56815   -0.51907    9    diag
   23      0.423D-11      0.306D-12      -129.85058288    155.362977    0.00000    0.56815   -0.51907    9    diag
   24      0.208D-11      0.202D-12      -129.85058288    155.362977    0.00000    0.56815   -0.51907    0    orth

 Final occupancy:   7   1

 !RHF STATE 1.1 Energy               -129.850582877307
 Nuclear energy                        30.50243406
 One-electron energy                 -238.03450524
 Two-electron energy                   77.68148831
 Virial quotient                       -1.00146981
 !RHF STATE 1.1 Dipole moment           0.00000000     0.56814649    -0.51907079
 Dipole moment /Debye                   0.00000000     1.44398974    -1.31925994

 Orbital energies:

         1.1          2.1          3.1          4.1          5.1          6.1          7.1          8.1          9.1
    -20.652196   -15.710712    -1.533847    -0.994091    -0.749325    -0.667444    -0.429668     0.022952     0.065558

         1.2          2.2          3.2
     -0.598480     0.061278     0.092063

 HOMO      7.1    -0.429668 =     -11.6919eV
 LUMO      8.1     0.022952 =       0.6246eV
 LUMO-HOMO         0.452621 =      12.3164eV


 **********************************************************************************************************************************
 DATASETS  * FILE   NREC   LENGTH (MB)   RECORD NAMES
              1      19     6374.22       500      610      700      900      950      970     1000      129      960     1100   
                                          VAR    BASINP    GEOM    SYMINP    ZMAT    AOBASIS   BASIS     P2S    ABASIS      S 
                                         1400     1410     1200     1210     1080     1600     1650     1300     1700   
                                           T        V       H0       H01     AOSYM     SMH    MOLCAS    ERIS     OPER   

              2       4        4.02       700     1000      520     2100   
                                         GEOM     BASIS   MCVARS     RHF  

 PROGRAMS   *        TOTAL        HF       INT
 CPU TIMES  *       192.77     74.77    117.89
 REAL TIME  *       265.88 SEC
 DISK USED  *        21.32 GB      
 **********************************************************************************************************************************


 PROGRAM * CCSD (Closed-shell coupled cluster)     Authors: C. Hampel, H.-J. Werner, 1991, M. Deegan, P.J. Knowles, 1992


 Convergence thresholds:  THRVAR = 1.00D-08  THRDEN = 1.00D-12

 CCSD(T)     terms to be evaluated (factor= 1.000)


 Number of core orbitals:           2 (   2   0 )
 Number of closed-shell orbitals:   6 (   5   1 )
 Number of external orbitals:     326 ( 197 129 )

 Molecular orbitals read from record     2100.2  Type=RHF/CANONICAL (state 1.1)

 Number of N-1 electron functions:               6
 Number of N-2 electron functions:              21
 Number of singly external CSFs:              1114
 Number of doubly external CSFs:            975958
 Total number of CSFs:                      977073

 Length of J-op  integral file:               0.00 MB
 Length of K-op  integral file:               4.07 MB
 Length of 3-ext integral record:             0.00 MB

 Memory could be reduced to 151.33 Mwords without degradation in triples

 Integral transformation finished. Total CPU:   9.78 sec, npass=  1  Memory used:  41.21 MW

 Reference energy:                   -129.85058288

 MP2 singlet pair energy:              -0.31054630
 MP2 triplet pair energy:              -0.17159818
 MP2 correlation energy:               -0.48214448
 MP2 total energy:                   -130.33272736

 SCS-MP2 correlation energy:           -0.47942776   (PS=  1.200000  PT=  0.333333)
 SCS-MP2 total energy:               -130.33001064

 ITER.      SQ.NORM     CORR.ENERGY   TOTAL ENERGY   ENERGY CHANGE        DEN1      VAR(S)    VAR(P)  DIIS     TIME  TIME/IT
   1      1.11985817    -0.47936037  -130.32994325     0.00278410     0.01916954  0.31D-02  0.31D-02  1  1    17.47     8.70
   2      1.13031802    -0.47929525  -130.32987813     0.00006512    -0.01250908  0.10D-03  0.48D-03  2  2    25.49     8.81
   3      1.13633580    -0.47966445  -130.33024732    -0.00036919    -0.00296154  0.45D-04  0.55D-04  3  3    33.46     8.87
   4      1.13904976    -0.47966341  -130.33024629     0.00000103    -0.00094745  0.42D-05  0.96D-05  4  4    41.42     8.89
   5      1.14012922    -0.47969126  -130.33027414    -0.00002785    -0.00024033  0.11D-05  0.16D-05  5  5    49.48     8.90
   6      1.14047092    -0.47968024  -130.33026312     0.00001102    -0.00004833  0.11D-06  0.40D-06  6  6    57.56     8.91
   7      1.14054434    -0.47967994  -130.33026282     0.00000031     0.00000324  0.16D-07  0.90D-07  6  1    65.44     8.92
   8      1.14056869    -0.47968002  -130.33026289    -0.00000008    -0.00000290  0.35D-08  0.18D-07  6  2    73.50     8.92
   9      1.14057681    -0.47967950  -130.33026238     0.00000052    -0.00000022  0.21D-08  0.19D-08  6  3    81.57     8.93
  10      1.14057239    -0.47968021  -130.33026309    -0.00000071     0.00000154  0.33D-09  0.30D-09  6  5    89.58     8.93
  11      1.14057421    -0.47968020  -130.33026308     0.00000001    -0.00000033  0.93D-10  0.25D-10  6  4    97.48     8.94
  12      1.14057378    -0.47968026  -130.33026314    -0.00000006     0.00000005  0.17D-10  0.58D-11  6  6   105.36     8.94
  13      1.14057358    -0.47968027  -130.33026314    -0.00000000    -0.00000003  0.29D-11  0.85D-12  6  1   113.44     8.94
  14      1.14057334    -0.47968028  -130.33026315    -0.00000001     0.00000004  0.43D-12  0.16D-12  6  3   121.43     8.94
  15      1.14057326    -0.47968028  -130.33026316    -0.00000000     0.00000001  0.11D-12  0.21D-13  6  2   129.47     8.94
  16      1.14057325    -0.47968028  -130.33026316     0.00000000     0.00000000  0.30D-13  0.81D-14  6  4   137.47     8.94
  17      1.14057325    -0.47968028  -130.33026316    -0.00000000    -0.00000000  0.17D-14  0.10D-14  6  5   145.40     8.94
  18      1.14057326    -0.47968028  -130.33026316     0.00000000    -0.00000000  0.26D-15  0.27D-15  6  6   153.43     8.94
  19      1.14057326    -0.47968028  -130.33026316     0.00000000    -0.00000000  0.49D-16  0.38D-16  6  1   161.41     8.94
  20      1.14057326    -0.47968028  -130.33026316     0.00000000    -0.00000000  0.10D-16  0.56D-17  6  3   169.40     8.94
  21      1.14057326    -0.47968028  -130.33026316    -0.00000000     0.00000000  0.19D-17  0.98D-18  6  2   177.43     8.94
  22      1.14057326    -0.47968028  -130.33026316    -0.00000000     0.00000000  0.37D-18  0.15D-18  6  4   185.41     8.94
  23      1.14057326    -0.47968028  -130.33026316    -0.00000000     0.00000000  0.81D-19  0.42D-19  6  5   193.29     8.95
  24      1.14057326    -0.47968028  -130.33026316    -0.00000000     0.00000000  0.25D-19  0.15D-19  6  6   201.25     8.95
  25      1.14057326    -0.47968028  -130.33026316    -0.00000000     0.00000000  0.14D-19  0.82D-20  6  1   209.25     8.95

 Norm of t1 vector:      0.07505617      S-energy:    -0.00000000      T1 diagnostic:  0.01532078
                                                                       D1 diagnostic:  0.04147503

 Doubles amplitudes (print threshold =  0.500E-01):

         I         J         SYM. A    SYM. B    A         B      T(IJ, AB)

         6         6         2         2         1         1     -0.07526606
         6         6         2         2         1         2      0.05299478
         6         6         2         2         2         1      0.05299478


 Total CPU time for triples:     82.94 sec


 RESULTS
 =======

  Reference energy                   -129.850582877306
  CCSD singlet pair energy             -0.332607121368
  CCSD triplet pair energy             -0.147073156598
  CCSD correlation energy              -0.479680277968

  Triples (T) contribution             -0.022714458763
  Total correlation energy             -0.502394736730

  CCSD total energy                  -130.330263155274
  CCSD[T] energy                     -130.354025964867
  CCSD-T energy                      -130.352606190993
 !CCSD(T) total energy               -130.352977614037

 Timing summary (sec):

 STEP                 CPU(USER)    SYS     CPU(TOT)    WALL
 Transformation          9.83      1.43     11.26     11.58
 CCSD iterations       199.42     24.22    223.64    223.66
 Triples                82.94      1.74     84.68     84.68

 Program statistics:

 Available memory in ccsd:               994999756
 Min. memory needed in ccsd:               3348832
 Max. memory used in ccsd:                 4143652
 Max. memory used in cckext:               8340089 (25 integral passes)



 **********************************************************************************************************************************
 DATASETS  * FILE   NREC   LENGTH (MB)   RECORD NAMES
              1      20     6809.41       500      610      700      900      950      970     1000      129      960     1100   
                                          VAR    BASINP    GEOM    SYMINP    ZMAT    AOBASIS   BASIS     P2S    ABASIS      S 
                                         1400     1410     1200     1210     1080     1600     1650     1300     1700     1380   
                                           T        V       H0       H01     AOSYM     SMH    MOLCAS    ERIS     OPER     JKOP   

              2       4        4.02       700     1000      520     2100   
                                         GEOM     BASIS   MCVARS     RHF  

 PROGRAMS   *        TOTAL   CCSD(T)        HF       INT
 CPU TIMES  *       484.99    292.22     74.77    117.89
 REAL TIME  *       585.84 SEC
 DISK USED  *        21.32 GB      
 **********************************************************************************************************************************

 CCSD(T)/aug-cc-pV5Z energy=   -130.352977614037

        CCSD(T)         HF-SCF  
   -130.35297761   -129.85058288
 **********************************************************************************************************************************
 Molpro calculation terminated
 Variable memory released
