
 Primary working directories    : /tmp/r2666/281966.maple
 Secondary working directories  : /tmp/r2666/281966.maple
 Wavefunction directory         : /ddn/home4/r2666/wfu/
 Main file repository           : /tmp/r2666/281966.maple/

 SHA1      : d5ffa45e93fdbca01ffc919aa182cfdae0147319
 NAME      : 2015.1.35
 ARCHNAME  : linux/x86_64
 FC        : /opt/intel/composer_xe_2015.1.133/bin/intel64/ifort
 BLASLIB   : -Wl,-_start-group /opt/intel/mkl/lib/intel64/libmkl_intel_ilp64.a /opt/intel/mkl/lib/intel64/libmkl_intel_thread.a /opt/intel/mkl/lib/intel64/libmkl_core.a -Wl,-_end-group
 id        : olemiss

 Nodes     nprocs
 cn052        1

 Using customized tuning parameters: mindgm=1; mindgv=20; mindgc=4; mindgr=1; noblas=0; minvec=7
 default implementation of scratch files=df  

 ***,hno CCSD(T)/TZ-F12 QFF
 memory, 995, m;
 gthresh,energy=1.d-12,zero=1.d-22,oneint=1.d-22,twoint=1.d-22;
 gthresh,optgrad=1.d-8,optstep=1.d-8;
 nocompress;
 geomtyp=xyz
 bohr
 geometry={
 3
        121       121
 H        0.0000000000        1.6767635949       -1.9385346468
 N        0.0000000000       -0.1677750491       -1.1476238104
 O        0.0000000000        0.0327792442        1.1355688662
 }
 
 basis=av5z
   {hf,maxit=500;accu,20;}
 {ccsd(t),nocheck,maxit=250;orbital,IGNORE_ERROR;}

 Variables initialized (889), CPU time= 0.00 sec
 Commands  initialized (702), CPU time= 0.01 sec, 572 directives.
 Default parameters read. Elapsed time= 0.09 sec

 Checking input...
 Passed
1


                                         ***  PROGRAM SYSTEM MOLPRO  ***
                                       Copyright, TTI GmbH Stuttgart, 2015
                                    Version 2015.1 linked Jul  9 2018 13:16:40


 **********************************************************************************************************************************
 LABEL *   hno CCSD(T)/TZ-F12 QFF                                                        
  64 bit serial version                                                                  DATE: 04-Mar-20          TIME: 13:35:16  
 **********************************************************************************************************************************

 SHA1:             d5ffa45e93fdbca01ffc919aa182cfdae0147319
 **********************************************************************************************************************************

 THRESHOLDS:

 ZERO    =  1.00D-22  ONEINT  =  1.00D-22  TWOINT  =  1.00D-22  PREFAC  =  1.00D-14  LOCALI  =  1.00D-09  EORDER  =  1.00D-04
 ENERGY  =  1.00D-12  ETEST   =  0.00D+00  EDENS   =  0.00D+00  THRDEDEF=  1.00D-06  GRADIENT=  1.00D-02  STEP    =  1.00D-03
 ORBITAL =  1.00D-05  CIVEC   =  1.00D-05  COEFF   =  1.00D-04  PRINTCI =  5.00D-02  PUNCHCI =  9.90D+01  OPTGRAD =  3.00D-04
 OPTENERG=  1.00D-06  OPTSTEP =  3.00D-04  THRGRAD =  1.00D-10  COMPRESS=  1.00D-11  VARMIN  =  1.00D-07  VARMAX  =  1.00D-03
 THRDOUB =  0.00D+00  THRDIV  =  1.00D-05  THRRED  =  1.00D-07  THRPSP  =  1.00D+00  THRDC   =  1.00D-10  THRCS   =  1.00D-10
 THRNRM  =  1.00D-08  THREQ   =  0.00D+00  THRDE   =  1.00D+00  THRREF  =  1.00D-05  SPARFAC =  1.00D+00  THRDLP  =  1.00D-07
 THRDIA  =  1.00D-10  THRDLS  =  1.00D-07  THRGPS  =  0.00D+00  THRKEX  =  0.00D+00  THRDIS  =  2.00D-01  THRVAR  =  1.00D-10
 THRLOC  =  1.00D-06  THRGAP  =  1.00D-06  THRLOCT = -1.00D+00  THRGAPT = -1.00D+00  THRORB  =  1.00D-06  THRMLTP =  0.00D+00
 THRCPQCI=  1.00D-10  KEXTA   =  0.00D+00  THRCOARS=  0.00D+00  SYMTOL  =  1.00D-06  GRADTOL =  1.00D-06  THROVL  =  1.00D-08
 THRORTH =  1.00D-08  GRID    =  1.00D-06  GRIDMAX =  1.00D-03  DTMAX   =  0.00D+00  THROCCDE=  1.00D-01  THROCCDE=  1.00D-01



 THRESHOLDS:

 ZERO    =  1.00D-22  ONEINT  =  1.00D-22  TWOINT  =  1.00D-22  PREFAC  =  1.00D-14  LOCALI  =  1.00D-09  EORDER  =  1.00D-04
 ENERGY  =  1.00D-12  ETEST   =  0.00D+00  EDENS   =  0.00D+00  THRDEDEF=  1.00D-06  GRADIENT=  1.00D-02  STEP    =  1.00D-03
 ORBITAL =  1.00D-05  CIVEC   =  1.00D-05  COEFF   =  1.00D-04  PRINTCI =  5.00D-02  PUNCHCI =  9.90D+01  OPTGRAD =  1.00D-08
 OPTENERG=  1.00D-06  OPTSTEP =  1.00D-08  THRGRAD =  1.00D-10  COMPRESS=  1.00D-11  VARMIN  =  1.00D-07  VARMAX  =  1.00D-03
 THRDOUB =  0.00D+00  THRDIV  =  1.00D-05  THRRED  =  1.00D-07  THRPSP  =  1.00D+00  THRDC   =  1.00D-10  THRCS   =  1.00D-10
 THRNRM  =  1.00D-08  THREQ   =  0.00D+00  THRDE   =  1.00D+00  THRREF  =  1.00D-05  SPARFAC =  1.00D+00  THRDLP  =  1.00D-07
 THRDIA  =  1.00D-10  THRDLS  =  1.00D-07  THRGPS  =  0.00D+00  THRKEX  =  0.00D+00  THRDIS  =  2.00D-01  THRVAR  =  1.00D-10
 THRLOC  =  1.00D-06  THRGAP  =  1.00D-06  THRLOCT = -1.00D+00  THRGAPT = -1.00D+00  THRORB  =  1.00D-06  THRMLTP =  0.00D+00
 THRCPQCI=  1.00D-10  KEXTA   =  0.00D+00  THRCOARS=  0.00D+00  SYMTOL  =  1.00D-06  GRADTOL =  1.00D-06  THROVL  =  1.00D-08
 THRORTH =  1.00D-08  GRID    =  1.00D-06  GRIDMAX =  1.00D-03  DTMAX   =  0.00D+00  THROCCDE=  1.00D-01  THROCCDE=  1.00D-01



 Input parameters for SORTINT:

 COMPRESS =    0.000000
 C_FINAL  =    1.000000
 DEBUG    =   -1.000000
 C_SORT1  =    0.000000
 C_SEWARD =    0.000000
 THRESH   =    0.000000
 IO       =  molpro                                                          
 SPRI     =    0.000000
 SETTING GEOMTYP        =    XYZ
 ZUNIT=BOHR
 

 Variable memory set to  995000000 words,  buffer space   230000 words

 SETTING BASIS          =    AV5Z


 Recomputing integrals since basis changed


 Using spherical harmonics

 Library entry H      S aug-cc-pV5Z          selected for orbital group  1
 Library entry H      P aug-cc-pV5Z          selected for orbital group  1
 Library entry H      D aug-cc-pV5Z          selected for orbital group  1
 Library entry H      F aug-cc-pV5Z          selected for orbital group  1
 Library entry H      G aug-cc-pV5Z          selected for orbital group  1
 Library entry N      S aug-cc-pV5Z          selected for orbital group  2
 Library entry N      P aug-cc-pV5Z          selected for orbital group  2
 Library entry N      D aug-cc-pV5Z          selected for orbital group  2
 Library entry N      F aug-cc-pV5Z          selected for orbital group  2
 Library entry N      G aug-cc-pV5Z          selected for orbital group  2
 Library entry N      H aug-cc-pV5Z          selected for orbital group  2
 Library entry O      S aug-cc-pV5Z          selected for orbital group  3
 Library entry O      P aug-cc-pV5Z          selected for orbital group  3
 Library entry O      D aug-cc-pV5Z          selected for orbital group  3
 Library entry O      F aug-cc-pV5Z          selected for orbital group  3
 Library entry O      G aug-cc-pV5Z          selected for orbital group  3
 Library entry O      H aug-cc-pV5Z          selected for orbital group  3


 PROGRAM * SEWARD (Integral evaluation for generally contracted gaussian basis sets)     Author: Roland Lindh, 1990

 Geometry written to block  1 of record 700


 Point group  Cs  



 ATOMIC COORDINATES

 NR  ATOM    CHARGE       X              Y              Z

   1  H       1.00    0.000000000    1.676763595   -1.938534647
   2  N       7.00    0.000000000   -0.167775049   -1.147623810
   3  O       8.00    0.000000000    0.032779244    1.135568866

 Bond lengths in Bohr (Angstrom)

 1-2  2.006953602  2-3  2.291984036
     ( 1.062034110)     ( 1.212865720)

 Bond angles

  1-2-3  108.18899349

 NUCLEAR CHARGE:                   16
 NUMBER OF PRIMITIVE AOS:         506
 NUMBER OF SYMMETRY AOS:          371
 NUMBER OF CONTRACTIONS:          334   ( 204A'  + 130A"  )
 NUMBER OF CORE ORBITALS:           2   (   2A'  +   0A"  )
 NUMBER OF VALENCE ORBITALS:        9   (   7A'  +   2A"  )


 NUCLEAR REPULSION ENERGY   30.21569042


 Eigenvalues of metric

         1 0.116E-04 0.177E-04 0.651E-04 0.102E-03 0.106E-03 0.139E-03 0.203E-03 0.225E-03
         2 0.129E-03 0.377E-03 0.115E-02 0.162E-02 0.203E-02 0.259E-02 0.338E-02 0.403E-02


 Contracted 2-electron integrals neglected if value below      1.0D-22

      756977488. INTEGRALS WRITTEN OUT IN  184855 BLOCKS ON RECORD 1290 OF FILE 1


 NUMBER OF SORTED TWO-ELECTRON INTEGRALS:  789027325.     BUFFER LENGTH:  32768
 NUMBER OF SEGMENTS:  25  SEGMENT LENGTH:   31997130      RECORD LENGTH: 524288

 Memory used in sort:      32.55 MW

 SORT1 READ   756977488. AND WROTE   760993364. INTEGRALS IN   2189 RECORDS. CPU TIME:    28.72 SEC, REAL TIME:    43.56 SEC
 SORT2 READ   760993364. AND WROTE   789027325. INTEGRALS IN     25 RECORDS. CPU TIME:    13.08 SEC, REAL TIME:    40.54 SEC

 FILE SIZES:   FILE 1: 12137.5 MBYTE,  FILE 4:  9181.4 MBYTE,   TOTAL:  21318.9 MBYTE

 OPERATOR DM      FOR CENTER  0  COORDINATES:    0.000000    0.000000    0.000000


 **********************************************************************************************************************************
 DATASETS  * FILE   NREC   LENGTH (MB)   RECORD NAMES
              1      19     6374.22       500      610      700      900      950      970     1000      129      960     1100   
                                          VAR    BASINP    GEOM    SYMINP    ZMAT    AOBASIS   BASIS     P2S    ABASIS      S 
                                         1400     1410     1200     1210     1080     1600     1650     1300     1700   
                                           T        V       H0       H01     AOSYM     SMH    MOLCAS    ERIS     OPER   

 PROGRAMS   *        TOTAL       INT
 CPU TIMES  *       167.29    167.20
 REAL TIME  *       219.58 SEC
 DISK USED  *        21.32 GB      
 **********************************************************************************************************************************


 PROGRAM * RHF-SCF (CLOSED SHELL)       Authors: W. Meyer, H.-J. Werner


 NUMBER OF ELECTRONS:       8+    8-
 CONVERGENCE THRESHOLDS:    1.00E-10 (Density)    1.00E-13 (Energy)
 MAX. NUMBER OF ITERATIONS:      500
 INTERPOLATION TYPE:            DIIS
 INTERPOLATION STEPS:              2 (START)      1 (STEP)
 LEVEL SHIFTS:                  0.00 (CLOSED)  0.00 (OPEN) 



 Orbital guess generated from atomic densities. Full valence occupancy:    9   2

 Molecular orbital dump at record        2100.2

 Initial occupancy:   7   1

 ITERATION    DDIFF          GRAD             ENERGY        2-EL.EN.            DIPOLE MOMENTS         DIIS   ORB.
    1      0.000D+00      0.000D+00      -129.79617294    153.696776    0.00000    0.59108   -1.04637    0    start
    2      0.000D+00      0.648D-02      -129.82320646    154.919065    0.00000    0.61282   -0.20090    1    diag
    3      0.407D-02      0.502D-02      -129.84752835    155.054796    0.00000    0.55546   -0.60074    2    diag
    4      0.212D-02      0.773D-03      -129.84834775    154.764711    0.00000    0.56264   -0.53825    3    diag
    5      0.381D-03      0.252D-03      -129.84847790    154.859773    0.00000    0.56803   -0.54070    4    diag
    6      0.159D-03      0.735D-04      -129.84849889    154.843229    0.00000    0.56827   -0.53636    5    diag
    7      0.614D-04      0.367D-04      -129.84850506    154.846025    0.00000    0.56952   -0.53366    6    diag
    8      0.421D-04      0.131D-04      -129.84850580    154.845289    0.00000    0.56956   -0.53258    7    diag
    9      0.167D-04      0.257D-05      -129.84850583    154.845169    0.00000    0.56952   -0.53235    8    diag
   10      0.342D-05      0.574D-06      -129.84850584    154.845149    0.00000    0.56949   -0.53232    9    orth
   11      0.653D-06      0.115D-06      -129.84850584    154.845145    0.00000    0.56948   -0.53231    9    diag
   12      0.121D-06      0.235D-07      -129.84850584    154.845145    0.00000    0.56948   -0.53231    9    diag
   13      0.262D-07      0.627D-08      -129.84850584    154.845145    0.00000    0.56948   -0.53231    9    diag
   14      0.724D-08      0.122D-08      -129.84850584    154.845145    0.00000    0.56948   -0.53231    9    diag
   15      0.132D-08      0.345D-09      -129.84850584    154.845145    0.00000    0.56948   -0.53231    9    diag
   16      0.393D-09      0.102D-09      -129.84850584    154.845145    0.00000    0.56948   -0.53231    9    diag
   17      0.753D-10      0.266D-10      -129.84850584    154.845145    0.00000    0.56948   -0.53231    9    diag
   18      0.272D-10      0.905D-11      -129.84850584    154.845145    0.00000    0.56948   -0.53231    9    diag
   19      0.194D-10      0.220D-11      -129.84850584    154.845145    0.00000    0.56948   -0.53231    9    fixocc
   20      0.185D-10      0.571D-12      -129.84850584    154.845145    0.00000    0.56948   -0.53231    9    orth
   21      0.831D-11      0.405D-12      -129.84850584    154.845145    0.00000    0.56948   -0.53231    9    diag
   22      0.616D-11      0.267D-12      -129.84850584    154.845145    0.00000    0.56948   -0.53231    9    diag
   23      0.392D-11      0.377D-12      -129.84850584    154.845145    0.00000    0.56948   -0.53231    0    orth

 Final occupancy:   7   1

 !RHF STATE 1.1 Energy               -129.848505836160
 Nuclear energy                        30.21569042
 One-electron energy                 -237.48676854
 Two-electron energy                   77.42257228
 Virial quotient                       -1.00196357
 !RHF STATE 1.1 Dipole moment           0.00000000     0.56947923    -0.53231244
 Dipole moment /Debye                   0.00000000     1.44737703    -1.35291465

 Orbital energies:

         1.1          2.1          3.1          4.1          5.1          6.1          7.1          8.1          9.1
    -20.653597   -15.714357    -1.525192    -0.993038    -0.744581    -0.664705    -0.431469     0.022793     0.065545

         1.2          2.2          3.2
     -0.593874     0.059206     0.091286

 HOMO      7.1    -0.431469 =     -11.7409eV
 LUMO      8.1     0.022793 =       0.6202eV
 LUMO-HOMO         0.454261 =      12.3611eV


 **********************************************************************************************************************************
 DATASETS  * FILE   NREC   LENGTH (MB)   RECORD NAMES
              1      19     6374.22       500      610      700      900      950      970     1000      129      960     1100   
                                          VAR    BASINP    GEOM    SYMINP    ZMAT    AOBASIS   BASIS     P2S    ABASIS      S 
                                         1400     1410     1200     1210     1080     1600     1650     1300     1700   
                                           T        V       H0       H01     AOSYM     SMH    MOLCAS    ERIS     OPER   

              2       4        4.02       700     1000      520     2100   
                                         GEOM     BASIS   MCVARS     RHF  

 PROGRAMS   *        TOTAL        HF       INT
 CPU TIMES  *       275.42    108.13    167.20
 REAL TIME  *       362.43 SEC
 DISK USED  *        21.32 GB      
 **********************************************************************************************************************************


 PROGRAM * CCSD (Closed-shell coupled cluster)     Authors: C. Hampel, H.-J. Werner, 1991, M. Deegan, P.J. Knowles, 1992


 Convergence thresholds:  THRVAR = 1.00D-08  THRDEN = 1.00D-12

 CCSD(T)     terms to be evaluated (factor= 1.000)


 Number of core orbitals:           2 (   2   0 )
 Number of closed-shell orbitals:   6 (   5   1 )
 Number of external orbitals:     326 ( 197 129 )

 Molecular orbitals read from record     2100.2  Type=RHF/CANONICAL (state 1.1)

 Number of N-1 electron functions:               6
 Number of N-2 electron functions:              21
 Number of singly external CSFs:              1114
 Number of doubly external CSFs:            975958
 Total number of CSFs:                      977073

 Length of J-op  integral file:               0.00 MB
 Length of K-op  integral file:               4.07 MB
 Length of 3-ext integral record:             0.00 MB

 Memory could be reduced to 151.33 Mwords without degradation in triples

 Integral transformation finished. Total CPU:  16.61 sec, npass=  1  Memory used:  41.21 MW

 Reference energy:                   -129.84850584

 MP2 singlet pair energy:              -0.31189133
 MP2 triplet pair energy:              -0.17248575
 MP2 correlation energy:               -0.48437708
 MP2 total energy:                   -130.33288291

 SCS-MP2 correlation energy:           -0.48159406   (PS=  1.200000  PT=  0.333333)
 SCS-MP2 total energy:               -130.33009990

 ITER.      SQ.NORM     CORR.ENERGY   TOTAL ENERGY   ENERGY CHANGE        DEN1      VAR(S)    VAR(P)  DIIS     TIME  TIME/IT
   1      1.12144637    -0.48114666  -130.32965250     0.00323042     0.02020428  0.33D-02  0.33D-02  1  1    29.65    14.47
   2      1.13226307    -0.48098041  -130.32948625     0.00016625    -0.01286428  0.11D-03  0.50D-03  2  2    42.93    14.72
   3      1.13856174    -0.48137550  -130.32988134    -0.00039509    -0.00304975  0.50D-04  0.58D-04  3  3    56.37    14.84
   4      1.14142843    -0.48137248  -130.32987831     0.00000302    -0.00099141  0.49D-05  0.10D-04  4  4    69.73    14.88
   5      1.14260808    -0.48140304  -130.32990888    -0.00003057    -0.00026140  0.12D-05  0.17D-05  5  5    82.99    14.90
   6      1.14297696    -0.48139087  -130.32989671     0.00001218    -0.00005227  0.13D-06  0.40D-06  6  6    96.28    14.93
   7      1.14305476    -0.48139036  -130.32989619     0.00000051     0.00000346  0.19D-07  0.93D-07  6  1   109.68    14.95
   8      1.14308083    -0.48139030  -130.32989614     0.00000005    -0.00000321  0.35D-08  0.20D-07  6  2   123.00    14.96
   9      1.14308975    -0.48138969  -130.32989553     0.00000061    -0.00000014  0.22D-08  0.21D-08  6  3   136.57    15.00
  10      1.14308507    -0.48139045  -130.32989629    -0.00000076     0.00000161  0.36D-09  0.35D-09  6  5   150.41    15.06
  11      1.14308714    -0.48139043  -130.32989627     0.00000002    -0.00000038  0.11D-09  0.30D-10  6  4   164.27    15.10
  12      1.14308669    -0.48139050  -130.32989634    -0.00000007     0.00000005  0.19D-10  0.69D-11  6  6   178.22    15.16
  13      1.14308647    -0.48139050  -130.32989634    -0.00000000    -0.00000004  0.33D-11  0.99D-12  6  1   191.97    15.20
  14      1.14308618    -0.48139052  -130.32989635    -0.00000001     0.00000004  0.47D-12  0.18D-12  6  3   205.77    15.23
  15      1.14308610    -0.48139052  -130.32989636    -0.00000000     0.00000001  0.13D-12  0.25D-13  6  2   219.57    15.25
  16      1.14308608    -0.48139052  -130.32989636     0.00000000     0.00000000  0.35D-13  0.97D-14  6  4   233.38    15.27
  17      1.14308608    -0.48139052  -130.32989636    -0.00000000    -0.00000000  0.20D-14  0.12D-14  6  5   247.49    15.30
  18      1.14308609    -0.48139052  -130.32989636     0.00000000    -0.00000000  0.29D-15  0.32D-15  6  6   261.46    15.31
  19      1.14308610    -0.48139052  -130.32989636     0.00000000    -0.00000000  0.55D-16  0.42D-16  6  1   275.49    15.32
  20      1.14308610    -0.48139052  -130.32989636     0.00000000    -0.00000000  0.12D-16  0.65D-17  6  3   289.45    15.32
  21      1.14308610    -0.48139052  -130.32989636    -0.00000000     0.00000000  0.22D-17  0.12D-17  6  2   303.42    15.33
  22      1.14308610    -0.48139052  -130.32989636    -0.00000000     0.00000000  0.38D-18  0.17D-18  6  4   317.50    15.33
  23      1.14308610    -0.48139052  -130.32989636    -0.00000000     0.00000000  0.87D-19  0.49D-19  6  5   331.38    15.33
  24      1.14308610    -0.48139052  -130.32989636    -0.00000000     0.00000000  0.27D-19  0.17D-19  6  6   345.31    15.33
  25      1.14308610    -0.48139052  -130.32989636    -0.00000000     0.00000000  0.12D-19  0.70D-20  6  1   359.39    15.33

 Norm of t1 vector:      0.07747428      S-energy:    -0.00000000      T1 diagnostic:  0.01581437
                                                                       D1 diagnostic:  0.04286176

 Doubles amplitudes (print threshold =  0.500E-01):

         I         J         SYM. A    SYM. B    A         B      T(IJ, AB)

         6         6         2         2         1         1     -0.08298699
         6         6         2         2         1         2      0.05288575
         6         6         2         2         2         1      0.05288575


 Total CPU time for triples:    139.47 sec


 RESULTS
 =======

  Reference energy                   -129.848505836158
  CCSD singlet pair energy             -0.334081977808
  CCSD triplet pair energy             -0.147308541864
  CCSD correlation energy              -0.481390519675

  Triples (T) contribution             -0.023144490295
  Total correlation energy             -0.504535009969

  CCSD total energy                  -130.329896355833
  CCSD[T] energy                     -130.354151374477
  CCSD-T energy                      -130.352652634146
 !CCSD(T) total energy               -130.353040846128

 Timing summary (sec):

 STEP                 CPU(USER)    SYS     CPU(TOT)    WALL
 Transformation         16.68      2.33     19.01     19.03
 CCSD iterations       342.72     40.52    383.24    383.30
 Triples               139.47      2.47    141.94    141.97

 Program statistics:

 Available memory in ccsd:               994999756
 Min. memory needed in ccsd:               3348832
 Max. memory used in ccsd:                 4143652
 Max. memory used in cckext:               8340089 (25 integral passes)



 **********************************************************************************************************************************
 DATASETS  * FILE   NREC   LENGTH (MB)   RECORD NAMES
              1      20     6809.41       500      610      700      900      950      970     1000      129      960     1100   
                                          VAR    BASINP    GEOM    SYMINP    ZMAT    AOBASIS   BASIS     P2S    ABASIS      S 
                                         1400     1410     1200     1210     1080     1600     1650     1300     1700     1380   
                                           T        V       H0       H01     AOSYM     SMH    MOLCAS    ERIS     OPER     JKOP   

              2       4        4.02       700     1000      520     2100   
                                         GEOM     BASIS   MCVARS     RHF  

 PROGRAMS   *        TOTAL   CCSD(T)        HF       INT
 CPU TIMES  *       774.32    498.89    108.13    167.20
 REAL TIME  *       906.79 SEC
 DISK USED  *        21.32 GB      
 **********************************************************************************************************************************

 CCSD(T)/aug-cc-pV5Z energy=   -130.353040846128

        CCSD(T)         HF-SCF  
   -130.35304085   -129.84850584
 **********************************************************************************************************************************
 Molpro calculation terminated
 Variable memory released
