
 Primary working directories    : /tmp/r2666/281882.maple
 Secondary working directories  : /tmp/r2666/281882.maple
 Wavefunction directory         : /ddn/home4/r2666/wfu/
 Main file repository           : /tmp/r2666/281882.maple/

 SHA1      : d5ffa45e93fdbca01ffc919aa182cfdae0147319
 NAME      : 2015.1.35
 ARCHNAME  : linux/x86_64
 FC        : /opt/intel/composer_xe_2015.1.133/bin/intel64/ifort
 BLASLIB   : -Wl,-_start-group /opt/intel/mkl/lib/intel64/libmkl_intel_ilp64.a /opt/intel/mkl/lib/intel64/libmkl_intel_thread.a /opt/intel/mkl/lib/intel64/libmkl_core.a -Wl,-_end-group
 id        : olemiss

 Nodes     nprocs
 cn091        1

 Using customized tuning parameters: mindgm=1; mindgv=20; mindgc=4; mindgr=1; noblas=0; minvec=7
 default implementation of scratch files=df  

 ***,hno CCSD(T)/TZ-F12 QFF
 memory, 995, m;
 gthresh,energy=1.d-12,zero=1.d-22,oneint=1.d-22,twoint=1.d-22;
 gthresh,optgrad=1.d-8,optstep=1.d-8;
 nocompress;
 geomtyp=xyz
 bohr
 geometry={
 3
         37        37
 H        0.0000000000        1.6626528405       -1.9206412104
 N        0.0000000000       -0.1624103316       -1.1564207603
 O        0.0000000000        0.0415252811        1.1264723797
 }
 
 basis=av5z
   {hf,maxit=500;accu,20;}
 {ccsd(t),nocheck,maxit=250;orbital,IGNORE_ERROR;}

 Variables initialized (889), CPU time= 0.00 sec
 Commands  initialized (702), CPU time= 0.01 sec, 572 directives.
 Default parameters read. Elapsed time= 0.06 sec

 Checking input...
 Passed
1


                                         ***  PROGRAM SYSTEM MOLPRO  ***
                                       Copyright, TTI GmbH Stuttgart, 2015
                                    Version 2015.1 linked Jul  9 2018 13:16:40


 **********************************************************************************************************************************
 LABEL *   hno CCSD(T)/TZ-F12 QFF                                                        
  64 bit serial version                                                                  DATE: 04-Mar-20          TIME: 13:20:09  
 **********************************************************************************************************************************

 SHA1:             d5ffa45e93fdbca01ffc919aa182cfdae0147319
 **********************************************************************************************************************************

 THRESHOLDS:

 ZERO    =  1.00D-22  ONEINT  =  1.00D-22  TWOINT  =  1.00D-22  PREFAC  =  1.00D-14  LOCALI  =  1.00D-09  EORDER  =  1.00D-04
 ENERGY  =  1.00D-12  ETEST   =  0.00D+00  EDENS   =  0.00D+00  THRDEDEF=  1.00D-06  GRADIENT=  1.00D-02  STEP    =  1.00D-03
 ORBITAL =  1.00D-05  CIVEC   =  1.00D-05  COEFF   =  1.00D-04  PRINTCI =  5.00D-02  PUNCHCI =  9.90D+01  OPTGRAD =  3.00D-04
 OPTENERG=  1.00D-06  OPTSTEP =  3.00D-04  THRGRAD =  1.00D-10  COMPRESS=  1.00D-11  VARMIN  =  1.00D-07  VARMAX  =  1.00D-03
 THRDOUB =  0.00D+00  THRDIV  =  1.00D-05  THRRED  =  1.00D-07  THRPSP  =  1.00D+00  THRDC   =  1.00D-10  THRCS   =  1.00D-10
 THRNRM  =  1.00D-08  THREQ   =  0.00D+00  THRDE   =  1.00D+00  THRREF  =  1.00D-05  SPARFAC =  1.00D+00  THRDLP  =  1.00D-07
 THRDIA  =  1.00D-10  THRDLS  =  1.00D-07  THRGPS  =  0.00D+00  THRKEX  =  0.00D+00  THRDIS  =  2.00D-01  THRVAR  =  1.00D-10
 THRLOC  =  1.00D-06  THRGAP  =  1.00D-06  THRLOCT = -1.00D+00  THRGAPT = -1.00D+00  THRORB  =  1.00D-06  THRMLTP =  0.00D+00
 THRCPQCI=  1.00D-10  KEXTA   =  0.00D+00  THRCOARS=  0.00D+00  SYMTOL  =  1.00D-06  GRADTOL =  1.00D-06  THROVL  =  1.00D-08
 THRORTH =  1.00D-08  GRID    =  1.00D-06  GRIDMAX =  1.00D-03  DTMAX   =  0.00D+00  THROCCDE=  1.00D-01  THROCCDE=  1.00D-01



 THRESHOLDS:

 ZERO    =  1.00D-22  ONEINT  =  1.00D-22  TWOINT  =  1.00D-22  PREFAC  =  1.00D-14  LOCALI  =  1.00D-09  EORDER  =  1.00D-04
 ENERGY  =  1.00D-12  ETEST   =  0.00D+00  EDENS   =  0.00D+00  THRDEDEF=  1.00D-06  GRADIENT=  1.00D-02  STEP    =  1.00D-03
 ORBITAL =  1.00D-05  CIVEC   =  1.00D-05  COEFF   =  1.00D-04  PRINTCI =  5.00D-02  PUNCHCI =  9.90D+01  OPTGRAD =  1.00D-08
 OPTENERG=  1.00D-06  OPTSTEP =  1.00D-08  THRGRAD =  1.00D-10  COMPRESS=  1.00D-11  VARMIN  =  1.00D-07  VARMAX  =  1.00D-03
 THRDOUB =  0.00D+00  THRDIV  =  1.00D-05  THRRED  =  1.00D-07  THRPSP  =  1.00D+00  THRDC   =  1.00D-10  THRCS   =  1.00D-10
 THRNRM  =  1.00D-08  THREQ   =  0.00D+00  THRDE   =  1.00D+00  THRREF  =  1.00D-05  SPARFAC =  1.00D+00  THRDLP  =  1.00D-07
 THRDIA  =  1.00D-10  THRDLS  =  1.00D-07  THRGPS  =  0.00D+00  THRKEX  =  0.00D+00  THRDIS  =  2.00D-01  THRVAR  =  1.00D-10
 THRLOC  =  1.00D-06  THRGAP  =  1.00D-06  THRLOCT = -1.00D+00  THRGAPT = -1.00D+00  THRORB  =  1.00D-06  THRMLTP =  0.00D+00
 THRCPQCI=  1.00D-10  KEXTA   =  0.00D+00  THRCOARS=  0.00D+00  SYMTOL  =  1.00D-06  GRADTOL =  1.00D-06  THROVL  =  1.00D-08
 THRORTH =  1.00D-08  GRID    =  1.00D-06  GRIDMAX =  1.00D-03  DTMAX   =  0.00D+00  THROCCDE=  1.00D-01  THROCCDE=  1.00D-01



 Input parameters for SORTINT:

 COMPRESS =    0.000000
 C_FINAL  =    1.000000
 DEBUG    =   -1.000000
 C_SORT1  =    0.000000
 C_SEWARD =    0.000000
 THRESH   =    0.000000
 IO       =  molpro                                                          
 SPRI     =    0.000000
 SETTING GEOMTYP        =    XYZ
 ZUNIT=BOHR
 

 Variable memory set to  995000000 words,  buffer space   230000 words

 SETTING BASIS          =    AV5Z


 Recomputing integrals since basis changed


 Using spherical harmonics

 Library entry H      S aug-cc-pV5Z          selected for orbital group  1
 Library entry H      P aug-cc-pV5Z          selected for orbital group  1
 Library entry H      D aug-cc-pV5Z          selected for orbital group  1
 Library entry H      F aug-cc-pV5Z          selected for orbital group  1
 Library entry H      G aug-cc-pV5Z          selected for orbital group  1
 Library entry N      S aug-cc-pV5Z          selected for orbital group  2
 Library entry N      P aug-cc-pV5Z          selected for orbital group  2
 Library entry N      D aug-cc-pV5Z          selected for orbital group  2
 Library entry N      F aug-cc-pV5Z          selected for orbital group  2
 Library entry N      G aug-cc-pV5Z          selected for orbital group  2
 Library entry N      H aug-cc-pV5Z          selected for orbital group  2
 Library entry O      S aug-cc-pV5Z          selected for orbital group  3
 Library entry O      P aug-cc-pV5Z          selected for orbital group  3
 Library entry O      D aug-cc-pV5Z          selected for orbital group  3
 Library entry O      F aug-cc-pV5Z          selected for orbital group  3
 Library entry O      G aug-cc-pV5Z          selected for orbital group  3
 Library entry O      H aug-cc-pV5Z          selected for orbital group  3


 PROGRAM * SEWARD (Integral evaluation for generally contracted gaussian basis sets)     Author: Roland Lindh, 1990

 Geometry written to block  1 of record 700


 Point group  Cs  



 ATOMIC COORDINATES

 NR  ATOM    CHARGE       X              Y              Z

   1  H       1.00    0.000000000    1.662652841   -1.920641210
   2  N       7.00    0.000000000   -0.162410332   -1.156420760
   3  O       8.00    0.000000000    0.041525281    1.126472380

 Bond lengths in Bohr (Angstrom)

 1-2  1.978607712  2-3  2.291984036
     ( 1.047034111)     ( 1.212865720)

 Bond angles

  1-2-3  107.61603570

 NUCLEAR CHARGE:                   16
 NUMBER OF PRIMITIVE AOS:         506
 NUMBER OF SYMMETRY AOS:          371
 NUMBER OF CONTRACTIONS:          334   ( 204A'  + 130A"  )
 NUMBER OF CORE ORBITALS:           2   (   2A'  +   0A"  )
 NUMBER OF VALENCE ORBITALS:        9   (   7A'  +   2A"  )


 NUCLEAR REPULSION ENERGY   30.28864396


 Eigenvalues of metric

         1 0.112E-04 0.174E-04 0.634E-04 0.101E-03 0.106E-03 0.138E-03 0.200E-03 0.223E-03
         2 0.129E-03 0.358E-03 0.113E-02 0.161E-02 0.190E-02 0.256E-02 0.323E-02 0.388E-02


 Contracted 2-electron integrals neglected if value below      1.0D-22

      756977564. INTEGRALS WRITTEN OUT IN  184855 BLOCKS ON RECORD 1290 OF FILE 1


 NUMBER OF SORTED TWO-ELECTRON INTEGRALS:  789027325.     BUFFER LENGTH:  32768
 NUMBER OF SEGMENTS:  25  SEGMENT LENGTH:   31997130      RECORD LENGTH: 524288

 Memory used in sort:      32.55 MW

 SORT1 READ   756977564. AND WROTE   760993453. INTEGRALS IN   2189 RECORDS. CPU TIME:    41.13 SEC, REAL TIME:   232.64 SEC
 SORT2 READ   760993453. AND WROTE   789027325. INTEGRALS IN     25 RECORDS. CPU TIME:    12.57 SEC, REAL TIME:    66.92 SEC

 FILE SIZES:   FILE 1: 12137.5 MBYTE,  FILE 4:  9181.4 MBYTE,   TOTAL:  21318.9 MBYTE

 OPERATOR DM      FOR CENTER  0  COORDINATES:    0.000000    0.000000    0.000000


 **********************************************************************************************************************************
 DATASETS  * FILE   NREC   LENGTH (MB)   RECORD NAMES
              1      19     6374.22       500      610      700      900      950      970     1000      129      960     1100   
                                          VAR    BASINP    GEOM    SYMINP    ZMAT    AOBASIS   BASIS     P2S    ABASIS      S 
                                         1400     1410     1200     1210     1080     1600     1650     1300     1700   
                                           T        V       H0       H01     AOSYM     SMH    MOLCAS    ERIS     OPER   

 PROGRAMS   *        TOTAL       INT
 CPU TIMES  *       167.08    166.99
 REAL TIME  *       441.41 SEC
 DISK USED  *        21.32 GB      
 **********************************************************************************************************************************


 PROGRAM * RHF-SCF (CLOSED SHELL)       Authors: W. Meyer, H.-J. Werner


 NUMBER OF ELECTRONS:       8+    8-
 CONVERGENCE THRESHOLDS:    1.00E-10 (Density)    1.00E-13 (Energy)
 MAX. NUMBER OF ITERATIONS:      500
 INTERPOLATION TYPE:            DIIS
 INTERPOLATION STEPS:              2 (START)      1 (STEP)
 LEVEL SHIFTS:                  0.00 (CLOSED)  0.00 (OPEN) 



 Orbital guess generated from atomic densities. Full valence occupancy:    9   2

 Molecular orbital dump at record        2100.2

 Initial occupancy:   7   1

 ITERATION    DDIFF          GRAD             ENERGY        2-EL.EN.            DIPOLE MOMENTS         DIIS   ORB.
    1      0.000D+00      0.000D+00      -129.79742256    153.841007    0.00000    0.59553   -1.04294    0    start
    2      0.000D+00      0.644D-02      -129.82450102    155.043256    0.00000    0.61427   -0.20478    1    diag
    3      0.404D-02      0.496D-02      -129.84815872    155.183837    0.00000    0.55822   -0.60004    2    diag
    4      0.209D-02      0.773D-03      -129.84897405    154.896124    0.00000    0.56579   -0.53767    3    diag
    5      0.380D-03      0.251D-03      -129.84910151    154.989771    0.00000    0.57092   -0.53999    4    diag
    6      0.157D-03      0.726D-04      -129.84912191    154.973435    0.00000    0.57116   -0.53569    5    diag
    7      0.604D-04      0.363D-04      -129.84912795    154.976156    0.00000    0.57235   -0.53298    6    diag
    8      0.416D-04      0.130D-04      -129.84912867    154.975429    0.00000    0.57239   -0.53191    7    diag
    9      0.165D-04      0.251D-05      -129.84912870    154.975316    0.00000    0.57236   -0.53167    8    diag
   10      0.335D-05      0.558D-06      -129.84912870    154.975298    0.00000    0.57232   -0.53165    9    orth
   11      0.631D-06      0.111D-06      -129.84912870    154.975295    0.00000    0.57232   -0.53165    9    diag
   12      0.116D-06      0.229D-07      -129.84912870    154.975295    0.00000    0.57231   -0.53164    9    diag
   13      0.252D-07      0.607D-08      -129.84912870    154.975295    0.00000    0.57231   -0.53164    9    diag
   14      0.688D-08      0.117D-08      -129.84912870    154.975294    0.00000    0.57231   -0.53164    9    diag
   15      0.124D-08      0.330D-09      -129.84912870    154.975295    0.00000    0.57231   -0.53164    9    diag
   16      0.375D-09      0.977D-10      -129.84912870    154.975295    0.00000    0.57231   -0.53164    9    diag
   17      0.779D-10      0.248D-10      -129.84912870    154.975295    0.00000    0.57231   -0.53164    9    diag
   18      0.278D-10      0.826D-11      -129.84912870    154.975295    0.00000    0.57231   -0.53164    9    diag
   19      0.218D-10      0.195D-11      -129.84912870    154.975295    0.00000    0.57231   -0.53164    9    fixocc
   20      0.133D-10      0.522D-12      -129.84912870    154.975295    0.00000    0.57231   -0.53164    9    orth
   21      0.104D-10      0.329D-12      -129.84912870    154.975295    0.00000    0.57231   -0.53164    9    diag
   22      0.525D-11      0.320D-12      -129.84912870    154.975295    0.00000    0.57231   -0.53164    9    diag
   23      0.380D-11      0.199D-12      -129.84912870    154.975295    0.00000    0.57231   -0.53164    0    orth

 Final occupancy:   7   1

 !RHF STATE 1.1 Energy               -129.849128702230
 Nuclear energy                        30.28864396
 One-electron energy                 -237.62541992
 Two-electron energy                   77.48764725
 Virial quotient                       -1.00176993
 !RHF STATE 1.1 Dipole moment           0.00000000     0.57231408    -0.53164347
 Dipole moment /Debye                   0.00000000     1.45458202    -1.35121441

 Orbital energies:

         1.1          2.1          3.1          4.1          5.1          6.1          7.1          8.1          9.1
    -20.653170   -15.712443    -1.525672    -0.996431    -0.746272    -0.664597    -0.432744     0.022840     0.065543

         1.2          2.2          3.2
     -0.593734     0.059258     0.091159

 HOMO      7.1    -0.432744 =     -11.7756eV
 LUMO      8.1     0.022840 =       0.6215eV
 LUMO-HOMO         0.455585 =      12.3971eV


 **********************************************************************************************************************************
 DATASETS  * FILE   NREC   LENGTH (MB)   RECORD NAMES
              1      19     6374.22       500      610      700      900      950      970     1000      129      960     1100   
                                          VAR    BASINP    GEOM    SYMINP    ZMAT    AOBASIS   BASIS     P2S    ABASIS      S 
                                         1400     1410     1200     1210     1080     1600     1650     1300     1700   
                                           T        V       H0       H01     AOSYM     SMH    MOLCAS    ERIS     OPER   

              2       4        4.02       700     1000      520     2100   
                                         GEOM     BASIS   MCVARS     RHF  

 PROGRAMS   *        TOTAL        HF       INT
 CPU TIMES  *       246.11     79.03    166.99
 REAL TIME  *       545.03 SEC
 DISK USED  *        21.32 GB      
 **********************************************************************************************************************************


 PROGRAM * CCSD (Closed-shell coupled cluster)     Authors: C. Hampel, H.-J. Werner, 1991, M. Deegan, P.J. Knowles, 1992


 Convergence thresholds:  THRVAR = 1.00D-08  THRDEN = 1.00D-12

 CCSD(T)     terms to be evaluated (factor= 1.000)


 Number of core orbitals:           2 (   2   0 )
 Number of closed-shell orbitals:   6 (   5   1 )
 Number of external orbitals:     326 ( 197 129 )

 Molecular orbitals read from record     2100.2  Type=RHF/CANONICAL (state 1.1)

 Number of N-1 electron functions:               6
 Number of N-2 electron functions:              21
 Number of singly external CSFs:              1114
 Number of doubly external CSFs:            975958
 Total number of CSFs:                      977073

 Length of J-op  integral file:               0.00 MB
 Length of K-op  integral file:               4.07 MB
 Length of 3-ext integral record:             0.00 MB

 Memory could be reduced to 151.33 Mwords without degradation in triples

 Integral transformation finished. Total CPU:  13.59 sec, npass=  1  Memory used:  41.21 MW

 Reference energy:                   -129.84912870

 MP2 singlet pair energy:              -0.31155852
 MP2 triplet pair energy:              -0.17227976
 MP2 correlation energy:               -0.48383827
 MP2 total energy:                   -130.33296697

 SCS-MP2 correlation energy:           -0.48106651   (PS=  1.200000  PT=  0.333333)
 SCS-MP2 total energy:               -130.33019521

 ITER.      SQ.NORM     CORR.ENERGY   TOTAL ENERGY   ENERGY CHANGE        DEN1      VAR(S)    VAR(P)  DIIS     TIME  TIME/IT
   1      1.12092607    -0.48065000  -130.32977871     0.00318827     0.02001447  0.32D-02  0.32D-02  1  1    22.93    10.44
   2      1.13163955    -0.48049784  -130.32962654     0.00015217    -0.01277353  0.11D-03  0.49D-03  2  2    32.30    10.44
   3      1.13784719    -0.48088203  -130.33001073    -0.00038420    -0.00301902  0.48D-04  0.57D-04  3  3    41.30    10.31
   4      1.14067793    -0.48088126  -130.33000996     0.00000078    -0.00097842  0.46D-05  0.10D-04  4  4    50.52    10.33
   5      1.14182634    -0.48091088  -130.33003959    -0.00002963    -0.00025476  0.11D-05  0.17D-05  5  5    60.18    10.45
   6      1.14218580    -0.48089886  -130.33002756     0.00001203    -0.00005117  0.11D-06  0.40D-06  6  6    69.83    10.53
   7      1.14225992    -0.48089862  -130.33002732     0.00000024     0.00000378  0.16D-07  0.93D-07  6  1    79.49    10.58
   8      1.14228484    -0.48089859  -130.33002730     0.00000003    -0.00000308  0.33D-08  0.19D-07  6  2    89.15    10.63
   9      1.14229304    -0.48089804  -130.33002674     0.00000056    -0.00000015  0.22D-08  0.21D-08  6  3    98.81    10.66
  10      1.14228831    -0.48089879  -130.33002749    -0.00000075     0.00000163  0.35D-09  0.34D-09  6  5   108.43    10.68
  11      1.14229037    -0.48089877  -130.33002747     0.00000002    -0.00000039  0.10D-09  0.28D-10  6  4   117.98    10.69
  12      1.14228993    -0.48089884  -130.33002754    -0.00000007     0.00000005  0.18D-10  0.64D-11  6  6   127.56    10.71
  13      1.14228972    -0.48089884  -130.33002754    -0.00000000    -0.00000004  0.30D-11  0.91D-12  6  1   137.15    10.72
  14      1.14228946    -0.48089885  -130.33002755    -0.00000001     0.00000004  0.41D-12  0.17D-12  6  3   146.76    10.73
  15      1.14228939    -0.48089885  -130.33002756    -0.00000000     0.00000001  0.11D-12  0.22D-13  6  2   156.33    10.73
  16      1.14228937    -0.48089885  -130.33002755     0.00000000     0.00000000  0.31D-13  0.82D-14  6  4   166.02    10.74
  17      1.14228937    -0.48089885  -130.33002756    -0.00000000    -0.00000000  0.19D-14  0.10D-14  6  5   175.72    10.75
  18      1.14228938    -0.48089885  -130.33002755     0.00000000    -0.00000000  0.28D-15  0.28D-15  6  6   185.30    10.75
  19      1.14228938    -0.48089885  -130.33002755     0.00000000    -0.00000000  0.49D-16  0.38D-16  6  1   194.93    10.75
  20      1.14228938    -0.48089885  -130.33002755     0.00000000    -0.00000000  0.11D-16  0.57D-17  6  3   204.51    10.76
  21      1.14228938    -0.48089885  -130.33002755    -0.00000000     0.00000000  0.20D-17  0.10D-17  6  2   214.09    10.76
  22      1.14228938    -0.48089885  -130.33002755    -0.00000000     0.00000000  0.35D-18  0.16D-18  6  4   223.56    10.76
  23      1.14228938    -0.48089885  -130.33002755    -0.00000000     0.00000000  0.75D-19  0.43D-19  6  5   233.18    10.76
  24      1.14228938    -0.48089885  -130.33002755    -0.00000000     0.00000000  0.30D-19  0.19D-19  6  6   242.77    10.77
  25      1.14228938    -0.48089885  -130.33002755    -0.00000000     0.00000000  0.13D-19  0.75D-20  6  1   252.35    10.77

 Norm of t1 vector:      0.07671284      S-energy:    -0.00000000      T1 diagnostic:  0.01565894
                                                                       D1 diagnostic:  0.04277945

 Doubles amplitudes (print threshold =  0.500E-01):

         I         J         SYM. A    SYM. B    A         B      T(IJ, AB)

         6         6         2         2         1         1     -0.08293442
         6         6         2         2         1         2      0.05299332
         6         6         2         2         2         1      0.05299332


 Total CPU time for triples:     92.84 sec


 RESULTS
 =======

  Reference energy                   -129.849128702229
  CCSD singlet pair energy             -0.333662351034
  CCSD triplet pair energy             -0.147236501049
  CCSD correlation energy              -0.480898852086

  Triples (T) contribution             -0.023035072083
  Total correlation energy             -0.503933924169

  CCSD total energy                  -130.330027554315
  CCSD[T] energy                     -130.354154844955
  CCSD-T energy                      -130.352680625654
 !CCSD(T) total energy               -130.353062626398

 Timing summary (sec):

 STEP                 CPU(USER)    SYS     CPU(TOT)    WALL
 Transformation         13.65      1.46     15.11     15.47
 CCSD iterations       238.70     30.49    269.19    269.20
 Triples                92.84      1.72     94.56     94.57

 Program statistics:

 Available memory in ccsd:               994999756
 Min. memory needed in ccsd:               3348832
 Max. memory used in ccsd:                 4143652
 Max. memory used in cckext:               8340089 (25 integral passes)



 **********************************************************************************************************************************
 DATASETS  * FILE   NREC   LENGTH (MB)   RECORD NAMES
              1      20     6809.41       500      610      700      900      950      970     1000      129      960     1100   
                                          VAR    BASINP    GEOM    SYMINP    ZMAT    AOBASIS   BASIS     P2S    ABASIS      S 
                                         1400     1410     1200     1210     1080     1600     1650     1300     1700     1380   
                                           T        V       H0       H01     AOSYM     SMH    MOLCAS    ERIS     OPER     JKOP   

              2       4        4.02       700     1000      520     2100   
                                         GEOM     BASIS   MCVARS     RHF  

 PROGRAMS   *        TOTAL   CCSD(T)        HF       INT
 CPU TIMES  *       591.32    345.21     79.03    166.99
 REAL TIME  *       924.37 SEC
 DISK USED  *        21.32 GB      
 **********************************************************************************************************************************

 CCSD(T)/aug-cc-pV5Z energy=   -130.353062626398

        CCSD(T)         HF-SCF  
   -130.35306263   -129.84912870
 **********************************************************************************************************************************
 Molpro calculation terminated
 Variable memory released
