
 Primary working directories    : /tmp/r2666/281908.maple
 Secondary working directories  : /tmp/r2666/281908.maple
 Wavefunction directory         : /ddn/home4/r2666/wfu/
 Main file repository           : /tmp/r2666/281908.maple/

 SHA1      : d5ffa45e93fdbca01ffc919aa182cfdae0147319
 NAME      : 2015.1.35
 ARCHNAME  : linux/x86_64
 FC        : /opt/intel/composer_xe_2015.1.133/bin/intel64/ifort
 BLASLIB   : -Wl,-_start-group /opt/intel/mkl/lib/intel64/libmkl_intel_ilp64.a /opt/intel/mkl/lib/intel64/libmkl_intel_thread.a /opt/intel/mkl/lib/intel64/libmkl_core.a -Wl,-_end-group
 id        : olemiss

 Nodes     nprocs
 cn075        1

 Using customized tuning parameters: mindgm=1; mindgv=20; mindgc=4; mindgr=1; noblas=0; minvec=7
 default implementation of scratch files=df  

 ***,hno CCSD(T)/TZ-F12 QFF
 memory, 995, m;
 gthresh,energy=1.d-12,zero=1.d-22,oneint=1.d-22,twoint=1.d-22;
 gthresh,optgrad=1.d-8,optstep=1.d-8;
 nocompress;
 geomtyp=xyz
 bohr
 geometry={
 3
         63        63
 H        0.0000000000        1.6661752425       -1.9184816923
 N        0.0000000000       -0.1683408953       -1.1523755903
 O        0.0000000000        0.0439334428        1.1202676917
 }
 
 basis=av5z
   {hf,maxit=500;accu,20;}
 {ccsd(t),nocheck,maxit=250;orbital,IGNORE_ERROR;}

 Variables initialized (889), CPU time= 0.00 sec
 Commands  initialized (702), CPU time= 0.02 sec, 572 directives.
 Default parameters read. Elapsed time= 0.10 sec

 Checking input...
 Passed
1


                                         ***  PROGRAM SYSTEM MOLPRO  ***
                                       Copyright, TTI GmbH Stuttgart, 2015
                                    Version 2015.1 linked Jul  9 2018 13:16:40


 **********************************************************************************************************************************
 LABEL *   hno CCSD(T)/TZ-F12 QFF                                                        
  64 bit serial version                                                                  DATE: 04-Mar-20          TIME: 13:20:09  
 **********************************************************************************************************************************

 SHA1:             d5ffa45e93fdbca01ffc919aa182cfdae0147319
 **********************************************************************************************************************************

 THRESHOLDS:

 ZERO    =  1.00D-22  ONEINT  =  1.00D-22  TWOINT  =  1.00D-22  PREFAC  =  1.00D-14  LOCALI  =  1.00D-09  EORDER  =  1.00D-04
 ENERGY  =  1.00D-12  ETEST   =  0.00D+00  EDENS   =  0.00D+00  THRDEDEF=  1.00D-06  GRADIENT=  1.00D-02  STEP    =  1.00D-03
 ORBITAL =  1.00D-05  CIVEC   =  1.00D-05  COEFF   =  1.00D-04  PRINTCI =  5.00D-02  PUNCHCI =  9.90D+01  OPTGRAD =  3.00D-04
 OPTENERG=  1.00D-06  OPTSTEP =  3.00D-04  THRGRAD =  1.00D-10  COMPRESS=  1.00D-11  VARMIN  =  1.00D-07  VARMAX  =  1.00D-03
 THRDOUB =  0.00D+00  THRDIV  =  1.00D-05  THRRED  =  1.00D-07  THRPSP  =  1.00D+00  THRDC   =  1.00D-10  THRCS   =  1.00D-10
 THRNRM  =  1.00D-08  THREQ   =  0.00D+00  THRDE   =  1.00D+00  THRREF  =  1.00D-05  SPARFAC =  1.00D+00  THRDLP  =  1.00D-07
 THRDIA  =  1.00D-10  THRDLS  =  1.00D-07  THRGPS  =  0.00D+00  THRKEX  =  0.00D+00  THRDIS  =  2.00D-01  THRVAR  =  1.00D-10
 THRLOC  =  1.00D-06  THRGAP  =  1.00D-06  THRLOCT = -1.00D+00  THRGAPT = -1.00D+00  THRORB  =  1.00D-06  THRMLTP =  0.00D+00
 THRCPQCI=  1.00D-10  KEXTA   =  0.00D+00  THRCOARS=  0.00D+00  SYMTOL  =  1.00D-06  GRADTOL =  1.00D-06  THROVL  =  1.00D-08
 THRORTH =  1.00D-08  GRID    =  1.00D-06  GRIDMAX =  1.00D-03  DTMAX   =  0.00D+00  THROCCDE=  1.00D-01  THROCCDE=  1.00D-01



 THRESHOLDS:

 ZERO    =  1.00D-22  ONEINT  =  1.00D-22  TWOINT  =  1.00D-22  PREFAC  =  1.00D-14  LOCALI  =  1.00D-09  EORDER  =  1.00D-04
 ENERGY  =  1.00D-12  ETEST   =  0.00D+00  EDENS   =  0.00D+00  THRDEDEF=  1.00D-06  GRADIENT=  1.00D-02  STEP    =  1.00D-03
 ORBITAL =  1.00D-05  CIVEC   =  1.00D-05  COEFF   =  1.00D-04  PRINTCI =  5.00D-02  PUNCHCI =  9.90D+01  OPTGRAD =  1.00D-08
 OPTENERG=  1.00D-06  OPTSTEP =  1.00D-08  THRGRAD =  1.00D-10  COMPRESS=  1.00D-11  VARMIN  =  1.00D-07  VARMAX  =  1.00D-03
 THRDOUB =  0.00D+00  THRDIV  =  1.00D-05  THRRED  =  1.00D-07  THRPSP  =  1.00D+00  THRDC   =  1.00D-10  THRCS   =  1.00D-10
 THRNRM  =  1.00D-08  THREQ   =  0.00D+00  THRDE   =  1.00D+00  THRREF  =  1.00D-05  SPARFAC =  1.00D+00  THRDLP  =  1.00D-07
 THRDIA  =  1.00D-10  THRDLS  =  1.00D-07  THRGPS  =  0.00D+00  THRKEX  =  0.00D+00  THRDIS  =  2.00D-01  THRVAR  =  1.00D-10
 THRLOC  =  1.00D-06  THRGAP  =  1.00D-06  THRLOCT = -1.00D+00  THRGAPT = -1.00D+00  THRORB  =  1.00D-06  THRMLTP =  0.00D+00
 THRCPQCI=  1.00D-10  KEXTA   =  0.00D+00  THRCOARS=  0.00D+00  SYMTOL  =  1.00D-06  GRADTOL =  1.00D-06  THROVL  =  1.00D-08
 THRORTH =  1.00D-08  GRID    =  1.00D-06  GRIDMAX =  1.00D-03  DTMAX   =  0.00D+00  THROCCDE=  1.00D-01  THROCCDE=  1.00D-01



 Input parameters for SORTINT:

 COMPRESS =    0.000000
 C_FINAL  =    1.000000
 DEBUG    =   -1.000000
 C_SORT1  =    0.000000
 C_SEWARD =    0.000000
 THRESH   =    0.000000
 IO       =  molpro                                                          
 SPRI     =    0.000000
 SETTING GEOMTYP        =    XYZ
 ZUNIT=BOHR
 

 Variable memory set to  995000000 words,  buffer space   230000 words

 SETTING BASIS          =    AV5Z


 Recomputing integrals since basis changed


 Using spherical harmonics

 Library entry H      S aug-cc-pV5Z          selected for orbital group  1
 Library entry H      P aug-cc-pV5Z          selected for orbital group  1
 Library entry H      D aug-cc-pV5Z          selected for orbital group  1
 Library entry H      F aug-cc-pV5Z          selected for orbital group  1
 Library entry H      G aug-cc-pV5Z          selected for orbital group  1
 Library entry N      S aug-cc-pV5Z          selected for orbital group  2
 Library entry N      P aug-cc-pV5Z          selected for orbital group  2
 Library entry N      D aug-cc-pV5Z          selected for orbital group  2
 Library entry N      F aug-cc-pV5Z          selected for orbital group  2
 Library entry N      G aug-cc-pV5Z          selected for orbital group  2
 Library entry N      H aug-cc-pV5Z          selected for orbital group  2
 Library entry O      S aug-cc-pV5Z          selected for orbital group  3
 Library entry O      P aug-cc-pV5Z          selected for orbital group  3
 Library entry O      D aug-cc-pV5Z          selected for orbital group  3
 Library entry O      F aug-cc-pV5Z          selected for orbital group  3
 Library entry O      G aug-cc-pV5Z          selected for orbital group  3
 Library entry O      H aug-cc-pV5Z          selected for orbital group  3


 PROGRAM * SEWARD (Integral evaluation for generally contracted gaussian basis sets)     Author: Roland Lindh, 1990

 Geometry written to block  1 of record 700


 Point group  Cs  



 ATOMIC COORDINATES

 NR  ATOM    CHARGE       X              Y              Z

   1  H       1.00    0.000000000    1.666175243   -1.918481692
   2  N       7.00    0.000000000   -0.168340895   -1.152375590
   3  O       8.00    0.000000000    0.043933443    1.120267692

 Bond lengths in Bohr (Angstrom)

 1-2  1.988056342  2-3  2.282535406
     ( 1.052034110)     ( 1.207865720)

 Bond angles

  1-2-3  107.32955679

 NUCLEAR CHARGE:                   16
 NUMBER OF PRIMITIVE AOS:         506
 NUMBER OF SYMMETRY AOS:          371
 NUMBER OF CONTRACTIONS:          334   ( 204A'  + 130A"  )
 NUMBER OF CORE ORBITALS:           2   (   2A'  +   0A"  )
 NUMBER OF VALENCE ORBITALS:        9   (   7A'  +   2A"  )


 NUCLEAR REPULSION ENERGY   30.37758493


 Eigenvalues of metric

         1 0.113E-04 0.173E-04 0.639E-04 0.999E-04 0.105E-03 0.137E-03 0.201E-03 0.223E-03
         2 0.127E-03 0.364E-03 0.112E-02 0.157E-02 0.193E-02 0.253E-02 0.327E-02 0.391E-02


 Contracted 2-electron integrals neglected if value below      1.0D-22

      756977612. INTEGRALS WRITTEN OUT IN  184855 BLOCKS ON RECORD 1290 OF FILE 1


 NUMBER OF SORTED TWO-ELECTRON INTEGRALS:  789027325.     BUFFER LENGTH:  32768
 NUMBER OF SEGMENTS:  25  SEGMENT LENGTH:   31997130      RECORD LENGTH: 524288

 Memory used in sort:      32.55 MW

 SORT1 READ   756977612. AND WROTE   760993504. INTEGRALS IN   2189 RECORDS. CPU TIME:    41.40 SEC, REAL TIME:   279.79 SEC
 SORT2 READ   760993504. AND WROTE   789027325. INTEGRALS IN     25 RECORDS. CPU TIME:    17.64 SEC, REAL TIME:   176.47 SEC

 FILE SIZES:   FILE 1: 12137.5 MBYTE,  FILE 4:  9181.4 MBYTE,   TOTAL:  21318.9 MBYTE

 OPERATOR DM      FOR CENTER  0  COORDINATES:    0.000000    0.000000    0.000000


 **********************************************************************************************************************************
 DATASETS  * FILE   NREC   LENGTH (MB)   RECORD NAMES
              1      19     6374.22       500      610      700      900      950      970     1000      129      960     1100   
                                          VAR    BASINP    GEOM    SYMINP    ZMAT    AOBASIS   BASIS     P2S    ABASIS      S 
                                         1400     1410     1200     1210     1080     1600     1650     1300     1700   
                                           T        V       H0       H01     AOSYM     SMH    MOLCAS    ERIS     OPER   

 PROGRAMS   *        TOTAL       INT
 CPU TIMES  *       175.68    175.58
 REAL TIME  *       670.86 SEC
 DISK USED  *        21.32 GB      
 **********************************************************************************************************************************


 PROGRAM * RHF-SCF (CLOSED SHELL)       Authors: W. Meyer, H.-J. Werner


 NUMBER OF ELECTRONS:       8+    8-
 CONVERGENCE THRESHOLDS:    1.00E-10 (Density)    1.00E-13 (Energy)
 MAX. NUMBER OF ITERATIONS:      500
 INTERPOLATION TYPE:            DIIS
 INTERPOLATION STEPS:              2 (START)      1 (STEP)
 LEVEL SHIFTS:                  0.00 (CLOSED)  0.00 (OPEN) 



 Orbital guess generated from atomic densities. Full valence occupancy:    9   2

 Molecular orbital dump at record        2100.2

 Initial occupancy:   7   1

 ITERATION    DDIFF          GRAD             ENERGY        2-EL.EN.            DIPOLE MOMENTS         DIIS   ORB.
    1      0.000D+00      0.000D+00      -129.79843053    153.998631    0.00000    0.58782   -1.02690    0    start
    2      0.000D+00      0.642D-02      -129.82567541    155.215059    0.00000    0.61106   -0.20407    1    diag
    3      0.401D-02      0.490D-02      -129.84874333    155.343190    0.00000    0.55323   -0.59094    2    diag
    4      0.207D-02      0.767D-03      -129.84954724    155.058878    0.00000    0.56103   -0.52953    3    diag
    5      0.377D-03      0.250D-03      -129.84967368    155.152359    0.00000    0.56619   -0.53194    4    diag
    6      0.156D-03      0.724D-04      -129.84969396    155.136016    0.00000    0.56644   -0.52771    5    diag
    7      0.602D-04      0.361D-04      -129.84969988    155.138811    0.00000    0.56767   -0.52506    6    diag
    8      0.413D-04      0.127D-04      -129.84970056    155.138096    0.00000    0.56771   -0.52403    7    diag
    9      0.159D-04      0.244D-05      -129.84970059    155.137985    0.00000    0.56767   -0.52381    8    diag
   10      0.321D-05      0.548D-06      -129.84970059    155.137968    0.00000    0.56764   -0.52378    9    orth
   11      0.619D-06      0.110D-06      -129.84970059    155.137964    0.00000    0.56763   -0.52378    9    diag
   12      0.115D-06      0.225D-07      -129.84970059    155.137964    0.00000    0.56763   -0.52378    9    diag
   13      0.253D-07      0.592D-08      -129.84970059    155.137964    0.00000    0.56763   -0.52378    9    diag
   14      0.685D-08      0.115D-08      -129.84970059    155.137964    0.00000    0.56763   -0.52378    9    diag
   15      0.124D-08      0.327D-09      -129.84970059    155.137964    0.00000    0.56763   -0.52378    9    diag
   16      0.372D-09      0.987D-10      -129.84970059    155.137964    0.00000    0.56763   -0.52378    9    diag
   17      0.785D-10      0.262D-10      -129.84970059    155.137964    0.00000    0.56763   -0.52378    9    diag
   18      0.251D-10      0.895D-11      -129.84970059    155.137964    0.00000    0.56763   -0.52378    9    diag
   19      0.161D-10      0.224D-11      -129.84970059    155.137964    0.00000    0.56763   -0.52378    9    fixocc
   20      0.156D-10      0.532D-12      -129.84970059    155.137964    0.00000    0.56763   -0.52378    9    orth
   21      0.864D-11      0.342D-12      -129.84970059    155.137964    0.00000    0.56763   -0.52378    9    diag
   22      0.614D-11      0.239D-12      -129.84970059    155.137964    0.00000    0.56763   -0.52378    9    diag
   23      0.460D-11      0.225D-12      -129.84970059    155.137964    0.00000    0.56763   -0.52378    9    diag
   24      0.306D-11      0.366D-12      -129.84970059    155.137964    0.00000    0.56763   -0.52378    9    diag
   25      0.104D-11      0.298D-12      -129.84970059    155.137964    0.00000    0.56763   -0.52378    9    diag
   26      0.132D-11      0.253D-12      -129.84970059    155.137964    0.00000    0.56763   -0.52378    0    orth

 Final occupancy:   7   1

 !RHF STATE 1.1 Energy               -129.849700589567
 Nuclear energy                        30.37758493
 One-electron energy                 -237.79626731
 Two-electron energy                   77.56898179
 Virial quotient                       -1.00167319
 !RHF STATE 1.1 Dipole moment           0.00000000     0.56763156    -0.52377656
 Dipole moment /Debye                   0.00000000     1.44268101    -1.33122003

 Orbital energies:

         1.1          2.1          3.1          4.1          5.1          6.1          7.1          8.1          9.1
    -20.652703   -15.712302    -1.529820    -0.993813    -0.747260    -0.665956    -0.431096     0.022914     0.065558

         1.2          2.2          3.2
     -0.596201     0.060341     0.091663

 HOMO      7.1    -0.431096 =     -11.7307eV
 LUMO      8.1     0.022914 =       0.6235eV
 LUMO-HOMO         0.454010 =      12.3542eV


 **********************************************************************************************************************************
 DATASETS  * FILE   NREC   LENGTH (MB)   RECORD NAMES
              1      19     6374.22       500      610      700      900      950      970     1000      129      960     1100   
                                          VAR    BASINP    GEOM    SYMINP    ZMAT    AOBASIS   BASIS     P2S    ABASIS      S 
                                         1400     1410     1200     1210     1080     1600     1650     1300     1700   
                                           T        V       H0       H01     AOSYM     SMH    MOLCAS    ERIS     OPER   

              2       4        4.02       700     1000      520     2100   
                                         GEOM     BASIS   MCVARS     RHF  

 PROGRAMS   *        TOTAL        HF       INT
 CPU TIMES  *       258.34     82.65    175.58
 REAL TIME  *       778.69 SEC
 DISK USED  *        21.32 GB      
 **********************************************************************************************************************************


 PROGRAM * CCSD (Closed-shell coupled cluster)     Authors: C. Hampel, H.-J. Werner, 1991, M. Deegan, P.J. Knowles, 1992


 Convergence thresholds:  THRVAR = 1.00D-08  THRDEN = 1.00D-12

 CCSD(T)     terms to be evaluated (factor= 1.000)


 Number of core orbitals:           2 (   2   0 )
 Number of closed-shell orbitals:   6 (   5   1 )
 Number of external orbitals:     326 ( 197 129 )

 Molecular orbitals read from record     2100.2  Type=RHF/CANONICAL (state 1.1)

 Number of N-1 electron functions:               6
 Number of N-2 electron functions:              21
 Number of singly external CSFs:              1114
 Number of doubly external CSFs:            975958
 Total number of CSFs:                      977073

 Length of J-op  integral file:               0.00 MB
 Length of K-op  integral file:               4.07 MB
 Length of 3-ext integral record:             0.00 MB

 Memory could be reduced to 151.33 Mwords without degradation in triples

 Integral transformation finished. Total CPU:  10.31 sec, npass=  1  Memory used:  41.21 MW

 Reference energy:                   -129.84970059

 MP2 singlet pair energy:              -0.31116079
 MP2 triplet pair energy:              -0.17200537
 MP2 correlation energy:               -0.48316616
 MP2 total energy:                   -130.33286675

 SCS-MP2 correlation energy:           -0.48041851   (PS=  1.200000  PT=  0.333333)
 SCS-MP2 total energy:               -130.33011910

 ITER.      SQ.NORM     CORR.ENERGY   TOTAL ENERGY   ENERGY CHANGE        DEN1      VAR(S)    VAR(P)  DIIS     TIME  TIME/IT
   1      1.12054936    -0.48016782  -130.32986841     0.00299834     0.01964044  0.31D-02  0.32D-02  1  1    18.64     9.27
   2      1.13116127    -0.48005746  -130.32975805     0.00011036    -0.01266474  0.10D-03  0.49D-03  2  2    27.15     9.38
   3      1.13729478    -0.48043650  -130.33013709    -0.00037904    -0.00299965  0.47D-04  0.56D-04  3  3    35.78     9.42
   4      1.14007207    -0.48043509  -130.33013568     0.00000141    -0.00096563  0.44D-05  0.99D-05  4  4    44.23     9.44
   5      1.14118878    -0.48046404  -130.33016463    -0.00002895    -0.00024838  0.11D-05  0.16D-05  5  5    52.71     9.47
   6      1.14153955    -0.48045250  -130.33015309     0.00001153    -0.00004981  0.12D-06  0.40D-06  6  6    61.26     9.48
   7      1.14161353    -0.48045215  -130.33015274     0.00000035     0.00000345  0.17D-07  0.90D-07  6  1    69.82     9.49
   8      1.14163829    -0.48045215  -130.33015274    -0.00000001    -0.00000301  0.34D-08  0.18D-07  6  2    78.29     9.49
   9      1.14164655    -0.48045161  -130.33015220     0.00000055    -0.00000018  0.21D-08  0.20D-08  6  3    86.81     9.49
  10      1.14164202    -0.48045233  -130.33015292    -0.00000073     0.00000157  0.33D-09  0.32D-09  6  5    95.28     9.50
  11      1.14164395    -0.48045232  -130.33015291     0.00000002    -0.00000036  0.97D-10  0.26D-10  6  4   103.75     9.50
  12      1.14164352    -0.48045239  -130.33015297    -0.00000007     0.00000005  0.17D-10  0.61D-11  6  6   112.21     9.50
  13      1.14164331    -0.48045239  -130.33015298    -0.00000000    -0.00000003  0.30D-11  0.88D-12  6  1   120.63     9.50
  14      1.14164306    -0.48045240  -130.33015299    -0.00000001     0.00000004  0.42D-12  0.16D-12  6  3   129.17     9.50
  15      1.14164298    -0.48045240  -130.33015299    -0.00000000     0.00000001  0.12D-12  0.22D-13  6  2   137.60     9.50
  16      1.14164297    -0.48045240  -130.33015299     0.00000000     0.00000000  0.31D-13  0.84D-14  6  4   146.03     9.50
  17      1.14164297    -0.48045240  -130.33015299    -0.00000000    -0.00000000  0.18D-14  0.10D-14  6  5   154.61     9.51
  18      1.14164298    -0.48045240  -130.33015299     0.00000000    -0.00000000  0.27D-15  0.28D-15  6  6   163.13     9.51
  19      1.14164298    -0.48045240  -130.33015299     0.00000000    -0.00000000  0.49D-16  0.38D-16  6  1   171.72     9.51
  20      1.14164298    -0.48045240  -130.33015299     0.00000000    -0.00000000  0.10D-16  0.57D-17  6  3   180.16     9.51
  21      1.14164298    -0.48045240  -130.33015299    -0.00000000     0.00000000  0.20D-17  0.10D-17  6  2   188.61     9.51
  22      1.14164298    -0.48045240  -130.33015299    -0.00000000     0.00000000  0.35D-18  0.15D-18  6  4   197.14     9.51
  23      1.14164298    -0.48045240  -130.33015299    -0.00000000     0.00000000  0.72D-19  0.39D-19  6  5   205.66     9.51
  24      1.14164298    -0.48045240  -130.33015299    -0.00000000     0.00000000  0.24D-19  0.14D-19  6  6   214.09     9.51
  25      1.14164298    -0.48045240  -130.33015299    -0.00000000     0.00000000  0.12D-19  0.69D-20  6  1   222.58     9.51

 Norm of t1 vector:      0.07599963      S-energy:    -0.00000000      T1 diagnostic:  0.01551336
                                                                       D1 diagnostic:  0.04210658

 Doubles amplitudes (print threshold =  0.500E-01):

         I         J         SYM. A    SYM. B    A         B      T(IJ, AB)

         6         6         2         2         1         1     -0.07912301
         6         6         2         2         1         2      0.05301732
         6         6         2         2         2         1      0.05301732


 Total CPU time for triples:     85.88 sec


 RESULTS
 =======

  Reference energy                   -129.849700589567
  CCSD singlet pair energy             -0.333271783967
  CCSD triplet pair energy             -0.147180617347
  CCSD correlation energy              -0.480452401317

  Triples (T) contribution             -0.022904636766
  Total correlation energy             -0.503357038082

  CCSD total energy                  -130.330152990884
  CCSD[T] energy                     -130.354131143870
  CCSD-T energy                      -130.352679476451
 !CCSD(T) total energy               -130.353057627649

 Timing summary (sec):

 STEP                 CPU(USER)    SYS     CPU(TOT)    WALL
 Transformation         10.35      1.37     11.72     11.74
 CCSD iterations       212.24     25.59    237.83    237.85
 Triples                85.88      1.45     87.33     87.34

 Program statistics:

 Available memory in ccsd:               994999756
 Min. memory needed in ccsd:               3348832
 Max. memory used in ccsd:                 4143652
 Max. memory used in cckext:               8340089 (25 integral passes)



 **********************************************************************************************************************************
 DATASETS  * FILE   NREC   LENGTH (MB)   RECORD NAMES
              1      20     6809.41       500      610      700      900      950      970     1000      129      960     1100   
                                          VAR    BASINP    GEOM    SYMINP    ZMAT    AOBASIS   BASIS     P2S    ABASIS      S 
                                         1400     1410     1200     1210     1080     1600     1650     1300     1700     1380   
                                           T        V       H0       H01     AOSYM     SMH    MOLCAS    ERIS     OPER     JKOP   

              2       4        4.02       700     1000      520     2100   
                                         GEOM     BASIS   MCVARS     RHF  

 PROGRAMS   *        TOTAL   CCSD(T)        HF       INT
 CPU TIMES  *       566.84    308.49     82.65    175.58
 REAL TIME  *      1116.00 SEC
 DISK USED  *        21.32 GB      
 **********************************************************************************************************************************

 CCSD(T)/aug-cc-pV5Z energy=   -130.353057627649

        CCSD(T)         HF-SCF  
   -130.35305763   -129.84970059
 **********************************************************************************************************************************
 Molpro calculation terminated
 Variable memory released
