
 Primary working directories    : /tmp/r2666/281865.maple
 Secondary working directories  : /tmp/r2666/281865.maple
 Wavefunction directory         : /ddn/home4/r2666/wfu/
 Main file repository           : /tmp/r2666/281865.maple/

 SHA1      : d5ffa45e93fdbca01ffc919aa182cfdae0147319
 NAME      : 2015.1.35
 ARCHNAME  : linux/x86_64
 FC        : /opt/intel/composer_xe_2015.1.133/bin/intel64/ifort
 BLASLIB   : -Wl,-_start-group /opt/intel/mkl/lib/intel64/libmkl_intel_ilp64.a /opt/intel/mkl/lib/intel64/libmkl_intel_thread.a /opt/intel/mkl/lib/intel64/libmkl_core.a -Wl,-_end-group
 id        : olemiss

 Nodes     nprocs
 cn038        1

 Using customized tuning parameters: mindgm=1; mindgv=20; mindgc=4; mindgr=1; noblas=0; minvec=7
 default implementation of scratch files=df  

 ***,hno CCSD(T)/TZ-F12 QFF
 memory, 995, m;
 gthresh,energy=1.d-12,zero=1.d-22,oneint=1.d-22,twoint=1.d-22;
 gthresh,optgrad=1.d-8,optstep=1.d-8;
 nocompress;
 geomtyp=xyz
 bohr
 geometry={
 3
         20        20
 H        0.0000000000        1.6593518710       -1.9263638113
 N        0.0000000000       -0.1540844149       -1.1588767900
 O        0.0000000000        0.0365003339        1.1346510104
 }
 
 basis=av5z
   {hf,maxit=500;accu,20;}
 {ccsd(t),nocheck,maxit=250;orbital,IGNORE_ERROR;}

 Variables initialized (889), CPU time= 0.00 sec
 Commands  initialized (702), CPU time= 0.01 sec, 572 directives.
 Default parameters read. Elapsed time= 0.10 sec

 Checking input...
 Passed
1


                                         ***  PROGRAM SYSTEM MOLPRO  ***
                                       Copyright, TTI GmbH Stuttgart, 2015
                                    Version 2015.1 linked Jul  9 2018 13:16:40


 **********************************************************************************************************************************
 LABEL *   hno CCSD(T)/TZ-F12 QFF                                                        
  64 bit serial version                                                                  DATE: 04-Mar-20          TIME: 13:19:57  
 **********************************************************************************************************************************

 SHA1:             d5ffa45e93fdbca01ffc919aa182cfdae0147319
 **********************************************************************************************************************************

 THRESHOLDS:

 ZERO    =  1.00D-22  ONEINT  =  1.00D-22  TWOINT  =  1.00D-22  PREFAC  =  1.00D-14  LOCALI  =  1.00D-09  EORDER  =  1.00D-04
 ENERGY  =  1.00D-12  ETEST   =  0.00D+00  EDENS   =  0.00D+00  THRDEDEF=  1.00D-06  GRADIENT=  1.00D-02  STEP    =  1.00D-03
 ORBITAL =  1.00D-05  CIVEC   =  1.00D-05  COEFF   =  1.00D-04  PRINTCI =  5.00D-02  PUNCHCI =  9.90D+01  OPTGRAD =  3.00D-04
 OPTENERG=  1.00D-06  OPTSTEP =  3.00D-04  THRGRAD =  1.00D-10  COMPRESS=  1.00D-11  VARMIN  =  1.00D-07  VARMAX  =  1.00D-03
 THRDOUB =  0.00D+00  THRDIV  =  1.00D-05  THRRED  =  1.00D-07  THRPSP  =  1.00D+00  THRDC   =  1.00D-10  THRCS   =  1.00D-10
 THRNRM  =  1.00D-08  THREQ   =  0.00D+00  THRDE   =  1.00D+00  THRREF  =  1.00D-05  SPARFAC =  1.00D+00  THRDLP  =  1.00D-07
 THRDIA  =  1.00D-10  THRDLS  =  1.00D-07  THRGPS  =  0.00D+00  THRKEX  =  0.00D+00  THRDIS  =  2.00D-01  THRVAR  =  1.00D-10
 THRLOC  =  1.00D-06  THRGAP  =  1.00D-06  THRLOCT = -1.00D+00  THRGAPT = -1.00D+00  THRORB  =  1.00D-06  THRMLTP =  0.00D+00
 THRCPQCI=  1.00D-10  KEXTA   =  0.00D+00  THRCOARS=  0.00D+00  SYMTOL  =  1.00D-06  GRADTOL =  1.00D-06  THROVL  =  1.00D-08
 THRORTH =  1.00D-08  GRID    =  1.00D-06  GRIDMAX =  1.00D-03  DTMAX   =  0.00D+00  THROCCDE=  1.00D-01  THROCCDE=  1.00D-01



 THRESHOLDS:

 ZERO    =  1.00D-22  ONEINT  =  1.00D-22  TWOINT  =  1.00D-22  PREFAC  =  1.00D-14  LOCALI  =  1.00D-09  EORDER  =  1.00D-04
 ENERGY  =  1.00D-12  ETEST   =  0.00D+00  EDENS   =  0.00D+00  THRDEDEF=  1.00D-06  GRADIENT=  1.00D-02  STEP    =  1.00D-03
 ORBITAL =  1.00D-05  CIVEC   =  1.00D-05  COEFF   =  1.00D-04  PRINTCI =  5.00D-02  PUNCHCI =  9.90D+01  OPTGRAD =  1.00D-08
 OPTENERG=  1.00D-06  OPTSTEP =  1.00D-08  THRGRAD =  1.00D-10  COMPRESS=  1.00D-11  VARMIN  =  1.00D-07  VARMAX  =  1.00D-03
 THRDOUB =  0.00D+00  THRDIV  =  1.00D-05  THRRED  =  1.00D-07  THRPSP  =  1.00D+00  THRDC   =  1.00D-10  THRCS   =  1.00D-10
 THRNRM  =  1.00D-08  THREQ   =  0.00D+00  THRDE   =  1.00D+00  THRREF  =  1.00D-05  SPARFAC =  1.00D+00  THRDLP  =  1.00D-07
 THRDIA  =  1.00D-10  THRDLS  =  1.00D-07  THRGPS  =  0.00D+00  THRKEX  =  0.00D+00  THRDIS  =  2.00D-01  THRVAR  =  1.00D-10
 THRLOC  =  1.00D-06  THRGAP  =  1.00D-06  THRLOCT = -1.00D+00  THRGAPT = -1.00D+00  THRORB  =  1.00D-06  THRMLTP =  0.00D+00
 THRCPQCI=  1.00D-10  KEXTA   =  0.00D+00  THRCOARS=  0.00D+00  SYMTOL  =  1.00D-06  GRADTOL =  1.00D-06  THROVL  =  1.00D-08
 THRORTH =  1.00D-08  GRID    =  1.00D-06  GRIDMAX =  1.00D-03  DTMAX   =  0.00D+00  THROCCDE=  1.00D-01  THROCCDE=  1.00D-01



 Input parameters for SORTINT:

 COMPRESS =    0.000000
 C_FINAL  =    1.000000
 DEBUG    =   -1.000000
 C_SORT1  =    0.000000
 C_SEWARD =    0.000000
 THRESH   =    0.000000
 IO       =  molpro                                                          
 SPRI     =    0.000000
 SETTING GEOMTYP        =    XYZ
 ZUNIT=BOHR
 

 Variable memory set to  995000000 words,  buffer space   230000 words

 SETTING BASIS          =    AV5Z


 Recomputing integrals since basis changed


 Using spherical harmonics

 Library entry H      S aug-cc-pV5Z          selected for orbital group  1
 Library entry H      P aug-cc-pV5Z          selected for orbital group  1
 Library entry H      D aug-cc-pV5Z          selected for orbital group  1
 Library entry H      F aug-cc-pV5Z          selected for orbital group  1
 Library entry H      G aug-cc-pV5Z          selected for orbital group  1
 Library entry N      S aug-cc-pV5Z          selected for orbital group  2
 Library entry N      P aug-cc-pV5Z          selected for orbital group  2
 Library entry N      D aug-cc-pV5Z          selected for orbital group  2
 Library entry N      F aug-cc-pV5Z          selected for orbital group  2
 Library entry N      G aug-cc-pV5Z          selected for orbital group  2
 Library entry N      H aug-cc-pV5Z          selected for orbital group  2
 Library entry O      S aug-cc-pV5Z          selected for orbital group  3
 Library entry O      P aug-cc-pV5Z          selected for orbital group  3
 Library entry O      D aug-cc-pV5Z          selected for orbital group  3
 Library entry O      F aug-cc-pV5Z          selected for orbital group  3
 Library entry O      G aug-cc-pV5Z          selected for orbital group  3
 Library entry O      H aug-cc-pV5Z          selected for orbital group  3


 PROGRAM * SEWARD (Integral evaluation for generally contracted gaussian basis sets)     Author: Roland Lindh, 1990

 Geometry written to block  1 of record 700


 Point group  Cs  



 ATOMIC COORDINATES

 NR  ATOM    CHARGE       X              Y              Z

   1  H       1.00    0.000000000    1.659351871   -1.926363811
   2  N       7.00    0.000000000   -0.154084415   -1.158876790
   3  O       8.00    0.000000000    0.036500334    1.134651010

 Bond lengths in Bohr (Angstrom)

 1-2  1.969159082  2-3  2.301432666
     ( 1.042034111)     ( 1.217865719)

 Bond angles

  1-2-3  108.18899349

 NUCLEAR CHARGE:                   16
 NUMBER OF PRIMITIVE AOS:         506
 NUMBER OF SYMMETRY AOS:          371
 NUMBER OF CONTRACTIONS:          334   ( 204A'  + 130A"  )
 NUMBER OF CORE ORBITALS:           2   (   2A'  +   0A"  )
 NUMBER OF VALENCE ORBITALS:        9   (   7A'  +   2A"  )


 NUCLEAR REPULSION ENERGY   30.19655453


 Eigenvalues of metric

         1 0.112E-04 0.175E-04 0.628E-04 0.102E-03 0.108E-03 0.138E-03 0.199E-03 0.224E-03
         2 0.131E-03 0.352E-03 0.115E-02 0.164E-02 0.186E-02 0.259E-02 0.319E-02 0.384E-02


 Contracted 2-electron integrals neglected if value below      1.0D-22

      756977390. INTEGRALS WRITTEN OUT IN  184855 BLOCKS ON RECORD 1290 OF FILE 1


 NUMBER OF SORTED TWO-ELECTRON INTEGRALS:  789027325.     BUFFER LENGTH:  32768
 NUMBER OF SEGMENTS:  25  SEGMENT LENGTH:   31997130      RECORD LENGTH: 524288

 Memory used in sort:      32.55 MW

 SORT1 READ   756977390. AND WROTE   760993274. INTEGRALS IN   2189 RECORDS. CPU TIME:    26.51 SEC, REAL TIME:   108.51 SEC
 SORT2 READ   760993274. AND WROTE   789027325. INTEGRALS IN     25 RECORDS. CPU TIME:    12.25 SEC, REAL TIME:    75.01 SEC

 FILE SIZES:   FILE 1: 12137.5 MBYTE,  FILE 4:  9181.4 MBYTE,   TOTAL:  21318.9 MBYTE

 OPERATOR DM      FOR CENTER  0  COORDINATES:    0.000000    0.000000    0.000000


 **********************************************************************************************************************************
 DATASETS  * FILE   NREC   LENGTH (MB)   RECORD NAMES
              1      19     6374.22       500      610      700      900      950      970     1000      129      960     1100   
                                          VAR    BASINP    GEOM    SYMINP    ZMAT    AOBASIS   BASIS     P2S    ABASIS      S 
                                         1400     1410     1200     1210     1080     1600     1650     1300     1700   
                                           T        V       H0       H01     AOSYM     SMH    MOLCAS    ERIS     OPER   

 PROGRAMS   *        TOTAL       INT
 CPU TIMES  *       143.49    143.39
 REAL TIME  *       296.20 SEC
 DISK USED  *        21.32 GB      
 **********************************************************************************************************************************


 PROGRAM * RHF-SCF (CLOSED SHELL)       Authors: W. Meyer, H.-J. Werner


 NUMBER OF ELECTRONS:       8+    8-
 CONVERGENCE THRESHOLDS:    1.00E-10 (Density)    1.00E-13 (Energy)
 MAX. NUMBER OF ITERATIONS:      500
 INTERPOLATION TYPE:            DIIS
 INTERPOLATION STEPS:              2 (START)      1 (STEP)
 LEVEL SHIFTS:                  0.00 (CLOSED)  0.00 (OPEN) 



 Orbital guess generated from atomic densities. Full valence occupancy:    9   2

 Molecular orbital dump at record        2100.2

 Initial occupancy:   7   1

 ITERATION    DDIFF          GRAD             ENERGY        2-EL.EN.            DIPOLE MOMENTS         DIIS   ORB.
    1      0.000D+00      0.000D+00      -129.79632762    153.675705    0.00000    0.60563   -1.05937    0    start
    2      0.000D+00      0.646D-02      -129.82321902    154.865125    0.00000    0.61706   -0.20630    1    diag
    3      0.407D-02      0.501D-02      -129.84745424    155.017843    0.00000    0.56419   -0.61005    2    diag
    4      0.211D-02      0.779D-03      -129.84828176    154.726624    0.00000    0.57138   -0.54664    3    diag
    5      0.383D-03      0.252D-03      -129.84841011    154.820529    0.00000    0.57651   -0.54890    4    diag
    6      0.158D-03      0.726D-04      -129.84843057    154.804211    0.00000    0.57673   -0.54453    5    diag
    7      0.605D-04      0.365D-04      -129.84843671    154.806858    0.00000    0.57791   -0.54176    6    diag
    8      0.419D-04      0.132D-04      -129.84843747    154.806120    0.00000    0.57794   -0.54065    7    diag
    9      0.170D-04      0.258D-05      -129.84843750    154.806004    0.00000    0.57790   -0.54041    8    diag
   10      0.350D-05      0.570D-06      -129.84843751    154.805986    0.00000    0.57787   -0.54038    9    orth
   11      0.647D-06      0.113D-06      -129.84843751    154.805983    0.00000    0.57786   -0.54038    9    diag
   12      0.117D-06      0.234D-07      -129.84843751    154.805983    0.00000    0.57786   -0.54038    9    diag
   13      0.251D-07      0.628D-08      -129.84843751    154.805983    0.00000    0.57786   -0.54038    9    diag
   14      0.697D-08      0.121D-08      -129.84843751    154.805983    0.00000    0.57786   -0.54038    9    diag
   15      0.126D-08      0.342D-09      -129.84843751    154.805983    0.00000    0.57786   -0.54038    9    diag
   16      0.382D-09      0.101D-09      -129.84843751    154.805983    0.00000    0.57786   -0.54038    9    diag
   17      0.694D-10      0.250D-10      -129.84843751    154.805983    0.00000    0.57786   -0.54038    9    diag
   18      0.211D-10      0.819D-11      -129.84843751    154.805983    0.00000    0.57786   -0.54038    9    diag
   19      0.129D-10      0.199D-11      -129.84843751    154.805983    0.00000    0.57786   -0.54038    0    orth

 Final occupancy:   7   1

 !RHF STATE 1.1 Energy               -129.848437506068
 Nuclear energy                        30.19655453
 One-electron energy                 -237.44798341
 Two-electron energy                   77.40299137
 Virial quotient                       -1.00187011
 !RHF STATE 1.1 Dipole moment           0.00000000     0.57786193    -0.54038101
 Dipole moment /Debye                   0.00000000     1.46868232    -1.37342156

 Orbital energies:

         1.1          2.1          3.1          4.1          5.1          6.1          7.1          8.1          9.1
    -20.653720   -15.712540    -1.521432    -0.999258    -0.745308    -0.663300    -0.434175     0.022748     0.065524

         1.2          2.2          3.2
     -0.591268     0.058096     0.090666

 HOMO      7.1    -0.434175 =     -11.8145eV
 LUMO      8.1     0.022748 =       0.6190eV
 LUMO-HOMO         0.456923 =      12.4335eV


 **********************************************************************************************************************************
 DATASETS  * FILE   NREC   LENGTH (MB)   RECORD NAMES
              1      19     6374.22       500      610      700      900      950      970     1000      129      960     1100   
                                          VAR    BASINP    GEOM    SYMINP    ZMAT    AOBASIS   BASIS     P2S    ABASIS      S 
                                         1400     1410     1200     1210     1080     1600     1650     1300     1700   
                                           T        V       H0       H01     AOSYM     SMH    MOLCAS    ERIS     OPER   

              2       4        4.02       700     1000      520     2100   
                                         GEOM     BASIS   MCVARS     RHF  

 PROGRAMS   *        TOTAL        HF       INT
 CPU TIMES  *       219.49     76.00    143.39
 REAL TIME  *       392.84 SEC
 DISK USED  *        21.32 GB      
 **********************************************************************************************************************************


 PROGRAM * CCSD (Closed-shell coupled cluster)     Authors: C. Hampel, H.-J. Werner, 1991, M. Deegan, P.J. Knowles, 1992


 Convergence thresholds:  THRVAR = 1.00D-08  THRDEN = 1.00D-12

 CCSD(T)     terms to be evaluated (factor= 1.000)


 Number of core orbitals:           2 (   2   0 )
 Number of closed-shell orbitals:   6 (   5   1 )
 Number of external orbitals:     326 ( 197 129 )

 Molecular orbitals read from record     2100.2  Type=RHF/CANONICAL (state 1.1)

 Number of N-1 electron functions:               6
 Number of N-2 electron functions:              21
 Number of singly external CSFs:              1114
 Number of doubly external CSFs:            975958
 Total number of CSFs:                      977073

 Length of J-op  integral file:               0.00 MB
 Length of K-op  integral file:               4.07 MB
 Length of 3-ext integral record:             0.00 MB

 Memory could be reduced to 151.33 Mwords without degradation in triples

 Integral transformation finished. Total CPU:  13.60 sec, npass=  1  Memory used:  41.21 MW

 Reference energy:                   -129.84843751

 MP2 singlet pair energy:              -0.31196141
 MP2 triplet pair energy:              -0.17255752
 MP2 correlation energy:               -0.48451893
 MP2 total energy:                   -130.33295644

 SCS-MP2 correlation energy:           -0.48172282   (PS=  1.200000  PT=  0.333333)
 SCS-MP2 total energy:               -130.33016033

 ITER.      SQ.NORM     CORR.ENERGY   TOTAL ENERGY   ENERGY CHANGE        DEN1      VAR(S)    VAR(P)  DIIS     TIME  TIME/IT
   1      1.12131762    -0.48113866  -130.32957616     0.00338028     0.02040093  0.33D-02  0.33D-02  1  1    24.25    11.45
   2      1.13214054    -0.48094257  -130.32938007     0.00019609    -0.01288795  0.11D-03  0.50D-03  2  2    34.94    11.64
   3      1.13843013    -0.48133286  -130.32977037    -0.00039030    -0.00303933  0.50D-04  0.59D-04  3  3    45.59    11.71
   4      1.14132017    -0.48133262  -130.32977013     0.00000024    -0.00099245  0.47D-05  0.10D-04  4  4    56.19    11.74
   5      1.14250612    -0.48136303  -130.32980053    -0.00003040    -0.00026217  0.12D-05  0.17D-05  5  5    66.82    11.76
   6      1.14287650    -0.48135048  -130.32978798     0.00001255    -0.00005278  0.12D-06  0.41D-06  6  6    77.60    11.78
   7      1.14295145    -0.48135035  -130.32978786     0.00000013     0.00000409  0.15D-07  0.96D-07  6  1    88.41    11.79
   8      1.14297674    -0.48135030  -130.32978780     0.00000005    -0.00000317  0.33D-08  0.20D-07  6  2    99.11    11.80
   9      1.14298160    -0.48134991  -130.32978742     0.00000039     0.00000135  0.26D-08  0.25D-08  6  4   109.80    11.80
  10      1.14298426    -0.48135024  -130.32978775    -0.00000033    -0.00000086  0.53D-09  0.30D-09  6  3   120.54    11.81
  11      1.14298409    -0.48135033  -130.32978784    -0.00000009    -0.00000013  0.16D-09  0.42D-10  6  5   131.19    11.81
  12      1.14298312    -0.48135048  -130.32978798    -0.00000014     0.00000039  0.21D-10  0.12D-10  6  6   141.89    11.82
  13      1.14298223    -0.48135052  -130.32978803    -0.00000005     0.00000022  0.58D-11  0.28D-11  6  1   152.57    11.82
  14      1.14298151    -0.48135056  -130.32978806    -0.00000003     0.00000017  0.37D-12  0.53D-12  6  4   163.22    11.82
  15      1.14298129    -0.48135057  -130.32978807    -0.00000001     0.00000004  0.79D-13  0.46D-13  6  2   173.95    11.82
  16      1.14298123    -0.48135057  -130.32978807    -0.00000000     0.00000001  0.22D-13  0.80D-14  6  3   184.72    11.82
  17      1.14298120    -0.48135057  -130.32978807    -0.00000000     0.00000001  0.44D-14  0.11D-14  6  5   195.50    11.83
  18      1.14298120    -0.48135057  -130.32978807    -0.00000000     0.00000000  0.96D-15  0.28D-15  6  6   206.32    11.83
  19      1.14298120    -0.48135057  -130.32978807    -0.00000000     0.00000000  0.13D-15  0.55D-16  6  1   217.10    11.83
  20      1.14298120    -0.48135057  -130.32978807     0.00000000    -0.00000000  0.14D-16  0.85D-17  6  4   227.84    11.83
  21      1.14298120    -0.48135057  -130.32978807     0.00000000    -0.00000000  0.11D-17  0.13D-17  6  3   238.64    11.83
  22      1.14298120    -0.48135057  -130.32978807     0.00000000    -0.00000000  0.28D-18  0.28D-18  6  2   249.30    11.83
  23      1.14298120    -0.48135057  -130.32978807     0.00000000    -0.00000000  0.75D-19  0.13D-18  6  5   260.04    11.83
  24      1.14298120    -0.48135057  -130.32978807     0.00000000     0.00000000  0.21D-19  0.60D-19  6  6   270.64    11.83
  25      1.14298120    -0.48135057  -130.32978807    -0.00000000     0.00000000  0.92D-20  0.36D-19  6  1   281.41    11.84

 Norm of t1 vector:      0.07752657      S-energy:     0.00000000      T1 diagnostic:  0.01582504
                                                                       D1 diagnostic:  0.04349014

 Doubles amplitudes (print threshold =  0.500E-01):

         I         J         SYM. A    SYM. B    A         B      T(IJ, AB)

         6         6         2         2         1         1     -0.08670685
         6         6         2         2         1         2      0.05285461
         6         6         2         2         2         1      0.05285461


 Total CPU time for triples:    111.31 sec


 RESULTS
 =======

  Reference energy                   -129.848437506067
  CCSD singlet pair energy             -0.334059015161
  CCSD triplet pair energy             -0.147291553317
  CCSD correlation energy              -0.481350568475

  Triples (T) contribution             -0.023171028550
  Total correlation energy             -0.504521597025

  CCSD total energy                  -130.329788074542
  CCSD[T] energy                     -130.354072072814
  CCSD-T energy                      -130.352572887155
 !CCSD(T) total energy               -130.352959103092

 Timing summary (sec):

 STEP                 CPU(USER)    SYS     CPU(TOT)    WALL
 Transformation         13.67      1.51     15.18     15.19
 CCSD iterations       267.74     28.16    295.90    295.93
 Triples               111.31      1.95    113.26    113.26

 Program statistics:

 Available memory in ccsd:               994999756
 Min. memory needed in ccsd:               3348832
 Max. memory used in ccsd:                 4143652
 Max. memory used in cckext:               8340089 (25 integral passes)



 **********************************************************************************************************************************
 DATASETS  * FILE   NREC   LENGTH (MB)   RECORD NAMES
              1      20     6809.41       500      610      700      900      950      970     1000      129      960     1100   
                                          VAR    BASINP    GEOM    SYMINP    ZMAT    AOBASIS   BASIS     P2S    ABASIS      S 
                                         1400     1410     1200     1210     1080     1600     1650     1300     1700     1380   
                                           T        V       H0       H01     AOSYM     SMH    MOLCAS    ERIS     OPER     JKOP   

              2       4        4.02       700     1000      520     2100   
                                         GEOM     BASIS   MCVARS     RHF  

 PROGRAMS   *        TOTAL   CCSD(T)        HF       INT
 CPU TIMES  *       612.24    392.75     76.00    143.39
 REAL TIME  *       817.27 SEC
 DISK USED  *        21.32 GB      
 **********************************************************************************************************************************

 CCSD(T)/aug-cc-pV5Z energy=   -130.352959103092

        CCSD(T)         HF-SCF  
   -130.35295910   -129.84843751
 **********************************************************************************************************************************
 Molpro calculation terminated
 Variable memory released
