
 Primary working directories    : /tmp/r2666/281900.maple
 Secondary working directories  : /tmp/r2666/281900.maple
 Wavefunction directory         : /ddn/home4/r2666/wfu/
 Main file repository           : /tmp/r2666/281900.maple/

 SHA1      : d5ffa45e93fdbca01ffc919aa182cfdae0147319
 NAME      : 2015.1.35
 ARCHNAME  : linux/x86_64
 FC        : /opt/intel/composer_xe_2015.1.133/bin/intel64/ifort
 BLASLIB   : -Wl,-_start-group /opt/intel/mkl/lib/intel64/libmkl_intel_ilp64.a /opt/intel/mkl/lib/intel64/libmkl_intel_thread.a /opt/intel/mkl/lib/intel64/libmkl_core.a -Wl,-_end-group
 id        : olemiss

 Nodes     nprocs
 cn078        1

 Using customized tuning parameters: mindgm=1; mindgv=20; mindgc=4; mindgr=1; noblas=0; minvec=7
 default implementation of scratch files=df  

 ***,hno CCSD(T)/TZ-F12 QFF
 memory, 995, m;
 gthresh,energy=1.d-12,zero=1.d-22,oneint=1.d-22,twoint=1.d-22;
 gthresh,optgrad=1.d-8,optstep=1.d-8;
 nocompress;
 geomtyp=xyz
 bohr
 geometry={
 3
         55        55
 H        0.0000000000        1.6653754404       -1.9163403877
 N        0.0000000000       -0.1684785890       -1.1486507251
 O        0.0000000000        0.0448709386        1.1144015219
 }
 
 basis=av5z
   {hf,maxit=500;accu,20;}
 {ccsd(t),nocheck,maxit=250;orbital,IGNORE_ERROR;}

 Variables initialized (889), CPU time= 0.00 sec
 Commands  initialized (702), CPU time= 0.00 sec, 572 directives.
 Default parameters read. Elapsed time= 0.10 sec

 Checking input...
 Passed
1


                                         ***  PROGRAM SYSTEM MOLPRO  ***
                                       Copyright, TTI GmbH Stuttgart, 2015
                                    Version 2015.1 linked Jul  9 2018 13:16:40


 **********************************************************************************************************************************
 LABEL *   hno CCSD(T)/TZ-F12 QFF                                                        
  64 bit serial version                                                                  DATE: 04-Mar-20          TIME: 13:19:58  
 **********************************************************************************************************************************

 SHA1:             d5ffa45e93fdbca01ffc919aa182cfdae0147319
 **********************************************************************************************************************************

 THRESHOLDS:

 ZERO    =  1.00D-22  ONEINT  =  1.00D-22  TWOINT  =  1.00D-22  PREFAC  =  1.00D-14  LOCALI  =  1.00D-09  EORDER  =  1.00D-04
 ENERGY  =  1.00D-12  ETEST   =  0.00D+00  EDENS   =  0.00D+00  THRDEDEF=  1.00D-06  GRADIENT=  1.00D-02  STEP    =  1.00D-03
 ORBITAL =  1.00D-05  CIVEC   =  1.00D-05  COEFF   =  1.00D-04  PRINTCI =  5.00D-02  PUNCHCI =  9.90D+01  OPTGRAD =  3.00D-04
 OPTENERG=  1.00D-06  OPTSTEP =  3.00D-04  THRGRAD =  1.00D-10  COMPRESS=  1.00D-11  VARMIN  =  1.00D-07  VARMAX  =  1.00D-03
 THRDOUB =  0.00D+00  THRDIV  =  1.00D-05  THRRED  =  1.00D-07  THRPSP  =  1.00D+00  THRDC   =  1.00D-10  THRCS   =  1.00D-10
 THRNRM  =  1.00D-08  THREQ   =  0.00D+00  THRDE   =  1.00D+00  THRREF  =  1.00D-05  SPARFAC =  1.00D+00  THRDLP  =  1.00D-07
 THRDIA  =  1.00D-10  THRDLS  =  1.00D-07  THRGPS  =  0.00D+00  THRKEX  =  0.00D+00  THRDIS  =  2.00D-01  THRVAR  =  1.00D-10
 THRLOC  =  1.00D-06  THRGAP  =  1.00D-06  THRLOCT = -1.00D+00  THRGAPT = -1.00D+00  THRORB  =  1.00D-06  THRMLTP =  0.00D+00
 THRCPQCI=  1.00D-10  KEXTA   =  0.00D+00  THRCOARS=  0.00D+00  SYMTOL  =  1.00D-06  GRADTOL =  1.00D-06  THROVL  =  1.00D-08
 THRORTH =  1.00D-08  GRID    =  1.00D-06  GRIDMAX =  1.00D-03  DTMAX   =  0.00D+00  THROCCDE=  1.00D-01  THROCCDE=  1.00D-01



 THRESHOLDS:

 ZERO    =  1.00D-22  ONEINT  =  1.00D-22  TWOINT  =  1.00D-22  PREFAC  =  1.00D-14  LOCALI  =  1.00D-09  EORDER  =  1.00D-04
 ENERGY  =  1.00D-12  ETEST   =  0.00D+00  EDENS   =  0.00D+00  THRDEDEF=  1.00D-06  GRADIENT=  1.00D-02  STEP    =  1.00D-03
 ORBITAL =  1.00D-05  CIVEC   =  1.00D-05  COEFF   =  1.00D-04  PRINTCI =  5.00D-02  PUNCHCI =  9.90D+01  OPTGRAD =  1.00D-08
 OPTENERG=  1.00D-06  OPTSTEP =  1.00D-08  THRGRAD =  1.00D-10  COMPRESS=  1.00D-11  VARMIN  =  1.00D-07  VARMAX  =  1.00D-03
 THRDOUB =  0.00D+00  THRDIV  =  1.00D-05  THRRED  =  1.00D-07  THRPSP  =  1.00D+00  THRDC   =  1.00D-10  THRCS   =  1.00D-10
 THRNRM  =  1.00D-08  THREQ   =  0.00D+00  THRDE   =  1.00D+00  THRREF  =  1.00D-05  SPARFAC =  1.00D+00  THRDLP  =  1.00D-07
 THRDIA  =  1.00D-10  THRDLS  =  1.00D-07  THRGPS  =  0.00D+00  THRKEX  =  0.00D+00  THRDIS  =  2.00D-01  THRVAR  =  1.00D-10
 THRLOC  =  1.00D-06  THRGAP  =  1.00D-06  THRLOCT = -1.00D+00  THRGAPT = -1.00D+00  THRORB  =  1.00D-06  THRMLTP =  0.00D+00
 THRCPQCI=  1.00D-10  KEXTA   =  0.00D+00  THRCOARS=  0.00D+00  SYMTOL  =  1.00D-06  GRADTOL =  1.00D-06  THROVL  =  1.00D-08
 THRORTH =  1.00D-08  GRID    =  1.00D-06  GRIDMAX =  1.00D-03  DTMAX   =  0.00D+00  THROCCDE=  1.00D-01  THROCCDE=  1.00D-01



 Input parameters for SORTINT:

 COMPRESS =    0.000000
 C_FINAL  =    1.000000
 DEBUG    =   -1.000000
 C_SORT1  =    0.000000
 C_SEWARD =    0.000000
 THRESH   =    0.000000
 IO       =  molpro                                                          
 SPRI     =    0.000000
 SETTING GEOMTYP        =    XYZ
 ZUNIT=BOHR
 

 Variable memory set to  995000000 words,  buffer space   230000 words

 SETTING BASIS          =    AV5Z


 Recomputing integrals since basis changed


 Using spherical harmonics

 Library entry H      S aug-cc-pV5Z          selected for orbital group  1
 Library entry H      P aug-cc-pV5Z          selected for orbital group  1
 Library entry H      D aug-cc-pV5Z          selected for orbital group  1
 Library entry H      F aug-cc-pV5Z          selected for orbital group  1
 Library entry H      G aug-cc-pV5Z          selected for orbital group  1
 Library entry N      S aug-cc-pV5Z          selected for orbital group  2
 Library entry N      P aug-cc-pV5Z          selected for orbital group  2
 Library entry N      D aug-cc-pV5Z          selected for orbital group  2
 Library entry N      F aug-cc-pV5Z          selected for orbital group  2
 Library entry N      G aug-cc-pV5Z          selected for orbital group  2
 Library entry N      H aug-cc-pV5Z          selected for orbital group  2
 Library entry O      S aug-cc-pV5Z          selected for orbital group  3
 Library entry O      P aug-cc-pV5Z          selected for orbital group  3
 Library entry O      D aug-cc-pV5Z          selected for orbital group  3
 Library entry O      F aug-cc-pV5Z          selected for orbital group  3
 Library entry O      G aug-cc-pV5Z          selected for orbital group  3
 Library entry O      H aug-cc-pV5Z          selected for orbital group  3


 PROGRAM * SEWARD (Integral evaluation for generally contracted gaussian basis sets)     Author: Roland Lindh, 1990

 Geometry written to block  1 of record 700


 Point group  Cs  



 ATOMIC COORDINATES

 NR  ATOM    CHARGE       X              Y              Z

   1  H       1.00    0.000000000    1.665375440   -1.916340388
   2  N       7.00    0.000000000   -0.168478589   -1.148650725
   3  O       8.00    0.000000000    0.044870939    1.114401522

 Bond lengths in Bohr (Angstrom)

 1-2  1.988056342  2-3  2.273086777
     ( 1.052034110)     ( 1.202865721)

 Bond angles

  1-2-3  107.32955680

 NUCLEAR CHARGE:                   16
 NUMBER OF PRIMITIVE AOS:         506
 NUMBER OF SYMMETRY AOS:          371
 NUMBER OF CONTRACTIONS:          334   ( 204A'  + 130A"  )
 NUMBER OF CORE ORBITALS:           2   (   2A'  +   0A"  )
 NUMBER OF VALENCE ORBITALS:        9   (   7A'  +   2A"  )


 NUCLEAR REPULSION ENERGY   30.48489278


 Eigenvalues of metric

         1 0.112E-04 0.171E-04 0.637E-04 0.984E-04 0.103E-03 0.136E-03 0.200E-03 0.223E-03
         2 0.125E-03 0.364E-03 0.110E-02 0.154E-02 0.192E-02 0.249E-02 0.326E-02 0.388E-02


 Contracted 2-electron integrals neglected if value below      1.0D-22

      756977592. INTEGRALS WRITTEN OUT IN  184855 BLOCKS ON RECORD 1290 OF FILE 1


 NUMBER OF SORTED TWO-ELECTRON INTEGRALS:  789027325.     BUFFER LENGTH:  32768
 NUMBER OF SEGMENTS:  25  SEGMENT LENGTH:   31997130      RECORD LENGTH: 524288

 Memory used in sort:      32.55 MW

 SORT1 READ   756977592. AND WROTE   760993486. INTEGRALS IN   2189 RECORDS. CPU TIME:    29.88 SEC, REAL TIME:    73.02 SEC
 SORT2 READ   760993486. AND WROTE   789027325. INTEGRALS IN     25 RECORDS. CPU TIME:    10.10 SEC, REAL TIME:    30.89 SEC

 FILE SIZES:   FILE 1: 12137.5 MBYTE,  FILE 4:  9181.4 MBYTE,   TOTAL:  21318.9 MBYTE

 OPERATOR DM      FOR CENTER  0  COORDINATES:    0.000000    0.000000    0.000000


 **********************************************************************************************************************************
 DATASETS  * FILE   NREC   LENGTH (MB)   RECORD NAMES
              1      19     6374.22       500      610      700      900      950      970     1000      129      960     1100   
                                          VAR    BASINP    GEOM    SYMINP    ZMAT    AOBASIS   BASIS     P2S    ABASIS      S 
                                         1400     1410     1200     1210     1080     1600     1650     1300     1700   
                                           T        V       H0       H01     AOSYM     SMH    MOLCAS    ERIS     OPER   

 PROGRAMS   *        TOTAL       INT
 CPU TIMES  *       125.48    125.39
 REAL TIME  *       195.61 SEC
 DISK USED  *        21.32 GB      
 **********************************************************************************************************************************


 PROGRAM * RHF-SCF (CLOSED SHELL)       Authors: W. Meyer, H.-J. Werner


 NUMBER OF ELECTRONS:       8+    8-
 CONVERGENCE THRESHOLDS:    1.00E-10 (Density)    1.00E-13 (Energy)
 MAX. NUMBER OF ITERATIONS:      500
 INTERPOLATION TYPE:            DIIS
 INTERPOLATION STEPS:              2 (START)      1 (STEP)
 LEVEL SHIFTS:                  0.00 (CLOSED)  0.00 (OPEN) 



 Orbital guess generated from atomic densities. Full valence occupancy:    9   2

 Molecular orbital dump at record        2100.2

 Initial occupancy:   7   1

 ITERATION    DDIFF          GRAD             ENERGY        2-EL.EN.            DIPOLE MOMENTS         DIIS   ORB.
    1      0.000D+00      0.000D+00      -129.79981038    154.191077    0.00000    0.58567   -1.01075    0    start
    2      0.000D+00      0.638D-02      -129.82720378    155.416949    0.00000    0.60786   -0.20630    1    diag
    3      0.397D-02      0.482D-02      -129.84944784    155.533861    0.00000    0.55092   -0.58339    2    diag
    4      0.204D-02      0.762D-03      -129.85024019    155.253523    0.00000    0.55884   -0.52285    3    diag
    5      0.375D-03      0.248D-03      -129.85036454    155.346525    0.00000    0.56400   -0.52535    4    diag
    6      0.155D-03      0.719D-04      -129.85038445    155.330256    0.00000    0.56428   -0.52122    5    diag
    7      0.596D-04      0.356D-04      -129.85039019    155.333098    0.00000    0.56551   -0.51864    6    diag
    8      0.408D-04      0.123D-04      -129.85039082    155.332402    0.00000    0.56556   -0.51765    7    diag
    9      0.154D-04      0.236D-05      -129.85039085    155.332295    0.00000    0.56552   -0.51744    8    diag
   10      0.305D-05      0.535D-06      -129.85039085    155.332278    0.00000    0.56549   -0.51741    9    orth
   11      0.603D-06      0.108D-06      -129.85039085    155.332274    0.00000    0.56548   -0.51741    9    diag
   12      0.114D-06      0.221D-07      -129.85039085    155.332274    0.00000    0.56548   -0.51741    9    diag
   13      0.252D-07      0.575D-08      -129.85039085    155.332274    0.00000    0.56548   -0.51741    9    diag
   14      0.672D-08      0.112D-08      -129.85039085    155.332273    0.00000    0.56548   -0.51741    9    diag
   15      0.123D-08      0.324D-09      -129.85039085    155.332274    0.00000    0.56548   -0.51741    9    diag
   16      0.366D-09      0.994D-10      -129.85039085    155.332274    0.00000    0.56548   -0.51741    9    diag
   17      0.826D-10      0.271D-10      -129.85039085    155.332274    0.00000    0.56548   -0.51741    9    diag
   18      0.283D-10      0.926D-11      -129.85039085    155.332274    0.00000    0.56548   -0.51741    9    diag
   19      0.200D-10      0.234D-11      -129.85039085    155.332274    0.00000    0.56548   -0.51741    9    fixocc
   20      0.189D-10      0.548D-12      -129.85039085    155.332274    0.00000    0.56548   -0.51741    9    orth
   21      0.999D-11      0.383D-12      -129.85039085    155.332274    0.00000    0.56548   -0.51741    9    diag
   22      0.633D-11      0.509D-12      -129.85039085    155.332274    0.00000    0.56548   -0.51741    0    orth

 Final occupancy:   7   1

 !RHF STATE 1.1 Energy               -129.850390853023
 Nuclear energy                        30.48489278
 One-electron energy                 -238.00142039
 Two-electron energy                   77.66613675
 Virial quotient                       -1.00152128
 !RHF STATE 1.1 Dipole moment           0.00000000     0.56547996    -0.51740519
 Dipole moment /Debye                   0.00000000     1.43721257    -1.31502669

 Orbital energies:

         1.1          2.1          3.1          4.1          5.1          6.1          7.1          8.1          9.1
    -20.652221   -15.711441    -1.533935    -0.992645    -0.748804    -0.667383    -0.429551     0.022971     0.065565

         1.2          2.2          3.2
     -0.598593     0.061331     0.092129

 HOMO      7.1    -0.429551 =     -11.6887eV
 LUMO      8.1     0.022971 =       0.6251eV
 LUMO-HOMO         0.452522 =      12.3137eV


 **********************************************************************************************************************************
 DATASETS  * FILE   NREC   LENGTH (MB)   RECORD NAMES
              1      19     6374.22       500      610      700      900      950      970     1000      129      960     1100   
                                          VAR    BASINP    GEOM    SYMINP    ZMAT    AOBASIS   BASIS     P2S    ABASIS      S 
                                         1400     1410     1200     1210     1080     1600     1650     1300     1700   
                                           T        V       H0       H01     AOSYM     SMH    MOLCAS    ERIS     OPER   

              2       4        4.02       700     1000      520     2100   
                                         GEOM     BASIS   MCVARS     RHF  

 PROGRAMS   *        TOTAL        HF       INT
 CPU TIMES  *       195.20     69.72    125.39
 REAL TIME  *       284.62 SEC
 DISK USED  *        21.32 GB      
 **********************************************************************************************************************************


 PROGRAM * CCSD (Closed-shell coupled cluster)     Authors: C. Hampel, H.-J. Werner, 1991, M. Deegan, P.J. Knowles, 1992


 Convergence thresholds:  THRVAR = 1.00D-08  THRDEN = 1.00D-12

 CCSD(T)     terms to be evaluated (factor= 1.000)


 Number of core orbitals:           2 (   2   0 )
 Number of closed-shell orbitals:   6 (   5   1 )
 Number of external orbitals:     326 ( 197 129 )

 Molecular orbitals read from record     2100.2  Type=RHF/CANONICAL (state 1.1)

 Number of N-1 electron functions:               6
 Number of N-2 electron functions:              21
 Number of singly external CSFs:              1114
 Number of doubly external CSFs:            975958
 Total number of CSFs:                      977073

 Length of J-op  integral file:               0.00 MB
 Length of K-op  integral file:               4.07 MB
 Length of 3-ext integral record:             0.00 MB

 Memory could be reduced to 151.33 Mwords without degradation in triples

 Integral transformation finished. Total CPU:   9.94 sec, npass=  1  Memory used:  41.21 MW

 Reference energy:                   -129.85039085

 MP2 singlet pair energy:              -0.31065676
 MP2 triplet pair energy:              -0.17166626
 MP2 correlation energy:               -0.48232302
 MP2 total energy:                   -130.33271388

 SCS-MP2 correlation energy:           -0.47960268   (PS=  1.200000  PT=  0.333333)
 SCS-MP2 total energy:               -130.32999353

 ITER.      SQ.NORM     CORR.ENERGY   TOTAL ENERGY   ENERGY CHANGE        DEN1      VAR(S)    VAR(P)  DIIS     TIME  TIME/IT
   1      1.12001779    -0.47952561  -130.32991647     0.00279741     0.01922121  0.31D-02  0.31D-02  1  1    17.78     8.71
   2      1.13050424    -0.47945823  -130.32984908     0.00006739    -0.01253367  0.10D-03  0.48D-03  2  2    25.88     8.83
   3      1.13654387    -0.47982984  -130.33022070    -0.00037162    -0.00297108  0.46D-04  0.55D-04  3  3    33.90     8.87
   4      1.13926360    -0.47982831  -130.33021917     0.00000153    -0.00095028  0.43D-05  0.96D-05  4  4    41.87     8.89
   5      1.14034665    -0.47985639  -130.33024724    -0.00002807    -0.00024131  0.11D-05  0.16D-05  5  5    49.89     8.90
   6      1.14068880    -0.47984535  -130.33023620     0.00001104    -0.00004842  0.11D-06  0.39D-06  6  6    57.83     8.91
   7      1.14076247    -0.47984496  -130.33023582     0.00000039     0.00000318  0.17D-07  0.89D-07  6  1    65.92     8.92
   8      1.14078695    -0.47984502  -130.33023587    -0.00000006    -0.00000292  0.35D-08  0.18D-07  6  2    74.02     8.93
   9      1.14079518    -0.47984449  -130.33023534     0.00000053    -0.00000021  0.21D-08  0.19D-08  6  3    82.05     8.93
  10      1.14079079    -0.47984520  -130.33023605    -0.00000071     0.00000153  0.32D-09  0.30D-09  6  5    90.03     8.94
  11      1.14079261    -0.47984519  -130.33023604     0.00000001    -0.00000033  0.92D-10  0.25D-10  6  4    98.07     8.94
  12      1.14079219    -0.47984525  -130.33023610    -0.00000006     0.00000005  0.17D-10  0.58D-11  6  6   106.12     8.94
  13      1.14079198    -0.47984525  -130.33023611    -0.00000000    -0.00000003  0.29D-11  0.85D-12  6  1   114.01     8.94
  14      1.14079173    -0.47984526  -130.33023612    -0.00000001     0.00000004  0.43D-12  0.16D-12  6  3   121.88     8.94
  15      1.14079166    -0.47984527  -130.33023612    -0.00000000     0.00000001  0.11D-12  0.21D-13  6  2   129.89     8.94
  16      1.14079165    -0.47984527  -130.33023612     0.00000000     0.00000000  0.30D-13  0.84D-14  6  4   137.92     8.95
  17      1.14079165    -0.47984527  -130.33023612    -0.00000000    -0.00000000  0.17D-14  0.10D-14  6  5   145.91     8.95
  18      1.14079166    -0.47984527  -130.33023612     0.00000000    -0.00000000  0.26D-15  0.28D-15  6  6   153.98     8.95
  19      1.14079166    -0.47984527  -130.33023612     0.00000000    -0.00000000  0.49D-16  0.38D-16  6  1   161.82     8.95
  20      1.14079166    -0.47984527  -130.33023612     0.00000000    -0.00000000  0.10D-16  0.56D-17  6  3   169.82     8.95
  21      1.14079166    -0.47984527  -130.33023612    -0.00000000     0.00000000  0.20D-17  0.99D-18  6  2   177.79     8.95
  22      1.14079166    -0.47984527  -130.33023612    -0.00000000     0.00000000  0.36D-18  0.15D-18  6  4   185.73     8.95
  23      1.14079166    -0.47984527  -130.33023612    -0.00000000     0.00000000  0.71D-19  0.36D-19  6  5   193.75     8.95
  24      1.14079166    -0.47984527  -130.33023612    -0.00000000     0.00000000  0.29D-19  0.16D-19  6  6   201.79     8.95
  25      1.14079166    -0.47984527  -130.33023612    -0.00000000     0.00000000  0.14D-19  0.76D-20  6  1   209.79     8.95

 Norm of t1 vector:      0.07518242      S-energy:    -0.00000000      T1 diagnostic:  0.01534655
                                                                       D1 diagnostic:  0.04145945

 Doubles amplitudes (print threshold =  0.500E-01):

         I         J         SYM. A    SYM. B    A         B      T(IJ, AB)

         6         6         2         2         1         1     -0.07526881
         6         6         2         2         1         2      0.05295284
         6         6         2         2         2         1      0.05295284


 Total CPU time for triples:     83.25 sec


 RESULTS
 =======

  Reference energy                   -129.850390853024
  CCSD singlet pair energy             -0.332746074842
  CCSD triplet pair energy             -0.147099191654
  CCSD correlation energy              -0.479845266498

  Triples (T) contribution             -0.022745328607
  Total correlation energy             -0.502590595105

  CCSD total energy                  -130.330236119522
  CCSD[T] energy                     -130.354033310443
  CCSD-T energy                      -130.352608569239
 !CCSD(T) total energy               -130.352981448129

 Timing summary (sec):

 STEP                 CPU(USER)    SYS     CPU(TOT)    WALL
 Transformation          9.99      1.30     11.29     11.29
 CCSD iterations       199.81     23.94    223.75    223.85
 Triples                83.25      1.74     84.99     85.02

 Program statistics:

 Available memory in ccsd:               994999756
 Min. memory needed in ccsd:               3348832
 Max. memory used in ccsd:                 4143652
 Max. memory used in cckext:               8340089 (25 integral passes)



 **********************************************************************************************************************************
 DATASETS  * FILE   NREC   LENGTH (MB)   RECORD NAMES
              1      20     6809.41       500      610      700      900      950      970     1000      129      960     1100   
                                          VAR    BASINP    GEOM    SYMINP    ZMAT    AOBASIS   BASIS     P2S    ABASIS      S 
                                         1400     1410     1200     1210     1080     1600     1650     1300     1700     1380   
                                           T        V       H0       H01     AOSYM     SMH    MOLCAS    ERIS     OPER     JKOP   

              2       4        4.02       700     1000      520     2100   
                                         GEOM     BASIS   MCVARS     RHF  

 PROGRAMS   *        TOTAL   CCSD(T)        HF       INT
 CPU TIMES  *       488.28    293.08     69.72    125.39
 REAL TIME  *       604.82 SEC
 DISK USED  *        21.32 GB      
 **********************************************************************************************************************************

 CCSD(T)/aug-cc-pV5Z energy=   -130.352981448129

        CCSD(T)         HF-SCF  
   -130.35298145   -129.85039085
 **********************************************************************************************************************************
 Molpro calculation terminated
 Variable memory released
