
 Primary working directories    : /tmp/r2666/281890.maple
 Secondary working directories  : /tmp/r2666/281890.maple
 Wavefunction directory         : /ddn/home4/r2666/wfu/
 Main file repository           : /tmp/r2666/281890.maple/

 SHA1      : d5ffa45e93fdbca01ffc919aa182cfdae0147319
 NAME      : 2015.1.35
 ARCHNAME  : linux/x86_64
 FC        : /opt/intel/composer_xe_2015.1.133/bin/intel64/ifort
 BLASLIB   : -Wl,-_start-group /opt/intel/mkl/lib/intel64/libmkl_intel_ilp64.a /opt/intel/mkl/lib/intel64/libmkl_intel_thread.a /opt/intel/mkl/lib/intel64/libmkl_core.a -Wl,-_end-group
 id        : olemiss

 Nodes     nprocs
 cn086        1

 Using customized tuning parameters: mindgm=1; mindgv=20; mindgc=4; mindgr=1; noblas=0; minvec=7
 default implementation of scratch files=df  

 ***,hno CCSD(T)/TZ-F12 QFF
 memory, 995, m;
 gthresh,energy=1.d-12,zero=1.d-22,oneint=1.d-22,twoint=1.d-22;
 gthresh,optgrad=1.d-8,optstep=1.d-8;
 nocompress;
 geomtyp=xyz
 bohr
 geometry={
 3
         45        45
 H        0.0000000000        1.6647122751       -1.9321189941
 N        0.0000000000       -0.1573172911       -1.1606938596
 O        0.0000000000        0.0343728060        1.1422232627
 }
 
 basis=av5z
   {hf,maxit=500;accu,20;}
 {ccsd(t),nocheck,maxit=250;orbital,IGNORE_ERROR;}

 Variables initialized (889), CPU time= 0.01 sec
 Commands  initialized (702), CPU time= 0.01 sec, 572 directives.
 Default parameters read. Elapsed time= 0.07 sec

 Checking input...
 Passed
1


                                         ***  PROGRAM SYSTEM MOLPRO  ***
                                       Copyright, TTI GmbH Stuttgart, 2015
                                    Version 2015.1 linked Jul  9 2018 13:16:40


 **********************************************************************************************************************************
 LABEL *   hno CCSD(T)/TZ-F12 QFF                                                        
  64 bit serial version                                                                  DATE: 04-Mar-20          TIME: 13:20:09  
 **********************************************************************************************************************************

 SHA1:             d5ffa45e93fdbca01ffc919aa182cfdae0147319
 **********************************************************************************************************************************

 THRESHOLDS:

 ZERO    =  1.00D-22  ONEINT  =  1.00D-22  TWOINT  =  1.00D-22  PREFAC  =  1.00D-14  LOCALI  =  1.00D-09  EORDER  =  1.00D-04
 ENERGY  =  1.00D-12  ETEST   =  0.00D+00  EDENS   =  0.00D+00  THRDEDEF=  1.00D-06  GRADIENT=  1.00D-02  STEP    =  1.00D-03
 ORBITAL =  1.00D-05  CIVEC   =  1.00D-05  COEFF   =  1.00D-04  PRINTCI =  5.00D-02  PUNCHCI =  9.90D+01  OPTGRAD =  3.00D-04
 OPTENERG=  1.00D-06  OPTSTEP =  3.00D-04  THRGRAD =  1.00D-10  COMPRESS=  1.00D-11  VARMIN  =  1.00D-07  VARMAX  =  1.00D-03
 THRDOUB =  0.00D+00  THRDIV  =  1.00D-05  THRRED  =  1.00D-07  THRPSP  =  1.00D+00  THRDC   =  1.00D-10  THRCS   =  1.00D-10
 THRNRM  =  1.00D-08  THREQ   =  0.00D+00  THRDE   =  1.00D+00  THRREF  =  1.00D-05  SPARFAC =  1.00D+00  THRDLP  =  1.00D-07
 THRDIA  =  1.00D-10  THRDLS  =  1.00D-07  THRGPS  =  0.00D+00  THRKEX  =  0.00D+00  THRDIS  =  2.00D-01  THRVAR  =  1.00D-10
 THRLOC  =  1.00D-06  THRGAP  =  1.00D-06  THRLOCT = -1.00D+00  THRGAPT = -1.00D+00  THRORB  =  1.00D-06  THRMLTP =  0.00D+00
 THRCPQCI=  1.00D-10  KEXTA   =  0.00D+00  THRCOARS=  0.00D+00  SYMTOL  =  1.00D-06  GRADTOL =  1.00D-06  THROVL  =  1.00D-08
 THRORTH =  1.00D-08  GRID    =  1.00D-06  GRIDMAX =  1.00D-03  DTMAX   =  0.00D+00  THROCCDE=  1.00D-01  THROCCDE=  1.00D-01



 THRESHOLDS:

 ZERO    =  1.00D-22  ONEINT  =  1.00D-22  TWOINT  =  1.00D-22  PREFAC  =  1.00D-14  LOCALI  =  1.00D-09  EORDER  =  1.00D-04
 ENERGY  =  1.00D-12  ETEST   =  0.00D+00  EDENS   =  0.00D+00  THRDEDEF=  1.00D-06  GRADIENT=  1.00D-02  STEP    =  1.00D-03
 ORBITAL =  1.00D-05  CIVEC   =  1.00D-05  COEFF   =  1.00D-04  PRINTCI =  5.00D-02  PUNCHCI =  9.90D+01  OPTGRAD =  1.00D-08
 OPTENERG=  1.00D-06  OPTSTEP =  1.00D-08  THRGRAD =  1.00D-10  COMPRESS=  1.00D-11  VARMIN  =  1.00D-07  VARMAX  =  1.00D-03
 THRDOUB =  0.00D+00  THRDIV  =  1.00D-05  THRRED  =  1.00D-07  THRPSP  =  1.00D+00  THRDC   =  1.00D-10  THRCS   =  1.00D-10
 THRNRM  =  1.00D-08  THREQ   =  0.00D+00  THRDE   =  1.00D+00  THRREF  =  1.00D-05  SPARFAC =  1.00D+00  THRDLP  =  1.00D-07
 THRDIA  =  1.00D-10  THRDLS  =  1.00D-07  THRGPS  =  0.00D+00  THRKEX  =  0.00D+00  THRDIS  =  2.00D-01  THRVAR  =  1.00D-10
 THRLOC  =  1.00D-06  THRGAP  =  1.00D-06  THRLOCT = -1.00D+00  THRGAPT = -1.00D+00  THRORB  =  1.00D-06  THRMLTP =  0.00D+00
 THRCPQCI=  1.00D-10  KEXTA   =  0.00D+00  THRCOARS=  0.00D+00  SYMTOL  =  1.00D-06  GRADTOL =  1.00D-06  THROVL  =  1.00D-08
 THRORTH =  1.00D-08  GRID    =  1.00D-06  GRIDMAX =  1.00D-03  DTMAX   =  0.00D+00  THROCCDE=  1.00D-01  THROCCDE=  1.00D-01



 Input parameters for SORTINT:

 COMPRESS =    0.000000
 C_FINAL  =    1.000000
 DEBUG    =   -1.000000
 C_SORT1  =    0.000000
 C_SEWARD =    0.000000
 THRESH   =    0.000000
 IO       =  molpro                                                          
 SPRI     =    0.000000
 SETTING GEOMTYP        =    XYZ
 ZUNIT=BOHR
 

 Variable memory set to  995000000 words,  buffer space   230000 words

 SETTING BASIS          =    AV5Z


 Recomputing integrals since basis changed


 Using spherical harmonics

 Library entry H      S aug-cc-pV5Z          selected for orbital group  1
 Library entry H      P aug-cc-pV5Z          selected for orbital group  1
 Library entry H      D aug-cc-pV5Z          selected for orbital group  1
 Library entry H      F aug-cc-pV5Z          selected for orbital group  1
 Library entry H      G aug-cc-pV5Z          selected for orbital group  1
 Library entry N      S aug-cc-pV5Z          selected for orbital group  2
 Library entry N      P aug-cc-pV5Z          selected for orbital group  2
 Library entry N      D aug-cc-pV5Z          selected for orbital group  2
 Library entry N      F aug-cc-pV5Z          selected for orbital group  2
 Library entry N      G aug-cc-pV5Z          selected for orbital group  2
 Library entry N      H aug-cc-pV5Z          selected for orbital group  2
 Library entry O      S aug-cc-pV5Z          selected for orbital group  3
 Library entry O      P aug-cc-pV5Z          selected for orbital group  3
 Library entry O      D aug-cc-pV5Z          selected for orbital group  3
 Library entry O      F aug-cc-pV5Z          selected for orbital group  3
 Library entry O      G aug-cc-pV5Z          selected for orbital group  3
 Library entry O      H aug-cc-pV5Z          selected for orbital group  3


 PROGRAM * SEWARD (Integral evaluation for generally contracted gaussian basis sets)     Author: Roland Lindh, 1990

 Geometry written to block  1 of record 700


 Point group  Cs  



 ATOMIC COORDINATES

 NR  ATOM    CHARGE       X              Y              Z

   1  H       1.00    0.000000000    1.664712275   -1.932118994
   2  N       7.00    0.000000000   -0.157317291   -1.160693860
   3  O       8.00    0.000000000    0.034372806    1.142223263

 Bond lengths in Bohr (Angstrom)

 1-2  1.978607712  2-3  2.310881296
     ( 1.047034111)     ( 1.222865719)

 Bond angles

  1-2-3  108.18899349

 NUCLEAR CHARGE:                   16
 NUMBER OF PRIMITIVE AOS:         506
 NUMBER OF SYMMETRY AOS:          371
 NUMBER OF CONTRACTIONS:          334   ( 204A'  + 130A"  )
 NUMBER OF CORE ORBITALS:           2   (   2A'  +   0A"  )
 NUMBER OF VALENCE ORBITALS:        9   (   7A'  +   2A"  )


 NUCLEAR REPULSION ENERGY   30.06994795


 Eigenvalues of metric

         1 0.114E-04 0.178E-04 0.636E-04 0.104E-03 0.110E-03 0.141E-03 0.201E-03 0.225E-03
         2 0.133E-03 0.359E-03 0.117E-02 0.169E-02 0.191E-02 0.265E-02 0.325E-02 0.390E-02


 Contracted 2-electron integrals neglected if value below      1.0D-22

      756977350. INTEGRALS WRITTEN OUT IN  184855 BLOCKS ON RECORD 1290 OF FILE 1


 NUMBER OF SORTED TWO-ELECTRON INTEGRALS:  789027325.     BUFFER LENGTH:  32768
 NUMBER OF SEGMENTS:  25  SEGMENT LENGTH:   31997130      RECORD LENGTH: 524288

 Memory used in sort:      32.55 MW

 SORT1 READ   756977350. AND WROTE   760993231. INTEGRALS IN   2189 RECORDS. CPU TIME:    12.83 SEC, REAL TIME:    17.68 SEC
 SORT2 READ   760993231. AND WROTE   789027325. INTEGRALS IN     25 RECORDS. CPU TIME:     8.12 SEC, REAL TIME:    11.48 SEC

 FILE SIZES:   FILE 1: 12137.5 MBYTE,  FILE 4:  9181.4 MBYTE,   TOTAL:  21318.9 MBYTE

 OPERATOR DM      FOR CENTER  0  COORDINATES:    0.000000    0.000000    0.000000


 **********************************************************************************************************************************
 DATASETS  * FILE   NREC   LENGTH (MB)   RECORD NAMES
              1      19     6374.22       500      610      700      900      950      970     1000      129      960     1100   
                                          VAR    BASINP    GEOM    SYMINP    ZMAT    AOBASIS   BASIS     P2S    ABASIS      S 
                                         1400     1410     1200     1210     1080     1600     1650     1300     1700   
                                           T        V       H0       H01     AOSYM     SMH    MOLCAS    ERIS     OPER   

 PROGRAMS   *        TOTAL       INT
 CPU TIMES  *       106.48    106.37
 REAL TIME  *       121.28 SEC
 DISK USED  *        21.32 GB      
 **********************************************************************************************************************************


 PROGRAM * RHF-SCF (CLOSED SHELL)       Authors: W. Meyer, H.-J. Werner


 NUMBER OF ELECTRONS:       8+    8-
 CONVERGENCE THRESHOLDS:    1.00E-10 (Density)    1.00E-13 (Energy)
 MAX. NUMBER OF ITERATIONS:      500
 INTERPOLATION TYPE:            DIIS
 INTERPOLATION STEPS:              2 (START)      1 (STEP)
 LEVEL SHIFTS:                  0.00 (CLOSED)  0.00 (OPEN) 



 Orbital guess generated from atomic densities. Full valence occupancy:    9   2

 Molecular orbital dump at record        2100.2

 Initial occupancy:   7   1

 ITERATION    DDIFF          GRAD             ENERGY        2-EL.EN.            DIPOLE MOMENTS         DIIS   ORB.
    1      0.000D+00      0.000D+00      -129.79431012    153.445773    0.00000    0.60470   -1.07664    0    start
    2      0.000D+00      0.651D-02      -129.82097592    154.629390    0.00000    0.61979   -0.20104    1    diag
    3      0.412D-02      0.512D-02      -129.84637560    154.792681    0.00000    0.56480   -0.61693    2    diag
    4      0.215D-02      0.783D-03      -129.84721486    154.496946    0.00000    0.57184   -0.55271    3    diag
    5      0.385D-03      0.254D-03      -129.84734617    154.591747    0.00000    0.57703   -0.55491    4    diag
    6      0.160D-03      0.734D-04      -129.84736720    154.575284    0.00000    0.57723   -0.55043    5    diag
    7      0.614D-04      0.371D-04      -129.84737356    154.577910    0.00000    0.57841   -0.54759    6    diag
    8      0.426D-04      0.137D-04      -129.84737439    154.577148    0.00000    0.57844   -0.54644    7    diag
    9      0.177D-04      0.269D-05      -129.84737443    154.577024    0.00000    0.57840   -0.54619    8    diag
   10      0.370D-05      0.588D-06      -129.84737443    154.577006    0.00000    0.57837   -0.54616    9    orth
   11      0.670D-06      0.116D-06      -129.84737443    154.577002    0.00000    0.57836   -0.54616    9    diag
   12      0.120D-06      0.244D-07      -129.84737443    154.577002    0.00000    0.57836   -0.54616    9    diag
   13      0.257D-07      0.666D-08      -129.84737443    154.577002    0.00000    0.57836   -0.54616    9    diag
   14      0.733D-08      0.129D-08      -129.84737443    154.577002    0.00000    0.57836   -0.54616    9    diag
   15      0.133D-08      0.365D-09      -129.84737443    154.577002    0.00000    0.57836   -0.54616    9    diag
   16      0.405D-09      0.107D-09      -129.84737443    154.577002    0.00000    0.57836   -0.54616    9    diag
   17      0.746D-10      0.271D-10      -129.84737443    154.577002    0.00000    0.57836   -0.54616    9    diag
   18      0.240D-10      0.910D-11      -129.84737443    154.577002    0.00000    0.57836   -0.54616    9    diag
   19      0.148D-10      0.225D-11      -129.84737443    154.577002    0.00000    0.57836   -0.54616    9    fixocc
   20      0.204D-10      0.608D-12      -129.84737443    154.577002    0.00000    0.57836   -0.54616    9    orth
   21      0.859D-11      0.349D-12      -129.84737443    154.577002    0.00000    0.57836   -0.54616    9    diag
   22      0.818D-11      0.267D-12      -129.84737443    154.577002    0.00000    0.57836   -0.54616    9    diag
   23      0.288D-11      0.270D-12      -129.84737443    154.577002    0.00000    0.57836   -0.54616    9    diag
   24      0.226D-11      0.284D-12      -129.84737443    154.577002    0.00000    0.57836   -0.54616    9    diag
   25      0.121D-11      0.382D-12      -129.84737443    154.577002    0.00000    0.57836   -0.54616    9    diag
   26      0.152D-11      0.251D-12      -129.84737443    154.577002    0.00000    0.57836   -0.54616    9    diag
   27      0.125D-11      0.282D-12      -129.84737443    154.577002    0.00000    0.57836   -0.54616    0    orth

 Final occupancy:   7   1

 !RHF STATE 1.1 Energy               -129.847374428850
 Nuclear energy                        30.06994795
 One-electron energy                 -237.20582349
 Two-electron energy                   77.28850112
 Virial quotient                       -1.00207193
 !RHF STATE 1.1 Dipole moment           0.00000000     0.57835878    -0.54615806
 Dipole moment /Debye                   0.00000000     1.46994512    -1.38810441

 Orbital energies:

         1.1          2.1          3.1          4.1          5.1          6.1          7.1          8.1          9.1
    -20.654280   -15.714076    -1.517373    -0.999135    -0.743267    -0.661880    -0.435376     0.022689     0.065519

         1.2          2.2          3.2
     -0.589025     0.057016     0.090349

 HOMO      7.1    -0.435376 =     -11.8472eV
 LUMO      8.1     0.022689 =       0.6174eV
 LUMO-HOMO         0.458065 =      12.4646eV


 **********************************************************************************************************************************
 DATASETS  * FILE   NREC   LENGTH (MB)   RECORD NAMES
              1      19     6374.22       500      610      700      900      950      970     1000      129      960     1100   
                                          VAR    BASINP    GEOM    SYMINP    ZMAT    AOBASIS   BASIS     P2S    ABASIS      S 
                                         1400     1410     1200     1210     1080     1600     1650     1300     1700   
                                           T        V       H0       H01     AOSYM     SMH    MOLCAS    ERIS     OPER   

              2       4        4.02       700     1000      520     2100   
                                         GEOM     BASIS   MCVARS     RHF  

 PROGRAMS   *        TOTAL        HF       INT
 CPU TIMES  *       191.57     85.09    106.37
 REAL TIME  *       231.57 SEC
 DISK USED  *        21.32 GB      
 **********************************************************************************************************************************


 PROGRAM * CCSD (Closed-shell coupled cluster)     Authors: C. Hampel, H.-J. Werner, 1991, M. Deegan, P.J. Knowles, 1992


 Convergence thresholds:  THRVAR = 1.00D-08  THRDEN = 1.00D-12

 CCSD(T)     terms to be evaluated (factor= 1.000)


 Number of core orbitals:           2 (   2   0 )
 Number of closed-shell orbitals:   6 (   5   1 )
 Number of external orbitals:     326 ( 197 129 )

 Molecular orbitals read from record     2100.2  Type=RHF/CANONICAL (state 1.1)

 Number of N-1 electron functions:               6
 Number of N-2 electron functions:              21
 Number of singly external CSFs:              1114
 Number of doubly external CSFs:            975958
 Total number of CSFs:                      977073

 Length of J-op  integral file:               0.00 MB
 Length of K-op  integral file:               4.07 MB
 Length of 3-ext integral record:             0.00 MB

 Memory could be reduced to 151.33 Mwords without degradation in triples

 Integral transformation finished. Total CPU:  10.11 sec, npass=  1  Memory used:  41.21 MW

 Reference energy:                   -129.84737443

 MP2 singlet pair energy:              -0.31258578
 MP2 triplet pair energy:              -0.17297449
 MP2 correlation energy:               -0.48556027
 MP2 total energy:                   -130.33293470

 SCS-MP2 correlation energy:           -0.48273151   (PS=  1.200000  PT=  0.333333)
 SCS-MP2 total energy:               -130.33010594

 ITER.      SQ.NORM     CORR.ENERGY   TOTAL ENERGY   ENERGY CHANGE        DEN1      VAR(S)    VAR(P)  DIIS     TIME  TIME/IT
   1      1.12202381    -0.48195757  -130.32933200     0.00360270     0.02089919  0.34D-02  0.34D-02  1  1    18.11     8.86
   2      1.13300951    -0.48171029  -130.32908472     0.00024728    -0.01305356  0.11D-03  0.51D-03  2  2    26.29     8.98
   3      1.13942449    -0.48211162  -130.32948605    -0.00040133    -0.00307829  0.52D-04  0.60D-04  3  3    34.35     9.03
   4      1.14238572    -0.48211089  -130.32948532     0.00000073    -0.00101221  0.50D-05  0.11D-04  4  4    42.46     9.05
   5      1.14361802    -0.48214259  -130.32951702    -0.00003170    -0.00027187  0.12D-05  0.17D-05  5  5    50.58     9.07
   6      1.14400067    -0.48212945  -130.32950388     0.00001314    -0.00005463  0.12D-06  0.41D-06  6  6    58.72     9.07
   7      1.14407696    -0.48212927  -130.32950370     0.00000018     0.00000427  0.16D-07  0.96D-07  6  1    66.78     9.08
   8      1.14410282    -0.48212914  -130.32950357     0.00000013    -0.00000330  0.33D-08  0.20D-07  6  2    74.95     9.09
   9      1.14410782    -0.48212873  -130.32950315     0.00000042     0.00000142  0.26D-08  0.26D-08  6  4    82.98     9.09
  10      1.14411058    -0.48212906  -130.32950349    -0.00000033    -0.00000089  0.55D-09  0.32D-09  6  3    91.01     9.09
  11      1.14411044    -0.48212915  -130.32950358    -0.00000009    -0.00000014  0.17D-09  0.45D-10  6  5    99.13     9.10
  12      1.14410944    -0.48212930  -130.32950373    -0.00000015     0.00000041  0.22D-10  0.13D-10  6  6   107.27     9.10
  13      1.14410852    -0.48212935  -130.32950378    -0.00000005     0.00000023  0.62D-11  0.29D-11  6  1   115.33     9.10
  14      1.14410775    -0.48212939  -130.32950382    -0.00000004     0.00000018  0.37D-12  0.57D-12  6  4   123.47     9.10
  15      1.14410752    -0.48212939  -130.32950382    -0.00000001     0.00000004  0.84D-13  0.50D-13  6  2   131.49     9.11
  16      1.14410746    -0.48212940  -130.32950383    -0.00000000     0.00000001  0.23D-13  0.86D-14  6  3   139.54     9.11
  17      1.14410743    -0.48212940  -130.32950383    -0.00000000     0.00000001  0.46D-14  0.12D-14  6  5   147.65     9.11
  18      1.14410743    -0.48212940  -130.32950383    -0.00000000     0.00000000  0.10D-14  0.30D-15  6  6   155.76     9.11
  19      1.14410743    -0.48212940  -130.32950383    -0.00000000     0.00000000  0.14D-15  0.58D-16  6  1   163.76     9.11
  20      1.14410743    -0.48212940  -130.32950383     0.00000000    -0.00000000  0.15D-16  0.89D-17  6  4   171.84     9.11
  21      1.14410743    -0.48212940  -130.32950383     0.00000000    -0.00000000  0.11D-17  0.13D-17  6  3   179.94     9.11
  22      1.14410743    -0.48212940  -130.32950383     0.00000000    -0.00000000  0.30D-18  0.26D-18  6  2   187.96     9.11
  23      1.14410743    -0.48212940  -130.32950383     0.00000000    -0.00000000  0.68D-19  0.11D-18  6  5   196.17     9.11
  24      1.14410743    -0.48212940  -130.32950383     0.00000000     0.00000000  0.22D-19  0.51D-19  6  4   204.24     9.11
  25      1.14410743    -0.48212940  -130.32950383     0.00000000     0.00000000  0.10D-19  0.32D-19  6  6   212.41     9.11

 Norm of t1 vector:      0.07859430      S-energy:     0.00000000      T1 diagnostic:  0.01604299
                                                                       D1 diagnostic:  0.04418248

 Doubles amplitudes (print threshold =  0.500E-01):

         I         J         SYM. A    SYM. B    A         B      T(IJ, AB)

         6         6         2         2         1         1     -0.09034948
         6         6         2         2         1         2      0.05253619
         6         6         2         2         2         1      0.05253619


 Total CPU time for triples:     85.45 sec


 RESULTS
 =======

  Reference energy                   -129.847374428851
  CCSD singlet pair energy             -0.334731282073
  CCSD triplet pair energy             -0.147398115523
  CCSD correlation energy              -0.482129397595

  Triples (T) contribution             -0.023369192201
  Total correlation energy             -0.505498589796

  CCSD total energy                  -130.329503826446
  CCSD[T] energy                     -130.354014447242
  CCSD-T energy                      -130.352479688748
 !CCSD(T) total energy               -130.352873018647

 Timing summary (sec):

 STEP                 CPU(USER)    SYS     CPU(TOT)    WALL
 Transformation         10.16      1.48     11.64     11.65
 CCSD iterations       202.26     25.57    227.83    227.88
 Triples                85.45      1.85     87.30     87.30

 Program statistics:

 Available memory in ccsd:               994999756
 Min. memory needed in ccsd:               3348832
 Max. memory used in ccsd:                 4143652
 Max. memory used in cckext:               8340089 (25 integral passes)



 **********************************************************************************************************************************
 DATASETS  * FILE   NREC   LENGTH (MB)   RECORD NAMES
              1      20     6809.41       500      610      700      900      950      970     1000      129      960     1100   
                                          VAR    BASINP    GEOM    SYMINP    ZMAT    AOBASIS   BASIS     P2S    ABASIS      S 
                                         1400     1410     1200     1210     1080     1600     1650     1300     1700     1380   
                                           T        V       H0       H01     AOSYM     SMH    MOLCAS    ERIS     OPER     JKOP   

              2       4        4.02       700     1000      520     2100   
                                         GEOM     BASIS   MCVARS     RHF  

 PROGRAMS   *        TOTAL   CCSD(T)        HF       INT
 CPU TIMES  *       489.46    297.89     85.09    106.37
 REAL TIME  *       558.45 SEC
 DISK USED  *        21.32 GB      
 **********************************************************************************************************************************

 CCSD(T)/aug-cc-pV5Z energy=   -130.352873018647

        CCSD(T)         HF-SCF  
   -130.35287302   -129.84737443
 **********************************************************************************************************************************
 Molpro calculation terminated
 Variable memory released
