
 Primary working directories    : /tmp/r2666/281964.maple
 Secondary working directories  : /tmp/r2666/281964.maple
 Wavefunction directory         : /ddn/home4/r2666/wfu/
 Main file repository           : /tmp/r2666/281964.maple/

 SHA1      : d5ffa45e93fdbca01ffc919aa182cfdae0147319
 NAME      : 2015.1.35
 ARCHNAME  : linux/x86_64
 FC        : /opt/intel/composer_xe_2015.1.133/bin/intel64/ifort
 BLASLIB   : -Wl,-_start-group /opt/intel/mkl/lib/intel64/libmkl_intel_ilp64.a /opt/intel/mkl/lib/intel64/libmkl_intel_thread.a /opt/intel/mkl/lib/intel64/libmkl_core.a -Wl,-_end-group
 id        : olemiss

 Nodes     nprocs
 cn074        1

 Using customized tuning parameters: mindgm=1; mindgv=20; mindgc=4; mindgr=1; noblas=0; minvec=7
 default implementation of scratch files=df  

 ***,hno CCSD(T)/TZ-F12 QFF
 memory, 995, m;
 gthresh,energy=1.d-12,zero=1.d-22,oneint=1.d-22,twoint=1.d-22;
 gthresh,optgrad=1.d-8,optstep=1.d-8;
 nocompress;
 geomtyp=xyz
 bohr
 geometry={
 3
        119       119
 H        0.0000000000        1.6763576861       -1.9435007866
 N        0.0000000000       -0.1630747152       -1.1407858922
 O        0.0000000000        0.0284848191        1.1336970878
 }
 
 basis=av5z
   {hf,maxit=500;accu,20;}
 {ccsd(t),nocheck,maxit=250;orbital,IGNORE_ERROR;}

 Variables initialized (889), CPU time= 0.00 sec
 Commands  initialized (702), CPU time= 0.01 sec, 572 directives.
 Default parameters read. Elapsed time= 0.04 sec

 Checking input...
 Passed
1


                                         ***  PROGRAM SYSTEM MOLPRO  ***
                                       Copyright, TTI GmbH Stuttgart, 2015
                                    Version 2015.1 linked Jul  9 2018 13:16:40


 **********************************************************************************************************************************
 LABEL *   hno CCSD(T)/TZ-F12 QFF                                                        
  64 bit serial version                                                                  DATE: 04-Mar-20          TIME: 13:35:04  
 **********************************************************************************************************************************

 SHA1:             d5ffa45e93fdbca01ffc919aa182cfdae0147319
 **********************************************************************************************************************************

 THRESHOLDS:

 ZERO    =  1.00D-22  ONEINT  =  1.00D-22  TWOINT  =  1.00D-22  PREFAC  =  1.00D-14  LOCALI  =  1.00D-09  EORDER  =  1.00D-04
 ENERGY  =  1.00D-12  ETEST   =  0.00D+00  EDENS   =  0.00D+00  THRDEDEF=  1.00D-06  GRADIENT=  1.00D-02  STEP    =  1.00D-03
 ORBITAL =  1.00D-05  CIVEC   =  1.00D-05  COEFF   =  1.00D-04  PRINTCI =  5.00D-02  PUNCHCI =  9.90D+01  OPTGRAD =  3.00D-04
 OPTENERG=  1.00D-06  OPTSTEP =  3.00D-04  THRGRAD =  1.00D-10  COMPRESS=  1.00D-11  VARMIN  =  1.00D-07  VARMAX  =  1.00D-03
 THRDOUB =  0.00D+00  THRDIV  =  1.00D-05  THRRED  =  1.00D-07  THRPSP  =  1.00D+00  THRDC   =  1.00D-10  THRCS   =  1.00D-10
 THRNRM  =  1.00D-08  THREQ   =  0.00D+00  THRDE   =  1.00D+00  THRREF  =  1.00D-05  SPARFAC =  1.00D+00  THRDLP  =  1.00D-07
 THRDIA  =  1.00D-10  THRDLS  =  1.00D-07  THRGPS  =  0.00D+00  THRKEX  =  0.00D+00  THRDIS  =  2.00D-01  THRVAR  =  1.00D-10
 THRLOC  =  1.00D-06  THRGAP  =  1.00D-06  THRLOCT = -1.00D+00  THRGAPT = -1.00D+00  THRORB  =  1.00D-06  THRMLTP =  0.00D+00
 THRCPQCI=  1.00D-10  KEXTA   =  0.00D+00  THRCOARS=  0.00D+00  SYMTOL  =  1.00D-06  GRADTOL =  1.00D-06  THROVL  =  1.00D-08
 THRORTH =  1.00D-08  GRID    =  1.00D-06  GRIDMAX =  1.00D-03  DTMAX   =  0.00D+00  THROCCDE=  1.00D-01  THROCCDE=  1.00D-01



 THRESHOLDS:

 ZERO    =  1.00D-22  ONEINT  =  1.00D-22  TWOINT  =  1.00D-22  PREFAC  =  1.00D-14  LOCALI  =  1.00D-09  EORDER  =  1.00D-04
 ENERGY  =  1.00D-12  ETEST   =  0.00D+00  EDENS   =  0.00D+00  THRDEDEF=  1.00D-06  GRADIENT=  1.00D-02  STEP    =  1.00D-03
 ORBITAL =  1.00D-05  CIVEC   =  1.00D-05  COEFF   =  1.00D-04  PRINTCI =  5.00D-02  PUNCHCI =  9.90D+01  OPTGRAD =  1.00D-08
 OPTENERG=  1.00D-06  OPTSTEP =  1.00D-08  THRGRAD =  1.00D-10  COMPRESS=  1.00D-11  VARMIN  =  1.00D-07  VARMAX  =  1.00D-03
 THRDOUB =  0.00D+00  THRDIV  =  1.00D-05  THRRED  =  1.00D-07  THRPSP  =  1.00D+00  THRDC   =  1.00D-10  THRCS   =  1.00D-10
 THRNRM  =  1.00D-08  THREQ   =  0.00D+00  THRDE   =  1.00D+00  THRREF  =  1.00D-05  SPARFAC =  1.00D+00  THRDLP  =  1.00D-07
 THRDIA  =  1.00D-10  THRDLS  =  1.00D-07  THRGPS  =  0.00D+00  THRKEX  =  0.00D+00  THRDIS  =  2.00D-01  THRVAR  =  1.00D-10
 THRLOC  =  1.00D-06  THRGAP  =  1.00D-06  THRLOCT = -1.00D+00  THRGAPT = -1.00D+00  THRORB  =  1.00D-06  THRMLTP =  0.00D+00
 THRCPQCI=  1.00D-10  KEXTA   =  0.00D+00  THRCOARS=  0.00D+00  SYMTOL  =  1.00D-06  GRADTOL =  1.00D-06  THROVL  =  1.00D-08
 THRORTH =  1.00D-08  GRID    =  1.00D-06  GRIDMAX =  1.00D-03  DTMAX   =  0.00D+00  THROCCDE=  1.00D-01  THROCCDE=  1.00D-01



 Input parameters for SORTINT:

 COMPRESS =    0.000000
 C_FINAL  =    1.000000
 DEBUG    =   -1.000000
 C_SORT1  =    0.000000
 C_SEWARD =    0.000000
 THRESH   =    0.000000
 IO       =  molpro                                                          
 SPRI     =    0.000000
 SETTING GEOMTYP        =    XYZ
 ZUNIT=BOHR
 

 Variable memory set to  995000000 words,  buffer space   230000 words

 SETTING BASIS          =    AV5Z


 Recomputing integrals since basis changed


 Using spherical harmonics

 Library entry H      S aug-cc-pV5Z          selected for orbital group  1
 Library entry H      P aug-cc-pV5Z          selected for orbital group  1
 Library entry H      D aug-cc-pV5Z          selected for orbital group  1
 Library entry H      F aug-cc-pV5Z          selected for orbital group  1
 Library entry H      G aug-cc-pV5Z          selected for orbital group  1
 Library entry N      S aug-cc-pV5Z          selected for orbital group  2
 Library entry N      P aug-cc-pV5Z          selected for orbital group  2
 Library entry N      D aug-cc-pV5Z          selected for orbital group  2
 Library entry N      F aug-cc-pV5Z          selected for orbital group  2
 Library entry N      G aug-cc-pV5Z          selected for orbital group  2
 Library entry N      H aug-cc-pV5Z          selected for orbital group  2
 Library entry O      S aug-cc-pV5Z          selected for orbital group  3
 Library entry O      P aug-cc-pV5Z          selected for orbital group  3
 Library entry O      D aug-cc-pV5Z          selected for orbital group  3
 Library entry O      F aug-cc-pV5Z          selected for orbital group  3
 Library entry O      G aug-cc-pV5Z          selected for orbital group  3
 Library entry O      H aug-cc-pV5Z          selected for orbital group  3


 PROGRAM * SEWARD (Integral evaluation for generally contracted gaussian basis sets)     Author: Roland Lindh, 1990

 Geometry written to block  1 of record 700


 Point group  Cs  



 ATOMIC COORDINATES

 NR  ATOM    CHARGE       X              Y              Z

   1  H       1.00    0.000000000    1.676357686   -1.943500787
   2  N       7.00    0.000000000   -0.163074715   -1.140785892
   3  O       8.00    0.000000000    0.028484819    1.133697088

 Bond lengths in Bohr (Angstrom)

 1-2  2.006953602  2-3  2.282535406
     ( 1.062034110)     ( 1.207865720)

 Bond angles

  1-2-3  108.76195128

 NUCLEAR CHARGE:                   16
 NUMBER OF PRIMITIVE AOS:         506
 NUMBER OF SYMMETRY AOS:          371
 NUMBER OF CONTRACTIONS:          334   ( 204A'  + 130A"  )
 NUMBER OF CORE ORBITALS:           2   (   2A'  +   0A"  )
 NUMBER OF VALENCE ORBITALS:        9   (   7A'  +   2A"  )


 NUCLEAR REPULSION ENERGY   30.31383172


 Eigenvalues of metric

         1 0.115E-04 0.174E-04 0.647E-04 0.101E-03 0.105E-03 0.137E-03 0.201E-03 0.225E-03
         2 0.127E-03 0.376E-03 0.113E-02 0.159E-02 0.202E-02 0.254E-02 0.336E-02 0.400E-02


 Contracted 2-electron integrals neglected if value below      1.0D-22

      756977358. INTEGRALS WRITTEN OUT IN  184855 BLOCKS ON RECORD 1290 OF FILE 1


 NUMBER OF SORTED TWO-ELECTRON INTEGRALS:  789027325.     BUFFER LENGTH:  32768
 NUMBER OF SEGMENTS:  25  SEGMENT LENGTH:   31997130      RECORD LENGTH: 524288

 Memory used in sort:      32.55 MW

 SORT1 READ   756977358. AND WROTE   760993231. INTEGRALS IN   2189 RECORDS. CPU TIME:    12.88 SEC, REAL TIME:    17.76 SEC
 SORT2 READ   760993231. AND WROTE   789027325. INTEGRALS IN     25 RECORDS. CPU TIME:     7.85 SEC, REAL TIME:    11.07 SEC

 FILE SIZES:   FILE 1: 12137.5 MBYTE,  FILE 4:  9181.4 MBYTE,   TOTAL:  21318.9 MBYTE

 OPERATOR DM      FOR CENTER  0  COORDINATES:    0.000000    0.000000    0.000000


 **********************************************************************************************************************************
 DATASETS  * FILE   NREC   LENGTH (MB)   RECORD NAMES
              1      19     6374.21       500      610      700      900      950      970     1000      129      960     1100   
                                          VAR    BASINP    GEOM    SYMINP    ZMAT    AOBASIS   BASIS     P2S    ABASIS      S 
                                         1400     1410     1200     1210     1080     1600     1650     1300     1700   
                                           T        V       H0       H01     AOSYM     SMH    MOLCAS    ERIS     OPER   

 PROGRAMS   *        TOTAL       INT
 CPU TIMES  *       105.98    105.91
 REAL TIME  *       121.03 SEC
 DISK USED  *        21.32 GB      
 **********************************************************************************************************************************


 PROGRAM * RHF-SCF (CLOSED SHELL)       Authors: W. Meyer, H.-J. Werner


 NUMBER OF ELECTRONS:       8+    8-
 CONVERGENCE THRESHOLDS:    1.00E-10 (Density)    1.00E-13 (Energy)
 MAX. NUMBER OF ITERATIONS:      500
 INTERPOLATION TYPE:            DIIS
 INTERPOLATION STEPS:              2 (START)      1 (STEP)
 LEVEL SHIFTS:                  0.00 (CLOSED)  0.00 (OPEN) 



 Orbital guess generated from atomic densities. Full valence occupancy:    9   2

 Molecular orbital dump at record        2100.2

 Initial occupancy:   7   1

 ITERATION    DDIFF          GRAD             ENERGY        2-EL.EN.            DIPOLE MOMENTS         DIIS   ORB.
    1      0.000D+00      0.000D+00      -129.79770774    153.869405    0.00000    0.59383   -1.03117    0    start
    2      0.000D+00      0.644D-02      -129.82490757    155.104932    0.00000    0.60908   -0.20581    1    diag
    3      0.403D-02      0.493D-02      -129.84830480    155.228534    0.00000    0.55525   -0.59542    2    diag
    4      0.208D-02      0.770D-03      -129.84911442    154.942074    0.00000    0.56226   -0.53361    3    diag
    5      0.379D-03      0.250D-03      -129.84924230    155.036835    0.00000    0.56770   -0.53622    4    diag
    6      0.157D-03      0.728D-04      -129.84926287    155.020379    0.00000    0.56798   -0.53197    5    diag
    7      0.607D-04      0.362D-04      -129.84926884    155.023221    0.00000    0.56924   -0.52936    6    diag
    8      0.415D-04      0.128D-04      -129.84926953    155.022509    0.00000    0.56929   -0.52832    7    diag
    9      0.160D-04      0.248D-05      -129.84926956    155.022393    0.00000    0.56926   -0.52810    8    diag
   10      0.326D-05      0.564D-06      -129.84926956    155.022373    0.00000    0.56922   -0.52807    9    orth
   11      0.642D-06      0.113D-06      -129.84926956    155.022369    0.00000    0.56922   -0.52806    9    diag
   12      0.121D-06      0.230D-07      -129.84926956    155.022369    0.00000    0.56921   -0.52806    9    diag
   13      0.259D-07      0.605D-08      -129.84926956    155.022369    0.00000    0.56921   -0.52806    9    diag
   14      0.707D-08      0.119D-08      -129.84926956    155.022369    0.00000    0.56921   -0.52806    9    diag
   15      0.130D-08      0.338D-09      -129.84926956    155.022369    0.00000    0.56921   -0.52806    9    diag
   16      0.387D-09      0.102D-09      -129.84926956    155.022369    0.00000    0.56921   -0.52806    9    diag
   17      0.755D-10      0.270D-10      -129.84926956    155.022369    0.00000    0.56921   -0.52806    9    diag
   18      0.244D-10      0.931D-11      -129.84926956    155.022369    0.00000    0.56921   -0.52806    9    diag
   19      0.139D-10      0.233D-11      -129.84926956    155.022369    0.00000    0.56921   -0.52806    9    fixocc
   20      0.226D-10      0.573D-12      -129.84926956    155.022369    0.00000    0.56921   -0.52806    9    orth
   21      0.140D-10      0.387D-12      -129.84926956    155.022369    0.00000    0.56921   -0.52806    9    diag
   22      0.528D-11      0.403D-12      -129.84926956    155.022369    0.00000    0.56921   -0.52806    9    diag
   23      0.388D-11      0.304D-12      -129.84926956    155.022369    0.00000    0.56921   -0.52806    9    diag
   24      0.488D-11      0.330D-12      -129.84926956    155.022369    0.00000    0.56921   -0.52806    9    diag
   25      0.257D-11      0.329D-12      -129.84926956    155.022369    0.00000    0.56921   -0.52806    9    diag
   26      0.262D-11      0.311D-12      -129.84926956    155.022369    0.00000    0.56921   -0.52806    9    diag
   27      0.373D-11      0.264D-12      -129.84926956    155.022369    0.00000    0.56921   -0.52806    9    diag
   28      0.219D-11      0.265D-12      -129.84926956    155.022369    0.00000    0.56921   -0.52806    9    diag
   29      0.163D-11      0.294D-12      -129.84926956    155.022369    0.00000    0.56921   -0.52806    9    diag
   30      0.575D-12      0.193D-12      -129.84926956    155.022369    0.00000    0.56921   -0.52806    0    orth

 Final occupancy:   7   1

 !RHF STATE 1.1 Energy               -129.849269560917
 Nuclear energy                        30.31383172
 One-electron energy                 -237.67428568
 Two-electron energy                   77.51118440
 Virial quotient                       -1.00183226
 !RHF STATE 1.1 Dipole moment           0.00000000     0.56921249    -0.52806185
 Dipole moment /Debye                   0.00000000     1.44669909    -1.34211143

 Orbital energies:

         1.1          2.1          3.1          4.1          5.1          6.1          7.1          8.1          9.1
    -20.653279   -15.713399    -1.528994    -0.992214    -0.746087    -0.666254    -0.429557     0.022811     0.065544

         1.2          2.2          3.2
     -0.596175     0.060147     0.091685

 HOMO      7.1    -0.429557 =     -11.6888eV
 LUMO      8.1     0.022811 =       0.6207eV
 LUMO-HOMO         0.452368 =      12.3096eV


 **********************************************************************************************************************************
 DATASETS  * FILE   NREC   LENGTH (MB)   RECORD NAMES
              1      19     6374.21       500      610      700      900      950      970     1000      129      960     1100   
                                          VAR    BASINP    GEOM    SYMINP    ZMAT    AOBASIS   BASIS     P2S    ABASIS      S 
                                         1400     1410     1200     1210     1080     1600     1650     1300     1700   
                                           T        V       H0       H01     AOSYM     SMH    MOLCAS    ERIS     OPER   

              2       4        4.02       700     1000      520     2100   
                                         GEOM     BASIS   MCVARS     RHF  

 PROGRAMS   *        TOTAL        HF       INT
 CPU TIMES  *       199.97     93.99    105.91
 REAL TIME  *       242.56 SEC
 DISK USED  *        21.32 GB      
 **********************************************************************************************************************************


 PROGRAM * CCSD (Closed-shell coupled cluster)     Authors: C. Hampel, H.-J. Werner, 1991, M. Deegan, P.J. Knowles, 1992


 Convergence thresholds:  THRVAR = 1.00D-08  THRDEN = 1.00D-12

 CCSD(T)     terms to be evaluated (factor= 1.000)


 Number of core orbitals:           2 (   2   0 )
 Number of closed-shell orbitals:   6 (   5   1 )
 Number of external orbitals:     326 ( 197 129 )

 Molecular orbitals read from record     2100.2  Type=RHF/CANONICAL (state 1.1)

 Number of N-1 electron functions:               6
 Number of N-2 electron functions:              21
 Number of singly external CSFs:              1114
 Number of doubly external CSFs:            975958
 Total number of CSFs:                      977073

 Length of J-op  integral file:               0.00 MB
 Length of K-op  integral file:               4.07 MB
 Length of 3-ext integral record:             0.00 MB

 Memory could be reduced to 151.33 Mwords without degradation in triples

 Integral transformation finished. Total CPU:   9.92 sec, npass=  1  Memory used:  41.21 MW

 Reference energy:                   -129.84926956

 MP2 singlet pair energy:              -0.31138462
 MP2 triplet pair energy:              -0.17214596
 MP2 correlation energy:               -0.48353058
 MP2 total energy:                   -130.33280014

 SCS-MP2 correlation energy:           -0.48077459   (PS=  1.200000  PT=  0.333333)
 SCS-MP2 total energy:               -130.33004415

 ITER.      SQ.NORM     CORR.ENERGY   TOTAL ENERGY   ENERGY CHANGE        DEN1      VAR(S)    VAR(P)  DIIS     TIME  TIME/IT
   1      1.12092921    -0.48050180  -130.32977136     0.00302878     0.01979206  0.32D-02  0.32D-02  1  1    17.81     8.75
   2      1.13162751    -0.48037754  -130.32964710     0.00012426    -0.01273743  0.11D-03  0.49D-03  2  2    25.84     8.86
   3      1.13784010    -0.48076629  -130.33003585    -0.00038875    -0.00302170  0.49D-04  0.57D-04  3  3    33.87     8.91
   4      1.14065463    -0.48076284  -130.33003240     0.00000345    -0.00097741  0.47D-05  0.10D-04  4  4    41.89     8.93
   5      1.14180674    -0.48079255  -130.33006212    -0.00002972    -0.00025543  0.12D-05  0.17D-05  5  5    50.01     8.96
   6      1.14216962    -0.48078086  -130.33005043     0.00001169    -0.00005113  0.13D-06  0.41D-06  6  6    58.03     8.97
   7      1.14224822    -0.48078030  -130.33004986     0.00000056     0.00000313  0.19D-07  0.93D-07  6  1    66.00     8.97
   8      1.14227434    -0.48078032  -130.33004988    -0.00000002    -0.00000316  0.36D-08  0.19D-07  6  2    73.96     8.98
   9      1.14228339    -0.48077972  -130.33004928     0.00000060    -0.00000018  0.22D-08  0.21D-08  6  3    81.98     8.98
  10      1.14227882    -0.48078047  -130.33005003    -0.00000075     0.00000156  0.36D-09  0.34D-09  6  5    89.93     8.98
  11      1.14228079    -0.48078046  -130.33005002     0.00000001    -0.00000035  0.10D-09  0.29D-10  6  4    97.90     8.98
  12      1.14228033    -0.48078052  -130.33005009    -0.00000007     0.00000005  0.19D-10  0.67D-11  6  6   106.05     8.99
  13      1.14228011    -0.48078053  -130.33005009    -0.00000000    -0.00000003  0.34D-11  0.99D-12  6  1   114.01     8.99
  14      1.14227982    -0.48078054  -130.33005010    -0.00000001     0.00000004  0.50D-12  0.18D-12  6  3   121.82     8.99
  15      1.14227974    -0.48078054  -130.33005010    -0.00000000     0.00000001  0.13D-12  0.25D-13  6  2   129.83     8.99
  16      1.14227973    -0.48078054  -130.33005010     0.00000000     0.00000000  0.35D-13  0.99D-14  6  4   137.83     8.99
  17      1.14227973    -0.48078054  -130.33005010    -0.00000000    -0.00000000  0.19D-14  0.12D-14  6  5   145.84     8.99
  18      1.14227973    -0.48078054  -130.33005010     0.00000000    -0.00000000  0.29D-15  0.33D-15  6  6   153.90     8.99
  19      1.14227974    -0.48078054  -130.33005010     0.00000000    -0.00000000  0.34D-16  0.46D-16  6  2   161.98     9.00
  20      1.14227974    -0.48078054  -130.33005010     0.00000000    -0.00000000  0.92D-17  0.69D-17  6  1   169.98     9.00
  21      1.14227974    -0.48078054  -130.33005010    -0.00000000     0.00000000  0.16D-17  0.96D-18  6  3   177.96     9.00
  22      1.14227974    -0.48078054  -130.33005010    -0.00000000     0.00000000  0.30D-18  0.14D-18  6  4   185.95     9.00
  23      1.14227974    -0.48078054  -130.33005010    -0.00000000     0.00000000  0.87D-19  0.43D-19  6  5   193.99     9.00
  24      1.14227974    -0.48078054  -130.33005010    -0.00000000     0.00000000  0.37D-19  0.18D-19  6  6   201.96     9.00
  25      1.14227974    -0.48078054  -130.33005010    -0.00000000     0.00000000  0.18D-19  0.74D-20  6  2   210.08     9.00

 Norm of t1 vector:      0.07679843      S-energy:    -0.00000000      T1 diagnostic:  0.01567641
                                                                       D1 diagnostic:  0.04225148

 Doubles amplitudes (print threshold =  0.500E-01):

         I         J         SYM. A    SYM. B    A         B      T(IJ, AB)

         6         6         2         2         1         1     -0.07924282
         6         6         2         2         1         2      0.05295387
         6         6         2         2         2         1      0.05295387


 Total CPU time for triples:     83.16 sec


 RESULTS
 =======

  Reference energy                   -129.849269560917
  CCSD singlet pair energy             -0.333553822646
  CCSD triplet pair energy             -0.147226719500
  CCSD correlation energy              -0.480780542149

  Triples (T) contribution             -0.022990568309
  Total correlation energy             -0.503771110458

  CCSD total energy                  -130.330050103066
  CCSD[T] energy                     -130.354131900082
  CCSD-T energy                      -130.352657022690
 !CCSD(T) total energy               -130.353040671375

 Timing summary (sec):

 STEP                 CPU(USER)    SYS     CPU(TOT)    WALL
 Transformation          9.96      1.41     11.37     11.38
 CCSD iterations       200.14     24.82    224.96    224.97
 Triples                83.16      1.81     84.97     84.98

 Program statistics:

 Available memory in ccsd:               994999756
 Min. memory needed in ccsd:               3348832
 Max. memory used in ccsd:                 4143652
 Max. memory used in cckext:               8340089 (25 integral passes)



 **********************************************************************************************************************************
 DATASETS  * FILE   NREC   LENGTH (MB)   RECORD NAMES
              1      20     6809.41       500      610      700      900      950      970     1000      129      960     1100   
                                          VAR    BASINP    GEOM    SYMINP    ZMAT    AOBASIS   BASIS     P2S    ABASIS      S 
                                         1400     1410     1200     1210     1080     1600     1650     1300     1700     1380   
                                           T        V       H0       H01     AOSYM     SMH    MOLCAS    ERIS     OPER     JKOP   

              2       4        4.02       700     1000      520     2100   
                                         GEOM     BASIS   MCVARS     RHF  

 PROGRAMS   *        TOTAL   CCSD(T)        HF       INT
 CPU TIMES  *       493.25    293.28     93.99    105.91
 REAL TIME  *       563.94 SEC
 DISK USED  *        21.32 GB      
 **********************************************************************************************************************************

 CCSD(T)/aug-cc-pV5Z energy=   -130.353040671375

        CCSD(T)         HF-SCF  
   -130.35304067   -129.84926956
 **********************************************************************************************************************************
 Molpro calculation terminated
 Variable memory released
