
 Primary working directories    : /tmp/r2666/281902.maple
 Secondary working directories  : /tmp/r2666/281902.maple
 Wavefunction directory         : /ddn/home4/r2666/wfu/
 Main file repository           : /tmp/r2666/281902.maple/

 SHA1      : d5ffa45e93fdbca01ffc919aa182cfdae0147319
 NAME      : 2015.1.35
 ARCHNAME  : linux/x86_64
 FC        : /opt/intel/composer_xe_2015.1.133/bin/intel64/ifort
 BLASLIB   : -Wl,-_start-group /opt/intel/mkl/lib/intel64/libmkl_intel_ilp64.a /opt/intel/mkl/lib/intel64/libmkl_intel_thread.a /opt/intel/mkl/lib/intel64/libmkl_core.a -Wl,-_end-group
 id        : olemiss

 Nodes     nprocs
 cn077        1

 Using customized tuning parameters: mindgm=1; mindgv=20; mindgc=4; mindgr=1; noblas=0; minvec=7
 default implementation of scratch files=df  

 ***,hno CCSD(T)/TZ-F12 QFF
 memory, 995, m;
 gthresh,energy=1.d-12,zero=1.d-22,oneint=1.d-22,twoint=1.d-22;
 gthresh,optgrad=1.d-8,optstep=1.d-8;
 nocompress;
 geomtyp=xyz
 bohr
 geometry={
 3
         57        57
 H        0.0000000000        1.6658293541       -1.9234668749
 N        0.0000000000       -0.1637086659       -1.1455474363
 O        0.0000000000        0.0396471018        1.1184247202
 }
 
 basis=av5z
   {hf,maxit=500;accu,20;}
 {ccsd(t),nocheck,maxit=250;orbital,IGNORE_ERROR;}

 Variables initialized (889), CPU time= 0.00 sec
 Commands  initialized (702), CPU time= 0.01 sec, 572 directives.
 Default parameters read. Elapsed time= 0.06 sec

 Checking input...
 Passed
1


                                         ***  PROGRAM SYSTEM MOLPRO  ***
                                       Copyright, TTI GmbH Stuttgart, 2015
                                    Version 2015.1 linked Jul  9 2018 13:16:40


 **********************************************************************************************************************************
 LABEL *   hno CCSD(T)/TZ-F12 QFF                                                        
  64 bit serial version                                                                  DATE: 04-Mar-20          TIME: 13:20:13  
 **********************************************************************************************************************************

 SHA1:             d5ffa45e93fdbca01ffc919aa182cfdae0147319
 **********************************************************************************************************************************

 THRESHOLDS:

 ZERO    =  1.00D-22  ONEINT  =  1.00D-22  TWOINT  =  1.00D-22  PREFAC  =  1.00D-14  LOCALI  =  1.00D-09  EORDER  =  1.00D-04
 ENERGY  =  1.00D-12  ETEST   =  0.00D+00  EDENS   =  0.00D+00  THRDEDEF=  1.00D-06  GRADIENT=  1.00D-02  STEP    =  1.00D-03
 ORBITAL =  1.00D-05  CIVEC   =  1.00D-05  COEFF   =  1.00D-04  PRINTCI =  5.00D-02  PUNCHCI =  9.90D+01  OPTGRAD =  3.00D-04
 OPTENERG=  1.00D-06  OPTSTEP =  3.00D-04  THRGRAD =  1.00D-10  COMPRESS=  1.00D-11  VARMIN  =  1.00D-07  VARMAX  =  1.00D-03
 THRDOUB =  0.00D+00  THRDIV  =  1.00D-05  THRRED  =  1.00D-07  THRPSP  =  1.00D+00  THRDC   =  1.00D-10  THRCS   =  1.00D-10
 THRNRM  =  1.00D-08  THREQ   =  0.00D+00  THRDE   =  1.00D+00  THRREF  =  1.00D-05  SPARFAC =  1.00D+00  THRDLP  =  1.00D-07
 THRDIA  =  1.00D-10  THRDLS  =  1.00D-07  THRGPS  =  0.00D+00  THRKEX  =  0.00D+00  THRDIS  =  2.00D-01  THRVAR  =  1.00D-10
 THRLOC  =  1.00D-06  THRGAP  =  1.00D-06  THRLOCT = -1.00D+00  THRGAPT = -1.00D+00  THRORB  =  1.00D-06  THRMLTP =  0.00D+00
 THRCPQCI=  1.00D-10  KEXTA   =  0.00D+00  THRCOARS=  0.00D+00  SYMTOL  =  1.00D-06  GRADTOL =  1.00D-06  THROVL  =  1.00D-08
 THRORTH =  1.00D-08  GRID    =  1.00D-06  GRIDMAX =  1.00D-03  DTMAX   =  0.00D+00  THROCCDE=  1.00D-01  THROCCDE=  1.00D-01



 THRESHOLDS:

 ZERO    =  1.00D-22  ONEINT  =  1.00D-22  TWOINT  =  1.00D-22  PREFAC  =  1.00D-14  LOCALI  =  1.00D-09  EORDER  =  1.00D-04
 ENERGY  =  1.00D-12  ETEST   =  0.00D+00  EDENS   =  0.00D+00  THRDEDEF=  1.00D-06  GRADIENT=  1.00D-02  STEP    =  1.00D-03
 ORBITAL =  1.00D-05  CIVEC   =  1.00D-05  COEFF   =  1.00D-04  PRINTCI =  5.00D-02  PUNCHCI =  9.90D+01  OPTGRAD =  1.00D-08
 OPTENERG=  1.00D-06  OPTSTEP =  1.00D-08  THRGRAD =  1.00D-10  COMPRESS=  1.00D-11  VARMIN  =  1.00D-07  VARMAX  =  1.00D-03
 THRDOUB =  0.00D+00  THRDIV  =  1.00D-05  THRRED  =  1.00D-07  THRPSP  =  1.00D+00  THRDC   =  1.00D-10  THRCS   =  1.00D-10
 THRNRM  =  1.00D-08  THREQ   =  0.00D+00  THRDE   =  1.00D+00  THRREF  =  1.00D-05  SPARFAC =  1.00D+00  THRDLP  =  1.00D-07
 THRDIA  =  1.00D-10  THRDLS  =  1.00D-07  THRGPS  =  0.00D+00  THRKEX  =  0.00D+00  THRDIS  =  2.00D-01  THRVAR  =  1.00D-10
 THRLOC  =  1.00D-06  THRGAP  =  1.00D-06  THRLOCT = -1.00D+00  THRGAPT = -1.00D+00  THRORB  =  1.00D-06  THRMLTP =  0.00D+00
 THRCPQCI=  1.00D-10  KEXTA   =  0.00D+00  THRCOARS=  0.00D+00  SYMTOL  =  1.00D-06  GRADTOL =  1.00D-06  THROVL  =  1.00D-08
 THRORTH =  1.00D-08  GRID    =  1.00D-06  GRIDMAX =  1.00D-03  DTMAX   =  0.00D+00  THROCCDE=  1.00D-01  THROCCDE=  1.00D-01



 Input parameters for SORTINT:

 COMPRESS =    0.000000
 C_FINAL  =    1.000000
 DEBUG    =   -1.000000
 C_SORT1  =    0.000000
 C_SEWARD =    0.000000
 THRESH   =    0.000000
 IO       =  molpro                                                          
 SPRI     =    0.000000
 SETTING GEOMTYP        =    XYZ
 ZUNIT=BOHR
 

 Variable memory set to  995000000 words,  buffer space   230000 words

 SETTING BASIS          =    AV5Z


 Recomputing integrals since basis changed


 Using spherical harmonics

 Library entry H      S aug-cc-pV5Z          selected for orbital group  1
 Library entry H      P aug-cc-pV5Z          selected for orbital group  1
 Library entry H      D aug-cc-pV5Z          selected for orbital group  1
 Library entry H      F aug-cc-pV5Z          selected for orbital group  1
 Library entry H      G aug-cc-pV5Z          selected for orbital group  1
 Library entry N      S aug-cc-pV5Z          selected for orbital group  2
 Library entry N      P aug-cc-pV5Z          selected for orbital group  2
 Library entry N      D aug-cc-pV5Z          selected for orbital group  2
 Library entry N      F aug-cc-pV5Z          selected for orbital group  2
 Library entry N      G aug-cc-pV5Z          selected for orbital group  2
 Library entry N      H aug-cc-pV5Z          selected for orbital group  2
 Library entry O      S aug-cc-pV5Z          selected for orbital group  3
 Library entry O      P aug-cc-pV5Z          selected for orbital group  3
 Library entry O      D aug-cc-pV5Z          selected for orbital group  3
 Library entry O      F aug-cc-pV5Z          selected for orbital group  3
 Library entry O      G aug-cc-pV5Z          selected for orbital group  3
 Library entry O      H aug-cc-pV5Z          selected for orbital group  3


 PROGRAM * SEWARD (Integral evaluation for generally contracted gaussian basis sets)     Author: Roland Lindh, 1990

 Geometry written to block  1 of record 700


 Point group  Cs  



 ATOMIC COORDINATES

 NR  ATOM    CHARGE       X              Y              Z

   1  H       1.00    0.000000000    1.665829354   -1.923466875
   2  N       7.00    0.000000000   -0.163708666   -1.145547436
   3  O       8.00    0.000000000    0.039647102    1.118424720

 Bond lengths in Bohr (Angstrom)

 1-2  1.988056342  2-3  2.273086777
     ( 1.052034110)     ( 1.202865721)

 Bond angles

  1-2-3  107.90251459

 NUCLEAR CHARGE:                   16
 NUMBER OF PRIMITIVE AOS:         506
 NUMBER OF SYMMETRY AOS:          371
 NUMBER OF CONTRACTIONS:          334   ( 204A'  + 130A"  )
 NUMBER OF CORE ORBITALS:           2   (   2A'  +   0A"  )
 NUMBER OF VALENCE ORBITALS:        9   (   7A'  +   2A"  )


 NUCLEAR REPULSION ENERGY   30.47645064


 Eigenvalues of metric

         1 0.112E-04 0.170E-04 0.634E-04 0.984E-04 0.103E-03 0.135E-03 0.199E-03 0.223E-03
         2 0.125E-03 0.363E-03 0.110E-02 0.154E-02 0.192E-02 0.249E-02 0.325E-02 0.388E-02


 Contracted 2-electron integrals neglected if value below      1.0D-22

      756977490. INTEGRALS WRITTEN OUT IN  184855 BLOCKS ON RECORD 1290 OF FILE 1


 NUMBER OF SORTED TWO-ELECTRON INTEGRALS:  789027325.     BUFFER LENGTH:  32768
 NUMBER OF SEGMENTS:  25  SEGMENT LENGTH:   31997130      RECORD LENGTH: 524288

 Memory used in sort:      32.55 MW

 SORT1 READ   756977490. AND WROTE   760993380. INTEGRALS IN   2189 RECORDS. CPU TIME:    33.57 SEC, REAL TIME:  1392.56 SEC
 SORT2 READ   760993380. AND WROTE   789027325. INTEGRALS IN     25 RECORDS. CPU TIME:    10.00 SEC, REAL TIME:   344.99 SEC

 FILE SIZES:   FILE 1: 12137.5 MBYTE,  FILE 4:  9181.4 MBYTE,   TOTAL:  21318.9 MBYTE

 OPERATOR DM      FOR CENTER  0  COORDINATES:    0.000000    0.000000    0.000000


 **********************************************************************************************************************************
 DATASETS  * FILE   NREC   LENGTH (MB)   RECORD NAMES
              1      19     6374.22       500      610      700      900      950      970     1000      129      960     1100   
                                          VAR    BASINP    GEOM    SYMINP    ZMAT    AOBASIS   BASIS     P2S    ABASIS      S 
                                         1400     1410     1200     1210     1080     1600     1650     1300     1700   
                                           T        V       H0       H01     AOSYM     SMH    MOLCAS    ERIS     OPER   

 PROGRAMS   *        TOTAL       INT
 CPU TIMES  *       170.37    170.28
 REAL TIME  *      2039.83 SEC
 DISK USED  *        21.32 GB      
 **********************************************************************************************************************************


 PROGRAM * RHF-SCF (CLOSED SHELL)       Authors: W. Meyer, H.-J. Werner


 NUMBER OF ELECTRONS:       8+    8-
 CONVERGENCE THRESHOLDS:    1.00E-10 (Density)    1.00E-13 (Energy)
 MAX. NUMBER OF ITERATIONS:      500
 INTERPOLATION TYPE:            DIIS
 INTERPOLATION STEPS:              2 (START)      1 (STEP)
 LEVEL SHIFTS:                  0.00 (CLOSED)  0.00 (OPEN) 



 Orbital guess generated from atomic densities. Full valence occupancy:    9   2

 Molecular orbital dump at record        2100.2

 Initial occupancy:   7   1

 ITERATION    DDIFF          GRAD             ENERGY        2-EL.EN.            DIPOLE MOMENTS         DIIS   ORB.
    1      0.000D+00      0.000D+00      -129.79990625    154.173088    0.00000    0.59059   -1.01202    0    start
    2      0.000D+00      0.638D-02      -129.82728822    155.401809    0.00000    0.60747   -0.20864    1    diag
    3      0.396D-02      0.481D-02      -129.84948407    155.518086    0.00000    0.55311   -0.58563    2    diag
    4      0.204D-02      0.763D-03      -129.85027792    155.237462    0.00000    0.56074   -0.52493    3    diag
    5      0.375D-03      0.248D-03      -129.85040211    155.330641    0.00000    0.56596   -0.52749    4    diag
    6      0.155D-03      0.717D-04      -129.85042197    155.314384    0.00000    0.56625   -0.52336    5    diag
    7      0.596D-04      0.355D-04      -129.85042769    155.317223    0.00000    0.56749   -0.52080    6    diag
    8      0.407D-04      0.123D-04      -129.85042832    155.316531    0.00000    0.56753   -0.51981    7    diag
    9      0.153D-04      0.236D-05      -129.85042835    155.316423    0.00000    0.56750   -0.51959    8    diag
   10      0.306D-05      0.538D-06      -129.85042835    155.316406    0.00000    0.56747   -0.51956    9    orth
   11      0.608D-06      0.109D-06      -129.85042835    155.316402    0.00000    0.56746   -0.51956    9    diag
   12      0.115D-06      0.220D-07      -129.85042835    155.316402    0.00000    0.56746   -0.51956    9    diag
   13      0.251D-07      0.574D-08      -129.85042835    155.316402    0.00000    0.56746   -0.51956    9    diag
   14      0.670D-08      0.112D-08      -129.85042835    155.316402    0.00000    0.56746   -0.51956    9    diag
   15      0.123D-08      0.323D-09      -129.85042835    155.316402    0.00000    0.56746   -0.51956    9    diag
   16      0.369D-09      0.990D-10      -129.85042835    155.316402    0.00000    0.56746   -0.51956    9    diag
   17      0.719D-10      0.268D-10      -129.85042835    155.316402    0.00000    0.56746   -0.51956    9    diag
   18      0.315D-10      0.915D-11      -129.85042835    155.316402    0.00000    0.56746   -0.51956    0    orth

 Final occupancy:   7   1

 !RHF STATE 1.1 Energy               -129.850428348278
 Nuclear energy                        30.47645064
 One-electron energy                 -237.98507981
 Two-electron energy                   77.65820082
 Virial quotient                       -1.00153879
 !RHF STATE 1.1 Dipole moment           0.00000000     0.56745749    -0.51955750
 Dipole moment /Debye                   0.00000000     1.44223861    -1.32049695

 Orbital energies:

         1.1          2.1          3.1          4.1          5.1          6.1          7.1          8.1          9.1
    -20.652372   -15.711344    -1.533640    -0.993006    -0.748765    -0.667509    -0.429184     0.022931     0.065557

         1.2          2.2          3.2
     -0.598519     0.061246     0.092097

 HOMO      7.1    -0.429184 =     -11.6787eV
 LUMO      8.1     0.022931 =       0.6240eV
 LUMO-HOMO         0.452115 =      12.3027eV


 **********************************************************************************************************************************
 DATASETS  * FILE   NREC   LENGTH (MB)   RECORD NAMES
              1      19     6374.22       500      610      700      900      950      970     1000      129      960     1100   
                                          VAR    BASINP    GEOM    SYMINP    ZMAT    AOBASIS   BASIS     P2S    ABASIS      S 
                                         1400     1410     1200     1210     1080     1600     1650     1300     1700   
                                           T        V       H0       H01     AOSYM     SMH    MOLCAS    ERIS     OPER   

              2       4        4.02       700     1000      520     2100   
                                         GEOM     BASIS   MCVARS     RHF  

 PROGRAMS   *        TOTAL        HF       INT
 CPU TIMES  *       232.09     61.72    170.28
 REAL TIME  *      2123.50 SEC
 DISK USED  *        21.32 GB      
 **********************************************************************************************************************************


 PROGRAM * CCSD (Closed-shell coupled cluster)     Authors: C. Hampel, H.-J. Werner, 1991, M. Deegan, P.J. Knowles, 1992


 Convergence thresholds:  THRVAR = 1.00D-08  THRDEN = 1.00D-12

 CCSD(T)     terms to be evaluated (factor= 1.000)


 Number of core orbitals:           2 (   2   0 )
 Number of closed-shell orbitals:   6 (   5   1 )
 Number of external orbitals:     326 ( 197 129 )

 Molecular orbitals read from record     2100.2  Type=RHF/CANONICAL (state 1.1)

 Number of N-1 electron functions:               6
 Number of N-2 electron functions:              21
 Number of singly external CSFs:              1114
 Number of doubly external CSFs:            975958
 Total number of CSFs:                      977073

 Length of J-op  integral file:               0.00 MB
 Length of K-op  integral file:               4.07 MB
 Length of 3-ext integral record:             0.00 MB

 Memory could be reduced to 151.33 Mwords without degradation in triples

 Integral transformation finished. Total CPU:  10.52 sec, npass=  1  Memory used:  41.21 MW

 Reference energy:                   -129.85042835

 MP2 singlet pair energy:              -0.31065620
 MP2 triplet pair energy:              -0.17166636
 MP2 correlation energy:               -0.48232256
 MP2 total energy:                   -130.33275090

 SCS-MP2 correlation energy:           -0.47960206   (PS=  1.200000  PT=  0.333333)
 SCS-MP2 total energy:               -130.33003041

 ITER.      SQ.NORM     CORR.ENERGY   TOTAL ENERGY   ENERGY CHANGE        DEN1      VAR(S)    VAR(P)  DIIS     TIME  TIME/IT
   1      1.12003336    -0.47952410  -130.32995245     0.00279845     0.01923398  0.31D-02  0.31D-02  1  1    19.33    10.01
   2      1.13052864    -0.47945424  -130.32988259     0.00006986    -0.01253989  0.10D-03  0.48D-03  2  2    28.38    10.19
   3      1.13657755    -0.47982711  -130.33025546    -0.00037287    -0.00297179  0.46D-04  0.55D-04  3  3    37.43    10.25
   4      1.13930407    -0.47982530  -130.33025365     0.00000181    -0.00095188  0.43D-05  0.97D-05  4  4    46.52    10.28
   5      1.14039465    -0.47985346  -130.33028180    -0.00002816    -0.00024266  0.11D-05  0.16D-05  5  5    55.47    10.29
   6      1.14073984    -0.47984239  -130.33027074     0.00001107    -0.00004873  0.11D-06  0.40D-06  6  6    64.45    10.30
   7      1.14081463    -0.47984199  -130.33027034     0.00000040     0.00000313  0.17D-07  0.90D-07  6  1    73.61    10.31
   8      1.14083940    -0.47984206  -130.33027041    -0.00000007    -0.00000295  0.35D-08  0.18D-07  6  2    82.71    10.32
   9      1.14084778    -0.47984153  -130.33026987     0.00000054    -0.00000021  0.21D-08  0.19D-08  6  3    91.80    10.32
  10      1.14084336    -0.47984224  -130.33027059    -0.00000072     0.00000153  0.33D-09  0.31D-09  6  5   100.74    10.33
  11      1.14084519    -0.47984223  -130.33027058     0.00000001    -0.00000033  0.94D-10  0.26D-10  6  4   109.76    10.33
  12      1.14084476    -0.47984229  -130.33027064    -0.00000006     0.00000005  0.17D-10  0.59D-11  6  6   118.89    10.33
  13      1.14084455    -0.47984230  -130.33027065    -0.00000000    -0.00000003  0.30D-11  0.88D-12  6  1   128.00    10.34
  14      1.14084430    -0.47984231  -130.33027066    -0.00000001     0.00000004  0.45D-12  0.16D-12  6  3   136.99    10.34
  15      1.14084422    -0.47984231  -130.33027066    -0.00000000     0.00000001  0.12D-12  0.22D-13  6  2   146.08    10.34
  16      1.14084421    -0.47984231  -130.33027066     0.00000000     0.00000000  0.31D-13  0.86D-14  6  4   155.12    10.34
  17      1.14084421    -0.47984231  -130.33027066    -0.00000000    -0.00000000  0.17D-14  0.11D-14  6  5   164.23    10.34
  18      1.14084422    -0.47984231  -130.33027066     0.00000000    -0.00000000  0.27D-15  0.29D-15  6  6   173.21    10.35
  19      1.14084422    -0.47984231  -130.33027066     0.00000000    -0.00000000  0.51D-16  0.40D-16  6  1   182.32    10.34
  20      1.14084422    -0.47984231  -130.33027066     0.00000000    -0.00000000  0.11D-16  0.59D-17  6  3   191.42    10.34
  21      1.14084422    -0.47984231  -130.33027066    -0.00000000     0.00000000  0.20D-17  0.10D-17  6  2   200.53    10.34
  22      1.14084422    -0.47984231  -130.33027066    -0.00000000     0.00000000  0.37D-18  0.16D-18  6  4   209.78    10.35
  23      1.14084422    -0.47984231  -130.33027066    -0.00000000     0.00000000  0.97D-19  0.50D-19  6  5   218.89    10.35
  24      1.14084422    -0.47984231  -130.33027066    -0.00000000     0.00000000  0.29D-19  0.17D-19  6  6   227.72    10.35
  25      1.14084422    -0.47984231  -130.33027066    -0.00000000     0.00000000  0.15D-19  0.85D-20  6  1   236.84    10.35

 Norm of t1 vector:      0.07533126      S-energy:    -0.00000000      T1 diagnostic:  0.01537693
                                                                       D1 diagnostic:  0.04150740

 Doubles amplitudes (print threshold =  0.500E-01):

         I         J         SYM. A    SYM. B    A         B      T(IJ, AB)

         6         6         2         2         1         1     -0.07531069
         6         6         2         2         1         2      0.05295969
         6         6         2         2         2         1      0.05295969


 Total CPU time for triples:     88.98 sec


 RESULTS
 =======

  Reference energy                   -129.850428348278
  CCSD singlet pair energy             -0.332745535020
  CCSD triplet pair energy             -0.147096775583
  CCSD correlation energy              -0.479842310605

  Triples (T) contribution             -0.022751672204
  Total correlation energy             -0.502593982809

  CCSD total energy                  -130.330270658883
  CCSD[T] energy                     -130.354077051377
  CCSD-T energy                      -130.352648751019
 !CCSD(T) total energy               -130.353022331087

 Timing summary (sec):

 STEP                 CPU(USER)    SYS     CPU(TOT)    WALL
 Transformation         10.58      1.72     12.30     12.30
 CCSD iterations       226.28     32.39    258.67    258.69
 Triples                88.98      1.74     90.72     90.73

 Program statistics:

 Available memory in ccsd:               994999756
 Min. memory needed in ccsd:               3348832
 Max. memory used in ccsd:                 4143652
 Max. memory used in cckext:               8340089 (25 integral passes)



 **********************************************************************************************************************************
 DATASETS  * FILE   NREC   LENGTH (MB)   RECORD NAMES
              1      20     6809.41       500      610      700      900      950      970     1000      129      960     1100   
                                          VAR    BASINP    GEOM    SYMINP    ZMAT    AOBASIS   BASIS     P2S    ABASIS      S 
                                         1400     1410     1200     1210     1080     1600     1650     1300     1700     1380   
                                           T        V       H0       H01     AOSYM     SMH    MOLCAS    ERIS     OPER     JKOP   

              2       4        4.02       700     1000      520     2100   
                                         GEOM     BASIS   MCVARS     RHF  

 PROGRAMS   *        TOTAL   CCSD(T)        HF       INT
 CPU TIMES  *       557.95    325.86     61.72    170.28
 REAL TIME  *      2485.29 SEC
 DISK USED  *        21.32 GB      
 **********************************************************************************************************************************

 CCSD(T)/aug-cc-pV5Z energy=   -130.353022331087

        CCSD(T)         HF-SCF  
   -130.35302233   -129.85042835
 **********************************************************************************************************************************
 Molpro calculation terminated
 Variable memory released
