
 Primary working directories    : /tmp/r2666/281950.maple
 Secondary working directories  : /tmp/r2666/281950.maple
 Wavefunction directory         : /ddn/home4/r2666/wfu/
 Main file repository           : /tmp/r2666/281950.maple/

 SHA1      : d5ffa45e93fdbca01ffc919aa182cfdae0147319
 NAME      : 2015.1.35
 ARCHNAME  : linux/x86_64
 FC        : /opt/intel/composer_xe_2015.1.133/bin/intel64/ifort
 BLASLIB   : -Wl,-_start-group /opt/intel/mkl/lib/intel64/libmkl_intel_ilp64.a /opt/intel/mkl/lib/intel64/libmkl_intel_thread.a /opt/intel/mkl/lib/intel64/libmkl_core.a -Wl,-_end-group
 id        : olemiss

 Nodes     nprocs
 cn076        1

 Using customized tuning parameters: mindgm=1; mindgv=20; mindgc=4; mindgr=1; noblas=0; minvec=7
 default implementation of scratch files=df  

 ***,hno CCSD(T)/TZ-F12 QFF
 memory, 995, m;
 gthresh,energy=1.d-12,zero=1.d-22,oneint=1.d-22,twoint=1.d-22;
 gthresh,optgrad=1.d-8,optstep=1.d-8;
 nocompress;
 geomtyp=xyz
 bohr
 geometry={
 3
        105       105
 H        0.0000000000        1.6724194370       -1.9385040111
 N        0.0000000000       -0.1619883275       -1.1479508713
 O        0.0000000000        0.0313366805        1.1358652913
 }
 
 basis=av5z
   {hf,maxit=500;accu,20;}
 {ccsd(t),nocheck,maxit=250;orbital,IGNORE_ERROR;}

 Variables initialized (889), CPU time= 0.01 sec
 Commands  initialized (702), CPU time= 0.01 sec, 572 directives.
 Default parameters read. Elapsed time= 0.04 sec

 Checking input...
 Passed
1


                                         ***  PROGRAM SYSTEM MOLPRO  ***
                                       Copyright, TTI GmbH Stuttgart, 2015
                                    Version 2015.1 linked Jul  9 2018 13:16:40


 **********************************************************************************************************************************
 LABEL *   hno CCSD(T)/TZ-F12 QFF                                                        
  64 bit serial version                                                                  DATE: 04-Mar-20          TIME: 13:34:08  
 **********************************************************************************************************************************

 SHA1:             d5ffa45e93fdbca01ffc919aa182cfdae0147319
 **********************************************************************************************************************************

 THRESHOLDS:

 ZERO    =  1.00D-22  ONEINT  =  1.00D-22  TWOINT  =  1.00D-22  PREFAC  =  1.00D-14  LOCALI  =  1.00D-09  EORDER  =  1.00D-04
 ENERGY  =  1.00D-12  ETEST   =  0.00D+00  EDENS   =  0.00D+00  THRDEDEF=  1.00D-06  GRADIENT=  1.00D-02  STEP    =  1.00D-03
 ORBITAL =  1.00D-05  CIVEC   =  1.00D-05  COEFF   =  1.00D-04  PRINTCI =  5.00D-02  PUNCHCI =  9.90D+01  OPTGRAD =  3.00D-04
 OPTENERG=  1.00D-06  OPTSTEP =  3.00D-04  THRGRAD =  1.00D-10  COMPRESS=  1.00D-11  VARMIN  =  1.00D-07  VARMAX  =  1.00D-03
 THRDOUB =  0.00D+00  THRDIV  =  1.00D-05  THRRED  =  1.00D-07  THRPSP  =  1.00D+00  THRDC   =  1.00D-10  THRCS   =  1.00D-10
 THRNRM  =  1.00D-08  THREQ   =  0.00D+00  THRDE   =  1.00D+00  THRREF  =  1.00D-05  SPARFAC =  1.00D+00  THRDLP  =  1.00D-07
 THRDIA  =  1.00D-10  THRDLS  =  1.00D-07  THRGPS  =  0.00D+00  THRKEX  =  0.00D+00  THRDIS  =  2.00D-01  THRVAR  =  1.00D-10
 THRLOC  =  1.00D-06  THRGAP  =  1.00D-06  THRLOCT = -1.00D+00  THRGAPT = -1.00D+00  THRORB  =  1.00D-06  THRMLTP =  0.00D+00
 THRCPQCI=  1.00D-10  KEXTA   =  0.00D+00  THRCOARS=  0.00D+00  SYMTOL  =  1.00D-06  GRADTOL =  1.00D-06  THROVL  =  1.00D-08
 THRORTH =  1.00D-08  GRID    =  1.00D-06  GRIDMAX =  1.00D-03  DTMAX   =  0.00D+00  THROCCDE=  1.00D-01  THROCCDE=  1.00D-01



 THRESHOLDS:

 ZERO    =  1.00D-22  ONEINT  =  1.00D-22  TWOINT  =  1.00D-22  PREFAC  =  1.00D-14  LOCALI  =  1.00D-09  EORDER  =  1.00D-04
 ENERGY  =  1.00D-12  ETEST   =  0.00D+00  EDENS   =  0.00D+00  THRDEDEF=  1.00D-06  GRADIENT=  1.00D-02  STEP    =  1.00D-03
 ORBITAL =  1.00D-05  CIVEC   =  1.00D-05  COEFF   =  1.00D-04  PRINTCI =  5.00D-02  PUNCHCI =  9.90D+01  OPTGRAD =  1.00D-08
 OPTENERG=  1.00D-06  OPTSTEP =  1.00D-08  THRGRAD =  1.00D-10  COMPRESS=  1.00D-11  VARMIN  =  1.00D-07  VARMAX  =  1.00D-03
 THRDOUB =  0.00D+00  THRDIV  =  1.00D-05  THRRED  =  1.00D-07  THRPSP  =  1.00D+00  THRDC   =  1.00D-10  THRCS   =  1.00D-10
 THRNRM  =  1.00D-08  THREQ   =  0.00D+00  THRDE   =  1.00D+00  THRREF  =  1.00D-05  SPARFAC =  1.00D+00  THRDLP  =  1.00D-07
 THRDIA  =  1.00D-10  THRDLS  =  1.00D-07  THRGPS  =  0.00D+00  THRKEX  =  0.00D+00  THRDIS  =  2.00D-01  THRVAR  =  1.00D-10
 THRLOC  =  1.00D-06  THRGAP  =  1.00D-06  THRLOCT = -1.00D+00  THRGAPT = -1.00D+00  THRORB  =  1.00D-06  THRMLTP =  0.00D+00
 THRCPQCI=  1.00D-10  KEXTA   =  0.00D+00  THRCOARS=  0.00D+00  SYMTOL  =  1.00D-06  GRADTOL =  1.00D-06  THROVL  =  1.00D-08
 THRORTH =  1.00D-08  GRID    =  1.00D-06  GRIDMAX =  1.00D-03  DTMAX   =  0.00D+00  THROCCDE=  1.00D-01  THROCCDE=  1.00D-01



 Input parameters for SORTINT:

 COMPRESS =    0.000000
 C_FINAL  =    1.000000
 DEBUG    =   -1.000000
 C_SORT1  =    0.000000
 C_SEWARD =    0.000000
 THRESH   =    0.000000
 IO       =  molpro                                                          
 SPRI     =    0.000000
 SETTING GEOMTYP        =    XYZ
 ZUNIT=BOHR
 

 Variable memory set to  995000000 words,  buffer space   230000 words

 SETTING BASIS          =    AV5Z


 Recomputing integrals since basis changed


 Using spherical harmonics

 Library entry H      S aug-cc-pV5Z          selected for orbital group  1
 Library entry H      P aug-cc-pV5Z          selected for orbital group  1
 Library entry H      D aug-cc-pV5Z          selected for orbital group  1
 Library entry H      F aug-cc-pV5Z          selected for orbital group  1
 Library entry H      G aug-cc-pV5Z          selected for orbital group  1
 Library entry N      S aug-cc-pV5Z          selected for orbital group  2
 Library entry N      P aug-cc-pV5Z          selected for orbital group  2
 Library entry N      D aug-cc-pV5Z          selected for orbital group  2
 Library entry N      F aug-cc-pV5Z          selected for orbital group  2
 Library entry N      G aug-cc-pV5Z          selected for orbital group  2
 Library entry N      H aug-cc-pV5Z          selected for orbital group  2
 Library entry O      S aug-cc-pV5Z          selected for orbital group  3
 Library entry O      P aug-cc-pV5Z          selected for orbital group  3
 Library entry O      D aug-cc-pV5Z          selected for orbital group  3
 Library entry O      F aug-cc-pV5Z          selected for orbital group  3
 Library entry O      G aug-cc-pV5Z          selected for orbital group  3
 Library entry O      H aug-cc-pV5Z          selected for orbital group  3


 PROGRAM * SEWARD (Integral evaluation for generally contracted gaussian basis sets)     Author: Roland Lindh, 1990

 Geometry written to block  1 of record 700


 Point group  Cs  



 ATOMIC COORDINATES

 NR  ATOM    CHARGE       X              Y              Z

   1  H       1.00    0.000000000    1.672419437   -1.938504011
   2  N       7.00    0.000000000   -0.161988328   -1.147950871
   3  O       8.00    0.000000000    0.031336680    1.135865291

 Bond lengths in Bohr (Angstrom)

 1-2  1.997504972  2-3  2.291984036
     ( 1.057034110)     ( 1.212865720)

 Bond angles

  1-2-3  108.47547239

 NUCLEAR CHARGE:                   16
 NUMBER OF PRIMITIVE AOS:         506
 NUMBER OF SYMMETRY AOS:          371
 NUMBER OF CONTRACTIONS:          334   ( 204A'  + 130A"  )
 NUMBER OF CORE ORBITALS:           2   (   2A'  +   0A"  )
 NUMBER OF VALENCE ORBITALS:        9   (   7A'  +   2A"  )


 NUCLEAR REPULSION ENERGY   30.23293485


 Eigenvalues of metric

         1 0.115E-04 0.175E-04 0.643E-04 0.102E-03 0.106E-03 0.138E-03 0.201E-03 0.225E-03
         2 0.129E-03 0.370E-03 0.115E-02 0.162E-02 0.199E-02 0.257E-02 0.332E-02 0.398E-02


 Contracted 2-electron integrals neglected if value below      1.0D-22

      756977384. INTEGRALS WRITTEN OUT IN  184855 BLOCKS ON RECORD 1290 OF FILE 1


 NUMBER OF SORTED TWO-ELECTRON INTEGRALS:  789027325.     BUFFER LENGTH:  32768
 NUMBER OF SEGMENTS:  25  SEGMENT LENGTH:   31997130      RECORD LENGTH: 524288

 Memory used in sort:      32.55 MW

 SORT1 READ   756977384. AND WROTE   760993261. INTEGRALS IN   2189 RECORDS. CPU TIME:    38.11 SEC, REAL TIME:   138.25 SEC
 SORT2 READ   760993261. AND WROTE   789027325. INTEGRALS IN     25 RECORDS. CPU TIME:    13.69 SEC, REAL TIME:    45.47 SEC

 FILE SIZES:   FILE 1: 12137.5 MBYTE,  FILE 4:  9181.4 MBYTE,   TOTAL:  21318.9 MBYTE

 OPERATOR DM      FOR CENTER  0  COORDINATES:    0.000000    0.000000    0.000000


 **********************************************************************************************************************************
 DATASETS  * FILE   NREC   LENGTH (MB)   RECORD NAMES
              1      19     6374.22       500      610      700      900      950      970     1000      129      960     1100   
                                          VAR    BASINP    GEOM    SYMINP    ZMAT    AOBASIS   BASIS     P2S    ABASIS      S 
                                         1400     1410     1200     1210     1080     1600     1650     1300     1700   
                                           T        V       H0       H01     AOSYM     SMH    MOLCAS    ERIS     OPER   

 PROGRAMS   *        TOTAL       INT
 CPU TIMES  *       155.94    155.84
 REAL TIME  *       325.44 SEC
 DISK USED  *        21.32 GB      
 **********************************************************************************************************************************


 PROGRAM * RHF-SCF (CLOSED SHELL)       Authors: W. Meyer, H.-J. Werner


 NUMBER OF ELECTRONS:       8+    8-
 CONVERGENCE THRESHOLDS:    1.00E-10 (Density)    1.00E-13 (Energy)
 MAX. NUMBER OF ITERATIONS:      500
 INTERPOLATION TYPE:            DIIS
 INTERPOLATION STEPS:              2 (START)      1 (STEP)
 LEVEL SHIFTS:                  0.00 (CLOSED)  0.00 (OPEN) 



 Orbital guess generated from atomic densities. Full valence occupancy:    9   2

 Molecular orbital dump at record        2100.2

 Initial occupancy:   7   1

 ITERATION    DDIFF          GRAD             ENERGY        2-EL.EN.            DIPOLE MOMENTS         DIIS   ORB.
    1      0.000D+00      0.000D+00      -129.79665516    153.730134    0.00000    0.59685   -1.04639    0    start
    2      0.000D+00      0.646D-02      -129.82369745    154.947910    0.00000    0.61296   -0.20421    1    diag
    3      0.406D-02      0.499D-02      -129.84775650    155.084825    0.00000    0.55828   -0.60245    2    diag
    4      0.211D-02      0.774D-03      -129.84857576    154.795295    0.00000    0.56535   -0.53986    3    diag
    5      0.381D-03      0.252D-03      -129.84870483    154.890033    0.00000    0.57069   -0.54232    4    diag
    6      0.158D-03      0.730D-04      -129.84872557    154.873569    0.00000    0.57094   -0.53799    5    diag
    7      0.610D-04      0.365D-04      -129.84873168    154.876338    0.00000    0.57218   -0.53529    6    diag
    8      0.419D-04      0.131D-04      -129.84873241    154.875608    0.00000    0.57222   -0.53422    7    diag
    9      0.166D-04      0.255D-05      -129.84873244    154.875490    0.00000    0.57218   -0.53399    8    diag
   10      0.340D-05      0.571D-06      -129.84873244    154.875471    0.00000    0.57215   -0.53396    9    orth
   11      0.650D-06      0.114D-06      -129.84873244    154.875467    0.00000    0.57214   -0.53396    9    diag
   12      0.120D-06      0.233D-07      -129.84873244    154.875467    0.00000    0.57214   -0.53395    9    diag
   13      0.258D-07      0.620D-08      -129.84873244    154.875467    0.00000    0.57214   -0.53395    9    diag
   14      0.711D-08      0.120D-08      -129.84873244    154.875466    0.00000    0.57214   -0.53395    9    diag
   15      0.129D-08      0.340D-09      -129.84873244    154.875466    0.00000    0.57214   -0.53395    9    diag
   16      0.386D-09      0.101D-09      -129.84873244    154.875466    0.00000    0.57214   -0.53395    9    diag
   17      0.770D-10      0.258D-10      -129.84873244    154.875466    0.00000    0.57214   -0.53395    9    diag
   18      0.190D-10      0.871D-11      -129.84873244    154.875466    0.00000    0.57214   -0.53395    0    orth

 Final occupancy:   7   1

 !RHF STATE 1.1 Energy               -129.848732441359
 Nuclear energy                        30.23293485
 One-electron energy                 -237.51940052
 Two-electron energy                   77.43773322
 Virial quotient                       -1.00191389
 !RHF STATE 1.1 Dipole moment           0.00000000     0.57213832    -0.53395396
 Dipole moment /Debye                   0.00000000     1.45413531    -1.35708671

 Orbital energies:

         1.1          2.1          3.1          4.1          5.1          6.1          7.1          8.1          9.1
    -20.653571   -15.713633    -1.525103    -0.994440    -0.745127    -0.664755    -0.431575     0.022775     0.065539

         1.2          2.2          3.2
     -0.593763     0.059154     0.091220

 HOMO      7.1    -0.431575 =     -11.7437eV
 LUMO      8.1     0.022775 =       0.6197eV
 LUMO-HOMO         0.454349 =      12.3635eV


 **********************************************************************************************************************************
 DATASETS  * FILE   NREC   LENGTH (MB)   RECORD NAMES
              1      19     6374.22       500      610      700      900      950      970     1000      129      960     1100   
                                          VAR    BASINP    GEOM    SYMINP    ZMAT    AOBASIS   BASIS     P2S    ABASIS      S 
                                         1400     1410     1200     1210     1080     1600     1650     1300     1700   
                                           T        V       H0       H01     AOSYM     SMH    MOLCAS    ERIS     OPER   

              2       4        4.02       700     1000      520     2100   
                                         GEOM     BASIS   MCVARS     RHF  

 PROGRAMS   *        TOTAL        HF       INT
 CPU TIMES  *       213.46     57.52    155.84
 REAL TIME  *       402.66 SEC
 DISK USED  *        21.32 GB      
 **********************************************************************************************************************************


 PROGRAM * CCSD (Closed-shell coupled cluster)     Authors: C. Hampel, H.-J. Werner, 1991, M. Deegan, P.J. Knowles, 1992


 Convergence thresholds:  THRVAR = 1.00D-08  THRDEN = 1.00D-12

 CCSD(T)     terms to be evaluated (factor= 1.000)


 Number of core orbitals:           2 (   2   0 )
 Number of closed-shell orbitals:   6 (   5   1 )
 Number of external orbitals:     326 ( 197 129 )

 Molecular orbitals read from record     2100.2  Type=RHF/CANONICAL (state 1.1)

 Number of N-1 electron functions:               6
 Number of N-2 electron functions:              21
 Number of singly external CSFs:              1114
 Number of doubly external CSFs:            975958
 Total number of CSFs:                      977073

 Length of J-op  integral file:               0.00 MB
 Length of K-op  integral file:               4.07 MB
 Length of 3-ext integral record:             0.00 MB

 Memory could be reduced to 151.33 Mwords without degradation in triples

 Integral transformation finished. Total CPU:   9.99 sec, npass=  1  Memory used:  41.21 MW

 Reference energy:                   -129.84873244

 MP2 singlet pair energy:              -0.31177908
 MP2 triplet pair energy:              -0.17241667
 MP2 correlation energy:               -0.48419575
 MP2 total energy:                   -130.33292819

 SCS-MP2 correlation energy:           -0.48141638   (PS=  1.200000  PT=  0.333333)
 SCS-MP2 total energy:               -130.33014882

 ITER.      SQ.NORM     CORR.ENERGY   TOTAL ENERGY   ENERGY CHANGE        DEN1      VAR(S)    VAR(P)  DIIS     TIME  TIME/IT
   1      1.12128458    -0.48097902  -130.32971146     0.00321673     0.02015058  0.32D-02  0.33D-02  1  1    18.23     9.19
   2      1.13207384    -0.48081549  -130.32954793     0.00016353    -0.01283886  0.11D-03  0.50D-03  2  2    26.56     9.32
   3      1.13834970    -0.48120800  -130.32994045    -0.00039251    -0.00304002  0.50D-04  0.58D-04  3  3    34.89     9.37
   4      1.14121004    -0.48120551  -130.32993795     0.00000250    -0.00098837  0.48D-05  0.10D-04  4  4    43.23     9.40
   5      1.14238574    -0.48123583  -130.32996828    -0.00003033    -0.00026033  0.12D-05  0.17D-05  5  5    51.58     9.41
   6      1.14275410    -0.48122368  -130.32995612     0.00001216    -0.00005217  0.13D-06  0.41D-06  6  6    59.96     9.42
   7      1.14283160    -0.48122325  -130.32995569     0.00000043     0.00000352  0.18D-07  0.94D-07  6  1    68.47     9.45
   8      1.14285752    -0.48122322  -130.32995566     0.00000003    -0.00000319  0.35D-08  0.20D-07  6  2    76.76     9.45
   9      1.14286634    -0.48122262  -130.32995506     0.00000060    -0.00000014  0.23D-08  0.22D-08  6  3    85.12     9.46
  10      1.14286160    -0.48122338  -130.32995583    -0.00000076     0.00000162  0.36D-09  0.35D-09  6  5    93.51     9.46
  11      1.14286368    -0.48122336  -130.32995581     0.00000002    -0.00000038  0.11D-09  0.30D-10  6  4   101.83     9.46
  12      1.14286322    -0.48122343  -130.32995588    -0.00000007     0.00000005  0.19D-10  0.69D-11  6  6   110.21     9.46
  13      1.14286301    -0.48122344  -130.32995588    -0.00000000    -0.00000004  0.33D-11  0.99D-12  6  1   118.54     9.46
  14      1.14286272    -0.48122345  -130.32995589    -0.00000001     0.00000004  0.47D-12  0.18D-12  6  3   126.96     9.46
  15      1.14286264    -0.48122345  -130.32995589    -0.00000000     0.00000001  0.13D-12  0.24D-13  6  2   135.24     9.46
  16      1.14286263    -0.48122345  -130.32995589     0.00000000     0.00000000  0.35D-13  0.94D-14  6  4   143.51     9.47
  17      1.14286263    -0.48122345  -130.32995589    -0.00000000    -0.00000000  0.20D-14  0.12D-14  6  5   151.85     9.47
  18      1.14286263    -0.48122345  -130.32995589     0.00000000    -0.00000000  0.29D-15  0.31D-15  6  6   160.20     9.47
  19      1.14286264    -0.48122345  -130.32995589     0.00000000    -0.00000000  0.54D-16  0.42D-16  6  1   168.84     9.48
  20      1.14286264    -0.48122345  -130.32995589     0.00000000    -0.00000000  0.12D-16  0.64D-17  6  3   177.17     9.48
  21      1.14286264    -0.48122345  -130.32995589    -0.00000000     0.00000000  0.22D-17  0.12D-17  6  2   185.54     9.48
  22      1.14286264    -0.48122345  -130.32995589    -0.00000000     0.00000000  0.41D-18  0.18D-18  6  4   193.99     9.48
  23      1.14286264    -0.48122345  -130.32995589    -0.00000000     0.00000000  0.73D-19  0.42D-19  6  5   202.41     9.48
  24      1.14286264    -0.48122345  -130.32995589    -0.00000000     0.00000000  0.28D-19  0.18D-19  6  6   210.74     9.48
  25      1.14286264    -0.48122345  -130.32995589    -0.00000000     0.00000000  0.15D-19  0.88D-20  6  1   218.93     9.48

 Norm of t1 vector:      0.07734461      S-energy:    -0.00000000      T1 diagnostic:  0.01578790
                                                                       D1 diagnostic:  0.04287852

 Doubles amplitudes (print threshold =  0.500E-01):

         I         J         SYM. A    SYM. B    A         B      T(IJ, AB)

         6         6         2         2         1         1     -0.08298787
         6         6         2         2         1         2      0.05292816
         6         6         2         2         2         1      0.05292816


 Total CPU time for triples:     85.55 sec


 RESULTS
 =======

  Reference energy                   -129.848732441359
  CCSD singlet pair energy             -0.333940853445
  CCSD triplet pair energy             -0.147282598782
  CCSD correlation energy              -0.481223452228

  Triples (T) contribution             -0.023112992354
  Total correlation energy             -0.504336444582

  CCSD total energy                  -130.329955893587
  CCSD[T] energy                     -130.354175698930
  CCSD-T energy                      -130.352682203048
 !CCSD(T) total energy               -130.353068885941

 Timing summary (sec):

 STEP                 CPU(USER)    SYS     CPU(TOT)    WALL
 Transformation         10.04      1.66     11.70     11.72
 CCSD iterations       208.91     28.01    236.92    236.94
 Triples                85.55      1.59     87.14     87.16

 Program statistics:

 Available memory in ccsd:               994999756
 Min. memory needed in ccsd:               3348832
 Max. memory used in ccsd:                 4143652
 Max. memory used in cckext:               8340089 (25 integral passes)



 **********************************************************************************************************************************
 DATASETS  * FILE   NREC   LENGTH (MB)   RECORD NAMES
              1      20     6809.41       500      610      700      900      950      970     1000      129      960     1100   
                                          VAR    BASINP    GEOM    SYMINP    ZMAT    AOBASIS   BASIS     P2S    ABASIS      S 
                                         1400     1410     1200     1210     1080     1600     1650     1300     1700     1380   
                                           T        V       H0       H01     AOSYM     SMH    MOLCAS    ERIS     OPER     JKOP   

              2       4        4.02       700     1000      520     2100   
                                         GEOM     BASIS   MCVARS     RHF  

 PROGRAMS   *        TOTAL   CCSD(T)        HF       INT
 CPU TIMES  *       517.98    304.52     57.52    155.84
 REAL TIME  *       738.54 SEC
 DISK USED  *        21.32 GB      
 **********************************************************************************************************************************

 CCSD(T)/aug-cc-pV5Z energy=   -130.353068885941

        CCSD(T)         HF-SCF  
   -130.35306889   -129.84873244
 **********************************************************************************************************************************
 Molpro calculation terminated
 Variable memory released
