
 Primary working directories    : /tmp/r2666/281952.maple
 Secondary working directories  : /tmp/r2666/281952.maple
 Wavefunction directory         : /ddn/home4/r2666/wfu/
 Main file repository           : /tmp/r2666/281952.maple/

 SHA1      : d5ffa45e93fdbca01ffc919aa182cfdae0147319
 NAME      : 2015.1.35
 ARCHNAME  : linux/x86_64
 FC        : /opt/intel/composer_xe_2015.1.133/bin/intel64/ifort
 BLASLIB   : -Wl,-_start-group /opt/intel/mkl/lib/intel64/libmkl_intel_ilp64.a /opt/intel/mkl/lib/intel64/libmkl_intel_thread.a /opt/intel/mkl/lib/intel64/libmkl_core.a -Wl,-_end-group
 id        : olemiss

 Nodes     nprocs
 cn093        1

 Using customized tuning parameters: mindgm=1; mindgv=20; mindgc=4; mindgr=1; noblas=0; minvec=7
 default implementation of scratch files=df  

 ***,hno CCSD(T)/TZ-F12 QFF
 memory, 995, m;
 gthresh,energy=1.d-12,zero=1.d-22,oneint=1.d-22,twoint=1.d-22;
 gthresh,optgrad=1.d-8,optstep=1.d-8;
 nocompress;
 geomtyp=xyz
 bohr
 geometry={
 3
        107       107
 H        0.0000000000        1.6727973741       -1.9335243628
 N        0.0000000000       -0.1666609025       -1.1547950377
 O        0.0000000000        0.0356313184        1.1377298095
 }
 
 basis=av5z
   {hf,maxit=500;accu,20;}
 {ccsd(t),nocheck,maxit=250;orbital,IGNORE_ERROR;}

 Variables initialized (889), CPU time= 0.01 sec
 Commands  initialized (702), CPU time= 0.00 sec, 572 directives.
 Default parameters read. Elapsed time= 0.04 sec

 Checking input...
 Passed
1


                                         ***  PROGRAM SYSTEM MOLPRO  ***
                                       Copyright, TTI GmbH Stuttgart, 2015
                                    Version 2015.1 linked Jul  9 2018 13:16:40


 **********************************************************************************************************************************
 LABEL *   hno CCSD(T)/TZ-F12 QFF                                                        
  64 bit serial version                                                                  DATE: 04-Mar-20          TIME: 13:34:16  
 **********************************************************************************************************************************

 SHA1:             d5ffa45e93fdbca01ffc919aa182cfdae0147319
 **********************************************************************************************************************************

 THRESHOLDS:

 ZERO    =  1.00D-22  ONEINT  =  1.00D-22  TWOINT  =  1.00D-22  PREFAC  =  1.00D-14  LOCALI  =  1.00D-09  EORDER  =  1.00D-04
 ENERGY  =  1.00D-12  ETEST   =  0.00D+00  EDENS   =  0.00D+00  THRDEDEF=  1.00D-06  GRADIENT=  1.00D-02  STEP    =  1.00D-03
 ORBITAL =  1.00D-05  CIVEC   =  1.00D-05  COEFF   =  1.00D-04  PRINTCI =  5.00D-02  PUNCHCI =  9.90D+01  OPTGRAD =  3.00D-04
 OPTENERG=  1.00D-06  OPTSTEP =  3.00D-04  THRGRAD =  1.00D-10  COMPRESS=  1.00D-11  VARMIN  =  1.00D-07  VARMAX  =  1.00D-03
 THRDOUB =  0.00D+00  THRDIV  =  1.00D-05  THRRED  =  1.00D-07  THRPSP  =  1.00D+00  THRDC   =  1.00D-10  THRCS   =  1.00D-10
 THRNRM  =  1.00D-08  THREQ   =  0.00D+00  THRDE   =  1.00D+00  THRREF  =  1.00D-05  SPARFAC =  1.00D+00  THRDLP  =  1.00D-07
 THRDIA  =  1.00D-10  THRDLS  =  1.00D-07  THRGPS  =  0.00D+00  THRKEX  =  0.00D+00  THRDIS  =  2.00D-01  THRVAR  =  1.00D-10
 THRLOC  =  1.00D-06  THRGAP  =  1.00D-06  THRLOCT = -1.00D+00  THRGAPT = -1.00D+00  THRORB  =  1.00D-06  THRMLTP =  0.00D+00
 THRCPQCI=  1.00D-10  KEXTA   =  0.00D+00  THRCOARS=  0.00D+00  SYMTOL  =  1.00D-06  GRADTOL =  1.00D-06  THROVL  =  1.00D-08
 THRORTH =  1.00D-08  GRID    =  1.00D-06  GRIDMAX =  1.00D-03  DTMAX   =  0.00D+00  THROCCDE=  1.00D-01  THROCCDE=  1.00D-01



 THRESHOLDS:

 ZERO    =  1.00D-22  ONEINT  =  1.00D-22  TWOINT  =  1.00D-22  PREFAC  =  1.00D-14  LOCALI  =  1.00D-09  EORDER  =  1.00D-04
 ENERGY  =  1.00D-12  ETEST   =  0.00D+00  EDENS   =  0.00D+00  THRDEDEF=  1.00D-06  GRADIENT=  1.00D-02  STEP    =  1.00D-03
 ORBITAL =  1.00D-05  CIVEC   =  1.00D-05  COEFF   =  1.00D-04  PRINTCI =  5.00D-02  PUNCHCI =  9.90D+01  OPTGRAD =  1.00D-08
 OPTENERG=  1.00D-06  OPTSTEP =  1.00D-08  THRGRAD =  1.00D-10  COMPRESS=  1.00D-11  VARMIN  =  1.00D-07  VARMAX  =  1.00D-03
 THRDOUB =  0.00D+00  THRDIV  =  1.00D-05  THRRED  =  1.00D-07  THRPSP  =  1.00D+00  THRDC   =  1.00D-10  THRCS   =  1.00D-10
 THRNRM  =  1.00D-08  THREQ   =  0.00D+00  THRDE   =  1.00D+00  THRREF  =  1.00D-05  SPARFAC =  1.00D+00  THRDLP  =  1.00D-07
 THRDIA  =  1.00D-10  THRDLS  =  1.00D-07  THRGPS  =  0.00D+00  THRKEX  =  0.00D+00  THRDIS  =  2.00D-01  THRVAR  =  1.00D-10
 THRLOC  =  1.00D-06  THRGAP  =  1.00D-06  THRLOCT = -1.00D+00  THRGAPT = -1.00D+00  THRORB  =  1.00D-06  THRMLTP =  0.00D+00
 THRCPQCI=  1.00D-10  KEXTA   =  0.00D+00  THRCOARS=  0.00D+00  SYMTOL  =  1.00D-06  GRADTOL =  1.00D-06  THROVL  =  1.00D-08
 THRORTH =  1.00D-08  GRID    =  1.00D-06  GRIDMAX =  1.00D-03  DTMAX   =  0.00D+00  THROCCDE=  1.00D-01  THROCCDE=  1.00D-01



 Input parameters for SORTINT:

 COMPRESS =    0.000000
 C_FINAL  =    1.000000
 DEBUG    =   -1.000000
 C_SORT1  =    0.000000
 C_SEWARD =    0.000000
 THRESH   =    0.000000
 IO       =  molpro                                                          
 SPRI     =    0.000000
 SETTING GEOMTYP        =    XYZ
 ZUNIT=BOHR
 

 Variable memory set to  995000000 words,  buffer space   230000 words

 SETTING BASIS          =    AV5Z


 Recomputing integrals since basis changed


 Using spherical harmonics

 Library entry H      S aug-cc-pV5Z          selected for orbital group  1
 Library entry H      P aug-cc-pV5Z          selected for orbital group  1
 Library entry H      D aug-cc-pV5Z          selected for orbital group  1
 Library entry H      F aug-cc-pV5Z          selected for orbital group  1
 Library entry H      G aug-cc-pV5Z          selected for orbital group  1
 Library entry N      S aug-cc-pV5Z          selected for orbital group  2
 Library entry N      P aug-cc-pV5Z          selected for orbital group  2
 Library entry N      D aug-cc-pV5Z          selected for orbital group  2
 Library entry N      F aug-cc-pV5Z          selected for orbital group  2
 Library entry N      G aug-cc-pV5Z          selected for orbital group  2
 Library entry N      H aug-cc-pV5Z          selected for orbital group  2
 Library entry O      S aug-cc-pV5Z          selected for orbital group  3
 Library entry O      P aug-cc-pV5Z          selected for orbital group  3
 Library entry O      D aug-cc-pV5Z          selected for orbital group  3
 Library entry O      F aug-cc-pV5Z          selected for orbital group  3
 Library entry O      G aug-cc-pV5Z          selected for orbital group  3
 Library entry O      H aug-cc-pV5Z          selected for orbital group  3


 PROGRAM * SEWARD (Integral evaluation for generally contracted gaussian basis sets)     Author: Roland Lindh, 1990

 Geometry written to block  1 of record 700


 Point group  Cs  



 ATOMIC COORDINATES

 NR  ATOM    CHARGE       X              Y              Z

   1  H       1.00    0.000000000    1.672797374   -1.933524363
   2  N       7.00    0.000000000   -0.166660903   -1.154795038
   3  O       8.00    0.000000000    0.035631318    1.137729809

 Bond lengths in Bohr (Angstrom)

 1-2  1.997504972  2-3  2.301432666
     ( 1.057034110)     ( 1.217865719)

 Bond angles

  1-2-3  107.90251459

 NUCLEAR CHARGE:                   16
 NUMBER OF PRIMITIVE AOS:         506
 NUMBER OF SYMMETRY AOS:          371
 NUMBER OF CONTRACTIONS:          334   ( 204A'  + 130A"  )
 NUMBER OF CORE ORBITALS:           2   (   2A'  +   0A"  )
 NUMBER OF VALENCE ORBITALS:        9   (   7A'  +   2A"  )


 NUCLEAR REPULSION ENERGY   30.13565298


 Eigenvalues of metric

         1 0.116E-04 0.178E-04 0.648E-04 0.103E-03 0.108E-03 0.141E-03 0.203E-03 0.225E-03
         2 0.131E-03 0.372E-03 0.117E-02 0.165E-02 0.200E-02 0.262E-02 0.334E-02 0.400E-02


 Contracted 2-electron integrals neglected if value below      1.0D-22

      756977429. INTEGRALS WRITTEN OUT IN  184855 BLOCKS ON RECORD 1290 OF FILE 1


 NUMBER OF SORTED TWO-ELECTRON INTEGRALS:  789027325.     BUFFER LENGTH:  32768
 NUMBER OF SEGMENTS:  25  SEGMENT LENGTH:   31997130      RECORD LENGTH: 524288

 Memory used in sort:      32.55 MW

 SORT1 READ   756977429. AND WROTE   760993310. INTEGRALS IN   2189 RECORDS. CPU TIME:    39.03 SEC, REAL TIME:   212.97 SEC
 SORT2 READ   760993310. AND WROTE   789027325. INTEGRALS IN     25 RECORDS. CPU TIME:    13.73 SEC, REAL TIME:    64.96 SEC

 FILE SIZES:   FILE 1: 12137.5 MBYTE,  FILE 4:  9181.4 MBYTE,   TOTAL:  21318.9 MBYTE

 OPERATOR DM      FOR CENTER  0  COORDINATES:    0.000000    0.000000    0.000000


 **********************************************************************************************************************************
 DATASETS  * FILE   NREC   LENGTH (MB)   RECORD NAMES
              1      19     6374.22       500      610      700      900      950      970     1000      129      960     1100   
                                          VAR    BASINP    GEOM    SYMINP    ZMAT    AOBASIS   BASIS     P2S    ABASIS      S 
                                         1400     1410     1200     1210     1080     1600     1650     1300     1700   
                                           T        V       H0       H01     AOSYM     SMH    MOLCAS    ERIS     OPER   

 PROGRAMS   *        TOTAL       INT
 CPU TIMES  *       141.32    141.24
 REAL TIME  *       373.11 SEC
 DISK USED  *        21.32 GB      
 **********************************************************************************************************************************


 PROGRAM * RHF-SCF (CLOSED SHELL)       Authors: W. Meyer, H.-J. Werner


 NUMBER OF ELECTRONS:       8+    8-
 CONVERGENCE THRESHOLDS:    1.00E-10 (Density)    1.00E-13 (Energy)
 MAX. NUMBER OF ITERATIONS:      500
 INTERPOLATION TYPE:            DIIS
 INTERPOLATION STEPS:              2 (START)      1 (STEP)
 LEVEL SHIFTS:                  0.00 (CLOSED)  0.00 (OPEN) 



 Orbital guess generated from atomic densities. Full valence occupancy:    9   2

 Molecular orbital dump at record        2100.2

 Initial occupancy:   7   1

 ITERATION    DDIFF          GRAD             ENERGY        2-EL.EN.            DIPOLE MOMENTS         DIIS   ORB.
    1      0.000D+00      0.000D+00      -129.79504631    153.558802    0.00000    0.59393   -1.06151    0    start
    2      0.000D+00      0.650D-02      -129.82190072    154.762953    0.00000    0.61659   -0.19893    1    diag
    3      0.411D-02      0.509D-02      -129.84691060    154.912136    0.00000    0.55834   -0.60762    2    diag
    4      0.214D-02      0.777D-03      -129.84773947    154.619027    0.00000    0.56558   -0.54435    3    diag
    5      0.383D-03      0.254D-03      -129.84787080    154.714068    0.00000    0.57087   -0.54666    4    diag
    6      0.160D-03      0.737D-04      -129.84789196    154.697517    0.00000    0.57109   -0.54223    5    diag
    7      0.616D-04      0.370D-04      -129.84789827    154.700240    0.00000    0.57231   -0.53946    6    diag
    8      0.425D-04      0.134D-04      -129.84789906    154.699486    0.00000    0.57235   -0.53834    7    diag
    9      0.173D-04      0.264D-05      -129.84789909    154.699364    0.00000    0.57231   -0.53810    8    diag
   10      0.357D-05      0.582D-06      -129.84789910    154.699345    0.00000    0.57227   -0.53807    9    orth
   11      0.662D-06      0.116D-06      -129.84789910    154.699341    0.00000    0.57227   -0.53807    9    diag
   12      0.120D-06      0.240D-07      -129.84789910    154.699341    0.00000    0.57226   -0.53807    9    diag
   13      0.261D-07      0.646D-08      -129.84789910    154.699341    0.00000    0.57226   -0.53807    9    diag
   14      0.731D-08      0.125D-08      -129.84789910    154.699341    0.00000    0.57226   -0.53807    9    diag
   15      0.132D-08      0.351D-09      -129.84789910    154.699341    0.00000    0.57226   -0.53807    9    diag
   16      0.395D-09      0.103D-09      -129.84789910    154.699341    0.00000    0.57226   -0.53807    9    diag
   17      0.732D-10      0.259D-10      -129.84789910    154.699341    0.00000    0.57226   -0.53807    9    diag
   18      0.235D-10      0.864D-11      -129.84789910    154.699341    0.00000    0.57226   -0.53807    9    diag
   19      0.267D-10      0.201D-11      -129.84789910    154.699341    0.00000    0.57226   -0.53807    9    fixocc
   20      0.983D-11      0.478D-12      -129.84789910    154.699341    0.00000    0.57226   -0.53807    9    orth
   21      0.769D-11      0.343D-12      -129.84789910    154.699341    0.00000    0.57226   -0.53807    9    diag
   22      0.279D-11      0.268D-12      -129.84789910    154.699341    0.00000    0.57226   -0.53807    9    diag
   23      0.437D-11      0.356D-12      -129.84789910    154.699341    0.00000    0.57226   -0.53807    9    diag
   24      0.199D-11      0.342D-12      -129.84789910    154.699341    0.00000    0.57226   -0.53807    9    diag
   25      0.142D-11      0.311D-12      -129.84789910    154.699341    0.00000    0.57226   -0.53807    0    orth

 Final occupancy:   7   1

 !RHF STATE 1.1 Energy               -129.847899096235
 Nuclear energy                        30.13565298
 One-electron energy                 -237.33322255
 Two-electron energy                   77.34967047
 Virial quotient                       -1.00204166
 !RHF STATE 1.1 Dipole moment           0.00000000     0.57226302    -0.53806563
 Dipole moment /Debye                   0.00000000     1.45445223    -1.36753685

 Orbital energies:

         1.1          2.1          3.1          4.1          5.1          6.1          7.1          8.1          9.1
    -20.653897   -15.714595    -1.521356    -0.995263    -0.743638    -0.663227    -0.433469     0.022758     0.065538

         1.2          2.2          3.2
     -0.591496     0.058178     0.090849

 HOMO      7.1    -0.433469 =     -11.7953eV
 LUMO      8.1     0.022758 =       0.6193eV
 LUMO-HOMO         0.456227 =      12.4146eV


 **********************************************************************************************************************************
 DATASETS  * FILE   NREC   LENGTH (MB)   RECORD NAMES
              1      19     6374.22       500      610      700      900      950      970     1000      129      960     1100   
                                          VAR    BASINP    GEOM    SYMINP    ZMAT    AOBASIS   BASIS     P2S    ABASIS      S 
                                         1400     1410     1200     1210     1080     1600     1650     1300     1700   
                                           T        V       H0       H01     AOSYM     SMH    MOLCAS    ERIS     OPER   

              2       4        4.02       700     1000      520     2100   
                                         GEOM     BASIS   MCVARS     RHF  

 PROGRAMS   *        TOTAL        HF       INT
 CPU TIMES  *       221.60     80.27    141.24
 REAL TIME  *       478.67 SEC
 DISK USED  *        21.32 GB      
 **********************************************************************************************************************************


 PROGRAM * CCSD (Closed-shell coupled cluster)     Authors: C. Hampel, H.-J. Werner, 1991, M. Deegan, P.J. Knowles, 1992


 Convergence thresholds:  THRVAR = 1.00D-08  THRDEN = 1.00D-12

 CCSD(T)     terms to be evaluated (factor= 1.000)


 Number of core orbitals:           2 (   2   0 )
 Number of closed-shell orbitals:   6 (   5   1 )
 Number of external orbitals:     326 ( 197 129 )

 Molecular orbitals read from record     2100.2  Type=RHF/CANONICAL (state 1.1)

 Number of N-1 electron functions:               6
 Number of N-2 electron functions:              21
 Number of singly external CSFs:              1114
 Number of doubly external CSFs:            975958
 Total number of CSFs:                      977073

 Length of J-op  integral file:               0.00 MB
 Length of K-op  integral file:               4.07 MB
 Length of 3-ext integral record:             0.00 MB

 Memory could be reduced to 151.33 Mwords without degradation in triples

 Integral transformation finished. Total CPU:  10.14 sec, npass=  1  Memory used:  41.21 MW

 Reference energy:                   -129.84789910

 MP2 singlet pair energy:              -0.31229074
 MP2 triplet pair energy:              -0.17276199
 MP2 correlation energy:               -0.48505273
 MP2 total energy:                   -130.33295183

 SCS-MP2 correlation energy:           -0.48224524   (PS=  1.200000  PT=  0.333333)
 SCS-MP2 total energy:               -130.33014434

 ITER.      SQ.NORM     CORR.ENERGY   TOTAL ENERGY   ENERGY CHANGE        DEN1      VAR(S)    VAR(P)  DIIS     TIME  TIME/IT
   1      1.12180612    -0.48163059  -130.32952969     0.00342214     0.02057129  0.33D-02  0.33D-02  1  1    18.60     9.29
   2      1.13271628    -0.48142357  -130.32932266     0.00020703    -0.01296829  0.11D-03  0.50D-03  2  2    27.22     9.43
   3      1.13907987    -0.48182255  -130.32972164    -0.00039898    -0.00306826  0.51D-04  0.59D-04  3  3    35.69     9.47
   4      1.14199373    -0.48182048  -130.32971958     0.00000207    -0.00100261  0.49D-05  0.10D-04  4  4    44.10     9.50
   5      1.14319853    -0.48185170  -130.32975079    -0.00003122    -0.00026660  0.12D-05  0.17D-05  5  5    52.47     9.50
   6      1.14357340    -0.48183904  -130.32973814     0.00001265    -0.00005338  0.13D-06  0.40D-06  6  6    60.91     9.51
   7      1.14365020    -0.48183866  -130.32973775     0.00000038     0.00000385  0.18D-07  0.94D-07  6  1    69.31     9.51
   8      1.14367611    -0.48183856  -130.32973765     0.00000010    -0.00000326  0.33D-08  0.20D-07  6  2    77.72     9.51
   9      1.14368479    -0.48183794  -130.32973704     0.00000061    -0.00000010  0.23D-08  0.22D-08  6  3    86.18     9.51
  10      1.14367994    -0.48183872  -130.32973781    -0.00000077     0.00000166  0.37D-09  0.37D-09  6  5    94.77     9.51
  11      1.14368212    -0.48183869  -130.32973779     0.00000003    -0.00000042  0.11D-09  0.31D-10  6  4   103.22     9.51
  12      1.14368167    -0.48183877  -130.32973786    -0.00000007     0.00000005  0.19D-10  0.71D-11  6  6   111.67     9.51
  13      1.14368145    -0.48183877  -130.32973786    -0.00000000    -0.00000004  0.33D-11  0.99D-12  6  1   120.13     9.51
  14      1.14368116    -0.48183878  -130.32973788    -0.00000001     0.00000004  0.44D-12  0.18D-12  6  3   128.62     9.51
  15      1.14368108    -0.48183878  -130.32973788    -0.00000000     0.00000001  0.13D-12  0.24D-13  6  2   137.08     9.51
  16      1.14368107    -0.48183878  -130.32973788     0.00000000     0.00000000  0.34D-13  0.92D-14  6  4   145.43     9.51
  17      1.14368107    -0.48183878  -130.32973788    -0.00000000    -0.00000000  0.21D-14  0.11D-14  6  5   153.90     9.51
  18      1.14368108    -0.48183878  -130.32973788     0.00000000    -0.00000000  0.29D-15  0.30D-15  6  6   162.25     9.51
  19      1.14368108    -0.48183878  -130.32973788     0.00000000    -0.00000000  0.53D-16  0.40D-16  6  1   170.57     9.51
  20      1.14368108    -0.48183878  -130.32973788     0.00000000    -0.00000000  0.11D-16  0.63D-17  6  3   178.90     9.51
  21      1.14368108    -0.48183878  -130.32973788    -0.00000000     0.00000000  0.21D-17  0.12D-17  6  2   187.26     9.51
  22      1.14368108    -0.48183878  -130.32973788    -0.00000000     0.00000000  0.37D-18  0.17D-18  6  4   195.75     9.51
  23      1.14368108    -0.48183878  -130.32973788    -0.00000000     0.00000000  0.79D-19  0.48D-19  6  5   204.17     9.51
  24      1.14368108    -0.48183878  -130.32973788    -0.00000000     0.00000000  0.29D-19  0.19D-19  6  6   212.60     9.51
  25      1.14368108    -0.48183878  -130.32973788    -0.00000000     0.00000000  0.12D-19  0.72D-20  6  1   220.99     9.51

 Norm of t1 vector:      0.07804056      S-energy:    -0.00000000      T1 diagnostic:  0.01592996
                                                                       D1 diagnostic:  0.04349651

 Doubles amplitudes (print threshold =  0.500E-01):

         I         J         SYM. A    SYM. B    A         B      T(IJ, AB)

         6         6         2         2         1         1     -0.08667910
         6         6         2         2         1         2      0.05274265
         6         6         2         2         2         1      0.05274265


 Total CPU time for triples:     86.80 sec


 RESULTS
 =======

  Reference energy                   -129.847899096235
  CCSD singlet pair energy             -0.334472665672
  CCSD triplet pair energy             -0.147366117899
  CCSD correlation energy              -0.481838783573

  Triples (T) contribution             -0.023269163853
  Total correlation energy             -0.505107947426

  CCSD total energy                  -130.329737879809
  CCSD[T] energy                     -130.354133727595
  CCSD-T energy                      -130.352615752476
 !CCSD(T) total energy               -130.353007043662

 Timing summary (sec):

 STEP                 CPU(USER)    SYS     CPU(TOT)    WALL
 Transformation         10.19      1.60     11.79     12.08
 CCSD iterations       210.81     27.00    237.81    237.83
 Triples                86.80      1.74     88.54     88.56

 Program statistics:

 Available memory in ccsd:               994999756
 Min. memory needed in ccsd:               3348832
 Max. memory used in ccsd:                 4143652
 Max. memory used in cckext:               8340089 (25 integral passes)



 **********************************************************************************************************************************
 DATASETS  * FILE   NREC   LENGTH (MB)   RECORD NAMES
              1      20     6809.41       500      610      700      900      950      970     1000      129      960     1100   
                                          VAR    BASINP    GEOM    SYMINP    ZMAT    AOBASIS   BASIS     P2S    ABASIS      S 
                                         1400     1410     1200     1210     1080     1600     1650     1300     1700     1380   
                                           T        V       H0       H01     AOSYM     SMH    MOLCAS    ERIS     OPER     JKOP   

              2       4        4.02       700     1000      520     2100   
                                         GEOM     BASIS   MCVARS     RHF  

 PROGRAMS   *        TOTAL   CCSD(T)        HF       INT
 CPU TIMES  *       529.43    307.83     80.27    141.24
 REAL TIME  *       817.32 SEC
 DISK USED  *        21.32 GB      
 **********************************************************************************************************************************

 CCSD(T)/aug-cc-pV5Z energy=   -130.353007043662

        CCSD(T)         HF-SCF  
   -130.35300704   -129.84789910
 **********************************************************************************************************************************
 Molpro calculation terminated
 Variable memory released
