
 Primary working directories    : /tmp/r2666/281877.maple
 Secondary working directories  : /tmp/r2666/281877.maple
 Wavefunction directory         : /ddn/home4/r2666/wfu/
 Main file repository           : /tmp/r2666/281877.maple/

 SHA1      : d5ffa45e93fdbca01ffc919aa182cfdae0147319
 NAME      : 2015.1.35
 ARCHNAME  : linux/x86_64
 FC        : /opt/intel/composer_xe_2015.1.133/bin/intel64/ifort
 BLASLIB   : -Wl,-_start-group /opt/intel/mkl/lib/intel64/libmkl_intel_ilp64.a /opt/intel/mkl/lib/intel64/libmkl_intel_thread.a /opt/intel/mkl/lib/intel64/libmkl_core.a -Wl,-_end-group
 id        : olemiss

 Nodes     nprocs
 cn092        1

 Using customized tuning parameters: mindgm=1; mindgv=20; mindgc=4; mindgr=1; noblas=0; minvec=7
 default implementation of scratch files=df  

 ***,hno CCSD(T)/TZ-F12 QFF
 memory, 995, m;
 gthresh,energy=1.d-12,zero=1.d-22,oneint=1.d-22,twoint=1.d-22;
 gthresh,optgrad=1.d-8,optstep=1.d-8;
 nocompress;
 geomtyp=xyz
 bohr
 geometry={
 3
         32        32
 H        0.0000000000        1.6620784798       -1.9220414947
 N        0.0000000000       -0.1601770606       -1.1511503065
 O        0.0000000000        0.0398663709        1.1226022102
 }
 
 basis=av5z
   {hf,maxit=500;accu,20;}
 {ccsd(t),nocheck,maxit=250;orbital,IGNORE_ERROR;}

 Variables initialized (889), CPU time= 0.00 sec
 Commands  initialized (702), CPU time= 0.01 sec, 572 directives.
 Default parameters read. Elapsed time= 0.05 sec

 Checking input...
 Passed
1


                                         ***  PROGRAM SYSTEM MOLPRO  ***
                                       Copyright, TTI GmbH Stuttgart, 2015
                                    Version 2015.1 linked Jul  9 2018 13:16:40


 **********************************************************************************************************************************
 LABEL *   hno CCSD(T)/TZ-F12 QFF                                                        
  64 bit serial version                                                                  DATE: 04-Mar-20          TIME: 13:20:09  
 **********************************************************************************************************************************

 SHA1:             d5ffa45e93fdbca01ffc919aa182cfdae0147319
 **********************************************************************************************************************************

 THRESHOLDS:

 ZERO    =  1.00D-22  ONEINT  =  1.00D-22  TWOINT  =  1.00D-22  PREFAC  =  1.00D-14  LOCALI  =  1.00D-09  EORDER  =  1.00D-04
 ENERGY  =  1.00D-12  ETEST   =  0.00D+00  EDENS   =  0.00D+00  THRDEDEF=  1.00D-06  GRADIENT=  1.00D-02  STEP    =  1.00D-03
 ORBITAL =  1.00D-05  CIVEC   =  1.00D-05  COEFF   =  1.00D-04  PRINTCI =  5.00D-02  PUNCHCI =  9.90D+01  OPTGRAD =  3.00D-04
 OPTENERG=  1.00D-06  OPTSTEP =  3.00D-04  THRGRAD =  1.00D-10  COMPRESS=  1.00D-11  VARMIN  =  1.00D-07  VARMAX  =  1.00D-03
 THRDOUB =  0.00D+00  THRDIV  =  1.00D-05  THRRED  =  1.00D-07  THRPSP  =  1.00D+00  THRDC   =  1.00D-10  THRCS   =  1.00D-10
 THRNRM  =  1.00D-08  THREQ   =  0.00D+00  THRDE   =  1.00D+00  THRREF  =  1.00D-05  SPARFAC =  1.00D+00  THRDLP  =  1.00D-07
 THRDIA  =  1.00D-10  THRDLS  =  1.00D-07  THRGPS  =  0.00D+00  THRKEX  =  0.00D+00  THRDIS  =  2.00D-01  THRVAR  =  1.00D-10
 THRLOC  =  1.00D-06  THRGAP  =  1.00D-06  THRLOCT = -1.00D+00  THRGAPT = -1.00D+00  THRORB  =  1.00D-06  THRMLTP =  0.00D+00
 THRCPQCI=  1.00D-10  KEXTA   =  0.00D+00  THRCOARS=  0.00D+00  SYMTOL  =  1.00D-06  GRADTOL =  1.00D-06  THROVL  =  1.00D-08
 THRORTH =  1.00D-08  GRID    =  1.00D-06  GRIDMAX =  1.00D-03  DTMAX   =  0.00D+00  THROCCDE=  1.00D-01  THROCCDE=  1.00D-01



 THRESHOLDS:

 ZERO    =  1.00D-22  ONEINT  =  1.00D-22  TWOINT  =  1.00D-22  PREFAC  =  1.00D-14  LOCALI  =  1.00D-09  EORDER  =  1.00D-04
 ENERGY  =  1.00D-12  ETEST   =  0.00D+00  EDENS   =  0.00D+00  THRDEDEF=  1.00D-06  GRADIENT=  1.00D-02  STEP    =  1.00D-03
 ORBITAL =  1.00D-05  CIVEC   =  1.00D-05  COEFF   =  1.00D-04  PRINTCI =  5.00D-02  PUNCHCI =  9.90D+01  OPTGRAD =  1.00D-08
 OPTENERG=  1.00D-06  OPTSTEP =  1.00D-08  THRGRAD =  1.00D-10  COMPRESS=  1.00D-11  VARMIN  =  1.00D-07  VARMAX  =  1.00D-03
 THRDOUB =  0.00D+00  THRDIV  =  1.00D-05  THRRED  =  1.00D-07  THRPSP  =  1.00D+00  THRDC   =  1.00D-10  THRCS   =  1.00D-10
 THRNRM  =  1.00D-08  THREQ   =  0.00D+00  THRDE   =  1.00D+00  THRREF  =  1.00D-05  SPARFAC =  1.00D+00  THRDLP  =  1.00D-07
 THRDIA  =  1.00D-10  THRDLS  =  1.00D-07  THRGPS  =  0.00D+00  THRKEX  =  0.00D+00  THRDIS  =  2.00D-01  THRVAR  =  1.00D-10
 THRLOC  =  1.00D-06  THRGAP  =  1.00D-06  THRLOCT = -1.00D+00  THRGAPT = -1.00D+00  THRORB  =  1.00D-06  THRMLTP =  0.00D+00
 THRCPQCI=  1.00D-10  KEXTA   =  0.00D+00  THRCOARS=  0.00D+00  SYMTOL  =  1.00D-06  GRADTOL =  1.00D-06  THROVL  =  1.00D-08
 THRORTH =  1.00D-08  GRID    =  1.00D-06  GRIDMAX =  1.00D-03  DTMAX   =  0.00D+00  THROCCDE=  1.00D-01  THROCCDE=  1.00D-01



 Input parameters for SORTINT:

 COMPRESS =    0.000000
 C_FINAL  =    1.000000
 DEBUG    =   -1.000000
 C_SORT1  =    0.000000
 C_SEWARD =    0.000000
 THRESH   =    0.000000
 IO       =  molpro                                                          
 SPRI     =    0.000000
 SETTING GEOMTYP        =    XYZ
 ZUNIT=BOHR
 

 Variable memory set to  995000000 words,  buffer space   230000 words

 SETTING BASIS          =    AV5Z


 Recomputing integrals since basis changed


 Using spherical harmonics

 Library entry H      S aug-cc-pV5Z          selected for orbital group  1
 Library entry H      P aug-cc-pV5Z          selected for orbital group  1
 Library entry H      D aug-cc-pV5Z          selected for orbital group  1
 Library entry H      F aug-cc-pV5Z          selected for orbital group  1
 Library entry H      G aug-cc-pV5Z          selected for orbital group  1
 Library entry N      S aug-cc-pV5Z          selected for orbital group  2
 Library entry N      P aug-cc-pV5Z          selected for orbital group  2
 Library entry N      D aug-cc-pV5Z          selected for orbital group  2
 Library entry N      F aug-cc-pV5Z          selected for orbital group  2
 Library entry N      G aug-cc-pV5Z          selected for orbital group  2
 Library entry N      H aug-cc-pV5Z          selected for orbital group  2
 Library entry O      S aug-cc-pV5Z          selected for orbital group  3
 Library entry O      P aug-cc-pV5Z          selected for orbital group  3
 Library entry O      D aug-cc-pV5Z          selected for orbital group  3
 Library entry O      F aug-cc-pV5Z          selected for orbital group  3
 Library entry O      G aug-cc-pV5Z          selected for orbital group  3
 Library entry O      H aug-cc-pV5Z          selected for orbital group  3


 PROGRAM * SEWARD (Integral evaluation for generally contracted gaussian basis sets)     Author: Roland Lindh, 1990

 Geometry written to block  1 of record 700


 Point group  Cs  



 ATOMIC COORDINATES

 NR  ATOM    CHARGE       X              Y              Z

   1  H       1.00    0.000000000    1.662078480   -1.922041495
   2  N       7.00    0.000000000   -0.160177061   -1.151150306
   3  O       8.00    0.000000000    0.039866371    1.122602210

 Bond lengths in Bohr (Angstrom)

 1-2  1.978607712  2-3  2.282535406
     ( 1.047034111)     ( 1.207865720)

 Bond angles

  1-2-3  107.90251459

 NUCLEAR CHARGE:                   16
 NUMBER OF PRIMITIVE AOS:         506
 NUMBER OF SYMMETRY AOS:          371
 NUMBER OF CONTRACTIONS:          334   ( 204A'  + 130A"  )
 NUMBER OF CORE ORBITALS:           2   (   2A'  +   0A"  )
 NUMBER OF VALENCE ORBITALS:        9   (   7A'  +   2A"  )


 NUCLEAR REPULSION ENERGY   30.39090739


 Eigenvalues of metric

         1 0.111E-04 0.171E-04 0.631E-04 0.995E-04 0.105E-03 0.136E-03 0.199E-03 0.223E-03
         2 0.127E-03 0.357E-03 0.112E-02 0.157E-02 0.189E-02 0.252E-02 0.321E-02 0.386E-02


 Contracted 2-electron integrals neglected if value below      1.0D-22

      756977532. INTEGRALS WRITTEN OUT IN  184855 BLOCKS ON RECORD 1290 OF FILE 1


 NUMBER OF SORTED TWO-ELECTRON INTEGRALS:  789027325.     BUFFER LENGTH:  32768
 NUMBER OF SEGMENTS:  25  SEGMENT LENGTH:   31997130      RECORD LENGTH: 524288

 Memory used in sort:      32.55 MW

 SORT1 READ   756977532. AND WROTE   760993422. INTEGRALS IN   2189 RECORDS. CPU TIME:    39.36 SEC, REAL TIME:   229.27 SEC
 SORT2 READ   760993422. AND WROTE   789027325. INTEGRALS IN     25 RECORDS. CPU TIME:    12.01 SEC, REAL TIME:    72.04 SEC

 FILE SIZES:   FILE 1: 12137.5 MBYTE,  FILE 4:  9181.4 MBYTE,   TOTAL:  21318.9 MBYTE

 OPERATOR DM      FOR CENTER  0  COORDINATES:    0.000000    0.000000    0.000000


 **********************************************************************************************************************************
 DATASETS  * FILE   NREC   LENGTH (MB)   RECORD NAMES
              1      19     6374.22       500      610      700      900      950      970     1000      129      960     1100   
                                          VAR    BASINP    GEOM    SYMINP    ZMAT    AOBASIS   BASIS     P2S    ABASIS      S 
                                         1400     1410     1200     1210     1080     1600     1650     1300     1700   
                                           T        V       H0       H01     AOSYM     SMH    MOLCAS    ERIS     OPER   

 PROGRAMS   *        TOTAL       INT
 CPU TIMES  *       151.38    151.30
 REAL TIME  *       436.23 SEC
 DISK USED  *        21.32 GB      
 **********************************************************************************************************************************


 PROGRAM * RHF-SCF (CLOSED SHELL)       Authors: W. Meyer, H.-J. Werner


 NUMBER OF ELECTRONS:       8+    8-
 CONVERGENCE THRESHOLDS:    1.00E-10 (Density)    1.00E-13 (Energy)
 MAX. NUMBER OF ITERATIONS:      500
 INTERPOLATION TYPE:            DIIS
 INTERPOLATION STEPS:              2 (START)      1 (STEP)
 LEVEL SHIFTS:                  0.00 (CLOSED)  0.00 (OPEN) 



 Orbital guess generated from atomic densities. Full valence occupancy:    9   2

 Molecular orbital dump at record        2100.2

 Initial occupancy:   7   1

 ITERATION    DDIFF          GRAD             ENERGY        2-EL.EN.            DIPOLE MOMENTS         DIIS   ORB.
    1      0.000D+00      0.000D+00      -129.79891898    154.023240    0.00000    0.59594   -1.02747    0    start
    2      0.000D+00      0.640D-02      -129.82615918    155.236744    0.00000    0.61102   -0.20853    1    diag
    3      0.400D-02      0.487D-02      -129.84894585    155.365628    0.00000    0.55712   -0.59375    2    diag
    4      0.206D-02      0.769D-03      -129.84975046    155.081711    0.00000    0.56466   -0.53216    3    diag
    5      0.378D-03      0.249D-03      -129.84987579    155.174964    0.00000    0.56982   -0.53460    4    diag
    6      0.156D-03      0.720D-04      -129.84989580    155.158705    0.00000    0.57008   -0.53039    5    diag
    7      0.598D-04      0.359D-04      -129.84990164    155.161472    0.00000    0.57129   -0.52775    6    diag
    8      0.410D-04      0.126D-04      -129.84990231    155.160765    0.00000    0.57133   -0.52672    7    diag
    9      0.158D-04      0.243D-05      -129.84990234    155.160656    0.00000    0.57130   -0.52650    8    diag
   10      0.319D-05      0.547D-06      -129.84990234    155.160638    0.00000    0.57127   -0.52647    9    orth
   11      0.618D-06      0.110D-06      -129.84990234    155.160635    0.00000    0.57126   -0.52647    9    diag
   12      0.115D-06      0.223D-07      -129.84990234    155.160635    0.00000    0.57126   -0.52647    9    diag
   13      0.249D-07      0.585D-08      -129.84990234    155.160635    0.00000    0.57126   -0.52647    9    diag
   14      0.672D-08      0.113D-08      -129.84990234    155.160635    0.00000    0.57126   -0.52647    9    diag
   15      0.123D-08      0.322D-09      -129.84990234    155.160635    0.00000    0.57126   -0.52647    9    diag
   16      0.370D-09      0.969D-10      -129.84990234    155.160635    0.00000    0.57126   -0.52647    9    diag
   17      0.714D-10      0.252D-10      -129.84990234    155.160635    0.00000    0.57126   -0.52647    9    diag
   18      0.314D-10      0.853D-11      -129.84990234    155.160635    0.00000    0.57126   -0.52647    9    diag
   19      0.142D-10      0.212D-11      -129.84990234    155.160635    0.00000    0.57126   -0.52647    9    fixocc
   20      0.195D-10      0.532D-12      -129.84990234    155.160635    0.00000    0.57126   -0.52647    9    orth
   21      0.729D-11      0.480D-12      -129.84990234    155.160635    0.00000    0.57126   -0.52647    9    diag
   22      0.721D-11      0.422D-12      -129.84990234    155.160635    0.00000    0.57126   -0.52647    9    diag
   23      0.629D-11      0.297D-12      -129.84990234    155.160635    0.00000    0.57126   -0.52647    9    diag
   24      0.317D-11      0.313D-12      -129.84990234    155.160635    0.00000    0.57126   -0.52647    9    diag
   25      0.179D-11      0.268D-12      -129.84990234    155.160635    0.00000    0.57126   -0.52647    0    orth

 Final occupancy:   7   1

 !RHF STATE 1.1 Energy               -129.849902340645
 Nuclear energy                        30.39090739
 One-electron energy                 -237.82112703
 Two-electron energy                   77.58031729
 Virial quotient                       -1.00163033
 !RHF STATE 1.1 Dipole moment           0.00000000     0.57125678    -0.52646933
 Dipole moment /Debye                   0.00000000     1.45189480    -1.33806391

 Orbital energies:

         1.1          2.1          3.1          4.1          5.1          6.1          7.1          8.1          9.1
    -20.652757   -15.711527    -1.529589    -0.995442    -0.747775    -0.666075    -0.431026     0.022876     0.065548

         1.2          2.2          3.2
     -0.596055     0.060244     0.091579

 HOMO      7.1    -0.431026 =     -11.7288eV
 LUMO      8.1     0.022876 =       0.6225eV
 LUMO-HOMO         0.453902 =      12.3513eV


 **********************************************************************************************************************************
 DATASETS  * FILE   NREC   LENGTH (MB)   RECORD NAMES
              1      19     6374.22       500      610      700      900      950      970     1000      129      960     1100   
                                          VAR    BASINP    GEOM    SYMINP    ZMAT    AOBASIS   BASIS     P2S    ABASIS      S 
                                         1400     1410     1200     1210     1080     1600     1650     1300     1700   
                                           T        V       H0       H01     AOSYM     SMH    MOLCAS    ERIS     OPER   

              2       4        4.02       700     1000      520     2100   
                                         GEOM     BASIS   MCVARS     RHF  

 PROGRAMS   *        TOTAL        HF       INT
 CPU TIMES  *       234.79     83.41    151.30
 REAL TIME  *       546.63 SEC
 DISK USED  *        21.32 GB      
 **********************************************************************************************************************************


 PROGRAM * CCSD (Closed-shell coupled cluster)     Authors: C. Hampel, H.-J. Werner, 1991, M. Deegan, P.J. Knowles, 1992


 Convergence thresholds:  THRVAR = 1.00D-08  THRDEN = 1.00D-12

 CCSD(T)     terms to be evaluated (factor= 1.000)


 Number of core orbitals:           2 (   2   0 )
 Number of closed-shell orbitals:   6 (   5   1 )
 Number of external orbitals:     326 ( 197 129 )

 Molecular orbitals read from record     2100.2  Type=RHF/CANONICAL (state 1.1)

 Number of N-1 electron functions:               6
 Number of N-2 electron functions:              21
 Number of singly external CSFs:              1114
 Number of doubly external CSFs:            975958
 Total number of CSFs:                      977073

 Length of J-op  integral file:               0.00 MB
 Length of K-op  integral file:               4.07 MB
 Length of 3-ext integral record:             0.00 MB

 Memory could be reduced to 151.33 Mwords without degradation in triples

 Integral transformation finished. Total CPU:  10.65 sec, npass=  1  Memory used:  41.21 MW

 Reference energy:                   -129.84990234

 MP2 singlet pair energy:              -0.31105009
 MP2 triplet pair energy:              -0.17193687
 MP2 correlation energy:               -0.48298696
 MP2 total energy:                   -130.33288930

 SCS-MP2 correlation energy:           -0.48024305   (PS=  1.200000  PT=  0.333333)
 SCS-MP2 total energy:               -130.33014539

 ITER.      SQ.NORM     CORR.ENERGY   TOTAL ENERGY   ENERGY CHANGE        DEN1      VAR(S)    VAR(P)  DIIS     TIME  TIME/IT
   1      1.12039825    -0.48000190  -130.32990424     0.00298506     0.01959441  0.31D-02  0.32D-02  1  1    19.51     9.81
   2      1.13098821    -0.47989282  -130.32979516     0.00010909    -0.01264319  0.10D-03  0.48D-03  2  2    28.50     9.94
   3      1.13710477    -0.48027007  -130.33017241    -0.00037726    -0.00299056  0.47D-04  0.56D-04  3  3    37.56     9.98
   4      1.13987987    -0.48026903  -130.33017137     0.00000104    -0.00096361  0.44D-05  0.99D-05  4  4    46.50    10.01
   5      1.14099682    -0.48029779  -130.33020013    -0.00002876    -0.00024807  0.11D-05  0.17D-05  5  5    55.44    10.03
   6      1.14134869    -0.48028626  -130.33018860     0.00001153    -0.00004988  0.11D-06  0.40D-06  6  6    64.42    10.06
   7      1.14142298    -0.48028598  -130.33018832     0.00000028     0.00000348  0.16D-07  0.92D-07  6  1    73.46    10.07
   8      1.14144776    -0.48028602  -130.33018836    -0.00000004    -0.00000300  0.35D-08  0.19D-07  6  2    82.52    10.08
   9      1.14145600    -0.48028548  -130.33018782     0.00000054    -0.00000018  0.22D-08  0.20D-08  6  3    91.50    10.09
  10      1.14145141    -0.48028621  -130.33018855    -0.00000073     0.00000159  0.35D-09  0.32D-09  6  5   100.49    10.10
  11      1.14145335    -0.48028620  -130.33018854     0.00000002    -0.00000036  0.99D-10  0.27D-10  6  4   109.53    10.10
  12      1.14145291    -0.48028626  -130.33018861    -0.00000007     0.00000005  0.18D-10  0.62D-11  6  6   118.55    10.10
  13      1.14145271    -0.48028627  -130.33018861    -0.00000000    -0.00000003  0.30D-11  0.89D-12  6  1   127.46    10.11
  14      1.14145245    -0.48028628  -130.33018862    -0.00000001     0.00000004  0.43D-12  0.16D-12  6  3   136.52    10.11
  15      1.14145238    -0.48028628  -130.33018862    -0.00000000     0.00000001  0.12D-12  0.22D-13  6  2   145.70    10.12
  16      1.14145236    -0.48028628  -130.33018862     0.00000000     0.00000000  0.31D-13  0.83D-14  6  4   154.73    10.13
  17      1.14145236    -0.48028628  -130.33018862    -0.00000000    -0.00000000  0.18D-14  0.10D-14  6  5   163.79    10.13
  18      1.14145237    -0.48028628  -130.33018862     0.00000000    -0.00000000  0.27D-15  0.28D-15  6  6   172.81    10.13
  19      1.14145237    -0.48028628  -130.33018862     0.00000000    -0.00000000  0.49D-16  0.39D-16  6  1   181.74    10.13
  20      1.14145237    -0.48028628  -130.33018862     0.00000000    -0.00000000  0.11D-16  0.58D-17  6  3   190.76    10.13
  21      1.14145237    -0.48028628  -130.33018862    -0.00000000     0.00000000  0.20D-17  0.10D-17  6  2   199.76    10.13
  22      1.14145237    -0.48028628  -130.33018862    -0.00000000     0.00000000  0.36D-18  0.16D-18  6  4   208.88    10.13
  23      1.14145237    -0.48028628  -130.33018862    -0.00000000     0.00000000  0.72D-19  0.39D-19  6  5   217.94    10.13
  24      1.14145237    -0.48028628  -130.33018862    -0.00000000     0.00000000  0.31D-19  0.18D-19  6  6   226.92    10.13
  25      1.14145237    -0.48028628  -130.33018862     0.00000000    -0.00000000  0.18D-19  0.10D-19  6  1   235.85    10.13

 Norm of t1 vector:      0.07595017      S-energy:    -0.00000000      T1 diagnostic:  0.01550326
                                                                       D1 diagnostic:  0.04214704

 Doubles amplitudes (print threshold =  0.500E-01):

         I         J         SYM. A    SYM. B    A         B      T(IJ, AB)

         6         6         2         2         1         1     -0.07914532
         6         6         2         2         1         2      0.05306277
         6         6         2         2         2         1      0.05306277


 Total CPU time for triples:     91.09 sec


 RESULTS
 =======

  Reference energy                   -129.849902340645
  CCSD singlet pair energy             -0.333133025487
  CCSD triplet pair energy             -0.147153255854
  CCSD correlation energy              -0.480286281343

  Triples (T) contribution             -0.022876987694
  Total correlation energy             -0.503163269037

  CCSD total energy                  -130.330188621988
  CCSD[T] energy                     -130.354137028538
  CCSD-T energy                      -130.352688572004
 !CCSD(T) total energy               -130.353065609682

 Timing summary (sec):

 STEP                 CPU(USER)    SYS     CPU(TOT)    WALL
 Transformation         10.69      1.44     12.13     12.34
 CCSD iterations       225.16     28.03    253.19    253.21
 Triples                91.09      1.65     92.74     92.74

 Program statistics:

 Available memory in ccsd:               994999756
 Min. memory needed in ccsd:               3348832
 Max. memory used in ccsd:                 4143652
 Max. memory used in cckext:               8340089 (25 integral passes)



 **********************************************************************************************************************************
 DATASETS  * FILE   NREC   LENGTH (MB)   RECORD NAMES
              1      20     6809.41       500      610      700      900      950      970     1000      129      960     1100   
                                          VAR    BASINP    GEOM    SYMINP    ZMAT    AOBASIS   BASIS     P2S    ABASIS      S 
                                         1400     1410     1200     1210     1080     1600     1650     1300     1700     1380   
                                           T        V       H0       H01     AOSYM     SMH    MOLCAS    ERIS     OPER     JKOP   

              2       4        4.02       700     1000      520     2100   
                                         GEOM     BASIS   MCVARS     RHF  

 PROGRAMS   *        TOTAL   CCSD(T)        HF       INT
 CPU TIMES  *       561.76    326.97     83.41    151.30
 REAL TIME  *       905.02 SEC
 DISK USED  *        21.32 GB      
 **********************************************************************************************************************************

 CCSD(T)/aug-cc-pV5Z energy=   -130.353065609682

        CCSD(T)         HF-SCF  
   -130.35306561   -129.84990234
 **********************************************************************************************************************************
 Molpro calculation terminated
 Variable memory released
