
 Primary working directories    : /tmp/r2666/281874.maple
 Secondary working directories  : /tmp/r2666/281874.maple
 Wavefunction directory         : /ddn/home4/r2666/wfu/
 Main file repository           : /tmp/r2666/281874.maple/

 SHA1      : d5ffa45e93fdbca01ffc919aa182cfdae0147319
 NAME      : 2015.1.35
 ARCHNAME  : linux/x86_64
 FC        : /opt/intel/composer_xe_2015.1.133/bin/intel64/ifort
 BLASLIB   : -Wl,-_start-group /opt/intel/mkl/lib/intel64/libmkl_intel_ilp64.a /opt/intel/mkl/lib/intel64/libmkl_intel_thread.a /opt/intel/mkl/lib/intel64/libmkl_core.a -Wl,-_end-group
 id        : olemiss

 Nodes     nprocs
 cn093        1

 Using customized tuning parameters: mindgm=1; mindgv=20; mindgc=4; mindgr=1; noblas=0; minvec=7
 default implementation of scratch files=df  

 ***,hno CCSD(T)/TZ-F12 QFF
 memory, 995, m;
 gthresh,energy=1.d-12,zero=1.d-22,oneint=1.d-22,twoint=1.d-22;
 gthresh,optgrad=1.d-8,optstep=1.d-8;
 nocompress;
 geomtyp=xyz
 bohr
 geometry={
 3
         29        29
 H        0.0000000000        1.6618972017       -1.9304819106
 N        0.0000000000       -0.1531542716       -1.1427785226
 O        0.0000000000        0.0330248599        1.1226708422
 }
 
 basis=av5z
   {hf,maxit=500;accu,20;}
 {ccsd(t),nocheck,maxit=250;orbital,IGNORE_ERROR;}

 Variables initialized (889), CPU time= 0.00 sec
 Commands  initialized (702), CPU time= 0.01 sec, 572 directives.
 Default parameters read. Elapsed time= 0.08 sec

 Checking input...
 Passed
1


                                         ***  PROGRAM SYSTEM MOLPRO  ***
                                       Copyright, TTI GmbH Stuttgart, 2015
                                    Version 2015.1 linked Jul  9 2018 13:16:40


 **********************************************************************************************************************************
 LABEL *   hno CCSD(T)/TZ-F12 QFF                                                        
  64 bit serial version                                                                  DATE: 04-Mar-20          TIME: 13:19:58  
 **********************************************************************************************************************************

 SHA1:             d5ffa45e93fdbca01ffc919aa182cfdae0147319
 **********************************************************************************************************************************

 THRESHOLDS:

 ZERO    =  1.00D-22  ONEINT  =  1.00D-22  TWOINT  =  1.00D-22  PREFAC  =  1.00D-14  LOCALI  =  1.00D-09  EORDER  =  1.00D-04
 ENERGY  =  1.00D-12  ETEST   =  0.00D+00  EDENS   =  0.00D+00  THRDEDEF=  1.00D-06  GRADIENT=  1.00D-02  STEP    =  1.00D-03
 ORBITAL =  1.00D-05  CIVEC   =  1.00D-05  COEFF   =  1.00D-04  PRINTCI =  5.00D-02  PUNCHCI =  9.90D+01  OPTGRAD =  3.00D-04
 OPTENERG=  1.00D-06  OPTSTEP =  3.00D-04  THRGRAD =  1.00D-10  COMPRESS=  1.00D-11  VARMIN  =  1.00D-07  VARMAX  =  1.00D-03
 THRDOUB =  0.00D+00  THRDIV  =  1.00D-05  THRRED  =  1.00D-07  THRPSP  =  1.00D+00  THRDC   =  1.00D-10  THRCS   =  1.00D-10
 THRNRM  =  1.00D-08  THREQ   =  0.00D+00  THRDE   =  1.00D+00  THRREF  =  1.00D-05  SPARFAC =  1.00D+00  THRDLP  =  1.00D-07
 THRDIA  =  1.00D-10  THRDLS  =  1.00D-07  THRGPS  =  0.00D+00  THRKEX  =  0.00D+00  THRDIS  =  2.00D-01  THRVAR  =  1.00D-10
 THRLOC  =  1.00D-06  THRGAP  =  1.00D-06  THRLOCT = -1.00D+00  THRGAPT = -1.00D+00  THRORB  =  1.00D-06  THRMLTP =  0.00D+00
 THRCPQCI=  1.00D-10  KEXTA   =  0.00D+00  THRCOARS=  0.00D+00  SYMTOL  =  1.00D-06  GRADTOL =  1.00D-06  THROVL  =  1.00D-08
 THRORTH =  1.00D-08  GRID    =  1.00D-06  GRIDMAX =  1.00D-03  DTMAX   =  0.00D+00  THROCCDE=  1.00D-01  THROCCDE=  1.00D-01



 THRESHOLDS:

 ZERO    =  1.00D-22  ONEINT  =  1.00D-22  TWOINT  =  1.00D-22  PREFAC  =  1.00D-14  LOCALI  =  1.00D-09  EORDER  =  1.00D-04
 ENERGY  =  1.00D-12  ETEST   =  0.00D+00  EDENS   =  0.00D+00  THRDEDEF=  1.00D-06  GRADIENT=  1.00D-02  STEP    =  1.00D-03
 ORBITAL =  1.00D-05  CIVEC   =  1.00D-05  COEFF   =  1.00D-04  PRINTCI =  5.00D-02  PUNCHCI =  9.90D+01  OPTGRAD =  1.00D-08
 OPTENERG=  1.00D-06  OPTSTEP =  1.00D-08  THRGRAD =  1.00D-10  COMPRESS=  1.00D-11  VARMIN  =  1.00D-07  VARMAX  =  1.00D-03
 THRDOUB =  0.00D+00  THRDIV  =  1.00D-05  THRRED  =  1.00D-07  THRPSP  =  1.00D+00  THRDC   =  1.00D-10  THRCS   =  1.00D-10
 THRNRM  =  1.00D-08  THREQ   =  0.00D+00  THRDE   =  1.00D+00  THRREF  =  1.00D-05  SPARFAC =  1.00D+00  THRDLP  =  1.00D-07
 THRDIA  =  1.00D-10  THRDLS  =  1.00D-07  THRGPS  =  0.00D+00  THRKEX  =  0.00D+00  THRDIS  =  2.00D-01  THRVAR  =  1.00D-10
 THRLOC  =  1.00D-06  THRGAP  =  1.00D-06  THRLOCT = -1.00D+00  THRGAPT = -1.00D+00  THRORB  =  1.00D-06  THRMLTP =  0.00D+00
 THRCPQCI=  1.00D-10  KEXTA   =  0.00D+00  THRCOARS=  0.00D+00  SYMTOL  =  1.00D-06  GRADTOL =  1.00D-06  THROVL  =  1.00D-08
 THRORTH =  1.00D-08  GRID    =  1.00D-06  GRIDMAX =  1.00D-03  DTMAX   =  0.00D+00  THROCCDE=  1.00D-01  THROCCDE=  1.00D-01



 Input parameters for SORTINT:

 COMPRESS =    0.000000
 C_FINAL  =    1.000000
 DEBUG    =   -1.000000
 C_SORT1  =    0.000000
 C_SEWARD =    0.000000
 THRESH   =    0.000000
 IO       =  molpro                                                          
 SPRI     =    0.000000
 SETTING GEOMTYP        =    XYZ
 ZUNIT=BOHR
 

 Variable memory set to  995000000 words,  buffer space   230000 words

 SETTING BASIS          =    AV5Z


 Recomputing integrals since basis changed


 Using spherical harmonics

 Library entry H      S aug-cc-pV5Z          selected for orbital group  1
 Library entry H      P aug-cc-pV5Z          selected for orbital group  1
 Library entry H      D aug-cc-pV5Z          selected for orbital group  1
 Library entry H      F aug-cc-pV5Z          selected for orbital group  1
 Library entry H      G aug-cc-pV5Z          selected for orbital group  1
 Library entry N      S aug-cc-pV5Z          selected for orbital group  2
 Library entry N      P aug-cc-pV5Z          selected for orbital group  2
 Library entry N      D aug-cc-pV5Z          selected for orbital group  2
 Library entry N      F aug-cc-pV5Z          selected for orbital group  2
 Library entry N      G aug-cc-pV5Z          selected for orbital group  2
 Library entry N      H aug-cc-pV5Z          selected for orbital group  2
 Library entry O      S aug-cc-pV5Z          selected for orbital group  3
 Library entry O      P aug-cc-pV5Z          selected for orbital group  3
 Library entry O      D aug-cc-pV5Z          selected for orbital group  3
 Library entry O      F aug-cc-pV5Z          selected for orbital group  3
 Library entry O      G aug-cc-pV5Z          selected for orbital group  3
 Library entry O      H aug-cc-pV5Z          selected for orbital group  3


 PROGRAM * SEWARD (Integral evaluation for generally contracted gaussian basis sets)     Author: Roland Lindh, 1990

 Geometry written to block  1 of record 700


 Point group  Cs  



 ATOMIC COORDINATES

 NR  ATOM    CHARGE       X              Y              Z

   1  H       1.00    0.000000000    1.661897202   -1.930481911
   2  N       7.00    0.000000000   -0.153154272   -1.142778523
   3  O       8.00    0.000000000    0.033024860    1.122670842

 Bond lengths in Bohr (Angstrom)

 1-2  1.978607712  2-3  2.273086776
     ( 1.047034111)     ( 1.202865721)

 Bond angles

  1-2-3  108.76195129

 NUCLEAR CHARGE:                   16
 NUMBER OF PRIMITIVE AOS:         506
 NUMBER OF SYMMETRY AOS:          371
 NUMBER OF CONTRACTIONS:          334   ( 204A'  + 130A"  )
 NUMBER OF CORE ORBITALS:           2   (   2A'  +   0A"  )
 NUMBER OF VALENCE ORBITALS:        9   (   7A'  +   2A"  )


 NUCLEAR REPULSION ENERGY   30.48575795


 Eigenvalues of metric

         1 0.110E-04 0.168E-04 0.625E-04 0.980E-04 0.103E-03 0.134E-03 0.196E-03 0.223E-03
         2 0.125E-03 0.356E-03 0.110E-02 0.154E-02 0.188E-02 0.246E-02 0.320E-02 0.384E-02


 Contracted 2-electron integrals neglected if value below      1.0D-22

      756977180. INTEGRALS WRITTEN OUT IN  184855 BLOCKS ON RECORD 1290 OF FILE 1


 NUMBER OF SORTED TWO-ELECTRON INTEGRALS:  789027325.     BUFFER LENGTH:  32768
 NUMBER OF SEGMENTS:  25  SEGMENT LENGTH:   31997130      RECORD LENGTH: 524288

 Memory used in sort:      32.55 MW

 SORT1 READ   756977180. AND WROTE   760993064. INTEGRALS IN   2189 RECORDS. CPU TIME:    41.15 SEC, REAL TIME:   225.39 SEC
 SORT2 READ   760993064. AND WROTE   789027325. INTEGRALS IN     25 RECORDS. CPU TIME:    11.83 SEC, REAL TIME:    64.51 SEC

 FILE SIZES:   FILE 1: 12137.5 MBYTE,  FILE 4:  9181.4 MBYTE,   TOTAL:  21318.9 MBYTE

 OPERATOR DM      FOR CENTER  0  COORDINATES:    0.000000    0.000000    0.000000


 **********************************************************************************************************************************
 DATASETS  * FILE   NREC   LENGTH (MB)   RECORD NAMES
              1      19     6374.22       500      610      700      900      950      970     1000      129      960     1100   
                                          VAR    BASINP    GEOM    SYMINP    ZMAT    AOBASIS   BASIS     P2S    ABASIS      S 
                                         1400     1410     1200     1210     1080     1600     1650     1300     1700   
                                           T        V       H0       H01     AOSYM     SMH    MOLCAS    ERIS     OPER   

 PROGRAMS   *        TOTAL       INT
 CPU TIMES  *       151.57    151.44
 REAL TIME  *       421.43 SEC
 DISK USED  *        21.32 GB      
 **********************************************************************************************************************************


 PROGRAM * RHF-SCF (CLOSED SHELL)       Authors: W. Meyer, H.-J. Werner


 NUMBER OF ELECTRONS:       8+    8-
 CONVERGENCE THRESHOLDS:    1.00E-10 (Density)    1.00E-13 (Energy)
 MAX. NUMBER OF ITERATIONS:      500
 INTERPOLATION TYPE:            DIIS
 INTERPOLATION STEPS:              2 (START)      1 (STEP)
 LEVEL SHIFTS:                  0.00 (CLOSED)  0.00 (OPEN) 



 Orbital guess generated from atomic densities. Full valence occupancy:    9   2

 Molecular orbital dump at record        2100.2

 Initial occupancy:   7   1

 ITERATION    DDIFF          GRAD             ENERGY        2-EL.EN.            DIPOLE MOMENTS         DIIS   ORB.
    1      0.000D+00      0.000D+00      -129.80037622    154.189518    0.00000    0.60115   -1.01331    0    start
    2      0.000D+00      0.636D-02      -129.82774383    155.416480    0.00000    0.60740   -0.21429    1    diag
    3      0.395D-02      0.478D-02      -129.84964525    155.533182    0.00000    0.55815   -0.58958    2    diag
    4      0.203D-02      0.765D-03      -129.85044045    155.252846    0.00000    0.56538   -0.52864    3    diag
    5      0.376D-03      0.247D-03      -129.85056345    155.345880    0.00000    0.57061   -0.53125    4    diag
    6      0.154D-03      0.712D-04      -129.85058301    155.329707    0.00000    0.57092   -0.52714    5    diag
    7      0.591D-04      0.353D-04      -129.85058864    155.332516    0.00000    0.57214   -0.52459    6    diag
    8      0.404D-04      0.122D-04      -129.85058926    155.331833    0.00000    0.57219   -0.52360    7    diag
    9      0.152D-04      0.235D-05      -129.85058929    155.331727    0.00000    0.57216   -0.52339    8    diag
   10      0.304D-05      0.538D-06      -129.85058929    155.331709    0.00000    0.57212   -0.52336    9    orth
   11      0.610D-06      0.109D-06      -129.85058929    155.331705    0.00000    0.57212   -0.52335    9    diag
   12      0.115D-06      0.218D-07      -129.85058929    155.331705    0.00000    0.57212   -0.52335    9    diag
   13      0.247D-07      0.566D-08      -129.85058929    155.331705    0.00000    0.57212   -0.52335    9    diag
   14      0.657D-08      0.110D-08      -129.85058929    155.331705    0.00000    0.57212   -0.52335    9    diag
   15      0.122D-08      0.317D-09      -129.85058929    155.331705    0.00000    0.57212   -0.52335    9    diag
   16      0.363D-09      0.967D-10      -129.85058929    155.331705    0.00000    0.57212   -0.52335    9    diag
   17      0.766D-10      0.255D-10      -129.85058929    155.331705    0.00000    0.57212   -0.52335    9    diag
   18      0.251D-10      0.871D-11      -129.85058929    155.331705    0.00000    0.57212   -0.52335    9    diag
   19      0.161D-10      0.219D-11      -129.85058929    155.331705    0.00000    0.57212   -0.52335    9    fixocc
   20      0.168D-10      0.556D-12      -129.85058929    155.331705    0.00000    0.57212   -0.52335    9    orth
   21      0.104D-10      0.314D-12      -129.85058929    155.331705    0.00000    0.57212   -0.52335    9    diag
   22      0.526D-11      0.313D-12      -129.85058929    155.331705    0.00000    0.57212   -0.52335    9    diag
   23      0.362D-11      0.306D-12      -129.85058929    155.331705    0.00000    0.57212   -0.52335    9    diag
   24      0.275D-11      0.315D-12      -129.85058929    155.331705    0.00000    0.57212   -0.52335    9    diag
   25      0.372D-11      0.228D-12      -129.85058929    155.331705    0.00000    0.57212   -0.52335    9    diag
   26      0.169D-11      0.246D-12      -129.85058929    155.331705    0.00000    0.57212   -0.52335    9    diag
   27      0.181D-11      0.263D-12      -129.85058929    155.331705    0.00000    0.57212   -0.52335    9    diag
   28      0.977D-12      0.233D-12      -129.85058929    155.331705    0.00000    0.57212   -0.52335    9    diag
   29      0.324D-12      0.207D-12      -129.85058929    155.331705    0.00000    0.57212   -0.52335    9    diag
   30      0.557D-12      0.190D-12      -129.85058929    155.331705    0.00000    0.57212   -0.52335    9    orth
   31      0.562D-12      0.267D-12      -129.85058929    155.331705    0.00000    0.57212   -0.52335    9    diag
   32      0.903D-12      0.209D-12      -129.85058929    155.331705    0.00000    0.57212   -0.52335    9    diag
   33      0.145D-11      0.230D-12      -129.85058929    155.331705    0.00000    0.57212   -0.52335    9    diag
   34      0.946D-12      0.354D-12      -129.85058929    155.331705    0.00000    0.57212   -0.52335    0    orth

 Final occupancy:   7   1

 !RHF STATE 1.1 Energy               -129.850589294167
 Nuclear energy                        30.48575795
 One-electron energy                 -238.00219978
 Two-electron energy                   77.66585254
 Virial quotient                       -1.00150381
 !RHF STATE 1.1 Dipole moment           0.00000000     0.57211508    -0.52335320
 Dipole moment /Debye                   0.00000000     1.45407625    -1.33014403

 Orbital energies:

         1.1          2.1          3.1          4.1          5.1          6.1          7.1          8.1          9.1
    -20.652492   -15.710509    -1.533256    -0.994817    -0.749259    -0.667689    -0.428894     0.022873     0.065543

         1.2          2.2          3.2
     -0.598332     0.061107     0.091997

 HOMO      7.1    -0.428894 =     -11.6708eV
 LUMO      8.1     0.022873 =       0.6224eV
 LUMO-HOMO         0.451767 =      12.2932eV


 **********************************************************************************************************************************
 DATASETS  * FILE   NREC   LENGTH (MB)   RECORD NAMES
              1      19     6374.22       500      610      700      900      950      970     1000      129      960     1100   
                                          VAR    BASINP    GEOM    SYMINP    ZMAT    AOBASIS   BASIS     P2S    ABASIS      S 
                                         1400     1410     1200     1210     1080     1600     1650     1300     1700   
                                           T        V       H0       H01     AOSYM     SMH    MOLCAS    ERIS     OPER   

              2       4        4.02       700     1000      520     2100   
                                         GEOM     BASIS   MCVARS     RHF  

 PROGRAMS   *        TOTAL        HF       INT
 CPU TIMES  *       259.37    107.80    151.44
 REAL TIME  *       562.46 SEC
 DISK USED  *        21.32 GB      
 **********************************************************************************************************************************


 PROGRAM * CCSD (Closed-shell coupled cluster)     Authors: C. Hampel, H.-J. Werner, 1991, M. Deegan, P.J. Knowles, 1992


 Convergence thresholds:  THRVAR = 1.00D-08  THRDEN = 1.00D-12

 CCSD(T)     terms to be evaluated (factor= 1.000)


 Number of core orbitals:           2 (   2   0 )
 Number of closed-shell orbitals:   6 (   5   1 )
 Number of external orbitals:     326 ( 197 129 )

 Molecular orbitals read from record     2100.2  Type=RHF/CANONICAL (state 1.1)

 Number of N-1 electron functions:               6
 Number of N-2 electron functions:              21
 Number of singly external CSFs:              1114
 Number of doubly external CSFs:            975958
 Total number of CSFs:                      977073

 Length of J-op  integral file:               0.00 MB
 Length of K-op  integral file:               4.07 MB
 Length of 3-ext integral record:             0.00 MB

 Memory could be reduced to 151.33 Mwords without degradation in triples

 Integral transformation finished. Total CPU:  10.33 sec, npass=  1  Memory used:  41.21 MW

 Reference energy:                   -129.85058929

 MP2 singlet pair energy:              -0.31054669
 MP2 triplet pair energy:              -0.17160020
 MP2 correlation energy:               -0.48214689
 MP2 total energy:                   -130.33273619

 SCS-MP2 correlation energy:           -0.47942949   (PS=  1.200000  PT=  0.333333)
 SCS-MP2 total energy:               -130.33001878

 ITER.      SQ.NORM     CORR.ENERGY   TOTAL ENERGY   ENERGY CHANGE        DEN1      VAR(S)    VAR(P)  DIIS     TIME  TIME/IT
   1      1.11989053    -0.47936028  -130.32994957     0.00278661     0.01919530  0.31D-02  0.31D-02  1  1    18.67     9.24
   2      1.13036822    -0.47929041  -130.32987970     0.00006987    -0.01252148  0.10D-03  0.48D-03  2  2    27.14     9.39
   3      1.13640481    -0.47966218  -130.33025148    -0.00037178    -0.00296306  0.46D-04  0.55D-04  3  3    35.72     9.46
   4      1.13913267    -0.47966063  -130.33024992     0.00000155    -0.00095071  0.43D-05  0.98D-05  4  4    44.27     9.48
   5      1.14022734    -0.47968866  -130.33027796    -0.00002803    -0.00024306  0.11D-05  0.17D-05  5  5    52.78     9.49
   6      1.14057528    -0.47967759  -130.33026688     0.00001107    -0.00004897  0.11D-06  0.41D-06  6  6    61.22     9.49
   7      1.14065101    -0.47967726  -130.33026655     0.00000033     0.00000313  0.16D-07  0.93D-07  6  1    69.72     9.49
   8      1.14067595    -0.47967737  -130.33026667    -0.00000011    -0.00000296  0.36D-08  0.19D-07  6  2    78.32     9.50
   9      1.14068439    -0.47967684  -130.33026614     0.00000053    -0.00000022  0.22D-08  0.19D-08  6  3    86.83     9.50
  10      1.14067989    -0.47967757  -130.33026686    -0.00000073     0.00000155  0.35D-09  0.31D-09  6  5    95.28     9.50
  11      1.14068174    -0.47967755  -130.33026685     0.00000001    -0.00000033  0.97D-10  0.26D-10  6  4   103.73     9.50
  12      1.14068130    -0.47967762  -130.33026691    -0.00000007     0.00000005  0.18D-10  0.61D-11  6  6   112.13     9.51
  13      1.14068109    -0.47967762  -130.33026692    -0.00000000    -0.00000003  0.31D-11  0.91D-12  6  1   120.54     9.51
  14      1.14068083    -0.47967763  -130.33026693    -0.00000001     0.00000004  0.46D-12  0.16D-12  6  3   129.11     9.51
  15      1.14068075    -0.47967764  -130.33026693    -0.00000000     0.00000001  0.12D-12  0.22D-13  6  2   137.57     9.51
  16      1.14068074    -0.47967764  -130.33026693     0.00000000     0.00000000  0.32D-13  0.86D-14  6  4   146.18     9.51
  17      1.14068074    -0.47967764  -130.33026693    -0.00000000    -0.00000000  0.18D-14  0.11D-14  6  5   154.69     9.51
  18      1.14068075    -0.47967764  -130.33026693     0.00000000    -0.00000000  0.28D-15  0.29D-15  6  6   163.22     9.51
  19      1.14068075    -0.47967764  -130.33026693     0.00000000    -0.00000000  0.53D-16  0.42D-16  6  1   171.78     9.51
  20      1.14068075    -0.47967764  -130.33026693     0.00000000    -0.00000000  0.11D-16  0.61D-17  6  3   180.18     9.52
  21      1.14068075    -0.47967764  -130.33026693    -0.00000000     0.00000000  0.21D-17  0.11D-17  6  2   188.64     9.52
  22      1.14068075    -0.47967764  -130.33026693    -0.00000000     0.00000000  0.39D-18  0.16D-18  6  4   197.14     9.51
  23      1.14068075    -0.47967764  -130.33026693    -0.00000000     0.00000000  0.79D-19  0.41D-19  6  5   205.63     9.51
  24      1.14068075    -0.47967764  -130.33026693    -0.00000000     0.00000000  0.30D-19  0.17D-19  6  6   214.11     9.52
  25      1.14068075    -0.47967764  -130.33026693     0.00000000    -0.00000000  0.18D-19  0.10D-19  6  1   222.43     9.52

 Norm of t1 vector:      0.07535279      S-energy:    -0.00000000      T1 diagnostic:  0.01538132
                                                                       D1 diagnostic:  0.04157340

 Doubles amplitudes (print threshold =  0.500E-01):

         I         J         SYM. A    SYM. B    A         B      T(IJ, AB)

         6         6         2         2         1         1     -0.07534537
         6         6         2         2         1         2      0.05300771
         6         6         2         2         2         1      0.05300771


 Total CPU time for triples:     87.87 sec


 RESULTS
 =======

  Reference energy                   -129.850589294167
  CCSD singlet pair energy             -0.332607958524
  CCSD triplet pair energy             -0.147069678680
  CCSD correlation energy              -0.479677637207

  Triples (T) contribution             -0.022727471822
  Total correlation energy             -0.502405109029

  CCSD total energy                  -130.330266931374
  CCSD[T] energy                     -130.354048395949
  CCSD-T energy                      -130.352621628491
 !CCSD(T) total energy               -130.352994403196

 Timing summary (sec):

 STEP                 CPU(USER)    SYS     CPU(TOT)    WALL
 Transformation         10.37      1.32     11.69     11.70
 CCSD iterations       212.07     25.88    237.95    237.96
 Triples                87.87      1.62     89.49     89.49

 Program statistics:

 Available memory in ccsd:               994999756
 Min. memory needed in ccsd:               3348832
 Max. memory used in ccsd:                 4143652
 Max. memory used in cckext:               8340089 (25 integral passes)



 **********************************************************************************************************************************
 DATASETS  * FILE   NREC   LENGTH (MB)   RECORD NAMES
              1      20     6809.41       500      610      700      900      950      970     1000      129      960     1100   
                                          VAR    BASINP    GEOM    SYMINP    ZMAT    AOBASIS   BASIS     P2S    ABASIS      S 
                                         1400     1410     1200     1210     1080     1600     1650     1300     1700     1380   
                                           T        V       H0       H01     AOSYM     SMH    MOLCAS    ERIS     OPER     JKOP   

              2       4        4.02       700     1000      520     2100   
                                         GEOM     BASIS   MCVARS     RHF  

 PROGRAMS   *        TOTAL   CCSD(T)        HF       INT
 CPU TIMES  *       569.70    310.33    107.80    151.44
 REAL TIME  *       901.82 SEC
 DISK USED  *        21.32 GB      
 **********************************************************************************************************************************

 CCSD(T)/aug-cc-pV5Z energy=   -130.352994403196

        CCSD(T)         HF-SCF  
   -130.35299440   -129.85058929
 **********************************************************************************************************************************
 Molpro calculation terminated
 Variable memory released
