
 Primary working directories    : /tmp/r2666/281931.maple
 Secondary working directories  : /tmp/r2666/281931.maple
 Wavefunction directory         : /ddn/home4/r2666/wfu/
 Main file repository           : /tmp/r2666/281931.maple/

 SHA1      : d5ffa45e93fdbca01ffc919aa182cfdae0147319
 NAME      : 2015.1.35
 ARCHNAME  : linux/x86_64
 FC        : /opt/intel/composer_xe_2015.1.133/bin/intel64/ifort
 BLASLIB   : -Wl,-_start-group /opt/intel/mkl/lib/intel64/libmkl_intel_ilp64.a /opt/intel/mkl/lib/intel64/libmkl_intel_thread.a /opt/intel/mkl/lib/intel64/libmkl_core.a -Wl,-_end-group
 id        : olemiss

 Nodes     nprocs
 cn080        1

 Using customized tuning parameters: mindgm=1; mindgv=20; mindgc=4; mindgr=1; noblas=0; minvec=7
 default implementation of scratch files=df  

 ***,hno CCSD(T)/TZ-F12 QFF
 memory, 995, m;
 gthresh,energy=1.d-12,zero=1.d-22,oneint=1.d-22,twoint=1.d-22;
 gthresh,optgrad=1.d-8,optstep=1.d-8;
 nocompress;
 geomtyp=xyz
 bohr
 geometry={
 3
         86        86
 H        0.0000000000        1.6689798054       -1.9263123244
 N        0.0000000000       -0.1649570095       -1.1346672827
 O        0.0000000000        0.0377449941        1.1103900161
 }
 
 basis=av5z
   {hf,maxit=500;accu,20;}
 {ccsd(t),nocheck,maxit=250;orbital,IGNORE_ERROR;}

 Variables initialized (889), CPU time= 0.00 sec
 Commands  initialized (702), CPU time= 0.01 sec, 572 directives.
 Default parameters read. Elapsed time= 0.04 sec

 Checking input...
 Passed
1


                                         ***  PROGRAM SYSTEM MOLPRO  ***
                                       Copyright, TTI GmbH Stuttgart, 2015
                                    Version 2015.1 linked Jul  9 2018 13:16:40


 **********************************************************************************************************************************
 LABEL *   hno CCSD(T)/TZ-F12 QFF                                                        
  64 bit serial version                                                                  DATE: 04-Mar-20          TIME: 13:31:36  
 **********************************************************************************************************************************

 SHA1:             d5ffa45e93fdbca01ffc919aa182cfdae0147319
 **********************************************************************************************************************************

 THRESHOLDS:

 ZERO    =  1.00D-22  ONEINT  =  1.00D-22  TWOINT  =  1.00D-22  PREFAC  =  1.00D-14  LOCALI  =  1.00D-09  EORDER  =  1.00D-04
 ENERGY  =  1.00D-12  ETEST   =  0.00D+00  EDENS   =  0.00D+00  THRDEDEF=  1.00D-06  GRADIENT=  1.00D-02  STEP    =  1.00D-03
 ORBITAL =  1.00D-05  CIVEC   =  1.00D-05  COEFF   =  1.00D-04  PRINTCI =  5.00D-02  PUNCHCI =  9.90D+01  OPTGRAD =  3.00D-04
 OPTENERG=  1.00D-06  OPTSTEP =  3.00D-04  THRGRAD =  1.00D-10  COMPRESS=  1.00D-11  VARMIN  =  1.00D-07  VARMAX  =  1.00D-03
 THRDOUB =  0.00D+00  THRDIV  =  1.00D-05  THRRED  =  1.00D-07  THRPSP  =  1.00D+00  THRDC   =  1.00D-10  THRCS   =  1.00D-10
 THRNRM  =  1.00D-08  THREQ   =  0.00D+00  THRDE   =  1.00D+00  THRREF  =  1.00D-05  SPARFAC =  1.00D+00  THRDLP  =  1.00D-07
 THRDIA  =  1.00D-10  THRDLS  =  1.00D-07  THRGPS  =  0.00D+00  THRKEX  =  0.00D+00  THRDIS  =  2.00D-01  THRVAR  =  1.00D-10
 THRLOC  =  1.00D-06  THRGAP  =  1.00D-06  THRLOCT = -1.00D+00  THRGAPT = -1.00D+00  THRORB  =  1.00D-06  THRMLTP =  0.00D+00
 THRCPQCI=  1.00D-10  KEXTA   =  0.00D+00  THRCOARS=  0.00D+00  SYMTOL  =  1.00D-06  GRADTOL =  1.00D-06  THROVL  =  1.00D-08
 THRORTH =  1.00D-08  GRID    =  1.00D-06  GRIDMAX =  1.00D-03  DTMAX   =  0.00D+00  THROCCDE=  1.00D-01  THROCCDE=  1.00D-01



 THRESHOLDS:

 ZERO    =  1.00D-22  ONEINT  =  1.00D-22  TWOINT  =  1.00D-22  PREFAC  =  1.00D-14  LOCALI  =  1.00D-09  EORDER  =  1.00D-04
 ENERGY  =  1.00D-12  ETEST   =  0.00D+00  EDENS   =  0.00D+00  THRDEDEF=  1.00D-06  GRADIENT=  1.00D-02  STEP    =  1.00D-03
 ORBITAL =  1.00D-05  CIVEC   =  1.00D-05  COEFF   =  1.00D-04  PRINTCI =  5.00D-02  PUNCHCI =  9.90D+01  OPTGRAD =  1.00D-08
 OPTENERG=  1.00D-06  OPTSTEP =  1.00D-08  THRGRAD =  1.00D-10  COMPRESS=  1.00D-11  VARMIN  =  1.00D-07  VARMAX  =  1.00D-03
 THRDOUB =  0.00D+00  THRDIV  =  1.00D-05  THRRED  =  1.00D-07  THRPSP  =  1.00D+00  THRDC   =  1.00D-10  THRCS   =  1.00D-10
 THRNRM  =  1.00D-08  THREQ   =  0.00D+00  THRDE   =  1.00D+00  THRREF  =  1.00D-05  SPARFAC =  1.00D+00  THRDLP  =  1.00D-07
 THRDIA  =  1.00D-10  THRDLS  =  1.00D-07  THRGPS  =  0.00D+00  THRKEX  =  0.00D+00  THRDIS  =  2.00D-01  THRVAR  =  1.00D-10
 THRLOC  =  1.00D-06  THRGAP  =  1.00D-06  THRLOCT = -1.00D+00  THRGAPT = -1.00D+00  THRORB  =  1.00D-06  THRMLTP =  0.00D+00
 THRCPQCI=  1.00D-10  KEXTA   =  0.00D+00  THRCOARS=  0.00D+00  SYMTOL  =  1.00D-06  GRADTOL =  1.00D-06  THROVL  =  1.00D-08
 THRORTH =  1.00D-08  GRID    =  1.00D-06  GRIDMAX =  1.00D-03  DTMAX   =  0.00D+00  THROCCDE=  1.00D-01  THROCCDE=  1.00D-01



 Input parameters for SORTINT:

 COMPRESS =    0.000000
 C_FINAL  =    1.000000
 DEBUG    =   -1.000000
 C_SORT1  =    0.000000
 C_SEWARD =    0.000000
 THRESH   =    0.000000
 IO       =  molpro                                                          
 SPRI     =    0.000000
 SETTING GEOMTYP        =    XYZ
 ZUNIT=BOHR
 

 Variable memory set to  995000000 words,  buffer space   230000 words

 SETTING BASIS          =    AV5Z


 Recomputing integrals since basis changed


 Using spherical harmonics

 Library entry H      S aug-cc-pV5Z          selected for orbital group  1
 Library entry H      P aug-cc-pV5Z          selected for orbital group  1
 Library entry H      D aug-cc-pV5Z          selected for orbital group  1
 Library entry H      F aug-cc-pV5Z          selected for orbital group  1
 Library entry H      G aug-cc-pV5Z          selected for orbital group  1
 Library entry N      S aug-cc-pV5Z          selected for orbital group  2
 Library entry N      P aug-cc-pV5Z          selected for orbital group  2
 Library entry N      D aug-cc-pV5Z          selected for orbital group  2
 Library entry N      F aug-cc-pV5Z          selected for orbital group  2
 Library entry N      G aug-cc-pV5Z          selected for orbital group  2
 Library entry N      H aug-cc-pV5Z          selected for orbital group  2
 Library entry O      S aug-cc-pV5Z          selected for orbital group  3
 Library entry O      P aug-cc-pV5Z          selected for orbital group  3
 Library entry O      D aug-cc-pV5Z          selected for orbital group  3
 Library entry O      F aug-cc-pV5Z          selected for orbital group  3
 Library entry O      G aug-cc-pV5Z          selected for orbital group  3
 Library entry O      H aug-cc-pV5Z          selected for orbital group  3


 PROGRAM * SEWARD (Integral evaluation for generally contracted gaussian basis sets)     Author: Roland Lindh, 1990

 Geometry written to block  1 of record 700


 Point group  Cs  



 ATOMIC COORDINATES

 NR  ATOM    CHARGE       X              Y              Z

   1  H       1.00    0.000000000    1.668979805   -1.926312324
   2  N       7.00    0.000000000   -0.164957010   -1.134667283
   3  O       8.00    0.000000000    0.037744994    1.110390016

 Bond lengths in Bohr (Angstrom)

 1-2  1.997504972  2-3  2.254189517
     ( 1.057034110)     ( 1.192865721)

 Bond angles

  1-2-3  108.18899349

 NUCLEAR CHARGE:                   16
 NUMBER OF PRIMITIVE AOS:         506
 NUMBER OF SYMMETRY AOS:          371
 NUMBER OF CONTRACTIONS:          334   ( 204A'  + 130A"  )
 NUMBER OF CORE ORBITALS:           2   (   2A'  +   0A"  )
 NUMBER OF VALENCE ORBITALS:        9   (   7A'  +   2A"  )


 NUCLEAR REPULSION ENERGY   30.66779587


 Eigenvalues of metric

         1 0.111E-04 0.167E-04 0.635E-04 0.956E-04 0.101E-03 0.132E-03 0.197E-03 0.223E-03
         2 0.122E-03 0.369E-03 0.107E-02 0.147E-02 0.194E-02 0.242E-02 0.328E-02 0.382E-02


 Contracted 2-electron integrals neglected if value below      1.0D-22

      756977492. INTEGRALS WRITTEN OUT IN  184855 BLOCKS ON RECORD 1290 OF FILE 1


 NUMBER OF SORTED TWO-ELECTRON INTEGRALS:  789027325.     BUFFER LENGTH:  32768
 NUMBER OF SEGMENTS:  25  SEGMENT LENGTH:   31997130      RECORD LENGTH: 524288

 Memory used in sort:      32.55 MW

 SORT1 READ   756977492. AND WROTE   760993384. INTEGRALS IN   2189 RECORDS. CPU TIME:    20.92 SEC, REAL TIME:    54.27 SEC
 SORT2 READ   760993384. AND WROTE   789027325. INTEGRALS IN     25 RECORDS. CPU TIME:    12.61 SEC, REAL TIME:    56.90 SEC

 FILE SIZES:   FILE 1: 12137.5 MBYTE,  FILE 4:  9181.4 MBYTE,   TOTAL:  21318.9 MBYTE

 OPERATOR DM      FOR CENTER  0  COORDINATES:    0.000000    0.000000    0.000000


 **********************************************************************************************************************************
 DATASETS  * FILE   NREC   LENGTH (MB)   RECORD NAMES
              1      19     6374.22       500      610      700      900      950      970     1000      129      960     1100   
                                          VAR    BASINP    GEOM    SYMINP    ZMAT    AOBASIS   BASIS     P2S    ABASIS      S 
                                         1400     1410     1200     1210     1080     1600     1650     1300     1700   
                                           T        V       H0       H01     AOSYM     SMH    MOLCAS    ERIS     OPER   

 PROGRAMS   *        TOTAL       INT
 CPU TIMES  *       123.28    123.20
 REAL TIME  *       207.60 SEC
 DISK USED  *        21.32 GB      
 **********************************************************************************************************************************


 PROGRAM * RHF-SCF (CLOSED SHELL)       Authors: W. Meyer, H.-J. Werner


 NUMBER OF ELECTRONS:       8+    8-
 CONVERGENCE THRESHOLDS:    1.00E-10 (Density)    1.00E-13 (Energy)
 MAX. NUMBER OF ITERATIONS:      500
 INTERPOLATION TYPE:            DIIS
 INTERPOLATION STEPS:              2 (START)      1 (STEP)
 LEVEL SHIFTS:                  0.00 (CLOSED)  0.00 (OPEN) 



 Orbital guess generated from atomic densities. Full valence occupancy:    9   2

 Molecular orbital dump at record        2100.2

 Initial occupancy:   7   1

 ITERATION    DDIFF          GRAD             ENERGY        2-EL.EN.            DIPOLE MOMENTS         DIIS   ORB.
    1      0.000D+00      0.000D+00      -129.80207072    154.510216    0.00000    0.58506   -0.98075    0    start
    2      0.000D+00      0.632D-02      -129.82967980    155.764014    0.00000    0.60016   -0.21106    1    diag
    3      0.389D-02      0.467D-02      -129.85050498    155.856512    0.00000    0.54748   -0.57057    2    diag
    4      0.199D-02      0.753D-03      -129.85127700    155.583121    0.00000    0.55517   -0.51158    3    diag
    5      0.370D-03      0.244D-03      -129.85139784    155.675842    0.00000    0.56048   -0.51439    4    diag
    6      0.153D-03      0.709D-04      -129.85141715    155.659670    0.00000    0.56082   -0.51044    5    diag
    7      0.587D-04      0.347D-04      -129.85142256    155.662631    0.00000    0.56211   -0.50803    6    diag
    8      0.397D-04      0.117D-04      -129.85142312    155.661972    0.00000    0.56217   -0.50712    7    diag
    9      0.143D-04      0.222D-05      -129.85142314    155.661870    0.00000    0.56213   -0.50692    8    diag
   10      0.279D-05      0.517D-06      -129.85142314    155.661852    0.00000    0.56210   -0.50688    9    orth
   11      0.584D-06      0.107D-06      -129.85142314    155.661848    0.00000    0.56209   -0.50688    9    diag
   12      0.115D-06      0.214D-07      -129.85142314    155.661847    0.00000    0.56209   -0.50688    9    diag
   13      0.252D-07      0.552D-08      -129.85142314    155.661847    0.00000    0.56209   -0.50688    9    diag
   14      0.660D-08      0.111D-08      -129.85142314    155.661847    0.00000    0.56209   -0.50688    9    diag
   15      0.123D-08      0.326D-09      -129.85142314    155.661847    0.00000    0.56209   -0.50688    9    diag
   16      0.365D-09      0.102D-09      -129.85142314    155.661847    0.00000    0.56209   -0.50688    9    diag
   17      0.756D-10      0.284D-10      -129.85142314    155.661847    0.00000    0.56209   -0.50688    9    diag
   18      0.267D-10      0.955D-11      -129.85142314    155.661847    0.00000    0.56209   -0.50688    9    diag
   19      0.168D-10      0.247D-11      -129.85142314    155.661847    0.00000    0.56209   -0.50688    9    fixocc
   20      0.184D-10      0.769D-12      -129.85142314    155.661847    0.00000    0.56209   -0.50688    0    orth

 Final occupancy:   7   1

 !RHF STATE 1.1 Energy               -129.851423141188
 Nuclear energy                        30.66779587
 One-electron energy                 -238.35014263
 Two-electron energy                   77.83092362
 Virial quotient                       -1.00129210
 !RHF STATE 1.1 Dipole moment           0.00000000     0.56209032    -0.50688062
 Dipole moment /Debye                   0.00000000     1.42859751    -1.28827766

 Orbital energies:

         1.1          2.1          3.1          4.1          5.1          6.1          7.1          8.1          9.1
    -20.651608   -15.710270    -1.541820    -0.989616    -0.751336    -0.670489    -0.425567     0.023028     0.065566

         1.2          2.2          3.2
     -0.603443     0.063075     0.093155

 HOMO      7.1    -0.425567 =     -11.5803eV
 LUMO      8.1     0.023028 =       0.6266eV
 LUMO-HOMO         0.448595 =      12.2069eV


 **********************************************************************************************************************************
 DATASETS  * FILE   NREC   LENGTH (MB)   RECORD NAMES
              1      19     6374.22       500      610      700      900      950      970     1000      129      960     1100   
                                          VAR    BASINP    GEOM    SYMINP    ZMAT    AOBASIS   BASIS     P2S    ABASIS      S 
                                         1400     1410     1200     1210     1080     1600     1650     1300     1700   
                                           T        V       H0       H01     AOSYM     SMH    MOLCAS    ERIS     OPER   

              2       4        4.02       700     1000      520     2100   
                                         GEOM     BASIS   MCVARS     RHF  

 PROGRAMS   *        TOTAL        HF       INT
 CPU TIMES  *       190.44     67.16    123.20
 REAL TIME  *       296.73 SEC
 DISK USED  *        21.32 GB      
 **********************************************************************************************************************************


 PROGRAM * CCSD (Closed-shell coupled cluster)     Authors: C. Hampel, H.-J. Werner, 1991, M. Deegan, P.J. Knowles, 1992


 Convergence thresholds:  THRVAR = 1.00D-08  THRDEN = 1.00D-12

 CCSD(T)     terms to be evaluated (factor= 1.000)


 Number of core orbitals:           2 (   2   0 )
 Number of closed-shell orbitals:   6 (   5   1 )
 Number of external orbitals:     326 ( 197 129 )

 Molecular orbitals read from record     2100.2  Type=RHF/CANONICAL (state 1.1)

 Number of N-1 electron functions:               6
 Number of N-2 electron functions:              21
 Number of singly external CSFs:              1114
 Number of doubly external CSFs:            975958
 Total number of CSFs:                      977073

 Length of J-op  integral file:               0.00 MB
 Length of K-op  integral file:               4.07 MB
 Length of 3-ext integral record:             0.00 MB

 Memory could be reduced to 151.33 Mwords without degradation in triples

 Integral transformation finished. Total CPU:  10.33 sec, npass=  1  Memory used:  41.21 MW

 Reference energy:                   -129.85142314

 MP2 singlet pair energy:              -0.30977246
 MP2 triplet pair energy:              -0.17107071
 MP2 correlation energy:               -0.48084318
 MP2 total energy:                   -130.33226632

 SCS-MP2 correlation energy:           -0.47817095   (PS=  1.200000  PT=  0.333333)
 SCS-MP2 total energy:               -130.32959410

 ITER.      SQ.NORM     CORR.ENERGY   TOTAL ENERGY   ENERGY CHANGE        DEN1      VAR(S)    VAR(P)  DIIS     TIME  TIME/IT
   1      1.11915931    -0.47842218  -130.32984532     0.00242100     0.01848378  0.30D-02  0.30D-02  1  1    18.90     9.59
   2      1.12944672    -0.47842935  -130.32985249    -0.00000717    -0.01231603  0.97D-04  0.47D-03  2  2    27.52     9.73
   3      1.13534451    -0.47879150  -130.33021464    -0.00036215    -0.00292567  0.44D-04  0.53D-04  3  3    36.28     9.80
   4      1.13797281    -0.47878868  -130.33021182     0.00000282    -0.00092644  0.41D-05  0.93D-05  4  4    45.13     9.84
   5      1.13901150    -0.47881551  -130.33023865    -0.00002683    -0.00023171  0.11D-05  0.16D-05  5  5    54.02     9.87
   6      1.13934430    -0.47880534  -130.33022848     0.00001017    -0.00004654  0.12D-06  0.40D-06  6  6    62.78     9.89
   7      1.13942011    -0.47880478  -130.33022792     0.00000056     0.00000249  0.18D-07  0.88D-07  6  1    71.74     9.91
   8      1.13944485    -0.47880494  -130.33022808    -0.00000016    -0.00000284  0.37D-08  0.17D-07  6  2    80.59     9.93
   9      1.13945337    -0.47880442  -130.33022756     0.00000052    -0.00000026  0.20D-08  0.17D-08  6  3    89.46     9.94
  10      1.13944925    -0.47880510  -130.33022824    -0.00000068     0.00000143  0.31D-09  0.27D-09  6  5    98.23     9.94
  11      1.13945088    -0.47880510  -130.33022824     0.00000000    -0.00000027  0.86D-10  0.23D-10  6  4   106.99     9.95
  12      1.13945045    -0.47880516  -130.33022830    -0.00000006     0.00000005  0.17D-10  0.55D-11  6  6   115.92     9.95
  13      1.13945024    -0.47880516  -130.33022830    -0.00000000    -0.00000003  0.30D-11  0.85D-12  6  1   124.80     9.96
  14      1.13944999    -0.47880517  -130.33022831    -0.00000001     0.00000004  0.47D-12  0.16D-12  6  3   133.53     9.96
  15      1.13944991    -0.47880518  -130.33022832    -0.00000000     0.00000001  0.12D-12  0.22D-13  6  2   142.42     9.97
  16      1.13944990    -0.47880517  -130.33022832     0.00000000     0.00000000  0.29D-13  0.88D-14  6  4   151.23     9.97
  17      1.13944990    -0.47880517  -130.33022832    -0.00000000    -0.00000000  0.16D-14  0.11D-14  6  5   160.14     9.97
  18      1.13944991    -0.47880517  -130.33022832     0.00000000    -0.00000000  0.26D-15  0.30D-15  6  6   169.07     9.97
  19      1.13944991    -0.47880517  -130.33022832     0.00000000    -0.00000000  0.34D-16  0.44D-16  6  2   177.93     9.97
  20      1.13944991    -0.47880517  -130.33022832     0.00000000    -0.00000000  0.87D-17  0.61D-17  6  1   186.85     9.98
  21      1.13944991    -0.47880517  -130.33022832    -0.00000000     0.00000000  0.15D-17  0.86D-18  6  3   195.57     9.98
  22      1.13944991    -0.47880517  -130.33022832    -0.00000000     0.00000000  0.28D-18  0.13D-18  6  4   204.53     9.98
  23      1.13944991    -0.47880517  -130.33022832    -0.00000000     0.00000000  0.83D-19  0.41D-19  6  5   213.36     9.98
  24      1.13944991    -0.47880517  -130.33022832    -0.00000000     0.00000000  0.36D-19  0.17D-19  6  6   222.23     9.98
  25      1.13944991    -0.47880517  -130.33022832     0.00000000    -0.00000000  0.25D-19  0.11D-19  6  2   231.07     9.98

 Norm of t1 vector:      0.07402852      S-energy:    -0.00000000      T1 diagnostic:  0.01511101
                                                                       D1 diagnostic:  0.04026902

 Doubles amplitudes (print threshold =  0.500E-01):

         I         J         SYM. A    SYM. B    A         B      T(IJ, AB)

         6         6         2         2         1         1     -0.06760133
         6         6         2         2         1         2      0.05236473
         6         6         2         2         2         1      0.05236473


 Total CPU time for triples:     89.65 sec


 RESULTS
 =======

  Reference energy                   -129.851423141188
  CCSD singlet pair energy             -0.331844263492
  CCSD triplet pair energy             -0.146960910718
  CCSD correlation energy              -0.478805174212

  Triples (T) contribution             -0.022476731780
  Total correlation energy             -0.501281905993

  CCSD total energy                  -130.330228315400
  CCSD[T] energy                     -130.353724478942
  CCSD-T energy                      -130.352339700105
 !CCSD(T) total energy               -130.352705047181

 Timing summary (sec):

 STEP                 CPU(USER)    SYS     CPU(TOT)    WALL
 Transformation         10.36      1.63     11.99     12.21
 CCSD iterations       220.72     28.90    249.62    249.66
 Triples                89.65      1.73     91.38     91.38

 Program statistics:

 Available memory in ccsd:               994999756
 Min. memory needed in ccsd:               3348832
 Max. memory used in ccsd:                 4143652
 Max. memory used in cckext:               8340089 (25 integral passes)



 **********************************************************************************************************************************
 DATASETS  * FILE   NREC   LENGTH (MB)   RECORD NAMES
              1      20     6809.41       500      610      700      900      950      970     1000      129      960     1100   
                                          VAR    BASINP    GEOM    SYMINP    ZMAT    AOBASIS   BASIS     P2S    ABASIS      S 
                                         1400     1410     1200     1210     1080     1600     1650     1300     1700     1380   
                                           T        V       H0       H01     AOSYM     SMH    MOLCAS    ERIS     OPER     JKOP   

              2       4        4.02       700     1000      520     2100   
                                         GEOM     BASIS   MCVARS     RHF  

 PROGRAMS   *        TOTAL   CCSD(T)        HF       INT
 CPU TIMES  *       511.20    320.76     67.16    123.20
 REAL TIME  *       650.22 SEC
 DISK USED  *        21.32 GB      
 **********************************************************************************************************************************

 CCSD(T)/aug-cc-pV5Z energy=   -130.352705047181

        CCSD(T)         HF-SCF  
   -130.35270505   -129.85142314
 **********************************************************************************************************************************
 Molpro calculation terminated
 Variable memory released
