
 Primary working directories    : /tmp/r2666/281869.maple
 Secondary working directories  : /tmp/r2666/281869.maple
 Wavefunction directory         : /ddn/home4/r2666/wfu/
 Main file repository           : /tmp/r2666/281869.maple/

 SHA1      : d5ffa45e93fdbca01ffc919aa182cfdae0147319
 NAME      : 2015.1.35
 ARCHNAME  : linux/x86_64
 FC        : /opt/intel/composer_xe_2015.1.133/bin/intel64/ifort
 BLASLIB   : -Wl,-_start-group /opt/intel/mkl/lib/intel64/libmkl_intel_ilp64.a /opt/intel/mkl/lib/intel64/libmkl_intel_thread.a /opt/intel/mkl/lib/intel64/libmkl_core.a -Wl,-_end-group
 id        : olemiss

 Nodes     nprocs
 cn094        1

 Using customized tuning parameters: mindgm=1; mindgv=20; mindgc=4; mindgr=1; noblas=0; minvec=7
 default implementation of scratch files=df  

 ***,hno CCSD(T)/TZ-F12 QFF
 memory, 995, m;
 gthresh,energy=1.d-12,zero=1.d-22,oneint=1.d-22,twoint=1.d-22;
 gthresh,optgrad=1.d-8,optstep=1.d-8;
 nocompress;
 geomtyp=xyz
 bohr
 geometry={
 3
         24        24
 H        0.0000000000        1.6608889763       -1.9247855000
 N        0.0000000000       -0.1556984120       -1.1406307072
 O        0.0000000000        0.0365772258        1.1148266162
 }
 
 basis=av5z
   {hf,maxit=500;accu,20;}
 {ccsd(t),nocheck,maxit=250;orbital,IGNORE_ERROR;}

 Variables initialized (889), CPU time= 0.01 sec
 Commands  initialized (702), CPU time= 0.00 sec, 572 directives.
 Default parameters read. Elapsed time= 0.07 sec

 Checking input...
 Passed
1


                                         ***  PROGRAM SYSTEM MOLPRO  ***
                                       Copyright, TTI GmbH Stuttgart, 2015
                                    Version 2015.1 linked Jul  9 2018 13:16:40


 **********************************************************************************************************************************
 LABEL *   hno CCSD(T)/TZ-F12 QFF                                                        
  64 bit serial version                                                                  DATE: 04-Mar-20          TIME: 13:20:09  
 **********************************************************************************************************************************

 SHA1:             d5ffa45e93fdbca01ffc919aa182cfdae0147319
 **********************************************************************************************************************************

 THRESHOLDS:

 ZERO    =  1.00D-22  ONEINT  =  1.00D-22  TWOINT  =  1.00D-22  PREFAC  =  1.00D-14  LOCALI  =  1.00D-09  EORDER  =  1.00D-04
 ENERGY  =  1.00D-12  ETEST   =  0.00D+00  EDENS   =  0.00D+00  THRDEDEF=  1.00D-06  GRADIENT=  1.00D-02  STEP    =  1.00D-03
 ORBITAL =  1.00D-05  CIVEC   =  1.00D-05  COEFF   =  1.00D-04  PRINTCI =  5.00D-02  PUNCHCI =  9.90D+01  OPTGRAD =  3.00D-04
 OPTENERG=  1.00D-06  OPTSTEP =  3.00D-04  THRGRAD =  1.00D-10  COMPRESS=  1.00D-11  VARMIN  =  1.00D-07  VARMAX  =  1.00D-03
 THRDOUB =  0.00D+00  THRDIV  =  1.00D-05  THRRED  =  1.00D-07  THRPSP  =  1.00D+00  THRDC   =  1.00D-10  THRCS   =  1.00D-10
 THRNRM  =  1.00D-08  THREQ   =  0.00D+00  THRDE   =  1.00D+00  THRREF  =  1.00D-05  SPARFAC =  1.00D+00  THRDLP  =  1.00D-07
 THRDIA  =  1.00D-10  THRDLS  =  1.00D-07  THRGPS  =  0.00D+00  THRKEX  =  0.00D+00  THRDIS  =  2.00D-01  THRVAR  =  1.00D-10
 THRLOC  =  1.00D-06  THRGAP  =  1.00D-06  THRLOCT = -1.00D+00  THRGAPT = -1.00D+00  THRORB  =  1.00D-06  THRMLTP =  0.00D+00
 THRCPQCI=  1.00D-10  KEXTA   =  0.00D+00  THRCOARS=  0.00D+00  SYMTOL  =  1.00D-06  GRADTOL =  1.00D-06  THROVL  =  1.00D-08
 THRORTH =  1.00D-08  GRID    =  1.00D-06  GRIDMAX =  1.00D-03  DTMAX   =  0.00D+00  THROCCDE=  1.00D-01  THROCCDE=  1.00D-01



 THRESHOLDS:

 ZERO    =  1.00D-22  ONEINT  =  1.00D-22  TWOINT  =  1.00D-22  PREFAC  =  1.00D-14  LOCALI  =  1.00D-09  EORDER  =  1.00D-04
 ENERGY  =  1.00D-12  ETEST   =  0.00D+00  EDENS   =  0.00D+00  THRDEDEF=  1.00D-06  GRADIENT=  1.00D-02  STEP    =  1.00D-03
 ORBITAL =  1.00D-05  CIVEC   =  1.00D-05  COEFF   =  1.00D-04  PRINTCI =  5.00D-02  PUNCHCI =  9.90D+01  OPTGRAD =  1.00D-08
 OPTENERG=  1.00D-06  OPTSTEP =  1.00D-08  THRGRAD =  1.00D-10  COMPRESS=  1.00D-11  VARMIN  =  1.00D-07  VARMAX  =  1.00D-03
 THRDOUB =  0.00D+00  THRDIV  =  1.00D-05  THRRED  =  1.00D-07  THRPSP  =  1.00D+00  THRDC   =  1.00D-10  THRCS   =  1.00D-10
 THRNRM  =  1.00D-08  THREQ   =  0.00D+00  THRDE   =  1.00D+00  THRREF  =  1.00D-05  SPARFAC =  1.00D+00  THRDLP  =  1.00D-07
 THRDIA  =  1.00D-10  THRDLS  =  1.00D-07  THRGPS  =  0.00D+00  THRKEX  =  0.00D+00  THRDIS  =  2.00D-01  THRVAR  =  1.00D-10
 THRLOC  =  1.00D-06  THRGAP  =  1.00D-06  THRLOCT = -1.00D+00  THRGAPT = -1.00D+00  THRORB  =  1.00D-06  THRMLTP =  0.00D+00
 THRCPQCI=  1.00D-10  KEXTA   =  0.00D+00  THRCOARS=  0.00D+00  SYMTOL  =  1.00D-06  GRADTOL =  1.00D-06  THROVL  =  1.00D-08
 THRORTH =  1.00D-08  GRID    =  1.00D-06  GRIDMAX =  1.00D-03  DTMAX   =  0.00D+00  THROCCDE=  1.00D-01  THROCCDE=  1.00D-01



 Input parameters for SORTINT:

 COMPRESS =    0.000000
 C_FINAL  =    1.000000
 DEBUG    =   -1.000000
 C_SORT1  =    0.000000
 C_SEWARD =    0.000000
 THRESH   =    0.000000
 IO       =  molpro                                                          
 SPRI     =    0.000000
 SETTING GEOMTYP        =    XYZ
 ZUNIT=BOHR
 

 Variable memory set to  995000000 words,  buffer space   230000 words

 SETTING BASIS          =    AV5Z


 Recomputing integrals since basis changed


 Using spherical harmonics

 Library entry H      S aug-cc-pV5Z          selected for orbital group  1
 Library entry H      P aug-cc-pV5Z          selected for orbital group  1
 Library entry H      D aug-cc-pV5Z          selected for orbital group  1
 Library entry H      F aug-cc-pV5Z          selected for orbital group  1
 Library entry H      G aug-cc-pV5Z          selected for orbital group  1
 Library entry N      S aug-cc-pV5Z          selected for orbital group  2
 Library entry N      P aug-cc-pV5Z          selected for orbital group  2
 Library entry N      D aug-cc-pV5Z          selected for orbital group  2
 Library entry N      F aug-cc-pV5Z          selected for orbital group  2
 Library entry N      G aug-cc-pV5Z          selected for orbital group  2
 Library entry N      H aug-cc-pV5Z          selected for orbital group  2
 Library entry O      S aug-cc-pV5Z          selected for orbital group  3
 Library entry O      P aug-cc-pV5Z          selected for orbital group  3
 Library entry O      D aug-cc-pV5Z          selected for orbital group  3
 Library entry O      F aug-cc-pV5Z          selected for orbital group  3
 Library entry O      G aug-cc-pV5Z          selected for orbital group  3
 Library entry O      H aug-cc-pV5Z          selected for orbital group  3


 PROGRAM * SEWARD (Integral evaluation for generally contracted gaussian basis sets)     Author: Roland Lindh, 1990

 Geometry written to block  1 of record 700


 Point group  Cs  



 ATOMIC COORDINATES

 NR  ATOM    CHARGE       X              Y              Z

   1  H       1.00    0.000000000    1.660888976   -1.924785500
   2  N       7.00    0.000000000   -0.155698412   -1.140630707
   3  O       8.00    0.000000000    0.036577226    1.114826616

 Bond lengths in Bohr (Angstrom)

 1-2  1.978607712  2-3  2.263638147
     ( 1.047034111)     ( 1.197865721)

 Bond angles

  1-2-3  108.47547239

 NUCLEAR CHARGE:                   16
 NUMBER OF PRIMITIVE AOS:         506
 NUMBER OF SYMMETRY AOS:          371
 NUMBER OF CONTRACTIONS:          334   ( 204A'  + 130A"  )
 NUMBER OF CORE ORBITALS:           2   (   2A'  +   0A"  )
 NUMBER OF VALENCE ORBITALS:        9   (   7A'  +   2A"  )


 NUCLEAR REPULSION ENERGY   30.59804452


 Eigenvalues of metric

         1 0.109E-04 0.166E-04 0.624E-04 0.964E-04 0.102E-03 0.132E-03 0.196E-03 0.223E-03
         2 0.123E-03 0.356E-03 0.108E-02 0.150E-02 0.187E-02 0.243E-02 0.319E-02 0.382E-02


 Contracted 2-electron integrals neglected if value below      1.0D-22

      756977435. INTEGRALS WRITTEN OUT IN  184855 BLOCKS ON RECORD 1290 OF FILE 1


 NUMBER OF SORTED TWO-ELECTRON INTEGRALS:  789027325.     BUFFER LENGTH:  32768
 NUMBER OF SEGMENTS:  25  SEGMENT LENGTH:   31997130      RECORD LENGTH: 524288

 Memory used in sort:      32.55 MW

 SORT1 READ   756977435. AND WROTE   760993327. INTEGRALS IN   2189 RECORDS. CPU TIME:    23.35 SEC, REAL TIME:    57.62 SEC
 SORT2 READ   760993327. AND WROTE   789027325. INTEGRALS IN     25 RECORDS. CPU TIME:     9.57 SEC, REAL TIME:    19.86 SEC

 FILE SIZES:   FILE 1: 12137.5 MBYTE,  FILE 4:  9181.4 MBYTE,   TOTAL:  21318.9 MBYTE

 OPERATOR DM      FOR CENTER  0  COORDINATES:    0.000000    0.000000    0.000000


 **********************************************************************************************************************************
 DATASETS  * FILE   NREC   LENGTH (MB)   RECORD NAMES
              1      19     6374.22       500      610      700      900      950      970     1000      129      960     1100   
                                          VAR    BASINP    GEOM    SYMINP    ZMAT    AOBASIS   BASIS     P2S    ABASIS      S 
                                         1400     1410     1200     1210     1080     1600     1650     1300     1700   
                                           T        V       H0       H01     AOSYM     SMH    MOLCAS    ERIS     OPER   

 PROGRAMS   *        TOTAL       INT
 CPU TIMES  *       118.35    118.24
 REAL TIME  *       169.20 SEC
 DISK USED  *        21.32 GB      
 **********************************************************************************************************************************


 PROGRAM * RHF-SCF (CLOSED SHELL)       Authors: W. Meyer, H.-J. Werner


 NUMBER OF ELECTRONS:       8+    8-
 CONVERGENCE THRESHOLDS:    1.00E-10 (Density)    1.00E-13 (Energy)
 MAX. NUMBER OF ITERATIONS:      500
 INTERPOLATION TYPE:            DIIS
 INTERPOLATION STEPS:              2 (START)      1 (STEP)
 LEVEL SHIFTS:                  0.00 (CLOSED)  0.00 (OPEN) 



 Orbital guess generated from atomic densities. Full valence occupancy:    9   2

 Molecular orbital dump at record        2100.2

 Initial occupancy:   7   1

 ITERATION    DDIFF          GRAD             ENERGY        2-EL.EN.            DIPOLE MOMENTS         DIIS   ORB.
    1      0.000D+00      0.000D+00      -129.80166061    154.392517    0.00000    0.59642   -0.99668    0    start
    2      0.000D+00      0.633D-02      -129.82915587    155.626748    0.00000    0.60446   -0.21499    1    diag
    3      0.391D-02      0.471D-02      -129.85029970    155.732794    0.00000    0.55471   -0.58085    2    diag
    4      0.200D-02      0.760D-03      -129.85108235    155.456622    0.00000    0.56220   -0.52088    3    diag
    5      0.373D-03      0.245D-03      -129.85120338    155.549089    0.00000    0.56740   -0.52356    4    diag
    6      0.153D-03      0.707D-04      -129.85122261    155.532982    0.00000    0.56773   -0.51954    5    diag
    7      0.585D-04      0.349D-04      -129.85122809    155.535838    0.00000    0.56897   -0.51706    6    diag
    8      0.399D-04      0.119D-04      -129.85122867    155.535171    0.00000    0.56902   -0.51611    7    diag
    9      0.147D-04      0.227D-05      -129.85122869    155.535069    0.00000    0.56898   -0.51590    8    diag
   10      0.289D-05      0.524D-06      -129.85122869    155.535051    0.00000    0.56895   -0.51587    9    orth
   11      0.593D-06      0.107D-06      -129.85122869    155.535048    0.00000    0.56894   -0.51587    9    diag
   12      0.114D-06      0.214D-07      -129.85122869    155.535047    0.00000    0.56894   -0.51587    9    diag
   13      0.246D-07      0.550D-08      -129.85122869    155.535047    0.00000    0.56894   -0.51587    9    diag
   14      0.645D-08      0.108D-08      -129.85122869    155.535047    0.00000    0.56894   -0.51587    9    diag
   15      0.120D-08      0.314D-09      -129.85122869    155.535047    0.00000    0.56894   -0.51587    9    diag
   16      0.359D-09      0.975D-10      -129.85122869    155.535047    0.00000    0.56894   -0.51587    9    diag
   17      0.755D-10      0.264D-10      -129.85122869    155.535047    0.00000    0.56894   -0.51587    9    diag
   18      0.312D-10      0.896D-11      -129.85122869    155.535047    0.00000    0.56894   -0.51587    0    orth

 Final occupancy:   7   1

 !RHF STATE 1.1 Energy               -129.851228694171
 Nuclear energy                        30.59804452
 One-electron energy                 -238.21679687
 Two-electron energy                   77.76752366
 Virial quotient                       -1.00134014
 !RHF STATE 1.1 Dipole moment           0.00000000     0.56893996    -0.51586741
 Dipole moment /Debye                   0.00000000     1.44600643    -1.31111830

 Orbital energies:

         1.1          2.1          3.1          4.1          5.1          6.1          7.1          8.1          9.1
    -20.651934   -15.709699    -1.537556    -0.993474    -0.750816    -0.669077    -0.427534     0.022950     0.065553

         1.2          2.2          3.2
     -0.600785     0.062102     0.092513

 HOMO      7.1    -0.427534 =     -11.6338eV
 LUMO      8.1     0.022950 =       0.6245eV
 LUMO-HOMO         0.450484 =      12.2583eV


 **********************************************************************************************************************************
 DATASETS  * FILE   NREC   LENGTH (MB)   RECORD NAMES
              1      19     6374.22       500      610      700      900      950      970     1000      129      960     1100   
                                          VAR    BASINP    GEOM    SYMINP    ZMAT    AOBASIS   BASIS     P2S    ABASIS      S 
                                         1400     1410     1200     1210     1080     1600     1650     1300     1700   
                                           T        V       H0       H01     AOSYM     SMH    MOLCAS    ERIS     OPER   

              2       4        4.02       700     1000      520     2100   
                                         GEOM     BASIS   MCVARS     RHF  

 PROGRAMS   *        TOTAL        HF       INT
 CPU TIMES  *       176.17     57.82    118.24
 REAL TIME  *       244.62 SEC
 DISK USED  *        21.32 GB      
 **********************************************************************************************************************************


 PROGRAM * CCSD (Closed-shell coupled cluster)     Authors: C. Hampel, H.-J. Werner, 1991, M. Deegan, P.J. Knowles, 1992


 Convergence thresholds:  THRVAR = 1.00D-08  THRDEN = 1.00D-12

 CCSD(T)     terms to be evaluated (factor= 1.000)


 Number of core orbitals:           2 (   2   0 )
 Number of closed-shell orbitals:   6 (   5   1 )
 Number of external orbitals:     326 ( 197 129 )

 Molecular orbitals read from record     2100.2  Type=RHF/CANONICAL (state 1.1)

 Number of N-1 electron functions:               6
 Number of N-2 electron functions:              21
 Number of singly external CSFs:              1114
 Number of doubly external CSFs:            975958
 Total number of CSFs:                      977073

 Length of J-op  integral file:               0.00 MB
 Length of K-op  integral file:               4.07 MB
 Length of 3-ext integral record:             0.00 MB

 Memory could be reduced to 151.33 Mwords without degradation in triples

 Integral transformation finished. Total CPU:   9.99 sec, npass=  1  Memory used:  41.21 MW

 Reference energy:                   -129.85122869

 MP2 singlet pair energy:              -0.31004643
 MP2 triplet pair energy:              -0.17126486
 MP2 correlation energy:               -0.48131129
 MP2 total energy:                   -130.33253998

 SCS-MP2 correlation energy:           -0.47862052   (PS=  1.200000  PT=  0.333333)
 SCS-MP2 total energy:               -130.32984921

 ITER.      SQ.NORM     CORR.ENERGY   TOTAL ENERGY   ENERGY CHANGE        DEN1      VAR(S)    VAR(P)  DIIS     TIME  TIME/IT
   1      1.11935342    -0.47872264  -130.32995133     0.00258865     0.01877769  0.30D-02  0.31D-02  1  1    17.89     8.80
   2      1.12970311    -0.47869529  -130.32992398     0.00002735    -0.01238964  0.99D-04  0.47D-03  2  2    25.97     8.93
   3      1.13564235    -0.47905911  -130.33028780    -0.00036382    -0.00293422  0.45D-04  0.54D-04  3  3    33.96     8.97
   4      1.13831027    -0.47905756  -130.33028626     0.00000154    -0.00093476  0.41D-05  0.95D-05  4  4    42.00     8.99
   5      1.13936873    -0.47908473  -130.33031342    -0.00002716    -0.00023556  0.11D-05  0.17D-05  5  5    50.11     9.01
   6      1.13970687    -0.47907415  -130.33030284     0.00001058    -0.00004748  0.11D-06  0.41D-06  6  6    58.24     9.02
   7      1.13978177    -0.47907379  -130.33030248     0.00000036     0.00000289  0.16D-07  0.91D-07  6  1    66.29     9.02
   8      1.13980629    -0.47907394  -130.33030264    -0.00000015    -0.00000286  0.37D-08  0.18D-07  6  2    74.31     9.03
   9      1.13981459    -0.47907343  -130.33030213     0.00000051    -0.00000025  0.22D-08  0.18D-08  6  3    82.39     9.03
  10      1.13981026    -0.47907413  -130.33030283    -0.00000070     0.00000150  0.33D-09  0.29D-09  6  5    90.45     9.04
  11      1.13981199    -0.47907413  -130.33030282     0.00000001    -0.00000030  0.91D-10  0.24D-10  6  4    98.89     9.06
  12      1.13981156    -0.47907419  -130.33030288    -0.00000006     0.00000005  0.17D-10  0.57D-11  6  6   107.02     9.06
  13      1.13981135    -0.47907419  -130.33030289    -0.00000000    -0.00000003  0.30D-11  0.86D-12  6  1   115.06     9.06
  14      1.13981110    -0.47907420  -130.33030290    -0.00000001     0.00000004  0.46D-12  0.16D-12  6  3   123.11     9.06
  15      1.13981103    -0.47907421  -130.33030290    -0.00000000     0.00000001  0.12D-12  0.22D-13  6  2   131.14     9.07
  16      1.13981102    -0.47907421  -130.33030290     0.00000000     0.00000000  0.30D-13  0.84D-14  6  4   139.12     9.07
  17      1.13981102    -0.47907421  -130.33030290    -0.00000000    -0.00000000  0.17D-14  0.11D-14  6  5   147.25     9.07
  18      1.13981102    -0.47907421  -130.33030290     0.00000000    -0.00000000  0.27D-15  0.29D-15  6  6   155.38     9.07
  19      1.13981103    -0.47907421  -130.33030290     0.00000000    -0.00000000  0.33D-16  0.43D-16  6  2   163.47     9.07
  20      1.13981103    -0.47907421  -130.33030290     0.00000000    -0.00000000  0.87D-17  0.60D-17  6  1   171.46     9.07
  21      1.13981103    -0.47907421  -130.33030290    -0.00000000     0.00000000  0.15D-17  0.86D-18  6  3   179.55     9.07
  22      1.13981103    -0.47907421  -130.33030290    -0.00000000     0.00000000  0.29D-18  0.13D-18  6  4   187.55     9.07
  23      1.13981103    -0.47907421  -130.33030290    -0.00000000     0.00000000  0.89D-19  0.47D-19  6  5   195.64     9.07
  24      1.13981103    -0.47907421  -130.33030290    -0.00000000     0.00000000  0.34D-19  0.18D-19  6  6   203.91     9.07
  25      1.13981103    -0.47907421  -130.33030290    -0.00000000     0.00000000  0.20D-19  0.94D-20  6  2   212.07     9.08

 Norm of t1 vector:      0.07447289      S-energy:    -0.00000000      T1 diagnostic:  0.01520172
                                                                       D1 diagnostic:  0.04090882

 Doubles amplitudes (print threshold =  0.500E-01):

         I         J         SYM. A    SYM. B    A         B      T(IJ, AB)

         6         6         2         2         1         1     -0.07143929
         6         6         2         2         1         2      0.05279860
         6         6         2         2         2         1      0.05279860


 Total CPU time for triples:     83.88 sec


 RESULTS
 =======

  Reference energy                   -129.851228694171
  CCSD singlet pair energy             -0.332084613544
  CCSD triplet pair energy             -0.146989592232
  CCSD correlation energy              -0.479074205778

  Triples (T) contribution             -0.022566595164
  Total correlation energy             -0.501640800942

  CCSD total energy                  -130.330302899949
  CCSD[T] energy                     -130.353900926318
  CCSD-T energy                      -130.352502295653
 !CCSD(T) total energy               -130.352869495112

 Timing summary (sec):

 STEP                 CPU(USER)    SYS     CPU(TOT)    WALL
 Transformation         10.03      1.38     11.41     11.43
 CCSD iterations       202.05     24.86    226.91    226.94
 Triples                83.88      1.77     85.65     85.66

 Program statistics:

 Available memory in ccsd:               994999756
 Min. memory needed in ccsd:               3348832
 Max. memory used in ccsd:                 4143652
 Max. memory used in cckext:               8340089 (25 integral passes)



 **********************************************************************************************************************************
 DATASETS  * FILE   NREC   LENGTH (MB)   RECORD NAMES
              1      20     6809.41       500      610      700      900      950      970     1000      129      960     1100   
                                          VAR    BASINP    GEOM    SYMINP    ZMAT    AOBASIS   BASIS     P2S    ABASIS      S 
                                         1400     1410     1200     1210     1080     1600     1650     1300     1700     1380   
                                           T        V       H0       H01     AOSYM     SMH    MOLCAS    ERIS     OPER     JKOP   

              2       4        4.02       700     1000      520     2100   
                                         GEOM     BASIS   MCVARS     RHF  

 PROGRAMS   *        TOTAL   CCSD(T)        HF       INT
 CPU TIMES  *       472.17    295.98     57.82    118.24
 REAL TIME  *       569.04 SEC
 DISK USED  *        21.32 GB      
 **********************************************************************************************************************************

 CCSD(T)/aug-cc-pV5Z energy=   -130.352869495112

        CCSD(T)         HF-SCF  
   -130.35286950   -129.85122869
 **********************************************************************************************************************************
 Molpro calculation terminated
 Variable memory released
