
 Primary working directories    : /tmp/r2666/281891.maple
 Secondary working directories  : /tmp/r2666/281891.maple
 Wavefunction directory         : /ddn/home4/r2666/wfu/
 Main file repository           : /tmp/r2666/281891.maple/

 SHA1      : d5ffa45e93fdbca01ffc919aa182cfdae0147319
 NAME      : 2015.1.35
 ARCHNAME  : linux/x86_64
 FC        : /opt/intel/composer_xe_2015.1.133/bin/intel64/ifort
 BLASLIB   : -Wl,-_start-group /opt/intel/mkl/lib/intel64/libmkl_intel_ilp64.a /opt/intel/mkl/lib/intel64/libmkl_intel_thread.a /opt/intel/mkl/lib/intel64/libmkl_core.a -Wl,-_end-group
 id        : olemiss

 Nodes     nprocs
 cn084        1

 Using customized tuning parameters: mindgm=1; mindgv=20; mindgc=4; mindgr=1; noblas=0; minvec=7
 default implementation of scratch files=df  

 ***,hno CCSD(T)/TZ-F12 QFF
 memory, 995, m;
 gthresh,energy=1.d-12,zero=1.d-22,oneint=1.d-22,twoint=1.d-22;
 gthresh,optgrad=1.d-8,optstep=1.d-8;
 nocompress;
 geomtyp=xyz
 bohr
 geometry={
 3
         46        46
 H        0.0000000000        1.6636200501       -1.9205521379
 N        0.0000000000       -0.1617288543       -1.1328533399
 O        0.0000000000        0.0398765942        1.1028158868
 }
 
 basis=av5z
   {hf,maxit=500;accu,20;}
 {ccsd(t),nocheck,maxit=250;orbital,IGNORE_ERROR;}

 Variables initialized (889), CPU time= 0.00 sec
 Commands  initialized (702), CPU time= 0.01 sec, 572 directives.
 Default parameters read. Elapsed time= 0.14 sec

 Checking input...
 Passed
1


                                         ***  PROGRAM SYSTEM MOLPRO  ***
                                       Copyright, TTI GmbH Stuttgart, 2015
                                    Version 2015.1 linked Jul  9 2018 13:16:40


 **********************************************************************************************************************************
 LABEL *   hno CCSD(T)/TZ-F12 QFF                                                        
  64 bit serial version                                                                  DATE: 04-Mar-20          TIME: 13:19:58  
 **********************************************************************************************************************************

 SHA1:             d5ffa45e93fdbca01ffc919aa182cfdae0147319
 **********************************************************************************************************************************

 THRESHOLDS:

 ZERO    =  1.00D-22  ONEINT  =  1.00D-22  TWOINT  =  1.00D-22  PREFAC  =  1.00D-14  LOCALI  =  1.00D-09  EORDER  =  1.00D-04
 ENERGY  =  1.00D-12  ETEST   =  0.00D+00  EDENS   =  0.00D+00  THRDEDEF=  1.00D-06  GRADIENT=  1.00D-02  STEP    =  1.00D-03
 ORBITAL =  1.00D-05  CIVEC   =  1.00D-05  COEFF   =  1.00D-04  PRINTCI =  5.00D-02  PUNCHCI =  9.90D+01  OPTGRAD =  3.00D-04
 OPTENERG=  1.00D-06  OPTSTEP =  3.00D-04  THRGRAD =  1.00D-10  COMPRESS=  1.00D-11  VARMIN  =  1.00D-07  VARMAX  =  1.00D-03
 THRDOUB =  0.00D+00  THRDIV  =  1.00D-05  THRRED  =  1.00D-07  THRPSP  =  1.00D+00  THRDC   =  1.00D-10  THRCS   =  1.00D-10
 THRNRM  =  1.00D-08  THREQ   =  0.00D+00  THRDE   =  1.00D+00  THRREF  =  1.00D-05  SPARFAC =  1.00D+00  THRDLP  =  1.00D-07
 THRDIA  =  1.00D-10  THRDLS  =  1.00D-07  THRGPS  =  0.00D+00  THRKEX  =  0.00D+00  THRDIS  =  2.00D-01  THRVAR  =  1.00D-10
 THRLOC  =  1.00D-06  THRGAP  =  1.00D-06  THRLOCT = -1.00D+00  THRGAPT = -1.00D+00  THRORB  =  1.00D-06  THRMLTP =  0.00D+00
 THRCPQCI=  1.00D-10  KEXTA   =  0.00D+00  THRCOARS=  0.00D+00  SYMTOL  =  1.00D-06  GRADTOL =  1.00D-06  THROVL  =  1.00D-08
 THRORTH =  1.00D-08  GRID    =  1.00D-06  GRIDMAX =  1.00D-03  DTMAX   =  0.00D+00  THROCCDE=  1.00D-01  THROCCDE=  1.00D-01



 THRESHOLDS:

 ZERO    =  1.00D-22  ONEINT  =  1.00D-22  TWOINT  =  1.00D-22  PREFAC  =  1.00D-14  LOCALI  =  1.00D-09  EORDER  =  1.00D-04
 ENERGY  =  1.00D-12  ETEST   =  0.00D+00  EDENS   =  0.00D+00  THRDEDEF=  1.00D-06  GRADIENT=  1.00D-02  STEP    =  1.00D-03
 ORBITAL =  1.00D-05  CIVEC   =  1.00D-05  COEFF   =  1.00D-04  PRINTCI =  5.00D-02  PUNCHCI =  9.90D+01  OPTGRAD =  1.00D-08
 OPTENERG=  1.00D-06  OPTSTEP =  1.00D-08  THRGRAD =  1.00D-10  COMPRESS=  1.00D-11  VARMIN  =  1.00D-07  VARMAX  =  1.00D-03
 THRDOUB =  0.00D+00  THRDIV  =  1.00D-05  THRRED  =  1.00D-07  THRPSP  =  1.00D+00  THRDC   =  1.00D-10  THRCS   =  1.00D-10
 THRNRM  =  1.00D-08  THREQ   =  0.00D+00  THRDE   =  1.00D+00  THRREF  =  1.00D-05  SPARFAC =  1.00D+00  THRDLP  =  1.00D-07
 THRDIA  =  1.00D-10  THRDLS  =  1.00D-07  THRGPS  =  0.00D+00  THRKEX  =  0.00D+00  THRDIS  =  2.00D-01  THRVAR  =  1.00D-10
 THRLOC  =  1.00D-06  THRGAP  =  1.00D-06  THRLOCT = -1.00D+00  THRGAPT = -1.00D+00  THRORB  =  1.00D-06  THRMLTP =  0.00D+00
 THRCPQCI=  1.00D-10  KEXTA   =  0.00D+00  THRCOARS=  0.00D+00  SYMTOL  =  1.00D-06  GRADTOL =  1.00D-06  THROVL  =  1.00D-08
 THRORTH =  1.00D-08  GRID    =  1.00D-06  GRIDMAX =  1.00D-03  DTMAX   =  0.00D+00  THROCCDE=  1.00D-01  THROCCDE=  1.00D-01



 Input parameters for SORTINT:

 COMPRESS =    0.000000
 C_FINAL  =    1.000000
 DEBUG    =   -1.000000
 C_SORT1  =    0.000000
 C_SEWARD =    0.000000
 THRESH   =    0.000000
 IO       =  molpro                                                          
 SPRI     =    0.000000
 SETTING GEOMTYP        =    XYZ
 ZUNIT=BOHR
 

 Variable memory set to  995000000 words,  buffer space   230000 words

 SETTING BASIS          =    AV5Z


 Recomputing integrals since basis changed


 Using spherical harmonics

 Library entry H      S aug-cc-pV5Z          selected for orbital group  1
 Library entry H      P aug-cc-pV5Z          selected for orbital group  1
 Library entry H      D aug-cc-pV5Z          selected for orbital group  1
 Library entry H      F aug-cc-pV5Z          selected for orbital group  1
 Library entry H      G aug-cc-pV5Z          selected for orbital group  1
 Library entry N      S aug-cc-pV5Z          selected for orbital group  2
 Library entry N      P aug-cc-pV5Z          selected for orbital group  2
 Library entry N      D aug-cc-pV5Z          selected for orbital group  2
 Library entry N      F aug-cc-pV5Z          selected for orbital group  2
 Library entry N      G aug-cc-pV5Z          selected for orbital group  2
 Library entry N      H aug-cc-pV5Z          selected for orbital group  2
 Library entry O      S aug-cc-pV5Z          selected for orbital group  3
 Library entry O      P aug-cc-pV5Z          selected for orbital group  3
 Library entry O      D aug-cc-pV5Z          selected for orbital group  3
 Library entry O      F aug-cc-pV5Z          selected for orbital group  3
 Library entry O      G aug-cc-pV5Z          selected for orbital group  3
 Library entry O      H aug-cc-pV5Z          selected for orbital group  3


 PROGRAM * SEWARD (Integral evaluation for generally contracted gaussian basis sets)     Author: Roland Lindh, 1990

 Geometry written to block  1 of record 700


 Point group  Cs  



 ATOMIC COORDINATES

 NR  ATOM    CHARGE       X              Y              Z

   1  H       1.00    0.000000000    1.663620050   -1.920552138
   2  N       7.00    0.000000000   -0.161728854   -1.132853340
   3  O       8.00    0.000000000    0.039876594    1.102815887

 Bond lengths in Bohr (Angstrom)

 1-2  1.988056342  2-3  2.244740887
     ( 1.052034110)     ( 1.187865722)

 Bond angles

  1-2-3  108.18899349

 NUCLEAR CHARGE:                   16
 NUMBER OF PRIMITIVE AOS:         506
 NUMBER OF SYMMETRY AOS:          371
 NUMBER OF CONTRACTIONS:          334   ( 204A'  + 130A"  )
 NUMBER OF CORE ORBITALS:           2   (   2A'  +   0A"  )
 NUMBER OF VALENCE ORBITALS:        9   (   7A'  +   2A"  )


 NUCLEAR REPULSION ENERGY   30.79936069


 Eigenvalues of metric

         1 0.109E-04 0.164E-04 0.626E-04 0.936E-04 0.995E-04 0.130E-03 0.195E-03 0.222E-03
         2 0.120E-03 0.362E-03 0.105E-02 0.144E-02 0.189E-02 0.237E-02 0.322E-02 0.374E-02


 Contracted 2-electron integrals neglected if value below      1.0D-22

      756977549. INTEGRALS WRITTEN OUT IN  184855 BLOCKS ON RECORD 1290 OF FILE 1


 NUMBER OF SORTED TWO-ELECTRON INTEGRALS:  789027325.     BUFFER LENGTH:  32768
 NUMBER OF SEGMENTS:  25  SEGMENT LENGTH:   31997130      RECORD LENGTH: 524288

 Memory used in sort:      32.55 MW

 SORT1 READ   756977549. AND WROTE   760993444. INTEGRALS IN   2189 RECORDS. CPU TIME:    18.13 SEC, REAL TIME:    39.43 SEC
 SORT2 READ   760993444. AND WROTE   789027325. INTEGRALS IN     25 RECORDS. CPU TIME:     9.13 SEC, REAL TIME:    24.75 SEC

 FILE SIZES:   FILE 1: 12137.5 MBYTE,  FILE 4:  9181.4 MBYTE,   TOTAL:  21318.9 MBYTE

 OPERATOR DM      FOR CENTER  0  COORDINATES:    0.000000    0.000000    0.000000


 **********************************************************************************************************************************
 DATASETS  * FILE   NREC   LENGTH (MB)   RECORD NAMES
              1      19     6374.22       500      610      700      900      950      970     1000      129      960     1100   
                                          VAR    BASINP    GEOM    SYMINP    ZMAT    AOBASIS   BASIS     P2S    ABASIS      S 
                                         1400     1410     1200     1210     1080     1600     1650     1300     1700   
                                           T        V       H0       H01     AOSYM     SMH    MOLCAS    ERIS     OPER   

 PROGRAMS   *        TOTAL       INT
 CPU TIMES  *       116.11    116.02
 REAL TIME  *       160.71 SEC
 DISK USED  *        21.32 GB      
 **********************************************************************************************************************************


 PROGRAM * RHF-SCF (CLOSED SHELL)       Authors: W. Meyer, H.-J. Werner


 NUMBER OF ELECTRONS:       8+    8-
 CONVERGENCE THRESHOLDS:    1.00E-10 (Density)    1.00E-13 (Energy)
 MAX. NUMBER OF ITERATIONS:      500
 INTERPOLATION TYPE:            DIIS
 INTERPOLATION STEPS:              2 (START)      1 (STEP)
 LEVEL SHIFTS:                  0.00 (CLOSED)  0.00 (OPEN) 



 Orbital guess generated from atomic densities. Full valence occupancy:    9   2

 Molecular orbital dump at record        2100.2

 Initial occupancy:   7   1

 ITERATION    DDIFF          GRAD             ENERGY        2-EL.EN.            DIPOLE MOMENTS         DIIS   ORB.
    1      0.000D+00      0.000D+00      -129.80359895    154.750883    0.00000    0.58602   -0.96447    0    start
    2      0.000D+00      0.627D-02      -129.83129149    156.005793    0.00000    0.59750   -0.21446    1    diag
    3      0.384D-02      0.457D-02      -129.85118056    156.089273    0.00000    0.54690   -0.56349    2    diag
    4      0.195D-02      0.748D-03      -129.85193956    155.820694    0.00000    0.55472   -0.50541    3    diag
    5      0.368D-03      0.242D-03      -129.85205739    155.912526    0.00000    0.55996   -0.50829    4    diag
    6      0.151D-03      0.699D-04      -129.85207612    155.896494    0.00000    0.56033   -0.50445    5    diag
    7      0.577D-04      0.341D-04      -129.85208132    155.899474    0.00000    0.56161   -0.50211    6    diag
    8      0.390D-04      0.113D-04      -129.85208183    155.898835    0.00000    0.56167   -0.50123    7    diag
    9      0.137D-04      0.213D-05      -129.85208185    155.898737    0.00000    0.56164   -0.50104    8    diag
   10      0.264D-05      0.501D-06      -129.85208185    155.898720    0.00000    0.56161   -0.50101    9    orth
   11      0.565D-06      0.104D-06      -129.85208185    155.898716    0.00000    0.56160   -0.50101    9    diag
   12      0.112D-06      0.209D-07      -129.85208185    155.898716    0.00000    0.56160   -0.50101    9    diag
   13      0.248D-07      0.533D-08      -129.85208185    155.898716    0.00000    0.56160   -0.50101    9    diag
   14      0.638D-08      0.107D-08      -129.85208185    155.898716    0.00000    0.56160   -0.50101    9    diag
   15      0.120D-08      0.318D-09      -129.85208185    155.898716    0.00000    0.56160   -0.50101    9    diag
   16      0.356D-09      0.100D-09      -129.85208185    155.898716    0.00000    0.56160   -0.50101    9    diag
   17      0.764D-10      0.278D-10      -129.85208185    155.898716    0.00000    0.56160   -0.50101    9    diag
   18      0.242D-10      0.922D-11      -129.85208185    155.898716    0.00000    0.56160   -0.50101    0    orth

 Final occupancy:   7   1

 !RHF STATE 1.1 Energy               -129.852081848852
 Nuclear energy                        30.79936069
 One-electron energy                 -238.60080044
 Two-electron energy                   77.94935790
 Virial quotient                       -1.00106952
 !RHF STATE 1.1 Dipole moment           0.00000000     0.56159653    -0.50100629
 Dipole moment /Debye                   0.00000000     1.42734250    -1.27334757

 Orbital energies:

         1.1          2.1          3.1          4.1          5.1          6.1          7.1          8.1          9.1
    -20.651008   -15.708727    -1.546104    -0.989705    -0.753451    -0.671941    -0.424271     0.023086     0.065569

         1.2          2.2          3.2
     -0.605834     0.063935     0.093677

 HOMO      7.1    -0.424271 =     -11.5450eV
 LUMO      8.1     0.023086 =       0.6282eV
 LUMO-HOMO         0.447357 =      12.1732eV


 **********************************************************************************************************************************
 DATASETS  * FILE   NREC   LENGTH (MB)   RECORD NAMES
              1      19     6374.22       500      610      700      900      950      970     1000      129      960     1100   
                                          VAR    BASINP    GEOM    SYMINP    ZMAT    AOBASIS   BASIS     P2S    ABASIS      S 
                                         1400     1410     1200     1210     1080     1600     1650     1300     1700   
                                           T        V       H0       H01     AOSYM     SMH    MOLCAS    ERIS     OPER   

              2       4        4.02       700     1000      520     2100   
                                         GEOM     BASIS   MCVARS     RHF  

 PROGRAMS   *        TOTAL        HF       INT
 CPU TIMES  *       174.31     58.20    116.02
 REAL TIME  *       239.15 SEC
 DISK USED  *        21.32 GB      
 **********************************************************************************************************************************


 PROGRAM * CCSD (Closed-shell coupled cluster)     Authors: C. Hampel, H.-J. Werner, 1991, M. Deegan, P.J. Knowles, 1992


 Convergence thresholds:  THRVAR = 1.00D-08  THRDEN = 1.00D-12

 CCSD(T)     terms to be evaluated (factor= 1.000)


 Number of core orbitals:           2 (   2   0 )
 Number of closed-shell orbitals:   6 (   5   1 )
 Number of external orbitals:     326 ( 197 129 )

 Molecular orbitals read from record     2100.2  Type=RHF/CANONICAL (state 1.1)

 Number of N-1 electron functions:               6
 Number of N-2 electron functions:              21
 Number of singly external CSFs:              1114
 Number of doubly external CSFs:            975958
 Total number of CSFs:                      977073

 Length of J-op  integral file:               0.00 MB
 Length of K-op  integral file:               4.07 MB
 Length of 3-ext integral record:             0.00 MB

 Memory could be reduced to 151.33 Mwords without degradation in triples

 Integral transformation finished. Total CPU:  10.14 sec, npass=  1  Memory used:  41.21 MW

 Reference energy:                   -129.85208185

 MP2 singlet pair energy:              -0.30916903
 MP2 triplet pair energy:              -0.17067465
 MP2 correlation energy:               -0.47984367
 MP2 total energy:                   -130.33192552

 SCS-MP2 correlation energy:           -0.47720039   (PS=  1.200000  PT=  0.333333)
 SCS-MP2 total energy:               -130.32928224

 ITER.      SQ.NORM     CORR.ENERGY   TOTAL ENERGY   ENERGY CHANGE        DEN1      VAR(S)    VAR(P)  DIIS     TIME  TIME/IT
   1      1.11846776    -0.47762841  -130.32971026     0.00221526     0.01802773  0.29D-02  0.30D-02  1  1    18.36     9.16
   2      1.12860436    -0.47767773  -130.32975958    -0.00004932    -0.01216363  0.94D-04  0.46D-03  2  2    26.53     9.28
   3      1.13438586    -0.47802982  -130.33011167    -0.00035209    -0.00288764  0.43D-04  0.51D-04  3  3    34.80     9.33
   4      1.13695113    -0.47802756  -130.33010941     0.00000226    -0.00090813  0.39D-05  0.91D-05  4  4    43.15     9.36
   5      1.13795287    -0.47805339  -130.33013524    -0.00002583    -0.00022376  0.10D-05  0.16D-05  5  5    51.42     9.37
   6      1.13827638    -0.47804370  -130.33012555     0.00000969    -0.00004508  0.11D-06  0.40D-06  6  6    59.82     9.39
   7      1.13835123    -0.47804320  -130.33012505     0.00000051     0.00000232  0.17D-07  0.87D-07  6  1    68.42     9.42
   8      1.13837540    -0.47804341  -130.33012526    -0.00000022    -0.00000273  0.38D-08  0.17D-07  6  2    76.86     9.44
   9      1.13838368    -0.47804293  -130.33012478     0.00000048    -0.00000029  0.20D-08  0.16D-08  6  3    85.25     9.45
  10      1.13837967    -0.47804359  -130.33012544    -0.00000066     0.00000140  0.30D-09  0.26D-09  6  5    93.68     9.46
  11      1.13838119    -0.47804359  -130.33012544    -0.00000000    -0.00000025  0.82D-10  0.22D-10  6  4   102.18     9.47
  12      1.13838077    -0.47804365  -130.33012549    -0.00000006     0.00000005  0.16D-10  0.51D-11  6  6   110.68     9.48
  13      1.13838041    -0.47804365  -130.33012550    -0.00000001    -0.00000002  0.17D-11  0.67D-12  6  4   119.02     9.49
  14      1.13838033    -0.47804366  -130.33012551    -0.00000001     0.00000002  0.46D-12  0.15D-12  6  1   127.43     9.49
  15      1.13838026    -0.47804366  -130.33012551    -0.00000000     0.00000001  0.86D-13  0.29D-13  6  3   135.72     9.50
  16      1.13838025    -0.47804366  -130.33012551    -0.00000000     0.00000001  0.17D-13  0.61D-14  6  2   144.12     9.50
  17      1.13838025    -0.47804366  -130.33012551    -0.00000000     0.00000000  0.18D-14  0.16D-14  6  5   152.61     9.51
  18      1.13838025    -0.47804366  -130.33012551     0.00000000    -0.00000000  0.28D-15  0.28D-15  6  6   160.94     9.51
  19      1.13838025    -0.47804366  -130.33012551     0.00000000    -0.00000000  0.72D-16  0.49D-16  6  4   169.34     9.51
  20      1.13838026    -0.47804366  -130.33012551     0.00000000    -0.00000000  0.89D-17  0.69D-17  6  3   177.74     9.52
  21      1.13838026    -0.47804366  -130.33012551     0.00000000    -0.00000000  0.17D-17  0.12D-17  6  1   186.16     9.52
  22      1.13838026    -0.47804366  -130.33012551    -0.00000000     0.00000000  0.46D-18  0.31D-18  6  2   194.62     9.52
  23      1.13838026    -0.47804366  -130.33012551     0.00000000    -0.00000000  0.17D-18  0.14D-18  6  5   202.98     9.52
  24      1.13838026    -0.47804366  -130.33012551     0.00000000    -0.00000000  0.73D-19  0.63D-19  6  6   211.42     9.53

 Norm of t1 vector:      0.07304800      S-energy:    -0.00000000      T1 diagnostic:  0.01491086
                                                                       D1 diagnostic:  0.03964267

 Doubles amplitudes (print threshold =  0.500E-01):

         I         J         SYM. A    SYM. B    A         B      T(IJ, AB)

         6         6         2         2         1         1     -0.06367001
         6         6         2         2         1         2      0.05188685
         6         6         2         2         2         1      0.05188685


 Total CPU time for triples:     87.45 sec


 RESULTS
 =======

  Reference energy                   -129.852081848853
  CCSD singlet pair energy             -0.331187880308
  CCSD triplet pair energy             -0.146855781264
  CCSD correlation energy              -0.478043661573

  Triples (T) contribution             -0.022288090963
  Total correlation energy             -0.500331752536

  CCSD total energy                  -130.330125510426
  CCSD[T] energy                     -130.353407929459
  CCSD-T energy                      -130.352055288785
 !CCSD(T) total energy               -130.352413601389

 Timing summary (sec):

 STEP                 CPU(USER)    SYS     CPU(TOT)    WALL
 Transformation         10.18      1.64     11.82     11.83
 CCSD iterations       201.24     27.36    228.60    228.66
 Triples                87.45      1.78     89.23     89.23

 Program statistics:

 Available memory in ccsd:               994999756
 Min. memory needed in ccsd:               3348832
 Max. memory used in ccsd:                 4143652
 Max. memory used in cckext:               8340089 (24 integral passes)



 **********************************************************************************************************************************
 DATASETS  * FILE   NREC   LENGTH (MB)   RECORD NAMES
              1      20     6809.41       500      610      700      900      950      970     1000      129      960     1100   
                                          VAR    BASINP    GEOM    SYMINP    ZMAT    AOBASIS   BASIS     P2S    ABASIS      S 
                                         1400     1410     1200     1210     1080     1600     1650     1300     1700     1380   
                                           T        V       H0       H01     AOSYM     SMH    MOLCAS    ERIS     OPER     JKOP   

              2       4        4.02       700     1000      520     2100   
                                         GEOM     BASIS   MCVARS     RHF  

 PROGRAMS   *        TOTAL   CCSD(T)        HF       INT
 CPU TIMES  *       473.22    298.91     58.20    116.02
 REAL TIME  *       569.30 SEC
 DISK USED  *        21.32 GB      
 **********************************************************************************************************************************

 CCSD(T)/aug-cc-pV5Z energy=   -130.352413601389

        CCSD(T)         HF-SCF  
   -130.35241360   -129.85208185
 **********************************************************************************************************************************
 Molpro calculation terminated
 Variable memory released
