
 Primary working directories    : /tmp/r2666/281866.maple
 Secondary working directories  : /tmp/r2666/281866.maple
 Wavefunction directory         : /ddn/home4/r2666/wfu/
 Main file repository           : /tmp/r2666/281866.maple/

 SHA1      : d5ffa45e93fdbca01ffc919aa182cfdae0147319
 NAME      : 2015.1.35
 ARCHNAME  : linux/x86_64
 FC        : /opt/intel/composer_xe_2015.1.133/bin/intel64/ifort
 BLASLIB   : -Wl,-_start-group /opt/intel/mkl/lib/intel64/libmkl_intel_ilp64.a /opt/intel/mkl/lib/intel64/libmkl_intel_thread.a /opt/intel/mkl/lib/intel64/libmkl_core.a -Wl,-_end-group
 id        : olemiss

 Nodes     nprocs
 cn095        1

 Using customized tuning parameters: mindgm=1; mindgv=20; mindgc=4; mindgr=1; noblas=0; minvec=7
 default implementation of scratch files=df  

 ***,hno CCSD(T)/TZ-F12 QFF
 memory, 995, m;
 gthresh,energy=1.d-12,zero=1.d-22,oneint=1.d-22,twoint=1.d-22;
 gthresh,optgrad=1.d-8,optstep=1.d-8;
 nocompress;
 geomtyp=xyz
 bohr
 geometry={
 3
         21        21
 H        0.0000000000        1.6598764139       -1.9190992889
 N        0.0000000000       -0.1582280031       -1.1384682572
 O        0.0000000000        0.0401193792        1.1069779552
 }
 
 basis=av5z
   {hf,maxit=500;accu,20;}
 {ccsd(t),nocheck,maxit=250;orbital,IGNORE_ERROR;}

 Variables initialized (889), CPU time= 0.01 sec
 Commands  initialized (702), CPU time= 0.01 sec, 572 directives.
 Default parameters read. Elapsed time= 0.09 sec

 Checking input...
 Passed
1


                                         ***  PROGRAM SYSTEM MOLPRO  ***
                                       Copyright, TTI GmbH Stuttgart, 2015
                                    Version 2015.1 linked Jul  9 2018 13:16:40


 **********************************************************************************************************************************
 LABEL *   hno CCSD(T)/TZ-F12 QFF                                                        
  64 bit serial version                                                                  DATE: 04-Mar-20          TIME: 13:19:58  
 **********************************************************************************************************************************

 SHA1:             d5ffa45e93fdbca01ffc919aa182cfdae0147319
 **********************************************************************************************************************************

 THRESHOLDS:

 ZERO    =  1.00D-22  ONEINT  =  1.00D-22  TWOINT  =  1.00D-22  PREFAC  =  1.00D-14  LOCALI  =  1.00D-09  EORDER  =  1.00D-04
 ENERGY  =  1.00D-12  ETEST   =  0.00D+00  EDENS   =  0.00D+00  THRDEDEF=  1.00D-06  GRADIENT=  1.00D-02  STEP    =  1.00D-03
 ORBITAL =  1.00D-05  CIVEC   =  1.00D-05  COEFF   =  1.00D-04  PRINTCI =  5.00D-02  PUNCHCI =  9.90D+01  OPTGRAD =  3.00D-04
 OPTENERG=  1.00D-06  OPTSTEP =  3.00D-04  THRGRAD =  1.00D-10  COMPRESS=  1.00D-11  VARMIN  =  1.00D-07  VARMAX  =  1.00D-03
 THRDOUB =  0.00D+00  THRDIV  =  1.00D-05  THRRED  =  1.00D-07  THRPSP  =  1.00D+00  THRDC   =  1.00D-10  THRCS   =  1.00D-10
 THRNRM  =  1.00D-08  THREQ   =  0.00D+00  THRDE   =  1.00D+00  THRREF  =  1.00D-05  SPARFAC =  1.00D+00  THRDLP  =  1.00D-07
 THRDIA  =  1.00D-10  THRDLS  =  1.00D-07  THRGPS  =  0.00D+00  THRKEX  =  0.00D+00  THRDIS  =  2.00D-01  THRVAR  =  1.00D-10
 THRLOC  =  1.00D-06  THRGAP  =  1.00D-06  THRLOCT = -1.00D+00  THRGAPT = -1.00D+00  THRORB  =  1.00D-06  THRMLTP =  0.00D+00
 THRCPQCI=  1.00D-10  KEXTA   =  0.00D+00  THRCOARS=  0.00D+00  SYMTOL  =  1.00D-06  GRADTOL =  1.00D-06  THROVL  =  1.00D-08
 THRORTH =  1.00D-08  GRID    =  1.00D-06  GRIDMAX =  1.00D-03  DTMAX   =  0.00D+00  THROCCDE=  1.00D-01  THROCCDE=  1.00D-01



 THRESHOLDS:

 ZERO    =  1.00D-22  ONEINT  =  1.00D-22  TWOINT  =  1.00D-22  PREFAC  =  1.00D-14  LOCALI  =  1.00D-09  EORDER  =  1.00D-04
 ENERGY  =  1.00D-12  ETEST   =  0.00D+00  EDENS   =  0.00D+00  THRDEDEF=  1.00D-06  GRADIENT=  1.00D-02  STEP    =  1.00D-03
 ORBITAL =  1.00D-05  CIVEC   =  1.00D-05  COEFF   =  1.00D-04  PRINTCI =  5.00D-02  PUNCHCI =  9.90D+01  OPTGRAD =  1.00D-08
 OPTENERG=  1.00D-06  OPTSTEP =  1.00D-08  THRGRAD =  1.00D-10  COMPRESS=  1.00D-11  VARMIN  =  1.00D-07  VARMAX  =  1.00D-03
 THRDOUB =  0.00D+00  THRDIV  =  1.00D-05  THRRED  =  1.00D-07  THRPSP  =  1.00D+00  THRDC   =  1.00D-10  THRCS   =  1.00D-10
 THRNRM  =  1.00D-08  THREQ   =  0.00D+00  THRDE   =  1.00D+00  THRREF  =  1.00D-05  SPARFAC =  1.00D+00  THRDLP  =  1.00D-07
 THRDIA  =  1.00D-10  THRDLS  =  1.00D-07  THRGPS  =  0.00D+00  THRKEX  =  0.00D+00  THRDIS  =  2.00D-01  THRVAR  =  1.00D-10
 THRLOC  =  1.00D-06  THRGAP  =  1.00D-06  THRLOCT = -1.00D+00  THRGAPT = -1.00D+00  THRORB  =  1.00D-06  THRMLTP =  0.00D+00
 THRCPQCI=  1.00D-10  KEXTA   =  0.00D+00  THRCOARS=  0.00D+00  SYMTOL  =  1.00D-06  GRADTOL =  1.00D-06  THROVL  =  1.00D-08
 THRORTH =  1.00D-08  GRID    =  1.00D-06  GRIDMAX =  1.00D-03  DTMAX   =  0.00D+00  THROCCDE=  1.00D-01  THROCCDE=  1.00D-01



 Input parameters for SORTINT:

 COMPRESS =    0.000000
 C_FINAL  =    1.000000
 DEBUG    =   -1.000000
 C_SORT1  =    0.000000
 C_SEWARD =    0.000000
 THRESH   =    0.000000
 IO       =  molpro                                                          
 SPRI     =    0.000000
 SETTING GEOMTYP        =    XYZ
 ZUNIT=BOHR
 

 Variable memory set to  995000000 words,  buffer space   230000 words

 SETTING BASIS          =    AV5Z


 Recomputing integrals since basis changed


 Using spherical harmonics

 Library entry H      S aug-cc-pV5Z          selected for orbital group  1
 Library entry H      P aug-cc-pV5Z          selected for orbital group  1
 Library entry H      D aug-cc-pV5Z          selected for orbital group  1
 Library entry H      F aug-cc-pV5Z          selected for orbital group  1
 Library entry H      G aug-cc-pV5Z          selected for orbital group  1
 Library entry N      S aug-cc-pV5Z          selected for orbital group  2
 Library entry N      P aug-cc-pV5Z          selected for orbital group  2
 Library entry N      D aug-cc-pV5Z          selected for orbital group  2
 Library entry N      F aug-cc-pV5Z          selected for orbital group  2
 Library entry N      G aug-cc-pV5Z          selected for orbital group  2
 Library entry N      H aug-cc-pV5Z          selected for orbital group  2
 Library entry O      S aug-cc-pV5Z          selected for orbital group  3
 Library entry O      P aug-cc-pV5Z          selected for orbital group  3
 Library entry O      D aug-cc-pV5Z          selected for orbital group  3
 Library entry O      F aug-cc-pV5Z          selected for orbital group  3
 Library entry O      G aug-cc-pV5Z          selected for orbital group  3
 Library entry O      H aug-cc-pV5Z          selected for orbital group  3


 PROGRAM * SEWARD (Integral evaluation for generally contracted gaussian basis sets)     Author: Roland Lindh, 1990

 Geometry written to block  1 of record 700


 Point group  Cs  



 ATOMIC COORDINATES

 NR  ATOM    CHARGE       X              Y              Z

   1  H       1.00    0.000000000    1.659876414   -1.919099289
   2  N       7.00    0.000000000   -0.158228003   -1.138468257
   3  O       8.00    0.000000000    0.040119379    1.106977955

 Bond lengths in Bohr (Angstrom)

 1-2  1.978607712  2-3  2.254189517
     ( 1.047034111)     ( 1.192865721)

 Bond angles

  1-2-3  108.18899349

 NUCLEAR CHARGE:                   16
 NUMBER OF PRIMITIVE AOS:         506
 NUMBER OF SYMMETRY AOS:          371
 NUMBER OF CONTRACTIONS:          334   ( 204A'  + 130A"  )
 NUMBER OF CORE ORBITALS:           2   (   2A'  +   0A"  )
 NUMBER OF VALENCE ORBITALS:        9   (   7A'  +   2A"  )


 NUCLEAR REPULSION ENERGY   30.71126435


 Eigenvalues of metric

         1 0.109E-04 0.164E-04 0.622E-04 0.948E-04 0.101E-03 0.131E-03 0.195E-03 0.222E-03
         2 0.121E-03 0.356E-03 0.106E-02 0.147E-02 0.186E-02 0.239E-02 0.318E-02 0.377E-02


 Contracted 2-electron integrals neglected if value below      1.0D-22

      756977572. INTEGRALS WRITTEN OUT IN  184855 BLOCKS ON RECORD 1290 OF FILE 1


 NUMBER OF SORTED TWO-ELECTRON INTEGRALS:  789027325.     BUFFER LENGTH:  32768
 NUMBER OF SEGMENTS:  25  SEGMENT LENGTH:   31997130      RECORD LENGTH: 524288

 Memory used in sort:      32.55 MW

 SORT1 READ   756977572. AND WROTE   760993467. INTEGRALS IN   2189 RECORDS. CPU TIME:    27.06 SEC, REAL TIME:    93.16 SEC
 SORT2 READ   760993467. AND WROTE   789027325. INTEGRALS IN     25 RECORDS. CPU TIME:    10.03 SEC, REAL TIME:    21.37 SEC

 FILE SIZES:   FILE 1: 12137.5 MBYTE,  FILE 4:  9181.4 MBYTE,   TOTAL:  21318.9 MBYTE

 OPERATOR DM      FOR CENTER  0  COORDINATES:    0.000000    0.000000    0.000000


 **********************************************************************************************************************************
 DATASETS  * FILE   NREC   LENGTH (MB)   RECORD NAMES
              1      19     6374.22       500      610      700      900      950      970     1000      129      960     1100   
                                          VAR    BASINP    GEOM    SYMINP    ZMAT    AOBASIS   BASIS     P2S    ABASIS      S 
                                         1400     1410     1200     1210     1080     1600     1650     1300     1700   
                                           T        V       H0       H01     AOSYM     SMH    MOLCAS    ERIS     OPER   

 PROGRAMS   *        TOTAL       INT
 CPU TIMES  *       138.83    138.73
 REAL TIME  *       223.68 SEC
 DISK USED  *        21.32 GB      
 **********************************************************************************************************************************


 PROGRAM * RHF-SCF (CLOSED SHELL)       Authors: W. Meyer, H.-J. Werner


 NUMBER OF ELECTRONS:       8+    8-
 CONVERGENCE THRESHOLDS:    1.00E-10 (Density)    1.00E-13 (Energy)
 MAX. NUMBER OF ITERATIONS:      500
 INTERPOLATION TYPE:            DIIS
 INTERPOLATION STEPS:              2 (START)      1 (STEP)
 LEVEL SHIFTS:                  0.00 (CLOSED)  0.00 (OPEN) 



 Orbital guess generated from atomic densities. Full valence occupancy:    9   2

 Molecular orbital dump at record        2100.2

 Initial occupancy:   7   1

 ITERATION    DDIFF          GRAD             ENERGY        2-EL.EN.            DIPOLE MOMENTS         DIIS   ORB.
    1      0.000D+00      0.000D+00      -129.80284043    154.597252    0.00000    0.59171   -0.98011    0    start
    2      0.000D+00      0.629D-02      -129.83044368    155.838135    0.00000    0.60144   -0.21539    1    diag
    3      0.387D-02      0.463D-02      -129.85085816    155.933742    0.00000    0.55124   -0.57205    2    diag
    4      0.197D-02      0.753D-03      -129.85162818    155.661769    0.00000    0.55899   -0.51306    3    diag
    5      0.370D-03      0.243D-03      -129.85174721    155.753671    0.00000    0.56416   -0.51581    4    diag
    6      0.151D-03      0.702D-04      -129.85176610    155.737631    0.00000    0.56450   -0.51188    5    diag
    7      0.580D-04      0.345D-04      -129.85177142    155.740536    0.00000    0.56575   -0.50947    6    diag
    8      0.393D-04      0.116D-04      -129.85177196    155.739883    0.00000    0.56581   -0.50856    7    diag
    9      0.141D-04      0.219D-05      -129.85177198    155.739785    0.00000    0.56577   -0.50836    8    diag
   10      0.276D-05      0.510D-06      -129.85177198    155.739768    0.00000    0.56574   -0.50833    9    orth
   11      0.576D-06      0.105D-06      -129.85177198    155.739764    0.00000    0.56573   -0.50833    9    diag
   12      0.112D-06      0.210D-07      -129.85177198    155.739764    0.00000    0.56573   -0.50833    9    diag
   13      0.245D-07      0.538D-08      -129.85177198    155.739764    0.00000    0.56573   -0.50833    9    diag
   14      0.636D-08      0.107D-08      -129.85177198    155.739764    0.00000    0.56573   -0.50833    9    diag
   15      0.118D-08      0.314D-09      -129.85177198    155.739764    0.00000    0.56573   -0.50833    9    diag
   16      0.357D-09      0.985D-10      -129.85177198    155.739764    0.00000    0.56573   -0.50833    9    diag
   17      0.731D-10      0.270D-10      -129.85177198    155.739764    0.00000    0.56573   -0.50833    9    diag
   18      0.294D-10      0.906D-11      -129.85177198    155.739764    0.00000    0.56573   -0.50833    9    diag
   19      0.157D-10      0.231D-11      -129.85177198    155.739764    0.00000    0.56573   -0.50833    9    fixocc
   20      0.201D-10      0.595D-12      -129.85177198    155.739764    0.00000    0.56573   -0.50833    9    orth
   21      0.121D-10      0.321D-12      -129.85177198    155.739764    0.00000    0.56573   -0.50833    9    diag
   22      0.573D-11      0.283D-12      -129.85177198    155.739764    0.00000    0.56573   -0.50833    9    diag
   23      0.509D-11      0.426D-12      -129.85177198    155.739764    0.00000    0.56573   -0.50833    9    diag
   24      0.209D-11      0.418D-12      -129.85177198    155.739764    0.00000    0.56573   -0.50833    0    orth

 Final occupancy:   7   1

 !RHF STATE 1.1 Energy               -129.851771981312
 Nuclear energy                        30.71126435
 One-electron energy                 -238.43291824
 Two-electron energy                   77.86988191
 Virial quotient                       -1.00117224
 !RHF STATE 1.1 Dipole moment           0.00000000     0.56573239    -0.50832510
 Dipole moment /Debye                   0.00000000     1.43785413    -1.29194891

 Orbital energies:

         1.1          2.1          3.1          4.1          5.1          6.1          7.1          8.1          9.1
    -20.651373   -15.708890    -1.541900    -0.992131    -0.752396    -0.670465    -0.426154     0.023026     0.065562

         1.2          2.2          3.2
     -0.603269     0.063056     0.093064

 HOMO      7.1    -0.426154 =     -11.5962eV
 LUMO      8.1     0.023026 =       0.6266eV
 LUMO-HOMO         0.449180 =      12.2228eV


 **********************************************************************************************************************************
 DATASETS  * FILE   NREC   LENGTH (MB)   RECORD NAMES
              1      19     6374.22       500      610      700      900      950      970     1000      129      960     1100   
                                          VAR    BASINP    GEOM    SYMINP    ZMAT    AOBASIS   BASIS     P2S    ABASIS      S 
                                         1400     1410     1200     1210     1080     1600     1650     1300     1700   
                                           T        V       H0       H01     AOSYM     SMH    MOLCAS    ERIS     OPER   

              2       4        4.02       700     1000      520     2100   
                                         GEOM     BASIS   MCVARS     RHF  

 PROGRAMS   *        TOTAL        HF       INT
 CPU TIMES  *       228.50     89.67    138.73
 REAL TIME  *       339.78 SEC
 DISK USED  *        21.32 GB      
 **********************************************************************************************************************************


 PROGRAM * CCSD (Closed-shell coupled cluster)     Authors: C. Hampel, H.-J. Werner, 1991, M. Deegan, P.J. Knowles, 1992


 Convergence thresholds:  THRVAR = 1.00D-08  THRDEN = 1.00D-12

 CCSD(T)     terms to be evaluated (factor= 1.000)


 Number of core orbitals:           2 (   2   0 )
 Number of closed-shell orbitals:   6 (   5   1 )
 Number of external orbitals:     326 ( 197 129 )

 Molecular orbitals read from record     2100.2  Type=RHF/CANONICAL (state 1.1)

 Number of N-1 electron functions:               6
 Number of N-2 electron functions:              21
 Number of singly external CSFs:              1114
 Number of doubly external CSFs:            975958
 Total number of CSFs:                      977073

 Length of J-op  integral file:               0.00 MB
 Length of K-op  integral file:               4.07 MB
 Length of 3-ext integral record:             0.00 MB

 Memory could be reduced to 151.33 Mwords without degradation in triples

 Integral transformation finished. Total CPU:  11.60 sec, npass=  1  Memory used:  41.21 MW

 Reference energy:                   -129.85177198

 MP2 singlet pair energy:              -0.30955025
 MP2 triplet pair energy:              -0.17093312
 MP2 correlation energy:               -0.48048337
 MP2 total energy:                   -130.33225536

 SCS-MP2 correlation energy:           -0.47781869   (PS=  1.200000  PT=  0.333333)
 SCS-MP2 total energy:               -130.32959067

 ITER.      SQ.NORM     CORR.ENERGY   TOTAL ENERGY   ENERGY CHANGE        DEN1      VAR(S)    VAR(P)  DIIS     TIME  TIME/IT
   1      1.11882009    -0.47809023  -130.32986221     0.00239314     0.01836683  0.30D-02  0.30D-02  1  1    21.28    10.70
   2      1.12904416    -0.47810408  -130.32987606    -0.00001385    -0.01226007  0.96D-04  0.46D-03  2  2    31.23    10.95
   3      1.13488803    -0.47846015  -130.33023213    -0.00035607    -0.00290565  0.43D-04  0.52D-04  3  3    41.04    10.97
   4      1.13749764    -0.47845863  -130.33023061     0.00000152    -0.00091911  0.39D-05  0.93D-05  4  4    50.85    10.98
   5      1.13852156    -0.47848497  -130.33025695    -0.00002633    -0.00022837  0.10D-05  0.16D-05  5  5    60.93    11.02
   6      1.13885043    -0.47847486  -130.33024685     0.00001010    -0.00004606  0.11D-06  0.40D-06  6  6    70.92    11.06
   7      1.13892457    -0.47847448  -130.33024646     0.00000039     0.00000266  0.16D-07  0.88D-07  6  1    80.60    11.03
   8      1.13894869    -0.47847467  -130.33024665    -0.00000019    -0.00000277  0.37D-08  0.17D-07  6  2    90.51    11.02
   9      1.13895686    -0.47847418  -130.33024616     0.00000049    -0.00000027  0.21D-08  0.17D-08  6  3   100.40    11.03
  10      1.13895269    -0.47847486  -130.33024684    -0.00000068     0.00000145  0.31D-09  0.27D-09  6  5   110.32    11.03
  11      1.13895430    -0.47847485  -130.33024683     0.00000000    -0.00000028  0.86D-10  0.23D-10  6  4   120.23    11.03
  12      1.13895388    -0.47847491  -130.33024689    -0.00000006     0.00000005  0.16D-10  0.53D-11  6  6   130.12    11.03
  13      1.13895353    -0.47847492  -130.33024690    -0.00000001    -0.00000003  0.16D-11  0.68D-12  6  4   140.15    11.04
  14      1.13895344    -0.47847493  -130.33024691    -0.00000001     0.00000002  0.45D-12  0.15D-12  6  1   150.25    11.06
  15      1.13895338    -0.47847493  -130.33024691    -0.00000000     0.00000001  0.88D-13  0.28D-13  6  3   160.67    11.11
  16      1.13895336    -0.47847493  -130.33024691    -0.00000000     0.00000001  0.17D-13  0.60D-14  6  2   171.33    11.16
  17      1.13895336    -0.47847493  -130.33024691    -0.00000000     0.00000000  0.19D-14  0.15D-14  6  5   181.98    11.20
  18      1.13895337    -0.47847493  -130.33024691     0.00000000    -0.00000000  0.28D-15  0.27D-15  6  6   192.52    11.24
  19      1.13895337    -0.47847493  -130.33024691     0.00000000    -0.00000000  0.69D-16  0.49D-16  6  4   202.58    11.24
  20      1.13895337    -0.47847493  -130.33024691     0.00000000    -0.00000000  0.90D-17  0.70D-17  6  3   212.58    11.24
  21      1.13895337    -0.47847493  -130.33024691     0.00000000    -0.00000000  0.17D-17  0.12D-17  6  1   222.83    11.25
  22      1.13895337    -0.47847493  -130.33024691    -0.00000000     0.00000000  0.47D-18  0.33D-18  6  2   233.00    11.25
  23      1.13895337    -0.47847493  -130.33024691     0.00000000    -0.00000000  0.17D-18  0.16D-18  6  5   243.35    11.27
  24      1.13895337    -0.47847493  -130.33024691     0.00000000    -0.00000000  0.71D-19  0.68D-19  6  6   253.74    11.28

 Norm of t1 vector:      0.07361147      S-energy:    -0.00000000      T1 diagnostic:  0.01502588
                                                                       D1 diagnostic:  0.04025616

 Doubles amplitudes (print threshold =  0.500E-01):

         I         J         SYM. A    SYM. B    A         B      T(IJ, AB)

         6         6         2         2         1         1     -0.06751275
         6         6         2         2         1         2      0.05243711
         6         6         2         2         2         1      0.05243711


 Total CPU time for triples:     98.89 sec


 RESULTS
 =======

  Reference energy                   -129.851771981312
  CCSD singlet pair energy             -0.331564948600
  CCSD triplet pair energy             -0.146909980264
  CCSD correlation energy              -0.478474928865

  Triples (T) contribution             -0.022407555265
  Total correlation energy             -0.500882484130

  CCSD total energy                  -130.330246910177
  CCSD[T] energy                     -130.353663923812
  CCSD-T energy                      -130.352292813916
 !CCSD(T) total energy               -130.352654465442

 Timing summary (sec):

 STEP                 CPU(USER)    SYS     CPU(TOT)    WALL
 Transformation         11.66      1.75     13.41     13.41
 CCSD iterations       242.08     28.67    270.75    270.81
 Triples                98.89      1.93    100.82    100.83

 Program statistics:

 Available memory in ccsd:               994999756
 Min. memory needed in ccsd:               3348832
 Max. memory used in ccsd:                 4143652
 Max. memory used in cckext:               8340089 (24 integral passes)



 **********************************************************************************************************************************
 DATASETS  * FILE   NREC   LENGTH (MB)   RECORD NAMES
              1      20     6809.41       500      610      700      900      950      970     1000      129      960     1100   
                                          VAR    BASINP    GEOM    SYMINP    ZMAT    AOBASIS   BASIS     P2S    ABASIS      S 
                                         1400     1410     1200     1210     1080     1600     1650     1300     1700     1380   
                                           T        V       H0       H01     AOSYM     SMH    MOLCAS    ERIS     OPER     JKOP   

              2       4        4.02       700     1000      520     2100   
                                         GEOM     BASIS   MCVARS     RHF  

 PROGRAMS   *        TOTAL   CCSD(T)        HF       INT
 CPU TIMES  *       581.15    352.65     89.67    138.73
 REAL TIME  *       724.86 SEC
 DISK USED  *        21.32 GB      
 **********************************************************************************************************************************

 CCSD(T)/aug-cc-pV5Z energy=   -130.352654465442

        CCSD(T)         HF-SCF  
   -130.35265447   -129.85177198
 **********************************************************************************************************************************
 Molpro calculation terminated
 Variable memory released
