
 Primary working directories    : /tmp/r2666/281951.maple
 Secondary working directories  : /tmp/r2666/281951.maple
 Wavefunction directory         : /ddn/home4/r2666/wfu/
 Main file repository           : /tmp/r2666/281951.maple/

 SHA1      : d5ffa45e93fdbca01ffc919aa182cfdae0147319
 NAME      : 2015.1.35
 ARCHNAME  : linux/x86_64
 FC        : /opt/intel/composer_xe_2015.1.133/bin/intel64/ifort
 BLASLIB   : -Wl,-_start-group /opt/intel/mkl/lib/intel64/libmkl_intel_ilp64.a /opt/intel/mkl/lib/intel64/libmkl_intel_thread.a /opt/intel/mkl/lib/intel64/libmkl_core.a -Wl,-_end-group
 id        : olemiss

 Nodes     nprocs
 cn050        1

 Using customized tuning parameters: mindgm=1; mindgv=20; mindgc=4; mindgr=1; noblas=0; minvec=7
 default implementation of scratch files=df  

 ***,hno CCSD(T)/TZ-F12 QFF
 memory, 995, m;
 gthresh,energy=1.d-12,zero=1.d-22,oneint=1.d-22,twoint=1.d-22;
 gthresh,optgrad=1.d-8,optstep=1.d-8;
 nocompress;
 geomtyp=xyz
 bohr
 geometry={
 3
        106       106
 H        0.0000000000        1.6726198301       -1.9420607780
 N        0.0000000000       -0.1595708507       -1.1463828140
 O        0.0000000000        0.0287188106        1.1378540009
 }
 
 basis=av5z
   {hf,maxit=500;accu,20;}
 {ccsd(t),nocheck,maxit=250;orbital,IGNORE_ERROR;}

 Variables initialized (889), CPU time= 0.00 sec
 Commands  initialized (702), CPU time= 0.01 sec, 572 directives.
 Default parameters read. Elapsed time= 0.05 sec

 Checking input...
 Passed
1


                                         ***  PROGRAM SYSTEM MOLPRO  ***
                                       Copyright, TTI GmbH Stuttgart, 2015
                                    Version 2015.1 linked Jul  9 2018 13:16:40


 **********************************************************************************************************************************
 LABEL *   hno CCSD(T)/TZ-F12 QFF                                                        
  64 bit serial version                                                                  DATE: 04-Mar-20          TIME: 13:34:09  
 **********************************************************************************************************************************

 SHA1:             d5ffa45e93fdbca01ffc919aa182cfdae0147319
 **********************************************************************************************************************************

 THRESHOLDS:

 ZERO    =  1.00D-22  ONEINT  =  1.00D-22  TWOINT  =  1.00D-22  PREFAC  =  1.00D-14  LOCALI  =  1.00D-09  EORDER  =  1.00D-04
 ENERGY  =  1.00D-12  ETEST   =  0.00D+00  EDENS   =  0.00D+00  THRDEDEF=  1.00D-06  GRADIENT=  1.00D-02  STEP    =  1.00D-03
 ORBITAL =  1.00D-05  CIVEC   =  1.00D-05  COEFF   =  1.00D-04  PRINTCI =  5.00D-02  PUNCHCI =  9.90D+01  OPTGRAD =  3.00D-04
 OPTENERG=  1.00D-06  OPTSTEP =  3.00D-04  THRGRAD =  1.00D-10  COMPRESS=  1.00D-11  VARMIN  =  1.00D-07  VARMAX  =  1.00D-03
 THRDOUB =  0.00D+00  THRDIV  =  1.00D-05  THRRED  =  1.00D-07  THRPSP  =  1.00D+00  THRDC   =  1.00D-10  THRCS   =  1.00D-10
 THRNRM  =  1.00D-08  THREQ   =  0.00D+00  THRDE   =  1.00D+00  THRREF  =  1.00D-05  SPARFAC =  1.00D+00  THRDLP  =  1.00D-07
 THRDIA  =  1.00D-10  THRDLS  =  1.00D-07  THRGPS  =  0.00D+00  THRKEX  =  0.00D+00  THRDIS  =  2.00D-01  THRVAR  =  1.00D-10
 THRLOC  =  1.00D-06  THRGAP  =  1.00D-06  THRLOCT = -1.00D+00  THRGAPT = -1.00D+00  THRORB  =  1.00D-06  THRMLTP =  0.00D+00
 THRCPQCI=  1.00D-10  KEXTA   =  0.00D+00  THRCOARS=  0.00D+00  SYMTOL  =  1.00D-06  GRADTOL =  1.00D-06  THROVL  =  1.00D-08
 THRORTH =  1.00D-08  GRID    =  1.00D-06  GRIDMAX =  1.00D-03  DTMAX   =  0.00D+00  THROCCDE=  1.00D-01  THROCCDE=  1.00D-01



 THRESHOLDS:

 ZERO    =  1.00D-22  ONEINT  =  1.00D-22  TWOINT  =  1.00D-22  PREFAC  =  1.00D-14  LOCALI  =  1.00D-09  EORDER  =  1.00D-04
 ENERGY  =  1.00D-12  ETEST   =  0.00D+00  EDENS   =  0.00D+00  THRDEDEF=  1.00D-06  GRADIENT=  1.00D-02  STEP    =  1.00D-03
 ORBITAL =  1.00D-05  CIVEC   =  1.00D-05  COEFF   =  1.00D-04  PRINTCI =  5.00D-02  PUNCHCI =  9.90D+01  OPTGRAD =  1.00D-08
 OPTENERG=  1.00D-06  OPTSTEP =  1.00D-08  THRGRAD =  1.00D-10  COMPRESS=  1.00D-11  VARMIN  =  1.00D-07  VARMAX  =  1.00D-03
 THRDOUB =  0.00D+00  THRDIV  =  1.00D-05  THRRED  =  1.00D-07  THRPSP  =  1.00D+00  THRDC   =  1.00D-10  THRCS   =  1.00D-10
 THRNRM  =  1.00D-08  THREQ   =  0.00D+00  THRDE   =  1.00D+00  THRREF  =  1.00D-05  SPARFAC =  1.00D+00  THRDLP  =  1.00D-07
 THRDIA  =  1.00D-10  THRDLS  =  1.00D-07  THRGPS  =  0.00D+00  THRKEX  =  0.00D+00  THRDIS  =  2.00D-01  THRVAR  =  1.00D-10
 THRLOC  =  1.00D-06  THRGAP  =  1.00D-06  THRLOCT = -1.00D+00  THRGAPT = -1.00D+00  THRORB  =  1.00D-06  THRMLTP =  0.00D+00
 THRCPQCI=  1.00D-10  KEXTA   =  0.00D+00  THRCOARS=  0.00D+00  SYMTOL  =  1.00D-06  GRADTOL =  1.00D-06  THROVL  =  1.00D-08
 THRORTH =  1.00D-08  GRID    =  1.00D-06  GRIDMAX =  1.00D-03  DTMAX   =  0.00D+00  THROCCDE=  1.00D-01  THROCCDE=  1.00D-01



 Input parameters for SORTINT:

 COMPRESS =    0.000000
 C_FINAL  =    1.000000
 DEBUG    =   -1.000000
 C_SORT1  =    0.000000
 C_SEWARD =    0.000000
 THRESH   =    0.000000
 IO       =  molpro                                                          
 SPRI     =    0.000000
 SETTING GEOMTYP        =    XYZ
 ZUNIT=BOHR
 

 Variable memory set to  995000000 words,  buffer space   230000 words

 SETTING BASIS          =    AV5Z


 Recomputing integrals since basis changed


 Using spherical harmonics

 Library entry H      S aug-cc-pV5Z          selected for orbital group  1
 Library entry H      P aug-cc-pV5Z          selected for orbital group  1
 Library entry H      D aug-cc-pV5Z          selected for orbital group  1
 Library entry H      F aug-cc-pV5Z          selected for orbital group  1
 Library entry H      G aug-cc-pV5Z          selected for orbital group  1
 Library entry N      S aug-cc-pV5Z          selected for orbital group  2
 Library entry N      P aug-cc-pV5Z          selected for orbital group  2
 Library entry N      D aug-cc-pV5Z          selected for orbital group  2
 Library entry N      F aug-cc-pV5Z          selected for orbital group  2
 Library entry N      G aug-cc-pV5Z          selected for orbital group  2
 Library entry N      H aug-cc-pV5Z          selected for orbital group  2
 Library entry O      S aug-cc-pV5Z          selected for orbital group  3
 Library entry O      P aug-cc-pV5Z          selected for orbital group  3
 Library entry O      D aug-cc-pV5Z          selected for orbital group  3
 Library entry O      F aug-cc-pV5Z          selected for orbital group  3
 Library entry O      G aug-cc-pV5Z          selected for orbital group  3
 Library entry O      H aug-cc-pV5Z          selected for orbital group  3


 PROGRAM * SEWARD (Integral evaluation for generally contracted gaussian basis sets)     Author: Roland Lindh, 1990

 Geometry written to block  1 of record 700


 Point group  Cs  



 ATOMIC COORDINATES

 NR  ATOM    CHARGE       X              Y              Z

   1  H       1.00    0.000000000    1.672619830   -1.942060778
   2  N       7.00    0.000000000   -0.159570851   -1.146382814
   3  O       8.00    0.000000000    0.028718811    1.137854001

 Bond lengths in Bohr (Angstrom)

 1-2  1.997504972  2-3  2.291984036
     ( 1.057034110)     ( 1.212865720)

 Bond angles

  1-2-3  108.76195129

 NUCLEAR CHARGE:                   16
 NUMBER OF PRIMITIVE AOS:         506
 NUMBER OF SYMMETRY AOS:          371
 NUMBER OF CONTRACTIONS:          334   ( 204A'  + 130A"  )
 NUMBER OF CORE ORBITALS:           2   (   2A'  +   0A"  )
 NUMBER OF VALENCE ORBITALS:        9   (   7A'  +   2A"  )


 NUCLEAR REPULSION ENERGY   30.22884544


 Eigenvalues of metric

         1 0.114E-04 0.175E-04 0.642E-04 0.102E-03 0.106E-03 0.138E-03 0.201E-03 0.225E-03
         2 0.129E-03 0.370E-03 0.115E-02 0.162E-02 0.199E-02 0.257E-02 0.332E-02 0.398E-02


 Contracted 2-electron integrals neglected if value below      1.0D-22

      756977218. INTEGRALS WRITTEN OUT IN  184855 BLOCKS ON RECORD 1290 OF FILE 1


 NUMBER OF SORTED TWO-ELECTRON INTEGRALS:  789027325.     BUFFER LENGTH:  32768
 NUMBER OF SEGMENTS:  25  SEGMENT LENGTH:   31997130      RECORD LENGTH: 524288

 Memory used in sort:      32.55 MW

 SORT1 READ   756977218. AND WROTE   760993091. INTEGRALS IN   2189 RECORDS. CPU TIME:    28.40 SEC, REAL TIME:    35.19 SEC
 SORT2 READ   760993091. AND WROTE   789027325. INTEGRALS IN     25 RECORDS. CPU TIME:    11.40 SEC, REAL TIME:    15.88 SEC

 FILE SIZES:   FILE 1: 12137.5 MBYTE,  FILE 4:  9181.4 MBYTE,   TOTAL:  21318.9 MBYTE

 OPERATOR DM      FOR CENTER  0  COORDINATES:    0.000000    0.000000    0.000000


 **********************************************************************************************************************************
 DATASETS  * FILE   NREC   LENGTH (MB)   RECORD NAMES
              1      19     6374.22       500      610      700      900      950      970     1000      129      960     1100   
                                          VAR    BASINP    GEOM    SYMINP    ZMAT    AOBASIS   BASIS     P2S    ABASIS      S 
                                         1400     1410     1200     1210     1080     1600     1650     1300     1700   
                                           T        V       H0       H01     AOSYM     SMH    MOLCAS    ERIS     OPER   

 PROGRAMS   *        TOTAL       INT
 CPU TIMES  *       166.84    166.75
 REAL TIME  *       186.95 SEC
 DISK USED  *        21.32 GB      
 **********************************************************************************************************************************


 PROGRAM * RHF-SCF (CLOSED SHELL)       Authors: W. Meyer, H.-J. Werner


 NUMBER OF ELECTRONS:       8+    8-
 CONVERGENCE THRESHOLDS:    1.00E-10 (Density)    1.00E-13 (Energy)
 MAX. NUMBER OF ITERATIONS:      500
 INTERPOLATION TYPE:            DIIS
 INTERPOLATION STEPS:              2 (START)      1 (STEP)
 LEVEL SHIFTS:                  0.00 (CLOSED)  0.00 (OPEN) 



 Orbital guess generated from atomic densities. Full valence occupancy:    9   2

 Molecular orbital dump at record        2100.2

 Initial occupancy:   7   1

 ITERATION    DDIFF          GRAD             ENERGY        2-EL.EN.            DIPOLE MOMENTS         DIIS   ORB.
    1      0.000D+00      0.000D+00      -129.79666625    153.721448    0.00000    0.59939   -1.04701    0    start
    2      0.000D+00      0.646D-02      -129.82370353    154.940614    0.00000    0.61273   -0.20542    1    diag
    3      0.406D-02      0.499D-02      -129.84773595    155.077223    0.00000    0.55939   -0.60359    2    diag
    4      0.211D-02      0.775D-03      -129.84855598    154.787545    0.00000    0.56631   -0.54092    3    diag
    5      0.381D-03      0.251D-03      -129.84868495    154.882374    0.00000    0.57168   -0.54341    4    diag
    6      0.158D-03      0.729D-04      -129.84870566    154.865916    0.00000    0.57194   -0.53908    5    diag
    7      0.609D-04      0.365D-04      -129.84871175    154.868684    0.00000    0.57317   -0.53639    6    diag
    8      0.418D-04      0.131D-04      -129.84871248    154.867957    0.00000    0.57322   -0.53532    7    diag
    9      0.166D-04      0.255D-05      -129.84871251    154.867838    0.00000    0.57318   -0.53509    8    diag
   10      0.340D-05      0.573D-06      -129.84871251    154.867819    0.00000    0.57315   -0.53506    9    orth
   11      0.653D-06      0.114D-06      -129.84871251    154.867815    0.00000    0.57314   -0.53505    9    diag
   12      0.120D-06      0.233D-07      -129.84871251    154.867815    0.00000    0.57314   -0.53505    9    diag
   13      0.258D-07      0.621D-08      -129.84871251    154.867815    0.00000    0.57314   -0.53505    9    diag
   14      0.711D-08      0.121D-08      -129.84871251    154.867815    0.00000    0.57314   -0.53505    9    diag
   15      0.130D-08      0.341D-09      -129.84871251    154.867815    0.00000    0.57314   -0.53505    9    diag
   16      0.389D-09      0.101D-09      -129.84871251    154.867815    0.00000    0.57314   -0.53505    9    diag
   17      0.705D-10      0.257D-10      -129.84871251    154.867815    0.00000    0.57314   -0.53505    9    diag
   18      0.255D-10      0.868D-11      -129.84871251    154.867815    0.00000    0.57314   -0.53505    9    diag
   19      0.245D-10      0.208D-11      -129.84871251    154.867815    0.00000    0.57314   -0.53505    9    fixocc
   20      0.140D-10      0.664D-12      -129.84871251    154.867815    0.00000    0.57314   -0.53505    9    orth
   21      0.125D-10      0.481D-12      -129.84871251    154.867815    0.00000    0.57314   -0.53505    9    diag
   22      0.834D-11      0.282D-12      -129.84871251    154.867815    0.00000    0.57314   -0.53505    9    diag
   23      0.419D-11      0.370D-12      -129.84871251    154.867815    0.00000    0.57314   -0.53505    9    diag
   24      0.211D-11      0.284D-12      -129.84871251    154.867815    0.00000    0.57314   -0.53505    9    diag
   25      0.185D-11      0.213D-12      -129.84871251    154.867815    0.00000    0.57314   -0.53505    9    diag
   26      0.148D-11      0.269D-12      -129.84871251    154.867815    0.00000    0.57314   -0.53505    9    diag
   27      0.186D-11      0.281D-12      -129.84871251    154.867815    0.00000    0.57314   -0.53505    0    orth

 Final occupancy:   7   1

 !RHF STATE 1.1 Energy               -129.848712512884
 Nuclear energy                        30.22884544
 One-electron energy                 -237.51146524
 Two-electron energy                   77.43390729
 Virial quotient                       -1.00192191
 !RHF STATE 1.1 Dipole moment           0.00000000     0.57313817    -0.53505321
 Dipole moment /Debye                   0.00000000     1.45667652    -1.35988053

 Orbital energies:

         1.1          2.1          3.1          4.1          5.1          6.1          7.1          8.1          9.1
    -20.653643   -15.713580    -1.524961    -0.994612    -0.745118    -0.664807    -0.431378     0.022754     0.065535

         1.2          2.2          3.2
     -0.593727     0.059112     0.091204

 HOMO      7.1    -0.431378 =     -11.7384eV
 LUMO      8.1     0.022754 =       0.6192eV
 LUMO-HOMO         0.454132 =      12.3576eV


 **********************************************************************************************************************************
 DATASETS  * FILE   NREC   LENGTH (MB)   RECORD NAMES
              1      19     6374.22       500      610      700      900      950      970     1000      129      960     1100   
                                          VAR    BASINP    GEOM    SYMINP    ZMAT    AOBASIS   BASIS     P2S    ABASIS      S 
                                         1400     1410     1200     1210     1080     1600     1650     1300     1700   
                                           T        V       H0       H01     AOSYM     SMH    MOLCAS    ERIS     OPER   

              2       4        4.02       700     1000      520     2100   
                                         GEOM     BASIS   MCVARS     RHF  

 PROGRAMS   *        TOTAL        HF       INT
 CPU TIMES  *       303.31    136.47    166.75
 REAL TIME  *       356.63 SEC
 DISK USED  *        21.32 GB      
 **********************************************************************************************************************************


 PROGRAM * CCSD (Closed-shell coupled cluster)     Authors: C. Hampel, H.-J. Werner, 1991, M. Deegan, P.J. Knowles, 1992


 Convergence thresholds:  THRVAR = 1.00D-08  THRDEN = 1.00D-12

 CCSD(T)     terms to be evaluated (factor= 1.000)


 Number of core orbitals:           2 (   2   0 )
 Number of closed-shell orbitals:   6 (   5   1 )
 Number of external orbitals:     326 ( 197 129 )

 Molecular orbitals read from record     2100.2  Type=RHF/CANONICAL (state 1.1)

 Number of N-1 electron functions:               6
 Number of N-2 electron functions:              21
 Number of singly external CSFs:              1114
 Number of doubly external CSFs:            975958
 Total number of CSFs:                      977073

 Length of J-op  integral file:               0.00 MB
 Length of K-op  integral file:               4.07 MB
 Length of 3-ext integral record:             0.00 MB

 Memory could be reduced to 151.33 Mwords without degradation in triples

 Integral transformation finished. Total CPU:  17.12 sec, npass=  1  Memory used:  41.21 MW

 Reference energy:                   -129.84871251

 MP2 singlet pair energy:              -0.31177942
 MP2 triplet pair energy:              -0.17241747
 MP2 correlation energy:               -0.48419689
 MP2 total energy:                   -130.33290940

 SCS-MP2 correlation energy:           -0.48141729   (PS=  1.200000  PT=  0.333333)
 SCS-MP2 total energy:               -130.33012980

 ITER.      SQ.NORM     CORR.ENERGY   TOTAL ENERGY   ENERGY CHANGE        DEN1      VAR(S)    VAR(P)  DIIS     TIME  TIME/IT
   1      1.12129302    -0.48097972  -130.32969223     0.00321717     0.02015710  0.33D-02  0.33D-02  1  1    30.78    14.86
   2      1.13208692    -0.48081494  -130.32952745     0.00016478    -0.01284208  0.11D-03  0.50D-03  2  2    44.78    15.09
   3      1.13836780    -0.48120816  -130.32992067    -0.00039322    -0.00304043  0.50D-04  0.58D-04  3  3    58.61    15.17
   4      1.14123185    -0.48120552  -130.32991803     0.00000264    -0.00098923  0.48D-05  0.10D-04  4  4    72.56    15.21
   5      1.14241168    -0.48123589  -130.32994841    -0.00003038    -0.00026107  0.12D-05  0.17D-05  5  5    86.56    15.23
   6      1.14278169    -0.48122372  -130.32993623     0.00001217    -0.00005234  0.13D-06  0.41D-06  6  6   100.58    15.25
   7      1.14285979    -0.48122328  -130.32993580     0.00000044     0.00000349  0.18D-07  0.95D-07  6  1   114.58    15.27
   8      1.14288587    -0.48122326  -130.32993578     0.00000002    -0.00000321  0.35D-08  0.20D-07  6  2   128.48    15.28
   9      1.14289477    -0.48122266  -130.32993517     0.00000060    -0.00000015  0.23D-08  0.22D-08  6  3   142.39    15.28
  10      1.14289001    -0.48122343  -130.32993594    -0.00000077     0.00000162  0.37D-09  0.36D-09  6  5   156.37    15.29
  11      1.14289210    -0.48122341  -130.32993592     0.00000002    -0.00000038  0.11D-09  0.30D-10  6  4   170.32    15.29
  12      1.14289164    -0.48122348  -130.32993599    -0.00000007     0.00000005  0.20D-10  0.70D-11  6  6   184.34    15.30
  13      1.14289142    -0.48122348  -130.32993600    -0.00000000    -0.00000004  0.34D-11  0.10D-11  6  1   198.30    15.30
  14      1.14289113    -0.48122349  -130.32993601    -0.00000001     0.00000004  0.48D-12  0.19D-12  6  3   212.17    15.30
  15      1.14289105    -0.48122350  -130.32993601    -0.00000000     0.00000001  0.13D-12  0.25D-13  6  2   226.04    15.30
  16      1.14289103    -0.48122350  -130.32993601     0.00000000     0.00000000  0.35D-13  0.96D-14  6  4   239.93    15.31
  17      1.14289103    -0.48122350  -130.32993601    -0.00000000    -0.00000000  0.20D-14  0.12D-14  6  5   253.82    15.31
  18      1.14289104    -0.48122350  -130.32993601     0.00000000    -0.00000000  0.30D-15  0.32D-15  6  6   267.66    15.31
  19      1.14289104    -0.48122350  -130.32993601     0.00000000    -0.00000000  0.55D-16  0.43D-16  6  1   281.52    15.31
  20      1.14289105    -0.48122350  -130.32993601     0.00000000    -0.00000000  0.12D-16  0.66D-17  6  3   295.49    15.31
  21      1.14289104    -0.48122350  -130.32993601    -0.00000000     0.00000000  0.22D-17  0.12D-17  6  2   309.43    15.31
  22      1.14289104    -0.48122350  -130.32993601    -0.00000000     0.00000000  0.41D-18  0.18D-18  6  4   323.36    15.31
  23      1.14289104    -0.48122350  -130.32993601    -0.00000000     0.00000000  0.83D-19  0.47D-19  6  5   337.30    15.32
  24      1.14289104    -0.48122350  -130.32993601    -0.00000000     0.00000000  0.30D-19  0.19D-19  6  6   351.13    15.32
  25      1.14289104    -0.48122350  -130.32993601     0.00000000    -0.00000000  0.13D-19  0.77D-20  6  1   365.03    15.32

 Norm of t1 vector:      0.07742337      S-energy:    -0.00000000      T1 diagnostic:  0.01580398
                                                                       D1 diagnostic:  0.04290554

 Doubles amplitudes (print threshold =  0.500E-01):

         I         J         SYM. A    SYM. B    A         B      T(IJ, AB)

         6         6         2         2         1         1     -0.08299944
         6         6         2         2         1         2      0.05293135
         6         6         2         2         2         1      0.05293135


 Total CPU time for triples:    134.81 sec


 RESULTS
 =======

  Reference energy                   -129.848712512883
  CCSD singlet pair energy             -0.333941405696
  CCSD triplet pair energy             -0.147282091808
  CCSD correlation energy              -0.481223497507

  Triples (T) contribution             -0.023116413753
  Total correlation energy             -0.504339911260

  CCSD total energy                  -130.329936010390
  CCSD[T] energy                     -130.354160756051
  CCSD-T energy                      -130.352665393786
 !CCSD(T) total energy               -130.353052424143

 Timing summary (sec):

 STEP                 CPU(USER)    SYS     CPU(TOT)    WALL
 Transformation         17.19      1.91     19.10     19.11
 CCSD iterations       347.85     35.05    382.90    382.94
 Triples               134.81      2.37    137.18    137.20

 Program statistics:

 Available memory in ccsd:               994999756
 Min. memory needed in ccsd:               3348832
 Max. memory used in ccsd:                 4143652
 Max. memory used in cckext:               8340089 (25 integral passes)



 **********************************************************************************************************************************
 DATASETS  * FILE   NREC   LENGTH (MB)   RECORD NAMES
              1      20     6809.41       500      610      700      900      950      970     1000      129      960     1100   
                                          VAR    BASINP    GEOM    SYMINP    ZMAT    AOBASIS   BASIS     P2S    ABASIS      S 
                                         1400     1410     1200     1210     1080     1600     1650     1300     1700     1380   
                                           T        V       H0       H01     AOSYM     SMH    MOLCAS    ERIS     OPER     JKOP   

              2       4        4.02       700     1000      520     2100   
                                         GEOM     BASIS   MCVARS     RHF  

 PROGRAMS   *        TOTAL   CCSD(T)        HF       INT
 CPU TIMES  *       803.19    499.87    136.47    166.75
 REAL TIME  *       895.93 SEC
 DISK USED  *        21.32 GB      
 **********************************************************************************************************************************

 CCSD(T)/aug-cc-pV5Z energy=   -130.353052424143

        CCSD(T)         HF-SCF  
   -130.35305242   -129.84871251
 **********************************************************************************************************************************
 Molpro calculation terminated
 Variable memory released
