
 Primary working directories    : /tmp/r2666/282639.maple
 Secondary working directories  : /tmp/r2666/282639.maple
 Wavefunction directory         : /ddn/home4/r2666/wfu/
 Main file repository           : /tmp/r2666/282639.maple/

 SHA1      : d5ffa45e93fdbca01ffc919aa182cfdae0147319
 NAME      : 2015.1.35
 ARCHNAME  : linux/x86_64
 FC        : /opt/intel/composer_xe_2015.1.133/bin/intel64/ifort
 BLASLIB   : -Wl,-_start-group /opt/intel/mkl/lib/intel64/libmkl_intel_ilp64.a /opt/intel/mkl/lib/intel64/libmkl_intel_thread.a /opt/intel/mkl/lib/intel64/libmkl_core.a -Wl,-_end-group
 id        : olemiss

 Nodes     nprocs
 cn095        1

 Using customized tuning parameters: mindgm=1; mindgv=20; mindgc=4; mindgr=1; noblas=0; minvec=7
 default implementation of scratch files=df  

 ***,hno CCSD(T)/TZ-F12 QFF
 memory, 995, m;
 gthresh,energy=1.d-12,zero=1.d-22,oneint=1.d-22,twoint=1.d-22;
 gthresh,optgrad=1.d-8,optstep=1.d-8;
 nocompress;
 geomtyp=xyz
 bohr
 geometry={
 3
         20        20
 H        0.0000000000        1.6593518710       -1.9263638113
 N        0.0000000000       -0.1540844149       -1.1588767900
 O        0.0000000000        0.0365003339        1.1346510104
 }
 
 basis=vtz-dk
 dkroll=1
   {hf,maxit=500;accu,20;}
 {ccsd(t),nocheck,maxit=250;orbital,IGNORE_ERROR;}

 Variables initialized (889), CPU time= 0.01 sec
 Commands  initialized (702), CPU time= 0.02 sec, 572 directives.
 Default parameters read. Elapsed time= 0.05 sec

 Checking input...
 Passed
1


                                         ***  PROGRAM SYSTEM MOLPRO  ***
                                       Copyright, TTI GmbH Stuttgart, 2015
                                    Version 2015.1 linked Jul  9 2018 13:16:40


 **********************************************************************************************************************************
 LABEL *   hno CCSD(T)/TZ-F12 QFF                                                        
  64 bit serial version                                                                  DATE: 04-Mar-20          TIME: 13:51:07  
 **********************************************************************************************************************************

 SHA1:             d5ffa45e93fdbca01ffc919aa182cfdae0147319
 **********************************************************************************************************************************

 THRESHOLDS:

 ZERO    =  1.00D-22  ONEINT  =  1.00D-22  TWOINT  =  1.00D-22  PREFAC  =  1.00D-14  LOCALI  =  1.00D-09  EORDER  =  1.00D-04
 ENERGY  =  1.00D-12  ETEST   =  0.00D+00  EDENS   =  0.00D+00  THRDEDEF=  1.00D-06  GRADIENT=  1.00D-02  STEP    =  1.00D-03
 ORBITAL =  1.00D-05  CIVEC   =  1.00D-05  COEFF   =  1.00D-04  PRINTCI =  5.00D-02  PUNCHCI =  9.90D+01  OPTGRAD =  3.00D-04
 OPTENERG=  1.00D-06  OPTSTEP =  3.00D-04  THRGRAD =  1.00D-10  COMPRESS=  1.00D-11  VARMIN  =  1.00D-07  VARMAX  =  1.00D-03
 THRDOUB =  0.00D+00  THRDIV  =  1.00D-05  THRRED  =  1.00D-07  THRPSP  =  1.00D+00  THRDC   =  1.00D-10  THRCS   =  1.00D-10
 THRNRM  =  1.00D-08  THREQ   =  0.00D+00  THRDE   =  1.00D+00  THRREF  =  1.00D-05  SPARFAC =  1.00D+00  THRDLP  =  1.00D-07
 THRDIA  =  1.00D-10  THRDLS  =  1.00D-07  THRGPS  =  0.00D+00  THRKEX  =  0.00D+00  THRDIS  =  2.00D-01  THRVAR  =  1.00D-10
 THRLOC  =  1.00D-06  THRGAP  =  1.00D-06  THRLOCT = -1.00D+00  THRGAPT = -1.00D+00  THRORB  =  1.00D-06  THRMLTP =  0.00D+00
 THRCPQCI=  1.00D-10  KEXTA   =  0.00D+00  THRCOARS=  0.00D+00  SYMTOL  =  1.00D-06  GRADTOL =  1.00D-06  THROVL  =  1.00D-08
 THRORTH =  1.00D-08  GRID    =  1.00D-06  GRIDMAX =  1.00D-03  DTMAX   =  0.00D+00  THROCCDE=  1.00D-01  THROCCDE=  1.00D-01



 THRESHOLDS:

 ZERO    =  1.00D-22  ONEINT  =  1.00D-22  TWOINT  =  1.00D-22  PREFAC  =  1.00D-14  LOCALI  =  1.00D-09  EORDER  =  1.00D-04
 ENERGY  =  1.00D-12  ETEST   =  0.00D+00  EDENS   =  0.00D+00  THRDEDEF=  1.00D-06  GRADIENT=  1.00D-02  STEP    =  1.00D-03
 ORBITAL =  1.00D-05  CIVEC   =  1.00D-05  COEFF   =  1.00D-04  PRINTCI =  5.00D-02  PUNCHCI =  9.90D+01  OPTGRAD =  1.00D-08
 OPTENERG=  1.00D-06  OPTSTEP =  1.00D-08  THRGRAD =  1.00D-10  COMPRESS=  1.00D-11  VARMIN  =  1.00D-07  VARMAX  =  1.00D-03
 THRDOUB =  0.00D+00  THRDIV  =  1.00D-05  THRRED  =  1.00D-07  THRPSP  =  1.00D+00  THRDC   =  1.00D-10  THRCS   =  1.00D-10
 THRNRM  =  1.00D-08  THREQ   =  0.00D+00  THRDE   =  1.00D+00  THRREF  =  1.00D-05  SPARFAC =  1.00D+00  THRDLP  =  1.00D-07
 THRDIA  =  1.00D-10  THRDLS  =  1.00D-07  THRGPS  =  0.00D+00  THRKEX  =  0.00D+00  THRDIS  =  2.00D-01  THRVAR  =  1.00D-10
 THRLOC  =  1.00D-06  THRGAP  =  1.00D-06  THRLOCT = -1.00D+00  THRGAPT = -1.00D+00  THRORB  =  1.00D-06  THRMLTP =  0.00D+00
 THRCPQCI=  1.00D-10  KEXTA   =  0.00D+00  THRCOARS=  0.00D+00  SYMTOL  =  1.00D-06  GRADTOL =  1.00D-06  THROVL  =  1.00D-08
 THRORTH =  1.00D-08  GRID    =  1.00D-06  GRIDMAX =  1.00D-03  DTMAX   =  0.00D+00  THROCCDE=  1.00D-01  THROCCDE=  1.00D-01



 Input parameters for SORTINT:

 COMPRESS =    0.000000
 C_FINAL  =    1.000000
 DEBUG    =   -1.000000
 C_SORT1  =    0.000000
 C_SEWARD =    0.000000
 THRESH   =    0.000000
 IO       =  molpro                                                          
 SPRI     =    0.000000
 SETTING GEOMTYP        =    XYZ
 ZUNIT=BOHR
 

 Variable memory set to  995000000 words,  buffer space   230000 words

 SETTING BASIS          =    VTZ-DK
 SETTING DKROLL         =         1.00000000                                  


 Recomputing integrals since basis changed


 Using spherical harmonics

 Library entry H      S cc-pVTZ-DK           selected for orbital group  1
 Library entry H      P cc-pVTZ-DK           selected for orbital group  1
 Library entry H      D cc-pVTZ-DK           selected for orbital group  1
 Library entry N      S cc-pVTZ-DK           selected for orbital group  2
 Library entry N      P cc-pVTZ-DK           selected for orbital group  2
 Library entry N      D cc-pVTZ-DK           selected for orbital group  2
 Library entry N      F cc-pVTZ-DK           selected for orbital group  2
 Library entry O      S cc-pVTZ-DK           selected for orbital group  3
 Library entry O      P cc-pVTZ-DK           selected for orbital group  3
 Library entry O      D cc-pVTZ-DK           selected for orbital group  3
 Library entry O      F cc-pVTZ-DK           selected for orbital group  3


 PROGRAM * SEWARD (Integral evaluation for generally contracted gaussian basis sets)     Author: Roland Lindh, 1990

 Geometry written to block  1 of record 700


 Point group  Cs  



 ATOMIC COORDINATES

 NR  ATOM    CHARGE       X              Y              Z

   1  H       1.00    0.000000000    1.659351871   -1.926363811
   2  N       7.00    0.000000000   -0.154084415   -1.158876790
   3  O       8.00    0.000000000    0.036500334    1.134651010

 Bond lengths in Bohr (Angstrom)

 1-2  1.969159082  2-3  2.301432666
     ( 1.042034111)     ( 1.217865719)

 Bond angles

  1-2-3  108.18899349

 NUCLEAR CHARGE:                   16
 NUMBER OF PRIMITIVE AOS:         111
 NUMBER OF SYMMETRY AOS:          100
 NUMBER OF CONTRACTIONS:           74   (  50A'  +  24A"  )
 NUMBER OF CORE ORBITALS:           2   (   2A'  +   0A"  )
 NUMBER OF VALENCE ORBITALS:        9   (   7A'  +   2A"  )


 NUCLEAR REPULSION ENERGY   30.19655453

 One-electron integrals computed with SEWARD

 2nd-order Douglas-Kroll-Hess method activated. Optimal DKH parametrization is used.

 Computing Douglas-Kroll / X2C integrals


        1874283. INTEGRALS WRITTEN OUT IN     458 BLOCKS ON RECORD 1290 OF FILE 1


 NUMBER OF SORTED TWO-ELECTRON INTEGRALS:    2006100.     BUFFER LENGTH:  32768
 NUMBER OF SEGMENTS:   1  SEGMENT LENGTH:    2006100      RECORD LENGTH: 524288

 Memory used in sort:       2.56 MW

 SORT1 READ     1874283. AND WROTE     1914195. INTEGRALS IN      6 RECORDS. CPU TIME:     0.03 SEC, REAL TIME:     0.04 SEC
 SORT2 READ     1914195. AND WROTE     2006100. INTEGRALS IN      1 RECORDS. CPU TIME:     0.05 SEC, REAL TIME:     0.08 SEC

 FILE SIZES:   FILE 1:    50.2 MBYTE,  FILE 4:    25.2 MBYTE,   TOTAL:     75.4 MBYTE

 OPERATOR DM      FOR CENTER  0  COORDINATES:    0.000000    0.000000    0.000000

 Eigenvalues of metric

         1 0.245E-02 0.395E-02 0.431E-02 0.822E-02 0.128E-01 0.331E-01 0.430E-01 0.464E-01
         2 0.346E-01 0.465E-01 0.102E+00 0.110E+00 0.236E+00 0.338E+00 0.396E+00 0.451E+00


 **********************************************************************************************************************************
 DATASETS  * FILE   NREC   LENGTH (MB)   RECORD NAMES
              1      23       36.03       500      610      700      900      950      970     1000      129      960     1700   
                                          VAR    BASINP    GEOM    SYMINP    ZMAT    AOBASIS   BASIS     P2S    ABASIS    OPER   
                                         1101     1401     1411     1412     1650     1100     1400     1410     1200     1210   
                                          SR      EKINR    POTR     PVPR    MOLCAS      S      EKIN      POT      H0       H01  
                                         1300     1080     1600   
                                         ERIS     AOSYM     SMH  

 PROGRAMS   *        TOTAL       INT
 CPU TIMES  *         0.69      0.59
 REAL TIME  *         1.31 SEC
 DISK USED  *        75.75 MB      
 **********************************************************************************************************************************


 PROGRAM * RHF-SCF (CLOSED SHELL)       Authors: W. Meyer, H.-J. Werner


 NUMBER OF ELECTRONS:       8+    8-
 CONVERGENCE THRESHOLDS:    1.00E-10 (Density)    1.00E-13 (Energy)
 MAX. NUMBER OF ITERATIONS:      500
 INTERPOLATION TYPE:            DIIS
 INTERPOLATION STEPS:              2 (START)      1 (STEP)
 LEVEL SHIFTS:                  0.00 (CLOSED)  0.00 (OPEN) 



 Orbital guess generated from atomic densities. Full valence occupancy:    9   2

 Molecular orbital dump at record        2100.2

 Initial occupancy:   7   1

 ITERATION    DDIFF          GRAD             ENERGY        2-EL.EN.            DIPOLE MOMENTS         DIIS   ORB.
    1      0.000D+00      0.000D+00      -129.86538771    153.922028    0.00000    0.60104   -1.06982    0    start
    2      0.000D+00      0.137D-01      -129.89178993    155.003425    0.00000    0.62217   -0.21842    1    diag
    3      0.188D-01      0.107D-01      -129.91543749    155.157145    0.00000    0.57134   -0.61522    2    diag
    4      0.921D-02      0.157D-02      -129.91618908    154.886152    0.00000    0.57972   -0.55435    3    diag
    5      0.168D-02      0.519D-03      -129.91630511    154.971891    0.00000    0.58498   -0.55518    4    diag
    6      0.724D-03      0.154D-03      -129.91632429    154.956942    0.00000    0.58547   -0.55086    5    diag
    7      0.279D-03      0.783D-04      -129.91633014    154.959090    0.00000    0.58664   -0.54821    6    diag
    8      0.196D-03      0.259D-04      -129.91633076    154.958364    0.00000    0.58665   -0.54732    7    diag
    9      0.703D-04      0.472D-05      -129.91633078    154.958240    0.00000    0.58660   -0.54715    8    diag
   10      0.137D-04      0.102D-05      -129.91633078    154.958223    0.00000    0.58656   -0.54713    9    orth
   11      0.288D-05      0.198D-06      -129.91633078    154.958219    0.00000    0.58656   -0.54713    9    diag
   12      0.516D-06      0.427D-07      -129.91633078    154.958218    0.00000    0.58656   -0.54713    9    diag
   13      0.113D-06      0.109D-07      -129.91633078    154.958218    0.00000    0.58655   -0.54713    9    diag
   14      0.288D-07      0.199D-08      -129.91633078    154.958218    0.00000    0.58655   -0.54713    9    diag
   15      0.429D-08      0.511D-09      -129.91633078    154.958218    0.00000    0.58655   -0.54713    9    diag
   16      0.110D-08      0.129D-09      -129.91633078    154.958218    0.00000    0.58655   -0.54713    9    diag
   17      0.185D-09      0.372D-10      -129.91633078    154.958218    0.00000    0.58655   -0.54713    9    diag
   18      0.596D-10      0.130D-10      -129.91633078    154.958218    0.00000    0.58655   -0.54713    9    diag
   19      0.270D-10      0.276D-11      -129.91633078    154.958218    0.00000    0.58655   -0.54713    9    fixocc
   20      0.743D-11      0.546D-12      -129.91633078    154.958218    0.00000    0.58655   -0.54713    9    orth
   21      0.147D-11      0.150D-12      -129.91633078    154.958218    0.00000    0.58655   -0.54713    9    diag
   22      0.412D-12      0.344D-13      -129.91633078    154.958218    0.00000    0.58655   -0.54713    9    diag
   23      0.966D-13      0.210D-13      -129.91633078    154.958218    0.00000    0.58655   -0.54713    9    diag
   24      0.413D-13      0.164D-13      -129.91633078    154.958218    0.00000    0.58655   -0.54713    9    diag
   25      0.457D-13      0.182D-13      -129.91633078    154.958218    0.00000    0.58655   -0.54713    0    orth

 Final occupancy:   7   1

 !RHF STATE 1.1 Energy               -129.916330781714
 Nuclear energy                        30.19655453
 One-electron energy                 -237.59199416
 Two-electron energy                   77.47910885
 Virial quotient                       -0.99772713
 !RHF STATE 1.1 Dipole moment           0.00000000     0.58655492    -0.54712799
 Dipole moment /Debye                   0.00000000     1.49077626    -1.39056956

 Orbital energies:

         1.1          2.1          3.1          4.1          5.1          6.1          7.1          8.1          9.1
    -20.665811   -15.717135    -1.519500    -0.997027    -0.741137    -0.658902    -0.430313     0.144110     0.368096

         1.2          2.2          3.2
     -0.587063     0.082816     0.614169

 HOMO      7.1    -0.430313 =     -11.7094eV
 LUMO      2.2     0.082816 =       2.2535eV
 LUMO-HOMO         0.513129 =      13.9629eV


 **********************************************************************************************************************************
 DATASETS  * FILE   NREC   LENGTH (MB)   RECORD NAMES
              1      23       36.03       500      610      700      900      950      970     1000      129      960     1700   
                                          VAR    BASINP    GEOM    SYMINP    ZMAT    AOBASIS   BASIS     P2S    ABASIS    OPER   
                                         1101     1401     1411     1412     1650     1100     1400     1410     1200     1210   
                                          SR      EKINR    POTR     PVPR    MOLCAS      S      EKIN      POT      H0       H01  
                                         1300     1080     1600   
                                         ERIS     AOSYM     SMH  

              2       4        2.85       700     1000      520     2100   
                                         GEOM     BASIS   MCVARS     RHF  

 PROGRAMS   *        TOTAL        HF       INT
 CPU TIMES  *         0.99      0.30      0.59
 REAL TIME  *         1.71 SEC
 DISK USED  *        75.75 MB      
 **********************************************************************************************************************************


 PROGRAM * CCSD (Closed-shell coupled cluster)     Authors: C. Hampel, H.-J. Werner, 1991, M. Deegan, P.J. Knowles, 1992


 Convergence thresholds:  THRVAR = 1.00D-08  THRDEN = 1.00D-12

 CCSD(T)     terms to be evaluated (factor= 1.000)


 Number of core orbitals:           2 (   2   0 )
 Number of closed-shell orbitals:   6 (   5   1 )
 Number of external orbitals:      66 (  43  23 )

 Molecular orbitals read from record     2100.2  Type=RHF/CANONICAL (state 1.1)

 Number of N-1 electron functions:               6
 Number of N-2 electron functions:              21
 Number of singly external CSFs:               238
 Number of doubly external CSFs:             41002
 Total number of CSFs:                       41241

 Length of J-op  integral file:               0.00 MB
 Length of K-op  integral file:               0.25 MB
 Length of 3-ext integral record:             0.00 MB

 Memory could be reduced to 1.65 Mwords without degradation in triples

 Integral transformation finished. Total CPU:   0.03 sec, npass=  1  Memory used:   0.55 MW

 Reference energy:                   -129.91633078

 MP2 singlet pair energy:              -0.27459069
 MP2 triplet pair energy:              -0.16314717
 MP2 correlation energy:               -0.43773786
 MP2 total energy:                   -130.35406864

 SCS-MP2 correlation energy:           -0.43102262   (PS=  1.200000  PT=  0.333333)
 SCS-MP2 total energy:               -130.34735340

 ITER.      SQ.NORM     CORR.ENERGY   TOTAL ENERGY   ENERGY CHANGE        DEN1      VAR(S)    VAR(P)  DIIS     TIME  TIME/IT
   1      1.11921008    -0.44245097  -130.35878175    -0.00471311     0.01141349  0.30D-02  0.31D-02  1  1     0.08     0.05
   2      1.13023686    -0.44262814  -130.35895892    -0.00017717    -0.01247685  0.92D-04  0.51D-03  2  2     0.13     0.05
   3      1.13666267    -0.44302150  -130.35935228    -0.00039336    -0.00302341  0.48D-04  0.53D-04  3  3     0.17     0.05
   4      1.13956561    -0.44305010  -130.35938088    -0.00002860    -0.00098389  0.41D-05  0.92D-05  4  4     0.21     0.05
   5      1.14060308    -0.44308060  -130.35941139    -0.00003051    -0.00021494  0.13D-05  0.17D-05  5  5     0.25     0.05
   6      1.14097005    -0.44306302  -130.35939380     0.00001759    -0.00004218  0.89D-07  0.42D-06  6  6     0.28     0.05
   7      1.14105335    -0.44306544  -130.35939622    -0.00000242    -0.00000153  0.10D-07  0.93D-07  6  1     0.33     0.05
   8      1.14108348    -0.44306534  -130.35939612     0.00000010     0.00000211  0.48D-08  0.11D-07  6  2     0.37     0.05
   9      1.14109130    -0.44306517  -130.35939595     0.00000017    -0.00000238  0.26D-08  0.13D-08  6  3     0.42     0.05
  10      1.14108995    -0.44306568  -130.35939646    -0.00000051     0.00000070  0.49D-09  0.22D-09  6  4     0.46     0.05
  11      1.14108827    -0.44306574  -130.35939652    -0.00000006     0.00000013  0.15D-09  0.23D-10  6  5     0.50     0.05
  12      1.14108690    -0.44306592  -130.35939670    -0.00000018     0.00000043  0.14D-10  0.72D-11  6  6     0.53     0.05
  13      1.14108631    -0.44306593  -130.35939671    -0.00000001     0.00000012  0.61D-11  0.12D-11  6  1     0.57     0.05
  14      1.14108593    -0.44306595  -130.35939673    -0.00000002     0.00000008  0.87D-12  0.43D-12  6  2     0.62     0.05
  15      1.14108578    -0.44306595  -130.35939673    -0.00000000     0.00000002  0.23D-12  0.14D-12  6  3     0.66     0.05
  16      1.14108570    -0.44306595  -130.35939673    -0.00000000     0.00000001  0.14D-13  0.53D-13  6  4     0.70     0.05
  17      1.14108565    -0.44306595  -130.35939674    -0.00000000     0.00000001  0.24D-14  0.12D-13  6  5     0.75     0.05
  18      1.14108564    -0.44306595  -130.35939674     0.00000000     0.00000000  0.17D-14  0.32D-14  6  6     0.79     0.05
  19      1.14108564    -0.44306595  -130.35939674     0.00000000    -0.00000000  0.77D-15  0.36D-15  6  1     0.83     0.05
  20      1.14108564    -0.44306595  -130.35939673     0.00000000    -0.00000000  0.64D-16  0.64D-16  6  2     0.86     0.05
  21      1.14108564    -0.44306595  -130.35939673    -0.00000000     0.00000000  0.36D-16  0.11D-16  6  3     0.90     0.05
  22      1.14108564    -0.44306595  -130.35939673    -0.00000000     0.00000000  0.62D-17  0.22D-17  6  4     0.93     0.05
  23      1.14108564    -0.44306595  -130.35939673    -0.00000000     0.00000000  0.23D-17  0.37D-18  6  5     0.98     0.05
  24      1.14108564    -0.44306595  -130.35939673    -0.00000000    -0.00000000  0.23D-18  0.10D-18  6  6     1.02     0.05
  25      1.14108564    -0.44306595  -130.35939673     0.00000000    -0.00000000  0.69D-19  0.25D-19  6  2     1.07     0.05
  26      1.14108564    -0.44306595  -130.35939673     0.00000000    -0.00000000  0.17D-20  0.21D-20  6  1     1.10     0.05
  27      1.14108564    -0.44306595  -130.35939673     0.00000000    -0.00000000  0.35D-21  0.66D-21  6  3     1.14     0.05

 Norm of t1 vector:      0.07611124      S-energy:    -0.00000000      T1 diagnostic:  0.01553614
                                                                       D1 diagnostic:  0.04372178

 Doubles amplitudes (print threshold =  0.500E-01):

         I         J         SYM. A    SYM. B    A         B      T(IJ, AB)

         6         6         2         2         1         1     -0.14663852


 Total CPU time for triples:      0.26 sec


 RESULTS
 =======

  Reference energy                   -129.916330781713
  CCSD singlet pair energy             -0.303965660280
  CCSD triplet pair energy             -0.139100292773
  CCSD correlation energy              -0.443065953053

  Triples (T) contribution             -0.020031598403
  Total correlation energy             -0.463097551456

  CCSD total energy                  -130.359396734767
  CCSD[T] energy                     -130.380479643523
  CCSD-T energy                      -130.379023621460
 !CCSD(T) total energy               -130.379428333169

 Timing summary (sec):

 STEP                 CPU(USER)    SYS     CPU(TOT)    WALL
 Transformation          0.04      0.01      0.05      0.05
 CCSD iterations         1.11      0.18      1.29      1.29
 Triples                 0.26      0.02      0.28      0.28

 Program statistics:

 Available memory in ccsd:               994999756
 Min. memory needed in ccsd:                154850
 Max. memory used in ccsd:                  184802
 Max. memory used in cckext:                238416 (27 integral passes)



 **********************************************************************************************************************************
 DATASETS  * FILE   NREC   LENGTH (MB)   RECORD NAMES
              1      24       40.41       500      610      700      900      950      970     1000      129      960     1700   
                                          VAR    BASINP    GEOM    SYMINP    ZMAT    AOBASIS   BASIS     P2S    ABASIS    OPER   
                                         1101     1401     1411     1412     1650     1100     1400     1410     1200     1210   
                                          SR      EKINR    POTR     PVPR    MOLCAS      S      EKIN      POT      H0       H01  
                                         1300     1080     1600     1380   
                                         ERIS     AOSYM     SMH     JKOP   

              2       4        2.85       700     1000      520     2100   
                                         GEOM     BASIS   MCVARS     RHF  

 PROGRAMS   *        TOTAL   CCSD(T)        HF       INT
 CPU TIMES  *         2.41      1.42      0.30      0.59
 REAL TIME  *         3.37 SEC
 DISK USED  *        75.75 MB      
 **********************************************************************************************************************************

 CCSD(T)/cc-pVTZ-DK energy=   -130.379428333169

        CCSD(T)         HF-SCF  
   -130.37942833   -129.91633078
 **********************************************************************************************************************************
 Molpro calculation terminated
 Variable memory released
