
 Primary working directories    : /tmp/r2666/282736.maple
 Secondary working directories  : /tmp/r2666/282736.maple
 Wavefunction directory         : /ddn/home4/r2666/wfu/
 Main file repository           : /tmp/r2666/282736.maple/

 SHA1      : d5ffa45e93fdbca01ffc919aa182cfdae0147319
 NAME      : 2015.1.35
 ARCHNAME  : linux/x86_64
 FC        : /opt/intel/composer_xe_2015.1.133/bin/intel64/ifort
 BLASLIB   : -Wl,-_start-group /opt/intel/mkl/lib/intel64/libmkl_intel_ilp64.a /opt/intel/mkl/lib/intel64/libmkl_intel_thread.a /opt/intel/mkl/lib/intel64/libmkl_core.a -Wl,-_end-group
 id        : olemiss

 Nodes     nprocs
 cn053        1

 Using customized tuning parameters: mindgm=1; mindgv=20; mindgc=4; mindgr=1; noblas=0; minvec=7
 default implementation of scratch files=df  

 ***,hno CCSD(T)/TZ-F12 QFF
 memory, 995, m;
 gthresh,energy=1.d-12,zero=1.d-22,oneint=1.d-22,twoint=1.d-22;
 gthresh,optgrad=1.d-8,optstep=1.d-8;
 nocompress;
 geomtyp=xyz
 bohr
 geometry={
 3
        117       117
 H        0.0000000000        1.6759560788       -1.9363765767
 N        0.0000000000       -0.1679156208       -1.1439121195
 O        0.0000000000        0.0337273320        1.1296991052
 }
 
 basis=vtz-dk
 dkroll=1
   {hf,maxit=500;accu,20;}
 {ccsd(t),nocheck,maxit=250;orbital,IGNORE_ERROR;}

 Variables initialized (889), CPU time= 0.00 sec
 Commands  initialized (702), CPU time= 0.00 sec, 572 directives.
 Default parameters read. Elapsed time= 0.06 sec

 Checking input...
 Passed
1


                                         ***  PROGRAM SYSTEM MOLPRO  ***
                                       Copyright, TTI GmbH Stuttgart, 2015
                                    Version 2015.1 linked Jul  9 2018 13:16:40


 **********************************************************************************************************************************
 LABEL *   hno CCSD(T)/TZ-F12 QFF                                                        
  64 bit serial version                                                                  DATE: 04-Mar-20          TIME: 13:51:18  
 **********************************************************************************************************************************

 SHA1:             d5ffa45e93fdbca01ffc919aa182cfdae0147319
 **********************************************************************************************************************************

 THRESHOLDS:

 ZERO    =  1.00D-22  ONEINT  =  1.00D-22  TWOINT  =  1.00D-22  PREFAC  =  1.00D-14  LOCALI  =  1.00D-09  EORDER  =  1.00D-04
 ENERGY  =  1.00D-12  ETEST   =  0.00D+00  EDENS   =  0.00D+00  THRDEDEF=  1.00D-06  GRADIENT=  1.00D-02  STEP    =  1.00D-03
 ORBITAL =  1.00D-05  CIVEC   =  1.00D-05  COEFF   =  1.00D-04  PRINTCI =  5.00D-02  PUNCHCI =  9.90D+01  OPTGRAD =  3.00D-04
 OPTENERG=  1.00D-06  OPTSTEP =  3.00D-04  THRGRAD =  1.00D-10  COMPRESS=  1.00D-11  VARMIN  =  1.00D-07  VARMAX  =  1.00D-03
 THRDOUB =  0.00D+00  THRDIV  =  1.00D-05  THRRED  =  1.00D-07  THRPSP  =  1.00D+00  THRDC   =  1.00D-10  THRCS   =  1.00D-10
 THRNRM  =  1.00D-08  THREQ   =  0.00D+00  THRDE   =  1.00D+00  THRREF  =  1.00D-05  SPARFAC =  1.00D+00  THRDLP  =  1.00D-07
 THRDIA  =  1.00D-10  THRDLS  =  1.00D-07  THRGPS  =  0.00D+00  THRKEX  =  0.00D+00  THRDIS  =  2.00D-01  THRVAR  =  1.00D-10
 THRLOC  =  1.00D-06  THRGAP  =  1.00D-06  THRLOCT = -1.00D+00  THRGAPT = -1.00D+00  THRORB  =  1.00D-06  THRMLTP =  0.00D+00
 THRCPQCI=  1.00D-10  KEXTA   =  0.00D+00  THRCOARS=  0.00D+00  SYMTOL  =  1.00D-06  GRADTOL =  1.00D-06  THROVL  =  1.00D-08
 THRORTH =  1.00D-08  GRID    =  1.00D-06  GRIDMAX =  1.00D-03  DTMAX   =  0.00D+00  THROCCDE=  1.00D-01  THROCCDE=  1.00D-01



 THRESHOLDS:

 ZERO    =  1.00D-22  ONEINT  =  1.00D-22  TWOINT  =  1.00D-22  PREFAC  =  1.00D-14  LOCALI  =  1.00D-09  EORDER  =  1.00D-04
 ENERGY  =  1.00D-12  ETEST   =  0.00D+00  EDENS   =  0.00D+00  THRDEDEF=  1.00D-06  GRADIENT=  1.00D-02  STEP    =  1.00D-03
 ORBITAL =  1.00D-05  CIVEC   =  1.00D-05  COEFF   =  1.00D-04  PRINTCI =  5.00D-02  PUNCHCI =  9.90D+01  OPTGRAD =  1.00D-08
 OPTENERG=  1.00D-06  OPTSTEP =  1.00D-08  THRGRAD =  1.00D-10  COMPRESS=  1.00D-11  VARMIN  =  1.00D-07  VARMAX  =  1.00D-03
 THRDOUB =  0.00D+00  THRDIV  =  1.00D-05  THRRED  =  1.00D-07  THRPSP  =  1.00D+00  THRDC   =  1.00D-10  THRCS   =  1.00D-10
 THRNRM  =  1.00D-08  THREQ   =  0.00D+00  THRDE   =  1.00D+00  THRREF  =  1.00D-05  SPARFAC =  1.00D+00  THRDLP  =  1.00D-07
 THRDIA  =  1.00D-10  THRDLS  =  1.00D-07  THRGPS  =  0.00D+00  THRKEX  =  0.00D+00  THRDIS  =  2.00D-01  THRVAR  =  1.00D-10
 THRLOC  =  1.00D-06  THRGAP  =  1.00D-06  THRLOCT = -1.00D+00  THRGAPT = -1.00D+00  THRORB  =  1.00D-06  THRMLTP =  0.00D+00
 THRCPQCI=  1.00D-10  KEXTA   =  0.00D+00  THRCOARS=  0.00D+00  SYMTOL  =  1.00D-06  GRADTOL =  1.00D-06  THROVL  =  1.00D-08
 THRORTH =  1.00D-08  GRID    =  1.00D-06  GRIDMAX =  1.00D-03  DTMAX   =  0.00D+00  THROCCDE=  1.00D-01  THROCCDE=  1.00D-01



 Input parameters for SORTINT:

 COMPRESS =    0.000000
 C_FINAL  =    1.000000
 DEBUG    =   -1.000000
 C_SORT1  =    0.000000
 C_SEWARD =    0.000000
 THRESH   =    0.000000
 IO       =  molpro                                                          
 SPRI     =    0.000000
 SETTING GEOMTYP        =    XYZ
 ZUNIT=BOHR
 

 Variable memory set to  995000000 words,  buffer space   230000 words

 SETTING BASIS          =    VTZ-DK
 SETTING DKROLL         =         1.00000000                                  


 Recomputing integrals since basis changed


 Using spherical harmonics

 Library entry H      S cc-pVTZ-DK           selected for orbital group  1
 Library entry H      P cc-pVTZ-DK           selected for orbital group  1
 Library entry H      D cc-pVTZ-DK           selected for orbital group  1
 Library entry N      S cc-pVTZ-DK           selected for orbital group  2
 Library entry N      P cc-pVTZ-DK           selected for orbital group  2
 Library entry N      D cc-pVTZ-DK           selected for orbital group  2
 Library entry N      F cc-pVTZ-DK           selected for orbital group  2
 Library entry O      S cc-pVTZ-DK           selected for orbital group  3
 Library entry O      P cc-pVTZ-DK           selected for orbital group  3
 Library entry O      D cc-pVTZ-DK           selected for orbital group  3
 Library entry O      F cc-pVTZ-DK           selected for orbital group  3


 PROGRAM * SEWARD (Integral evaluation for generally contracted gaussian basis sets)     Author: Roland Lindh, 1990

 Geometry written to block  1 of record 700


 Point group  Cs  



 ATOMIC COORDINATES

 NR  ATOM    CHARGE       X              Y              Z

   1  H       1.00    0.000000000    1.675956079   -1.936376577
   2  N       7.00    0.000000000   -0.167915621   -1.143912119
   3  O       8.00    0.000000000    0.033727332    1.129699105

 Bond lengths in Bohr (Angstrom)

 1-2  2.006953602  2-3  2.282535406
     ( 1.062034110)     ( 1.207865720)

 Bond angles

  1-2-3  108.18899349

 NUCLEAR CHARGE:                   16
 NUMBER OF PRIMITIVE AOS:         111
 NUMBER OF SYMMETRY AOS:          100
 NUMBER OF CONTRACTIONS:           74   (  50A'  +  24A"  )
 NUMBER OF CORE ORBITALS:           2   (   2A'  +   0A"  )
 NUMBER OF VALENCE ORBITALS:        9   (   7A'  +   2A"  )


 NUCLEAR REPULSION ENERGY   30.32204797

 One-electron integrals computed with SEWARD

 2nd-order Douglas-Kroll-Hess method activated. Optimal DKH parametrization is used.

 Computing Douglas-Kroll / X2C integrals


        1874283. INTEGRALS WRITTEN OUT IN     458 BLOCKS ON RECORD 1290 OF FILE 1


 NUMBER OF SORTED TWO-ELECTRON INTEGRALS:    2006100.     BUFFER LENGTH:  32768
 NUMBER OF SEGMENTS:   1  SEGMENT LENGTH:    2006100      RECORD LENGTH: 524288

 Memory used in sort:       2.56 MW

 SORT1 READ     1874283. AND WROTE     1914195. INTEGRALS IN      6 RECORDS. CPU TIME:     0.06 SEC, REAL TIME:     0.08 SEC
 SORT2 READ     1914195. AND WROTE     2006100. INTEGRALS IN      1 RECORDS. CPU TIME:     0.06 SEC, REAL TIME:     0.07 SEC

 FILE SIZES:   FILE 1:    50.2 MBYTE,  FILE 4:    25.2 MBYTE,   TOTAL:     75.4 MBYTE

 OPERATOR DM      FOR CENTER  0  COORDINATES:    0.000000    0.000000    0.000000

 Eigenvalues of metric

         1 0.248E-02 0.401E-02 0.416E-02 0.854E-02 0.132E-01 0.329E-01 0.426E-01 0.464E-01
         2 0.344E-01 0.466E-01 0.102E+00 0.114E+00 0.236E+00 0.346E+00 0.397E+00 0.451E+00


 **********************************************************************************************************************************
 DATASETS  * FILE   NREC   LENGTH (MB)   RECORD NAMES
              1      23       36.03       500      610      700      900      950      970     1000      129      960     1700   
                                          VAR    BASINP    GEOM    SYMINP    ZMAT    AOBASIS   BASIS     P2S    ABASIS    OPER   
                                         1101     1401     1411     1412     1650     1100     1400     1410     1200     1210   
                                          SR      EKINR    POTR     PVPR    MOLCAS      S      EKIN      POT      H0       H01  
                                         1300     1080     1600   
                                         ERIS     AOSYM     SMH  

 PROGRAMS   *        TOTAL       INT
 CPU TIMES  *         0.87      0.77
 REAL TIME  *         1.69 SEC
 DISK USED  *        75.75 MB      
 **********************************************************************************************************************************


 PROGRAM * RHF-SCF (CLOSED SHELL)       Authors: W. Meyer, H.-J. Werner


 NUMBER OF ELECTRONS:       8+    8-
 CONVERGENCE THRESHOLDS:    1.00E-10 (Density)    1.00E-13 (Energy)
 MAX. NUMBER OF ITERATIONS:      500
 INTERPOLATION TYPE:            DIIS
 INTERPOLATION STEPS:              2 (START)      1 (STEP)
 LEVEL SHIFTS:                  0.00 (CLOSED)  0.00 (OPEN) 



 Orbital guess generated from atomic densities. Full valence occupancy:    9   2

 Molecular orbital dump at record        2100.2

 Initial occupancy:   7   1

 ITERATION    DDIFF          GRAD             ENERGY        2-EL.EN.            DIPOLE MOMENTS         DIIS   ORB.
    1      0.000D+00      0.000D+00      -129.86672644    154.133485    0.00000    0.58395   -1.04131    0    start
    2      0.000D+00      0.136D-01      -129.89344068    155.255369    0.00000    0.61353   -0.21643    1    diag
    3      0.186D-01      0.105D-01      -129.91629731    155.382878    0.00000    0.55927   -0.59937    2    diag
    4      0.909D-02      0.155D-02      -129.91703495    155.115937    0.00000    0.56763   -0.54008    3    diag
    5      0.166D-02      0.517D-03      -129.91715132    155.202314    0.00000    0.57312   -0.54114    4    diag
    6      0.722D-03      0.155D-03      -129.91717073    155.187202    0.00000    0.57365   -0.53691    5    diag
    7      0.281D-03      0.776D-04      -129.91717642    155.189535    0.00000    0.57490   -0.53439    6    diag
    8      0.194D-03      0.250D-04      -129.91717697    155.188838    0.00000    0.57492   -0.53357    7    diag
    9      0.662D-04      0.457D-05      -129.91717699    155.188718    0.00000    0.57487   -0.53341    8    diag
   10      0.128D-04      0.101D-05      -129.91717699    155.188700    0.00000    0.57483   -0.53339    9    orth
   11      0.283D-05      0.198D-06      -129.91717699    155.188695    0.00000    0.57483   -0.53338    9    diag
   12      0.520D-06      0.414D-07      -129.91717699    155.188694    0.00000    0.57482   -0.53338    9    diag
   13      0.115D-06      0.104D-07      -129.91717699    155.188694    0.00000    0.57482   -0.53338    9    diag
   14      0.290D-07      0.188D-08      -129.91717699    155.188694    0.00000    0.57482   -0.53338    9    diag
   15      0.459D-08      0.482D-09      -129.91717699    155.188694    0.00000    0.57482   -0.53338    9    diag
   16      0.110D-08      0.116D-09      -129.91717699    155.188694    0.00000    0.57482   -0.53338    9    diag
   17      0.191D-09      0.329D-10      -129.91717699    155.188694    0.00000    0.57482   -0.53338    9    diag
   18      0.579D-10      0.110D-10      -129.91717699    155.188694    0.00000    0.57482   -0.53338    0    orth

 Final occupancy:   7   1

 !RHF STATE 1.1 Energy               -129.917176990286
 Nuclear energy                        30.32204797
 One-electron energy                 -237.83357176
 Two-electron energy                   77.59434680
 Virial quotient                       -0.99767118
 !RHF STATE 1.1 Dipole moment           0.00000000     0.57482322    -0.53338061
 Dipole moment /Debye                   0.00000000     1.46095919    -1.35562949

 Orbital energies:

         1.1          2.1          3.1          4.1          5.1          6.1          7.1          8.1          9.1
    -20.665263   -15.718163    -1.527381    -0.989671    -0.741981    -0.661788    -0.426141     0.143386     0.369647

         1.2          2.2          3.2
     -0.592053     0.086491     0.613009

 HOMO      7.1    -0.426141 =     -11.5959eV
 LUMO      2.2     0.086491 =       2.3535eV
 LUMO-HOMO         0.512632 =      13.9494eV


 **********************************************************************************************************************************
 DATASETS  * FILE   NREC   LENGTH (MB)   RECORD NAMES
              1      23       36.03       500      610      700      900      950      970     1000      129      960     1700   
                                          VAR    BASINP    GEOM    SYMINP    ZMAT    AOBASIS   BASIS     P2S    ABASIS    OPER   
                                         1101     1401     1411     1412     1650     1100     1400     1410     1200     1210   
                                          SR      EKINR    POTR     PVPR    MOLCAS      S      EKIN      POT      H0       H01  
                                         1300     1080     1600   
                                         ERIS     AOSYM     SMH  

              2       4        2.85       700     1000      520     2100   
                                         GEOM     BASIS   MCVARS     RHF  

 PROGRAMS   *        TOTAL        HF       INT
 CPU TIMES  *         1.14      0.26      0.77
 REAL TIME  *         2.00 SEC
 DISK USED  *        75.75 MB      
 **********************************************************************************************************************************


 PROGRAM * CCSD (Closed-shell coupled cluster)     Authors: C. Hampel, H.-J. Werner, 1991, M. Deegan, P.J. Knowles, 1992


 Convergence thresholds:  THRVAR = 1.00D-08  THRDEN = 1.00D-12

 CCSD(T)     terms to be evaluated (factor= 1.000)


 Number of core orbitals:           2 (   2   0 )
 Number of closed-shell orbitals:   6 (   5   1 )
 Number of external orbitals:      66 (  43  23 )

 Molecular orbitals read from record     2100.2  Type=RHF/CANONICAL (state 1.1)

 Number of N-1 electron functions:               6
 Number of N-2 electron functions:              21
 Number of singly external CSFs:               238
 Number of doubly external CSFs:             41002
 Total number of CSFs:                       41241

 Length of J-op  integral file:               0.00 MB
 Length of K-op  integral file:               0.25 MB
 Length of 3-ext integral record:             0.00 MB

 Memory could be reduced to 1.65 Mwords without degradation in triples

 Integral transformation finished. Total CPU:   0.04 sec, npass=  1  Memory used:   0.55 MW

 Reference energy:                   -129.91717699

 MP2 singlet pair energy:              -0.27399623
 MP2 triplet pair energy:              -0.16271803
 MP2 correlation energy:               -0.43671426
 MP2 total energy:                   -130.35389125

 SCS-MP2 correlation energy:           -0.43004225   (PS=  1.200000  PT=  0.333333)
 SCS-MP2 total energy:               -130.34721924

 ITER.      SQ.NORM     CORR.ENERGY   TOTAL ENERGY   ENERGY CHANGE        DEN1      VAR(S)    VAR(P)  DIIS     TIME  TIME/IT
   1      1.11879432    -0.44176686  -130.35894385    -0.00505260     0.01082740  0.30D-02  0.30D-02  1  1     0.09     0.06
   2      1.12970399    -0.44201290  -130.35918989    -0.00024604    -0.01234046  0.89D-04  0.51D-03  2  2     0.15     0.06
   3      1.13604627    -0.44240536  -130.35958235    -0.00039246    -0.00300094  0.48D-04  0.51D-04  3  3     0.21     0.06
   4      1.13887084    -0.44243054  -130.35960753    -0.00002518    -0.00096524  0.42D-05  0.90D-05  4  4     0.26     0.06
   5      1.13988370    -0.44246067  -130.35963766    -0.00003013    -0.00021010  0.14D-05  0.16D-05  5  5     0.31     0.06
   6      1.14024820    -0.44244389  -130.35962088     0.00001678    -0.00004138  0.11D-06  0.40D-06  6  6     0.36     0.06
   7      1.14033555    -0.44244572  -130.35962271    -0.00000183    -0.00000222  0.13D-07  0.86D-07  6  1     0.42     0.06
   8      1.14036679    -0.44244569  -130.35962268     0.00000003     0.00000174  0.41D-08  0.11D-07  6  2     0.48     0.06
   9      1.14037490    -0.44244544  -130.35962243     0.00000025    -0.00000223  0.25D-08  0.12D-08  6  3     0.54     0.06
  10      1.14037372    -0.44244596  -130.35962295    -0.00000052     0.00000058  0.49D-09  0.21D-09  6  4     0.60     0.06
  11      1.14037195    -0.44244602  -130.35962301    -0.00000006     0.00000020  0.15D-09  0.24D-10  6  5     0.65     0.06
  12      1.14037053    -0.44244620  -130.35962319    -0.00000018     0.00000044  0.16D-10  0.79D-11  6  6     0.71     0.06
  13      1.14036989    -0.44244621  -130.35962320    -0.00000001     0.00000013  0.70D-11  0.13D-11  6  1     0.76     0.06
  14      1.14036948    -0.44244623  -130.35962322    -0.00000002     0.00000008  0.99D-12  0.44D-12  6  2     0.82     0.06
  15      1.14036934    -0.44244623  -130.35962322    -0.00000000     0.00000001  0.26D-12  0.14D-12  6  3     0.88     0.06
  16      1.14036922    -0.44244623  -130.35962322    -0.00000000     0.00000002  0.75D-14  0.37D-13  6  1     0.93     0.06
  17      1.14036921    -0.44244623  -130.35962322     0.00000000    -0.00000000  0.31D-14  0.26D-14  6  4     0.98     0.06
  18      1.14036920    -0.44244623  -130.35962322    -0.00000000     0.00000000  0.73D-15  0.46D-15  6  5     1.03     0.06
  19      1.14036920    -0.44244623  -130.35962322     0.00000000    -0.00000000  0.13D-15  0.86D-16  6  6     1.09     0.06
  20      1.14036920    -0.44244623  -130.35962322    -0.00000000     0.00000000  0.20D-16  0.20D-16  6  2     1.15     0.06
  21      1.14036920    -0.44244623  -130.35962322    -0.00000000     0.00000000  0.30D-17  0.25D-17  6  3     1.20     0.06
  22      1.14036920    -0.44244623  -130.35962322    -0.00000000     0.00000000  0.31D-18  0.40D-18  6  4     1.25     0.06
  23      1.14036920    -0.44244623  -130.35962322    -0.00000000     0.00000000  0.11D-18  0.32D-19  6  1     1.31     0.06
  24      1.14036920    -0.44244623  -130.35962322     0.00000000    -0.00000000  0.17D-19  0.12D-19  6  6     1.37     0.06
  25      1.14036920    -0.44244623  -130.35962322     0.00000000    -0.00000000  0.38D-20  0.75D-21  6  5     1.42     0.06
  26      1.14036920    -0.44244623  -130.35962322     0.00000000    -0.00000000  0.76D-21  0.29D-21  6  2     1.48     0.06
  27      1.14036920    -0.44244623  -130.35962322     0.00000000    -0.00000000  0.25D-22  0.17D-22  6  3     1.54     0.06

 Norm of t1 vector:      0.07560085      S-energy:     0.00000000      T1 diagnostic:  0.01543196
                                                                       D1 diagnostic:  0.04246811

 Doubles amplitudes (print threshold =  0.500E-01):

         I         J         SYM. A    SYM. B    A         B      T(IJ, AB)

         6         6         2         2         1         1     -0.14360049


 Total CPU time for triples:      0.40 sec


 RESULTS
 =======

  Reference energy                   -129.917176990286
  CCSD singlet pair energy             -0.303417355516
  CCSD triplet pair energy             -0.139028877464
  CCSD correlation energy              -0.442446232978

  Triples (T) contribution             -0.019854946580
  Total correlation energy             -0.462301179558

  CCSD total energy                  -130.359623223265
  CCSD[T] energy                     -130.380508283237
  CCSD-T energy                      -130.379075676098
 !CCSD(T) total energy               -130.379478169845

 Timing summary (sec):

 STEP                 CPU(USER)    SYS     CPU(TOT)    WALL
 Transformation          0.04      0.01      0.05      0.05
 CCSD iterations         1.50      0.26      1.76      1.77
 Triples                 0.40      0.02      0.42      0.41

 Program statistics:

 Available memory in ccsd:               994999756
 Min. memory needed in ccsd:                154850
 Max. memory used in ccsd:                  184802
 Max. memory used in cckext:                238416 (27 integral passes)



 **********************************************************************************************************************************
 DATASETS  * FILE   NREC   LENGTH (MB)   RECORD NAMES
              1      24       40.41       500      610      700      900      950      970     1000      129      960     1700   
                                          VAR    BASINP    GEOM    SYMINP    ZMAT    AOBASIS   BASIS     P2S    ABASIS    OPER   
                                         1101     1401     1411     1412     1650     1100     1400     1410     1200     1210   
                                          SR      EKINR    POTR     PVPR    MOLCAS      S      EKIN      POT      H0       H01  
                                         1300     1080     1600     1380   
                                         ERIS     AOSYM     SMH     JKOP   

              2       4        2.85       700     1000      520     2100   
                                         GEOM     BASIS   MCVARS     RHF  

 PROGRAMS   *        TOTAL   CCSD(T)        HF       INT
 CPU TIMES  *         3.10      1.97      0.26      0.77
 REAL TIME  *         4.27 SEC
 DISK USED  *        75.75 MB      
 **********************************************************************************************************************************

 CCSD(T)/cc-pVTZ-DK energy=   -130.379478169845

        CCSD(T)         HF-SCF  
   -130.37947817   -129.91717699
 **********************************************************************************************************************************
 Molpro calculation terminated
 Variable memory released
