
 Primary working directories    : /tmp/r2666/282625.maple
 Secondary working directories  : /tmp/r2666/282625.maple
 Wavefunction directory         : /ddn/home4/r2666/wfu/
 Main file repository           : /tmp/r2666/282625.maple/

 SHA1      : d5ffa45e93fdbca01ffc919aa182cfdae0147319
 NAME      : 2015.1.35
 ARCHNAME  : linux/x86_64
 FC        : /opt/intel/composer_xe_2015.1.133/bin/intel64/ifort
 BLASLIB   : -Wl,-_start-group /opt/intel/mkl/lib/intel64/libmkl_intel_ilp64.a /opt/intel/mkl/lib/intel64/libmkl_intel_thread.a /opt/intel/mkl/lib/intel64/libmkl_core.a -Wl,-_end-group
 id        : olemiss

 Nodes     nprocs
 cn074        1

 Using customized tuning parameters: mindgm=1; mindgv=20; mindgc=4; mindgr=1; noblas=0; minvec=7
 default implementation of scratch files=df  

 ***,hno CCSD(T)/TZ-F12 QFF
 memory, 995, m;
 gthresh,energy=1.d-12,zero=1.d-22,oneint=1.d-22,twoint=1.d-22;
 gthresh,optgrad=1.d-8,optstep=1.d-8;
 nocompress;
 geomtyp=xyz
 bohr
 geometry={
 3
          6         6
 H        0.0000000000        1.6534001358       -1.9219510022
 N        0.0000000000       -0.1486380909       -1.1518060249
 O        0.0000000000        0.0370057451        1.1231674361
 }
 
 basis=vtz-dk
 dkroll=1
   {hf,maxit=500;accu,20;}
 {ccsd(t),nocheck,maxit=250;orbital,IGNORE_ERROR;}

 Variables initialized (889), CPU time= 0.00 sec
 Commands  initialized (702), CPU time= 0.01 sec, 572 directives.
 Default parameters read. Elapsed time= 0.05 sec

 Checking input...
 Passed
1


                                         ***  PROGRAM SYSTEM MOLPRO  ***
                                       Copyright, TTI GmbH Stuttgart, 2015
                                    Version 2015.1 linked Jul  9 2018 13:16:40


 **********************************************************************************************************************************
 LABEL *   hno CCSD(T)/TZ-F12 QFF                                                        
  64 bit serial version                                                                  DATE: 04-Mar-20          TIME: 13:51:05  
 **********************************************************************************************************************************

 SHA1:             d5ffa45e93fdbca01ffc919aa182cfdae0147319
 **********************************************************************************************************************************

 THRESHOLDS:

 ZERO    =  1.00D-22  ONEINT  =  1.00D-22  TWOINT  =  1.00D-22  PREFAC  =  1.00D-14  LOCALI  =  1.00D-09  EORDER  =  1.00D-04
 ENERGY  =  1.00D-12  ETEST   =  0.00D+00  EDENS   =  0.00D+00  THRDEDEF=  1.00D-06  GRADIENT=  1.00D-02  STEP    =  1.00D-03
 ORBITAL =  1.00D-05  CIVEC   =  1.00D-05  COEFF   =  1.00D-04  PRINTCI =  5.00D-02  PUNCHCI =  9.90D+01  OPTGRAD =  3.00D-04
 OPTENERG=  1.00D-06  OPTSTEP =  3.00D-04  THRGRAD =  1.00D-10  COMPRESS=  1.00D-11  VARMIN  =  1.00D-07  VARMAX  =  1.00D-03
 THRDOUB =  0.00D+00  THRDIV  =  1.00D-05  THRRED  =  1.00D-07  THRPSP  =  1.00D+00  THRDC   =  1.00D-10  THRCS   =  1.00D-10
 THRNRM  =  1.00D-08  THREQ   =  0.00D+00  THRDE   =  1.00D+00  THRREF  =  1.00D-05  SPARFAC =  1.00D+00  THRDLP  =  1.00D-07
 THRDIA  =  1.00D-10  THRDLS  =  1.00D-07  THRGPS  =  0.00D+00  THRKEX  =  0.00D+00  THRDIS  =  2.00D-01  THRVAR  =  1.00D-10
 THRLOC  =  1.00D-06  THRGAP  =  1.00D-06  THRLOCT = -1.00D+00  THRGAPT = -1.00D+00  THRORB  =  1.00D-06  THRMLTP =  0.00D+00
 THRCPQCI=  1.00D-10  KEXTA   =  0.00D+00  THRCOARS=  0.00D+00  SYMTOL  =  1.00D-06  GRADTOL =  1.00D-06  THROVL  =  1.00D-08
 THRORTH =  1.00D-08  GRID    =  1.00D-06  GRIDMAX =  1.00D-03  DTMAX   =  0.00D+00  THROCCDE=  1.00D-01  THROCCDE=  1.00D-01



 THRESHOLDS:

 ZERO    =  1.00D-22  ONEINT  =  1.00D-22  TWOINT  =  1.00D-22  PREFAC  =  1.00D-14  LOCALI  =  1.00D-09  EORDER  =  1.00D-04
 ENERGY  =  1.00D-12  ETEST   =  0.00D+00  EDENS   =  0.00D+00  THRDEDEF=  1.00D-06  GRADIENT=  1.00D-02  STEP    =  1.00D-03
 ORBITAL =  1.00D-05  CIVEC   =  1.00D-05  COEFF   =  1.00D-04  PRINTCI =  5.00D-02  PUNCHCI =  9.90D+01  OPTGRAD =  1.00D-08
 OPTENERG=  1.00D-06  OPTSTEP =  1.00D-08  THRGRAD =  1.00D-10  COMPRESS=  1.00D-11  VARMIN  =  1.00D-07  VARMAX  =  1.00D-03
 THRDOUB =  0.00D+00  THRDIV  =  1.00D-05  THRRED  =  1.00D-07  THRPSP  =  1.00D+00  THRDC   =  1.00D-10  THRCS   =  1.00D-10
 THRNRM  =  1.00D-08  THREQ   =  0.00D+00  THRDE   =  1.00D+00  THRREF  =  1.00D-05  SPARFAC =  1.00D+00  THRDLP  =  1.00D-07
 THRDIA  =  1.00D-10  THRDLS  =  1.00D-07  THRGPS  =  0.00D+00  THRKEX  =  0.00D+00  THRDIS  =  2.00D-01  THRVAR  =  1.00D-10
 THRLOC  =  1.00D-06  THRGAP  =  1.00D-06  THRLOCT = -1.00D+00  THRGAPT = -1.00D+00  THRORB  =  1.00D-06  THRMLTP =  0.00D+00
 THRCPQCI=  1.00D-10  KEXTA   =  0.00D+00  THRCOARS=  0.00D+00  SYMTOL  =  1.00D-06  GRADTOL =  1.00D-06  THROVL  =  1.00D-08
 THRORTH =  1.00D-08  GRID    =  1.00D-06  GRIDMAX =  1.00D-03  DTMAX   =  0.00D+00  THROCCDE=  1.00D-01  THROCCDE=  1.00D-01



 Input parameters for SORTINT:

 COMPRESS =    0.000000
 C_FINAL  =    1.000000
 DEBUG    =   -1.000000
 C_SORT1  =    0.000000
 C_SEWARD =    0.000000
 THRESH   =    0.000000
 IO       =  molpro                                                          
 SPRI     =    0.000000
 SETTING GEOMTYP        =    XYZ
 ZUNIT=BOHR
 

 Variable memory set to  995000000 words,  buffer space   230000 words

 SETTING BASIS          =    VTZ-DK
 SETTING DKROLL         =         1.00000000                                  


 Recomputing integrals since basis changed


 Using spherical harmonics

 Library entry H      S cc-pVTZ-DK           selected for orbital group  1
 Library entry H      P cc-pVTZ-DK           selected for orbital group  1
 Library entry H      D cc-pVTZ-DK           selected for orbital group  1
 Library entry N      S cc-pVTZ-DK           selected for orbital group  2
 Library entry N      P cc-pVTZ-DK           selected for orbital group  2
 Library entry N      D cc-pVTZ-DK           selected for orbital group  2
 Library entry N      F cc-pVTZ-DK           selected for orbital group  2
 Library entry O      S cc-pVTZ-DK           selected for orbital group  3
 Library entry O      P cc-pVTZ-DK           selected for orbital group  3
 Library entry O      D cc-pVTZ-DK           selected for orbital group  3
 Library entry O      F cc-pVTZ-DK           selected for orbital group  3


 PROGRAM * SEWARD (Integral evaluation for generally contracted gaussian basis sets)     Author: Roland Lindh, 1990

 Geometry written to block  1 of record 700


 Point group  Cs  



 ATOMIC COORDINATES

 NR  ATOM    CHARGE       X              Y              Z

   1  H       1.00    0.000000000    1.653400136   -1.921951002
   2  N       7.00    0.000000000   -0.148638091   -1.151806025
   3  O       8.00    0.000000000    0.037005745    1.123167436

 Bond lengths in Bohr (Angstrom)

 1-2  1.959710452  2-3  2.282535407
     ( 1.037034111)     ( 1.207865720)

 Bond angles

  1-2-3  108.47547239

 NUCLEAR CHARGE:                   16
 NUMBER OF PRIMITIVE AOS:         111
 NUMBER OF SYMMETRY AOS:          100
 NUMBER OF CONTRACTIONS:           74   (  50A'  +  24A"  )
 NUMBER OF CORE ORBITALS:           2   (   2A'  +   0A"  )
 NUMBER OF VALENCE ORBITALS:        9   (   7A'  +   2A"  )


 NUCLEAR REPULSION ENERGY   30.42657787

 One-electron integrals computed with SEWARD

 2nd-order Douglas-Kroll-Hess method activated. Optimal DKH parametrization is used.

 Computing Douglas-Kroll / X2C integrals


        1874283. INTEGRALS WRITTEN OUT IN     458 BLOCKS ON RECORD 1290 OF FILE 1


 NUMBER OF SORTED TWO-ELECTRON INTEGRALS:    2006100.     BUFFER LENGTH:  32768
 NUMBER OF SEGMENTS:   1  SEGMENT LENGTH:    2006100      RECORD LENGTH: 524288

 Memory used in sort:       2.56 MW

 SORT1 READ     1874283. AND WROTE     1914195. INTEGRALS IN      6 RECORDS. CPU TIME:     0.04 SEC, REAL TIME:     0.05 SEC
 SORT2 READ     1914195. AND WROTE     2006100. INTEGRALS IN      1 RECORDS. CPU TIME:     0.05 SEC, REAL TIME:     0.07 SEC

 FILE SIZES:   FILE 1:    50.2 MBYTE,  FILE 4:    25.2 MBYTE,   TOTAL:     75.4 MBYTE

 OPERATOR DM      FOR CENTER  0  COORDINATES:    0.000000    0.000000    0.000000

 Eigenvalues of metric

         1 0.240E-02 0.390E-02 0.414E-02 0.807E-02 0.127E-01 0.324E-01 0.425E-01 0.462E-01
         2 0.341E-01 0.463E-01 0.101E+00 0.108E+00 0.232E+00 0.336E+00 0.393E+00 0.448E+00


 **********************************************************************************************************************************
 DATASETS  * FILE   NREC   LENGTH (MB)   RECORD NAMES
              1      23       36.03       500      610      700      900      950      970     1000      129      960     1700   
                                          VAR    BASINP    GEOM    SYMINP    ZMAT    AOBASIS   BASIS     P2S    ABASIS    OPER   
                                         1101     1401     1411     1412     1650     1100     1400     1410     1200     1210   
                                          SR      EKINR    POTR     PVPR    MOLCAS      S      EKIN      POT      H0       H01  
                                         1300     1080     1600   
                                         ERIS     AOSYM     SMH  

 PROGRAMS   *        TOTAL       INT
 CPU TIMES  *         0.64      0.55
 REAL TIME  *         1.15 SEC
 DISK USED  *        75.75 MB      
 **********************************************************************************************************************************


 PROGRAM * RHF-SCF (CLOSED SHELL)       Authors: W. Meyer, H.-J. Werner


 NUMBER OF ELECTRONS:       8+    8-
 CONVERGENCE THRESHOLDS:    1.00E-10 (Density)    1.00E-13 (Energy)
 MAX. NUMBER OF ITERATIONS:      500
 INTERPOLATION TYPE:            DIIS
 INTERPOLATION STEPS:              2 (START)      1 (STEP)
 LEVEL SHIFTS:                  0.00 (CLOSED)  0.00 (OPEN) 



 Orbital guess generated from atomic densities. Full valence occupancy:    9   2

 Molecular orbital dump at record        2100.2

 Initial occupancy:   7   1

 ITERATION    DDIFF          GRAD             ENERGY        2-EL.EN.            DIPOLE MOMENTS         DIIS   ORB.
    1      0.000D+00      0.000D+00      -129.86867979    154.337473    0.00000    0.60228   -1.03805    0    start
    2      0.000D+00      0.135D-01      -129.89541093    155.433694    0.00000    0.61624   -0.22774    1    diag
    3      0.184D-01      0.102D-01      -129.91712070    155.567522    0.00000    0.56952   -0.60303    2    diag
    4      0.891D-02      0.156D-02      -129.91785414    155.303771    0.00000    0.57799   -0.54364    3    diag
    5      0.166D-02      0.510D-03      -129.91796568    155.388379    0.00000    0.58321   -0.54467    4    diag
    6      0.711D-03      0.151D-03      -129.91798397    155.373659    0.00000    0.58375   -0.54055    5    diag
    7      0.274D-03      0.760D-04      -129.91798940    155.375893    0.00000    0.58494   -0.53804    6    diag
    8      0.190D-03      0.243D-04      -129.91798991    155.375218    0.00000    0.58495   -0.53723    7    diag
    9      0.645D-04      0.439D-05      -129.91798994    155.375105    0.00000    0.58490   -0.53708    8    diag
   10      0.124D-04      0.971D-06      -129.91798994    155.375088    0.00000    0.58486   -0.53706    9    orth
   11      0.278D-05      0.189D-06      -129.91798994    155.375085    0.00000    0.58486   -0.53705    9    diag
   12      0.500D-06      0.393D-07      -129.91798994    155.375083    0.00000    0.58485   -0.53705    9    diag
   13      0.107D-06      0.973D-08      -129.91798994    155.375083    0.00000    0.58485   -0.53705    9    diag
   14      0.265D-07      0.176D-08      -129.91798994    155.375083    0.00000    0.58485   -0.53705    9    diag
   15      0.413D-08      0.449D-09      -129.91798994    155.375083    0.00000    0.58485   -0.53705    9    diag
   16      0.100D-08      0.107D-09      -129.91798994    155.375083    0.00000    0.58485   -0.53705    9    diag
   17      0.163D-09      0.281D-10      -129.91798994    155.375083    0.00000    0.58485   -0.53705    9    diag
   18      0.448D-10      0.887D-11      -129.91798994    155.375083    0.00000    0.58485   -0.53705    0    orth

 Final occupancy:   7   1

 !RHF STATE 1.1 Energy               -129.917989936854
 Nuclear energy                        30.42657787
 One-electron energy                 -238.03210937
 Two-electron energy                   77.68754156
 Virial quotient                       -0.99738018
 !RHF STATE 1.1 Dipole moment           0.00000000     0.58485427    -0.53705227
 Dipole moment /Debye                   0.00000000     1.48645392    -1.36496131

 Orbital energies:

         1.1          2.1          3.1          4.1          5.1          6.1          7.1          8.1          9.1
    -20.664796   -15.714637    -1.527478    -0.996156    -0.744667    -0.661796    -0.427376     0.144916     0.369575

         1.2          2.2          3.2
     -0.591606     0.086489     0.613115

 HOMO      7.1    -0.427376 =     -11.6295eV
 LUMO      2.2     0.086489 =       2.3535eV
 LUMO-HOMO         0.513866 =      13.9830eV


 **********************************************************************************************************************************
 DATASETS  * FILE   NREC   LENGTH (MB)   RECORD NAMES
              1      23       36.03       500      610      700      900      950      970     1000      129      960     1700   
                                          VAR    BASINP    GEOM    SYMINP    ZMAT    AOBASIS   BASIS     P2S    ABASIS    OPER   
                                         1101     1401     1411     1412     1650     1100     1400     1410     1200     1210   
                                          SR      EKINR    POTR     PVPR    MOLCAS      S      EKIN      POT      H0       H01  
                                         1300     1080     1600   
                                         ERIS     AOSYM     SMH  

              2       4        2.85       700     1000      520     2100   
                                         GEOM     BASIS   MCVARS     RHF  

 PROGRAMS   *        TOTAL        HF       INT
 CPU TIMES  *         0.82      0.18      0.55
 REAL TIME  *         1.39 SEC
 DISK USED  *        75.75 MB      
 **********************************************************************************************************************************


 PROGRAM * CCSD (Closed-shell coupled cluster)     Authors: C. Hampel, H.-J. Werner, 1991, M. Deegan, P.J. Knowles, 1992


 Convergence thresholds:  THRVAR = 1.00D-08  THRDEN = 1.00D-12

 CCSD(T)     terms to be evaluated (factor= 1.000)


 Number of core orbitals:           2 (   2   0 )
 Number of closed-shell orbitals:   6 (   5   1 )
 Number of external orbitals:      66 (  43  23 )

 Molecular orbitals read from record     2100.2  Type=RHF/CANONICAL (state 1.1)

 Number of N-1 electron functions:               6
 Number of N-2 electron functions:              21
 Number of singly external CSFs:               238
 Number of doubly external CSFs:             41002
 Total number of CSFs:                       41241

 Length of J-op  integral file:               0.00 MB
 Length of K-op  integral file:               0.25 MB
 Length of 3-ext integral record:             0.00 MB

 Memory could be reduced to 1.65 Mwords without degradation in triples

 Integral transformation finished. Total CPU:   0.02 sec, npass=  1  Memory used:   0.55 MW

 Reference energy:                   -129.91798994

 MP2 singlet pair energy:              -0.27340854
 MP2 triplet pair energy:              -0.16238125
 MP2 correlation energy:               -0.43578979
 MP2 total energy:                   -130.35377973

 SCS-MP2 correlation energy:           -0.42912747   (PS=  1.200000  PT=  0.333333)
 SCS-MP2 total energy:               -130.34711741

 ITER.      SQ.NORM     CORR.ENERGY   TOTAL ENERGY   ENERGY CHANGE        DEN1      VAR(S)    VAR(P)  DIIS     TIME  TIME/IT
   1      1.11795725    -0.44089998  -130.35888992    -0.00511019     0.01055653  0.29D-02  0.30D-02  1  1     0.06     0.04
   2      1.12870433    -0.44115664  -130.35914658    -0.00025666    -0.01220820  0.86D-04  0.50D-03  2  2     0.09     0.04
   3      1.13488942    -0.44153148  -130.35952141    -0.00037484    -0.00294303  0.45D-04  0.50D-04  3  3     0.13     0.04
   4      1.13766304    -0.44155953  -130.35954947    -0.00002806    -0.00094823  0.37D-05  0.88D-05  4  4     0.16     0.04
   5      1.13863534    -0.44158786  -130.35957779    -0.00002833    -0.00020130  0.13D-05  0.17D-05  5  5     0.19     0.04
   6      1.13898635    -0.44157163  -130.35956157     0.00001623    -0.00003994  0.84D-07  0.42D-06  6  6     0.23     0.04
   7      1.13906957    -0.44157395  -130.35956389    -0.00000232    -0.00000187  0.99D-08  0.89D-07  6  1     0.27     0.04
   8      1.13909918    -0.44157398  -130.35956392    -0.00000003     0.00000215  0.49D-08  0.10D-07  6  2     0.30     0.04
   9      1.13910654    -0.44157385  -130.35956378     0.00000014    -0.00000235  0.25D-08  0.11D-08  6  3     0.32     0.04
  10      1.13910521    -0.44157433  -130.35956427    -0.00000049     0.00000068  0.48D-09  0.20D-09  6  4     0.35     0.04
  11      1.13910357    -0.44157439  -130.35956433    -0.00000006     0.00000014  0.14D-09  0.21D-10  6  5     0.38     0.04
  12      1.13910225    -0.44157456  -130.35956450    -0.00000017     0.00000042  0.14D-10  0.68D-11  6  6     0.42     0.04
  13      1.13910169    -0.44157457  -130.35956451    -0.00000001     0.00000012  0.60D-11  0.11D-11  6  1     0.45     0.04
  14      1.13910133    -0.44157459  -130.35956452    -0.00000002     0.00000007  0.84D-12  0.40D-12  6  2     0.49     0.04
  15      1.13910120    -0.44157459  -130.35956453    -0.00000000     0.00000001  0.21D-12  0.13D-12  6  3     0.51     0.04
  16      1.13910110    -0.44157459  -130.35956453    -0.00000000     0.00000001  0.23D-13  0.16D-13  6  5     0.54     0.04
  17      1.13910108    -0.44157459  -130.35956453    -0.00000000     0.00000000  0.74D-15  0.21D-14  6  4     0.58     0.04
  18      1.13910107    -0.44157459  -130.35956453     0.00000000    -0.00000000  0.49D-15  0.29D-15  6  1     0.61     0.04
  19      1.13910107    -0.44157459  -130.35956453    -0.00000000     0.00000000  0.49D-16  0.53D-16  6  6     0.64     0.04
  20      1.13910107    -0.44157459  -130.35956453    -0.00000000     0.00000000  0.11D-16  0.13D-16  6  2     0.66     0.04
  21      1.13910107    -0.44157459  -130.35956453    -0.00000000     0.00000000  0.17D-17  0.10D-17  6  5     0.69     0.04
  22      1.13910107    -0.44157459  -130.35956453    -0.00000000     0.00000000  0.10D-18  0.78D-19  6  3     0.73     0.04
  23      1.13910107    -0.44157459  -130.35956453     0.00000000    -0.00000000  0.29D-19  0.17D-19  6  4     0.77     0.04
  24      1.13910107    -0.44157459  -130.35956453     0.00000000    -0.00000000  0.43D-20  0.47D-20  6  1     0.80     0.04
  25      1.13910107    -0.44157459  -130.35956453     0.00000000    -0.00000000  0.51D-21  0.79D-21  6  6     0.84     0.04

 Norm of t1 vector:      0.07432091      S-energy:     0.00000000      T1 diagnostic:  0.01517069
                                                                       D1 diagnostic:  0.04241891

 Doubles amplitudes (print threshold =  0.500E-01):

         I         J         SYM. A    SYM. B    A         B      T(IJ, AB)

         6         6         2         2         1         1     -0.14389807


 Total CPU time for triples:      0.23 sec


 RESULTS
 =======

  Reference energy                   -129.917989936854
  CCSD singlet pair energy             -0.302668224599
  CCSD triplet pair energy             -0.138906367141
  CCSD correlation energy              -0.441574591738

  Triples (T) contribution             -0.019697676388
  Total correlation energy             -0.461272268126

  CCSD total energy                  -130.359564528592
  CCSD[T] energy                     -130.380266390422
  CCSD-T energy                      -130.378869713712
 !CCSD(T) total energy               -130.379262204980

 Timing summary (sec):

 STEP                 CPU(USER)    SYS     CPU(TOT)    WALL
 Transformation          0.02      0.01      0.03      0.03
 CCSD iterations         0.82      0.17      0.99      1.01
 Triples                 0.23      0.00      0.23      0.23

 Program statistics:

 Available memory in ccsd:               994999756
 Min. memory needed in ccsd:                154850
 Max. memory used in ccsd:                  184802
 Max. memory used in cckext:                238416 (25 integral passes)



 **********************************************************************************************************************************
 DATASETS  * FILE   NREC   LENGTH (MB)   RECORD NAMES
              1      24       40.41       500      610      700      900      950      970     1000      129      960     1700   
                                          VAR    BASINP    GEOM    SYMINP    ZMAT    AOBASIS   BASIS     P2S    ABASIS    OPER   
                                         1101     1401     1411     1412     1650     1100     1400     1410     1200     1210   
                                          SR      EKINR    POTR     PVPR    MOLCAS      S      EKIN      POT      H0       H01  
                                         1300     1080     1600     1380   
                                         ERIS     AOSYM     SMH     JKOP   

              2       4        2.85       700     1000      520     2100   
                                         GEOM     BASIS   MCVARS     RHF  

 PROGRAMS   *        TOTAL   CCSD(T)        HF       INT
 CPU TIMES  *         1.92      1.10      0.18      0.55
 REAL TIME  *         2.68 SEC
 DISK USED  *        75.75 MB      
 **********************************************************************************************************************************

 CCSD(T)/cc-pVTZ-DK energy=   -130.379262204980

        CCSD(T)         HF-SCF  
   -130.37926220   -129.91798994
 **********************************************************************************************************************************
 Molpro calculation terminated
 Variable memory released
