
 Primary working directories    : /tmp/r2666/282686.maple
 Secondary working directories  : /tmp/r2666/282686.maple
 Wavefunction directory         : /ddn/home4/r2666/wfu/
 Main file repository           : /tmp/r2666/282686.maple/

 SHA1      : d5ffa45e93fdbca01ffc919aa182cfdae0147319
 NAME      : 2015.1.35
 ARCHNAME  : linux/x86_64
 FC        : /opt/intel/composer_xe_2015.1.133/bin/intel64/ifort
 BLASLIB   : -Wl,-_start-group /opt/intel/mkl/lib/intel64/libmkl_intel_ilp64.a /opt/intel/mkl/lib/intel64/libmkl_intel_thread.a /opt/intel/mkl/lib/intel64/libmkl_core.a -Wl,-_end-group
 id        : olemiss

 Nodes     nprocs
 cn075        1

 Using customized tuning parameters: mindgm=1; mindgv=20; mindgc=4; mindgr=1; noblas=0; minvec=7
 default implementation of scratch files=df  

 ***,hno CCSD(T)/TZ-F12 QFF
 memory, 995, m;
 gthresh,energy=1.d-12,zero=1.d-22,oneint=1.d-22,twoint=1.d-22;
 gthresh,optgrad=1.d-8,optstep=1.d-8;
 nocompress;
 geomtyp=xyz
 bohr
 geometry={
 3
         67        67
 H        0.0000000000        1.6672585169       -1.9362713050
 N        0.0000000000       -0.1563626045       -1.1445806931
 O        0.0000000000        0.0308718777        1.1302624071
 }
 
 basis=vtz-dk
 dkroll=1
   {hf,maxit=500;accu,20;}
 {ccsd(t),nocheck,maxit=250;orbital,IGNORE_ERROR;}

 Variables initialized (889), CPU time= 0.01 sec
 Commands  initialized (702), CPU time= 0.01 sec, 572 directives.
 Default parameters read. Elapsed time= 0.05 sec

 Checking input...
 Passed
1


                                         ***  PROGRAM SYSTEM MOLPRO  ***
                                       Copyright, TTI GmbH Stuttgart, 2015
                                    Version 2015.1 linked Jul  9 2018 13:16:40


 **********************************************************************************************************************************
 LABEL *   hno CCSD(T)/TZ-F12 QFF                                                        
  64 bit serial version                                                                  DATE: 04-Mar-20          TIME: 13:51:12  
 **********************************************************************************************************************************

 SHA1:             d5ffa45e93fdbca01ffc919aa182cfdae0147319
 **********************************************************************************************************************************

 THRESHOLDS:

 ZERO    =  1.00D-22  ONEINT  =  1.00D-22  TWOINT  =  1.00D-22  PREFAC  =  1.00D-14  LOCALI  =  1.00D-09  EORDER  =  1.00D-04
 ENERGY  =  1.00D-12  ETEST   =  0.00D+00  EDENS   =  0.00D+00  THRDEDEF=  1.00D-06  GRADIENT=  1.00D-02  STEP    =  1.00D-03
 ORBITAL =  1.00D-05  CIVEC   =  1.00D-05  COEFF   =  1.00D-04  PRINTCI =  5.00D-02  PUNCHCI =  9.90D+01  OPTGRAD =  3.00D-04
 OPTENERG=  1.00D-06  OPTSTEP =  3.00D-04  THRGRAD =  1.00D-10  COMPRESS=  1.00D-11  VARMIN  =  1.00D-07  VARMAX  =  1.00D-03
 THRDOUB =  0.00D+00  THRDIV  =  1.00D-05  THRRED  =  1.00D-07  THRPSP  =  1.00D+00  THRDC   =  1.00D-10  THRCS   =  1.00D-10
 THRNRM  =  1.00D-08  THREQ   =  0.00D+00  THRDE   =  1.00D+00  THRREF  =  1.00D-05  SPARFAC =  1.00D+00  THRDLP  =  1.00D-07
 THRDIA  =  1.00D-10  THRDLS  =  1.00D-07  THRGPS  =  0.00D+00  THRKEX  =  0.00D+00  THRDIS  =  2.00D-01  THRVAR  =  1.00D-10
 THRLOC  =  1.00D-06  THRGAP  =  1.00D-06  THRLOCT = -1.00D+00  THRGAPT = -1.00D+00  THRORB  =  1.00D-06  THRMLTP =  0.00D+00
 THRCPQCI=  1.00D-10  KEXTA   =  0.00D+00  THRCOARS=  0.00D+00  SYMTOL  =  1.00D-06  GRADTOL =  1.00D-06  THROVL  =  1.00D-08
 THRORTH =  1.00D-08  GRID    =  1.00D-06  GRIDMAX =  1.00D-03  DTMAX   =  0.00D+00  THROCCDE=  1.00D-01  THROCCDE=  1.00D-01



 THRESHOLDS:

 ZERO    =  1.00D-22  ONEINT  =  1.00D-22  TWOINT  =  1.00D-22  PREFAC  =  1.00D-14  LOCALI  =  1.00D-09  EORDER  =  1.00D-04
 ENERGY  =  1.00D-12  ETEST   =  0.00D+00  EDENS   =  0.00D+00  THRDEDEF=  1.00D-06  GRADIENT=  1.00D-02  STEP    =  1.00D-03
 ORBITAL =  1.00D-05  CIVEC   =  1.00D-05  COEFF   =  1.00D-04  PRINTCI =  5.00D-02  PUNCHCI =  9.90D+01  OPTGRAD =  1.00D-08
 OPTENERG=  1.00D-06  OPTSTEP =  1.00D-08  THRGRAD =  1.00D-10  COMPRESS=  1.00D-11  VARMIN  =  1.00D-07  VARMAX  =  1.00D-03
 THRDOUB =  0.00D+00  THRDIV  =  1.00D-05  THRRED  =  1.00D-07  THRPSP  =  1.00D+00  THRDC   =  1.00D-10  THRCS   =  1.00D-10
 THRNRM  =  1.00D-08  THREQ   =  0.00D+00  THRDE   =  1.00D+00  THRREF  =  1.00D-05  SPARFAC =  1.00D+00  THRDLP  =  1.00D-07
 THRDIA  =  1.00D-10  THRDLS  =  1.00D-07  THRGPS  =  0.00D+00  THRKEX  =  0.00D+00  THRDIS  =  2.00D-01  THRVAR  =  1.00D-10
 THRLOC  =  1.00D-06  THRGAP  =  1.00D-06  THRLOCT = -1.00D+00  THRGAPT = -1.00D+00  THRORB  =  1.00D-06  THRMLTP =  0.00D+00
 THRCPQCI=  1.00D-10  KEXTA   =  0.00D+00  THRCOARS=  0.00D+00  SYMTOL  =  1.00D-06  GRADTOL =  1.00D-06  THROVL  =  1.00D-08
 THRORTH =  1.00D-08  GRID    =  1.00D-06  GRIDMAX =  1.00D-03  DTMAX   =  0.00D+00  THROCCDE=  1.00D-01  THROCCDE=  1.00D-01



 Input parameters for SORTINT:

 COMPRESS =    0.000000
 C_FINAL  =    1.000000
 DEBUG    =   -1.000000
 C_SORT1  =    0.000000
 C_SEWARD =    0.000000
 THRESH   =    0.000000
 IO       =  molpro                                                          
 SPRI     =    0.000000
 SETTING GEOMTYP        =    XYZ
 ZUNIT=BOHR
 

 Variable memory set to  995000000 words,  buffer space   230000 words

 SETTING BASIS          =    VTZ-DK
 SETTING DKROLL         =         1.00000000                                  


 Recomputing integrals since basis changed


 Using spherical harmonics

 Library entry H      S cc-pVTZ-DK           selected for orbital group  1
 Library entry H      P cc-pVTZ-DK           selected for orbital group  1
 Library entry H      D cc-pVTZ-DK           selected for orbital group  1
 Library entry N      S cc-pVTZ-DK           selected for orbital group  2
 Library entry N      P cc-pVTZ-DK           selected for orbital group  2
 Library entry N      D cc-pVTZ-DK           selected for orbital group  2
 Library entry N      F cc-pVTZ-DK           selected for orbital group  2
 Library entry O      S cc-pVTZ-DK           selected for orbital group  3
 Library entry O      P cc-pVTZ-DK           selected for orbital group  3
 Library entry O      D cc-pVTZ-DK           selected for orbital group  3
 Library entry O      F cc-pVTZ-DK           selected for orbital group  3


 PROGRAM * SEWARD (Integral evaluation for generally contracted gaussian basis sets)     Author: Roland Lindh, 1990

 Geometry written to block  1 of record 700


 Point group  Cs  



 ATOMIC COORDINATES

 NR  ATOM    CHARGE       X              Y              Z

   1  H       1.00    0.000000000    1.667258517   -1.936271305
   2  N       7.00    0.000000000   -0.156362605   -1.144580693
   3  O       8.00    0.000000000    0.030871878    1.130262407

 Bond lengths in Bohr (Angstrom)

 1-2  1.988056342  2-3  2.282535406
     ( 1.052034110)     ( 1.207865720)

 Bond angles

  1-2-3  108.76195129

 NUCLEAR CHARGE:                   16
 NUMBER OF PRIMITIVE AOS:         111
 NUMBER OF SYMMETRY AOS:          100
 NUMBER OF CONTRACTIONS:           74   (  50A'  +  24A"  )
 NUMBER OF CORE ORBITALS:           2   (   2A'  +   0A"  )
 NUMBER OF VALENCE ORBITALS:        9   (   7A'  +   2A"  )


 NUCLEAR REPULSION ENERGY   30.35675695

 One-electron integrals computed with SEWARD

 2nd-order Douglas-Kroll-Hess method activated. Optimal DKH parametrization is used.

 Computing Douglas-Kroll / X2C integrals


        1874283. INTEGRALS WRITTEN OUT IN     458 BLOCKS ON RECORD 1290 OF FILE 1


 NUMBER OF SORTED TWO-ELECTRON INTEGRALS:    2006100.     BUFFER LENGTH:  32768
 NUMBER OF SEGMENTS:   1  SEGMENT LENGTH:    2006100      RECORD LENGTH: 524288

 Memory used in sort:       2.56 MW

 SORT1 READ     1874283. AND WROTE     1914195. INTEGRALS IN      6 RECORDS. CPU TIME:     0.03 SEC, REAL TIME:     0.04 SEC
 SORT2 READ     1914195. AND WROTE     2006100. INTEGRALS IN      1 RECORDS. CPU TIME:     0.05 SEC, REAL TIME:     0.06 SEC

 FILE SIZES:   FILE 1:    50.2 MBYTE,  FILE 4:    25.2 MBYTE,   TOTAL:     75.4 MBYTE

 OPERATOR DM      FOR CENTER  0  COORDINATES:    0.000000    0.000000    0.000000

 Eigenvalues of metric

         1 0.244E-02 0.397E-02 0.415E-02 0.837E-02 0.130E-01 0.327E-01 0.426E-01 0.463E-01
         2 0.343E-01 0.465E-01 0.102E+00 0.111E+00 0.234E+00 0.342E+00 0.395E+00 0.450E+00


 **********************************************************************************************************************************
 DATASETS  * FILE   NREC   LENGTH (MB)   RECORD NAMES
              1      23       36.03       500      610      700      900      950      970     1000      129      960     1700   
                                          VAR    BASINP    GEOM    SYMINP    ZMAT    AOBASIS   BASIS     P2S    ABASIS    OPER   
                                         1101     1401     1411     1412     1650     1100     1400     1410     1200     1210   
                                          SR      EKINR    POTR     PVPR    MOLCAS      S      EKIN      POT      H0       H01  
                                         1300     1080     1600   
                                         ERIS     AOSYM     SMH  

 PROGRAMS   *        TOTAL       INT
 CPU TIMES  *         0.65      0.56
 REAL TIME  *         1.12 SEC
 DISK USED  *        75.75 MB      
 **********************************************************************************************************************************


 PROGRAM * RHF-SCF (CLOSED SHELL)       Authors: W. Meyer, H.-J. Werner


 NUMBER OF ELECTRONS:       8+    8-
 CONVERGENCE THRESHOLDS:    1.00E-10 (Density)    1.00E-13 (Energy)
 MAX. NUMBER OF ITERATIONS:      500
 INTERPOLATION TYPE:            DIIS
 INTERPOLATION STEPS:              2 (START)      1 (STEP)
 LEVEL SHIFTS:                  0.00 (CLOSED)  0.00 (OPEN) 



 Orbital guess generated from atomic densities. Full valence occupancy:    9   2

 Molecular orbital dump at record        2100.2

 Initial occupancy:   7   1

 ITERATION    DDIFF          GRAD             ENERGY        2-EL.EN.            DIPOLE MOMENTS         DIIS   ORB.
    1      0.000D+00      0.000D+00      -129.86761900    154.201551    0.00000    0.59558   -1.04135    0    start
    2      0.000D+00      0.136D-01      -129.89433550    155.314357    0.00000    0.61443   -0.22298    1    diag
    3      0.185D-01      0.104D-01      -129.91669286    155.444411    0.00000    0.56526   -0.60278    2    diag
    4      0.901D-02      0.156D-02      -129.91742964    155.178560    0.00000    0.57345   -0.54335    3    diag
    5      0.166D-02      0.513D-03      -129.91754388    155.264352    0.00000    0.57886   -0.54443    4    diag
    6      0.717D-03      0.153D-03      -129.91756278    155.249418    0.00000    0.57940   -0.54025    5    diag
    7      0.278D-03      0.768D-04      -129.91756834    155.251714    0.00000    0.58063   -0.53775    6    diag
    8      0.192D-03      0.247D-04      -129.91756888    155.251030    0.00000    0.58065   -0.53693    7    diag
    9      0.654D-04      0.450D-05      -129.91756890    155.250912    0.00000    0.58060   -0.53677    8    diag
   10      0.127D-04      0.996D-06      -129.91756890    155.250894    0.00000    0.58056   -0.53675    9    orth
   11      0.283D-05      0.195D-06      -129.91756890    155.250890    0.00000    0.58056   -0.53675    9    diag
   12      0.514D-06      0.406D-07      -129.91756890    155.250889    0.00000    0.58055   -0.53675    9    diag
   13      0.112D-06      0.101D-07      -129.91756890    155.250889    0.00000    0.58055   -0.53675    9    diag
   14      0.280D-07      0.183D-08      -129.91756890    155.250889    0.00000    0.58055   -0.53675    9    diag
   15      0.440D-08      0.468D-09      -129.91756890    155.250889    0.00000    0.58055   -0.53675    9    diag
   16      0.106D-08      0.111D-09      -129.91756890    155.250889    0.00000    0.58055   -0.53675    9    diag
   17      0.176D-09      0.300D-10      -129.91756890    155.250889    0.00000    0.58055   -0.53675    9    diag
   18      0.506D-10      0.971D-11      -129.91756890    155.250889    0.00000    0.58055   -0.53675    9    diag
   19      0.212D-10      0.192D-11      -129.91756890    155.250889    0.00000    0.58055   -0.53675    9    fixocc
   20      0.477D-11      0.334D-12      -129.91756890    155.250889    0.00000    0.58055   -0.53675    9    orth
   21      0.795D-12      0.118D-12      -129.91756890    155.250889    0.00000    0.58055   -0.53675    9    diag
   22      0.240D-12      0.341D-13      -129.91756890    155.250889    0.00000    0.58055   -0.53675    0    orth

 Final occupancy:   7   1

 !RHF STATE 1.1 Energy               -129.917568900811
 Nuclear energy                        30.35675695
 One-electron energy                 -237.89977013
 Two-electron energy                   77.62544428
 Virial quotient                       -0.99757057
 !RHF STATE 1.1 Dipole moment           0.00000000     0.58055445    -0.53674580
 Dipole moment /Debye                   0.00000000     1.47552559    -1.36418239

 Orbital energies:

         1.1          2.1          3.1          4.1          5.1          6.1          7.1          8.1          9.1
    -20.665167   -15.716648    -1.527159    -0.992465    -0.743030    -0.661858    -0.426317     0.143919     0.369645

         1.2          2.2          3.2
     -0.591796     0.086458     0.613109

 HOMO      7.1    -0.426317 =     -11.6007eV
 LUMO      2.2     0.086458 =       2.3526eV
 LUMO-HOMO         0.512775 =      13.9533eV


 **********************************************************************************************************************************
 DATASETS  * FILE   NREC   LENGTH (MB)   RECORD NAMES
              1      23       36.03       500      610      700      900      950      970     1000      129      960     1700   
                                          VAR    BASINP    GEOM    SYMINP    ZMAT    AOBASIS   BASIS     P2S    ABASIS    OPER   
                                         1101     1401     1411     1412     1650     1100     1400     1410     1200     1210   
                                          SR      EKINR    POTR     PVPR    MOLCAS      S      EKIN      POT      H0       H01  
                                         1300     1080     1600   
                                         ERIS     AOSYM     SMH  

              2       4        2.85       700     1000      520     2100   
                                         GEOM     BASIS   MCVARS     RHF  

 PROGRAMS   *        TOTAL        HF       INT
 CPU TIMES  *         0.89      0.24      0.56
 REAL TIME  *         1.41 SEC
 DISK USED  *        75.75 MB      
 **********************************************************************************************************************************


 PROGRAM * CCSD (Closed-shell coupled cluster)     Authors: C. Hampel, H.-J. Werner, 1991, M. Deegan, P.J. Knowles, 1992


 Convergence thresholds:  THRVAR = 1.00D-08  THRDEN = 1.00D-12

 CCSD(T)     terms to be evaluated (factor= 1.000)


 Number of core orbitals:           2 (   2   0 )
 Number of closed-shell orbitals:   6 (   5   1 )
 Number of external orbitals:      66 (  43  23 )

 Molecular orbitals read from record     2100.2  Type=RHF/CANONICAL (state 1.1)

 Number of N-1 electron functions:               6
 Number of N-2 electron functions:              21
 Number of singly external CSFs:               238
 Number of doubly external CSFs:             41002
 Total number of CSFs:                       41241

 Length of J-op  integral file:               0.00 MB
 Length of K-op  integral file:               0.25 MB
 Length of 3-ext integral record:             0.00 MB

 Memory could be reduced to 1.65 Mwords without degradation in triples

 Integral transformation finished. Total CPU:   0.03 sec, npass=  1  Memory used:   0.55 MW

 Reference energy:                   -129.91756890

 MP2 singlet pair energy:              -0.27375674
 MP2 triplet pair energy:              -0.16258181
 MP2 correlation energy:               -0.43633855
 MP2 total energy:                   -130.35390745

 SCS-MP2 correlation energy:           -0.42967010   (PS=  1.200000  PT=  0.333333)
 SCS-MP2 total energy:               -130.34723900

 ITER.      SQ.NORM     CORR.ENERGY   TOTAL ENERGY   ENERGY CHANGE        DEN1      VAR(S)    VAR(P)  DIIS     TIME  TIME/IT
   1      1.11846510    -0.44141566  -130.35898456    -0.00507710     0.01072538  0.29D-02  0.30D-02  1  1     0.07     0.04
   2      1.12931517    -0.44166422  -130.35923312    -0.00024856    -0.01229118  0.88D-04  0.50D-03  2  2     0.11     0.04
   3      1.13560180    -0.44205065  -130.35961955    -0.00038643    -0.00297847  0.47D-04  0.51D-04  3  3     0.14     0.04
   4      1.13841112    -0.44207666  -130.35964556    -0.00002601    -0.00095954  0.40D-05  0.90D-05  4  4     0.18     0.04
   5      1.13941380    -0.44210619  -130.35967509    -0.00002953    -0.00020774  0.14D-05  0.17D-05  5  5     0.22     0.04
   6      1.13977567    -0.44208958  -130.35965848     0.00001661    -0.00004104  0.97D-07  0.42D-06  6  6     0.26     0.04
   7      1.13986235    -0.44209161  -130.35966051    -0.00000202    -0.00000215  0.12D-07  0.89D-07  6  1     0.29     0.04
   8      1.13989314    -0.44209163  -130.35966053    -0.00000002     0.00000190  0.45D-08  0.11D-07  6  2     0.33     0.04
   9      1.13990107    -0.44209141  -130.35966031     0.00000022    -0.00000229  0.26D-08  0.12D-08  6  3     0.37     0.04
  10      1.13989980    -0.44209193  -130.35966083    -0.00000052     0.00000062  0.50D-09  0.21D-09  6  4     0.40     0.04
  11      1.13989805    -0.44209199  -130.35966089    -0.00000006     0.00000019  0.15D-09  0.23D-10  6  5     0.43     0.04
  12      1.13989664    -0.44209217  -130.35966107    -0.00000018     0.00000044  0.16D-10  0.77D-11  6  6     0.46     0.04
  13      1.13989602    -0.44209217  -130.35966107    -0.00000001     0.00000012  0.68D-11  0.13D-11  6  1     0.49     0.04
  14      1.13989562    -0.44209219  -130.35966109    -0.00000002     0.00000008  0.95D-12  0.44D-12  6  2     0.53     0.04
  15      1.13989548    -0.44209220  -130.35966110    -0.00000000     0.00000001  0.24D-12  0.14D-12  6  3     0.57     0.04
  16      1.13989538    -0.44209220  -130.35966110    -0.00000000     0.00000001  0.26D-13  0.16D-13  6  5     0.61     0.04
  17      1.13989535    -0.44209220  -130.35966110    -0.00000000     0.00000000  0.72D-15  0.21D-14  6  4     0.65     0.04
  18      1.13989535    -0.44209220  -130.35966110     0.00000000    -0.00000000  0.49D-15  0.30D-15  6  1     0.70     0.04
  19      1.13989534    -0.44209220  -130.35966110    -0.00000000     0.00000000  0.48D-16  0.54D-16  6  6     0.73     0.04
  20      1.13989534    -0.44209220  -130.35966110    -0.00000000     0.00000000  0.11D-16  0.14D-16  6  2     0.77     0.04
  21      1.13989534    -0.44209220  -130.35966110    -0.00000000     0.00000000  0.19D-17  0.11D-17  6  5     0.80     0.04
  22      1.13989534    -0.44209220  -130.35966110    -0.00000000     0.00000000  0.11D-18  0.81D-19  6  3     0.84     0.04
  23      1.13989534    -0.44209220  -130.35966110     0.00000000    -0.00000000  0.29D-19  0.17D-19  6  4     0.89     0.04
  24      1.13989534    -0.44209220  -130.35966110     0.00000000    -0.00000000  0.43D-20  0.47D-20  6  1     0.92     0.04
  25      1.13989534    -0.44209220  -130.35966110     0.00000000    -0.00000000  0.56D-21  0.80D-21  6  6     0.96     0.04

 Norm of t1 vector:      0.07522031      S-energy:     0.00000000      T1 diagnostic:  0.01535428
                                                                       D1 diagnostic:  0.04249285

 Doubles amplitudes (print threshold =  0.500E-01):

         I         J         SYM. A    SYM. B    A         B      T(IJ, AB)

         6         6         2         2         1         1     -0.14373183


 Total CPU time for triples:      0.23 sec


 RESULTS
 =======

  Reference energy                   -129.917568900811
  CCSD singlet pair energy             -0.303113330289
  CCSD triplet pair energy             -0.138978868591
  CCSD correlation energy              -0.442092198879

  Triples (T) contribution             -0.019795187454
  Total correlation energy             -0.461887386333

  CCSD total energy                  -130.359661099690
  CCSD[T] energy                     -130.380478505527
  CCSD-T energy                      -130.379057208369
 !CCSD(T) total energy               -130.379456287144

 Timing summary (sec):

 STEP                 CPU(USER)    SYS     CPU(TOT)    WALL
 Transformation          0.03      0.01      0.04      0.04
 CCSD iterations         0.93      0.12      1.05      1.06
 Triples                 0.23      0.00      0.23      0.23

 Program statistics:

 Available memory in ccsd:               994999756
 Min. memory needed in ccsd:                154850
 Max. memory used in ccsd:                  184802
 Max. memory used in cckext:                238416 (25 integral passes)



 **********************************************************************************************************************************
 DATASETS  * FILE   NREC   LENGTH (MB)   RECORD NAMES
              1      24       40.41       500      610      700      900      950      970     1000      129      960     1700   
                                          VAR    BASINP    GEOM    SYMINP    ZMAT    AOBASIS   BASIS     P2S    ABASIS    OPER   
                                         1101     1401     1411     1412     1650     1100     1400     1410     1200     1210   
                                          SR      EKINR    POTR     PVPR    MOLCAS      S      EKIN      POT      H0       H01  
                                         1300     1080     1600     1380   
                                         ERIS     AOSYM     SMH     JKOP   

              2       4        2.85       700     1000      520     2100   
                                         GEOM     BASIS   MCVARS     RHF  

 PROGRAMS   *        TOTAL   CCSD(T)        HF       INT
 CPU TIMES  *         2.12      1.23      0.24      0.56
 REAL TIME  *         2.97 SEC
 DISK USED  *        75.75 MB      
 **********************************************************************************************************************************

 CCSD(T)/cc-pVTZ-DK energy=   -130.379456287144

        CCSD(T)         HF-SCF  
   -130.37945629   -129.91756890
 **********************************************************************************************************************************
 Molpro calculation terminated
 Variable memory released
