
 Primary working directories    : /tmp/r2666/282652.maple
 Secondary working directories  : /tmp/r2666/282652.maple
 Wavefunction directory         : /ddn/home4/r2666/wfu/
 Main file repository           : /tmp/r2666/282652.maple/

 SHA1      : d5ffa45e93fdbca01ffc919aa182cfdae0147319
 NAME      : 2015.1.35
 ARCHNAME  : linux/x86_64
 FC        : /opt/intel/composer_xe_2015.1.133/bin/intel64/ifort
 BLASLIB   : -Wl,-_start-group /opt/intel/mkl/lib/intel64/libmkl_intel_ilp64.a /opt/intel/mkl/lib/intel64/libmkl_intel_thread.a /opt/intel/mkl/lib/intel64/libmkl_core.a -Wl,-_end-group
 id        : olemiss

 Nodes     nprocs
 cn093        1

 Using customized tuning parameters: mindgm=1; mindgv=20; mindgc=4; mindgr=1; noblas=0; minvec=7
 default implementation of scratch files=df  

 ***,hno CCSD(T)/TZ-F12 QFF
 memory, 995, m;
 gthresh,energy=1.d-12,zero=1.d-22,oneint=1.d-22,twoint=1.d-22;
 gthresh,optgrad=1.d-8,optstep=1.d-8;
 nocompress;
 geomtyp=xyz
 bohr
 geometry={
 3
         33        33
 H        0.0000000000        1.6622967505       -1.9255908814
 N        0.0000000000       -0.1577897769       -1.1495924851
 O        0.0000000000        0.0372608164        1.1245937755
 }
 
 basis=vtz-dk
 dkroll=1
   {hf,maxit=500;accu,20;}
 {ccsd(t),nocheck,maxit=250;orbital,IGNORE_ERROR;}

 Variables initialized (889), CPU time= 0.01 sec
 Commands  initialized (702), CPU time= 0.01 sec, 572 directives.
 Default parameters read. Elapsed time= 0.04 sec

 Checking input...
 Passed
1


                                         ***  PROGRAM SYSTEM MOLPRO  ***
                                       Copyright, TTI GmbH Stuttgart, 2015
                                    Version 2015.1 linked Jul  9 2018 13:16:40


 **********************************************************************************************************************************
 LABEL *   hno CCSD(T)/TZ-F12 QFF                                                        
  64 bit serial version                                                                  DATE: 04-Mar-20          TIME: 13:51:08  
 **********************************************************************************************************************************

 SHA1:             d5ffa45e93fdbca01ffc919aa182cfdae0147319
 **********************************************************************************************************************************

 THRESHOLDS:

 ZERO    =  1.00D-22  ONEINT  =  1.00D-22  TWOINT  =  1.00D-22  PREFAC  =  1.00D-14  LOCALI  =  1.00D-09  EORDER  =  1.00D-04
 ENERGY  =  1.00D-12  ETEST   =  0.00D+00  EDENS   =  0.00D+00  THRDEDEF=  1.00D-06  GRADIENT=  1.00D-02  STEP    =  1.00D-03
 ORBITAL =  1.00D-05  CIVEC   =  1.00D-05  COEFF   =  1.00D-04  PRINTCI =  5.00D-02  PUNCHCI =  9.90D+01  OPTGRAD =  3.00D-04
 OPTENERG=  1.00D-06  OPTSTEP =  3.00D-04  THRGRAD =  1.00D-10  COMPRESS=  1.00D-11  VARMIN  =  1.00D-07  VARMAX  =  1.00D-03
 THRDOUB =  0.00D+00  THRDIV  =  1.00D-05  THRRED  =  1.00D-07  THRPSP  =  1.00D+00  THRDC   =  1.00D-10  THRCS   =  1.00D-10
 THRNRM  =  1.00D-08  THREQ   =  0.00D+00  THRDE   =  1.00D+00  THRREF  =  1.00D-05  SPARFAC =  1.00D+00  THRDLP  =  1.00D-07
 THRDIA  =  1.00D-10  THRDLS  =  1.00D-07  THRGPS  =  0.00D+00  THRKEX  =  0.00D+00  THRDIS  =  2.00D-01  THRVAR  =  1.00D-10
 THRLOC  =  1.00D-06  THRGAP  =  1.00D-06  THRLOCT = -1.00D+00  THRGAPT = -1.00D+00  THRORB  =  1.00D-06  THRMLTP =  0.00D+00
 THRCPQCI=  1.00D-10  KEXTA   =  0.00D+00  THRCOARS=  0.00D+00  SYMTOL  =  1.00D-06  GRADTOL =  1.00D-06  THROVL  =  1.00D-08
 THRORTH =  1.00D-08  GRID    =  1.00D-06  GRIDMAX =  1.00D-03  DTMAX   =  0.00D+00  THROCCDE=  1.00D-01  THROCCDE=  1.00D-01



 THRESHOLDS:

 ZERO    =  1.00D-22  ONEINT  =  1.00D-22  TWOINT  =  1.00D-22  PREFAC  =  1.00D-14  LOCALI  =  1.00D-09  EORDER  =  1.00D-04
 ENERGY  =  1.00D-12  ETEST   =  0.00D+00  EDENS   =  0.00D+00  THRDEDEF=  1.00D-06  GRADIENT=  1.00D-02  STEP    =  1.00D-03
 ORBITAL =  1.00D-05  CIVEC   =  1.00D-05  COEFF   =  1.00D-04  PRINTCI =  5.00D-02  PUNCHCI =  9.90D+01  OPTGRAD =  1.00D-08
 OPTENERG=  1.00D-06  OPTSTEP =  1.00D-08  THRGRAD =  1.00D-10  COMPRESS=  1.00D-11  VARMIN  =  1.00D-07  VARMAX  =  1.00D-03
 THRDOUB =  0.00D+00  THRDIV  =  1.00D-05  THRRED  =  1.00D-07  THRPSP  =  1.00D+00  THRDC   =  1.00D-10  THRCS   =  1.00D-10
 THRNRM  =  1.00D-08  THREQ   =  0.00D+00  THRDE   =  1.00D+00  THRREF  =  1.00D-05  SPARFAC =  1.00D+00  THRDLP  =  1.00D-07
 THRDIA  =  1.00D-10  THRDLS  =  1.00D-07  THRGPS  =  0.00D+00  THRKEX  =  0.00D+00  THRDIS  =  2.00D-01  THRVAR  =  1.00D-10
 THRLOC  =  1.00D-06  THRGAP  =  1.00D-06  THRLOCT = -1.00D+00  THRGAPT = -1.00D+00  THRORB  =  1.00D-06  THRMLTP =  0.00D+00
 THRCPQCI=  1.00D-10  KEXTA   =  0.00D+00  THRCOARS=  0.00D+00  SYMTOL  =  1.00D-06  GRADTOL =  1.00D-06  THROVL  =  1.00D-08
 THRORTH =  1.00D-08  GRID    =  1.00D-06  GRIDMAX =  1.00D-03  DTMAX   =  0.00D+00  THROCCDE=  1.00D-01  THROCCDE=  1.00D-01



 Input parameters for SORTINT:

 COMPRESS =    0.000000
 C_FINAL  =    1.000000
 DEBUG    =   -1.000000
 C_SORT1  =    0.000000
 C_SEWARD =    0.000000
 THRESH   =    0.000000
 IO       =  molpro                                                          
 SPRI     =    0.000000
 SETTING GEOMTYP        =    XYZ
 ZUNIT=BOHR
 

 Variable memory set to  995000000 words,  buffer space   230000 words

 SETTING BASIS          =    VTZ-DK
 SETTING DKROLL         =         1.00000000                                  


 Recomputing integrals since basis changed


 Using spherical harmonics

 Library entry H      S cc-pVTZ-DK           selected for orbital group  1
 Library entry H      P cc-pVTZ-DK           selected for orbital group  1
 Library entry H      D cc-pVTZ-DK           selected for orbital group  1
 Library entry N      S cc-pVTZ-DK           selected for orbital group  2
 Library entry N      P cc-pVTZ-DK           selected for orbital group  2
 Library entry N      D cc-pVTZ-DK           selected for orbital group  2
 Library entry N      F cc-pVTZ-DK           selected for orbital group  2
 Library entry O      S cc-pVTZ-DK           selected for orbital group  3
 Library entry O      P cc-pVTZ-DK           selected for orbital group  3
 Library entry O      D cc-pVTZ-DK           selected for orbital group  3
 Library entry O      F cc-pVTZ-DK           selected for orbital group  3


 PROGRAM * SEWARD (Integral evaluation for generally contracted gaussian basis sets)     Author: Roland Lindh, 1990

 Geometry written to block  1 of record 700


 Point group  Cs  



 ATOMIC COORDINATES

 NR  ATOM    CHARGE       X              Y              Z

   1  H       1.00    0.000000000    1.662296750   -1.925590881
   2  N       7.00    0.000000000   -0.157789777   -1.149592485
   3  O       8.00    0.000000000    0.037260816    1.124593775

 Bond lengths in Bohr (Angstrom)

 1-2  1.978607712  2-3  2.282535406
     ( 1.047034111)     ( 1.207865720)

 Bond angles

  1-2-3  108.18899349

 NUCLEAR CHARGE:                   16
 NUMBER OF PRIMITIVE AOS:         111
 NUMBER OF SYMMETRY AOS:          100
 NUMBER OF CONTRACTIONS:           74   (  50A'  +  24A"  )
 NUMBER OF CORE ORBITALS:           2   (   2A'  +   0A"  )
 NUMBER OF VALENCE ORBITALS:        9   (   7A'  +   2A"  )


 NUCLEAR REPULSION ENERGY   30.38673526

 One-electron integrals computed with SEWARD

 2nd-order Douglas-Kroll-Hess method activated. Optimal DKH parametrization is used.

 Computing Douglas-Kroll / X2C integrals


        1874283. INTEGRALS WRITTEN OUT IN     458 BLOCKS ON RECORD 1290 OF FILE 1


 NUMBER OF SORTED TWO-ELECTRON INTEGRALS:    2006100.     BUFFER LENGTH:  32768
 NUMBER OF SEGMENTS:   1  SEGMENT LENGTH:    2006100      RECORD LENGTH: 524288

 Memory used in sort:       2.56 MW

 SORT1 READ     1874283. AND WROTE     1914195. INTEGRALS IN      6 RECORDS. CPU TIME:     0.04 SEC, REAL TIME:     0.06 SEC
 SORT2 READ     1914195. AND WROTE     2006100. INTEGRALS IN      1 RECORDS. CPU TIME:     0.04 SEC, REAL TIME:     0.06 SEC

 FILE SIZES:   FILE 1:    50.2 MBYTE,  FILE 4:    25.2 MBYTE,   TOTAL:     75.4 MBYTE

 OPERATOR DM      FOR CENTER  0  COORDINATES:    0.000000    0.000000    0.000000

 Eigenvalues of metric

         1 0.243E-02 0.395E-02 0.415E-02 0.826E-02 0.129E-01 0.326E-01 0.425E-01 0.463E-01
         2 0.342E-01 0.464E-01 0.101E+00 0.111E+00 0.233E+00 0.340E+00 0.394E+00 0.449E+00


 **********************************************************************************************************************************
 DATASETS  * FILE   NREC   LENGTH (MB)   RECORD NAMES
              1      23       36.03       500      610      700      900      950      970     1000      129      960     1700   
                                          VAR    BASINP    GEOM    SYMINP    ZMAT    AOBASIS   BASIS     P2S    ABASIS    OPER   
                                         1101     1401     1411     1412     1650     1100     1400     1410     1200     1210   
                                          SR      EKINR    POTR     PVPR    MOLCAS      S      EKIN      POT      H0       H01  
                                         1300     1080     1600   
                                         ERIS     AOSYM     SMH  

 PROGRAMS   *        TOTAL       INT
 CPU TIMES  *         0.64      0.55
 REAL TIME  *         1.21 SEC
 DISK USED  *        75.75 MB      
 **********************************************************************************************************************************


 PROGRAM * RHF-SCF (CLOSED SHELL)       Authors: W. Meyer, H.-J. Werner


 NUMBER OF ELECTRONS:       8+    8-
 CONVERGENCE THRESHOLDS:    1.00E-10 (Density)    1.00E-13 (Energy)
 MAX. NUMBER OF ITERATIONS:      500
 INTERPOLATION TYPE:            DIIS
 INTERPOLATION STEPS:              2 (START)      1 (STEP)
 LEVEL SHIFTS:                  0.00 (CLOSED)  0.00 (OPEN) 



 Orbital guess generated from atomic densities. Full valence occupancy:    9   2

 Molecular orbital dump at record        2100.2

 Initial occupancy:   7   1

 ITERATION    DDIFF          GRAD             ENERGY        2-EL.EN.            DIPOLE MOMENTS         DIIS   ORB.
    1      0.000D+00      0.000D+00      -129.86796901    154.260820    0.00000    0.59365   -1.03928    0    start
    2      0.000D+00      0.135D-01      -129.89470306    155.366149    0.00000    0.61532   -0.22256    1    diag
    3      0.185D-01      0.103D-01      -129.91689226    155.497790    0.00000    0.56487   -0.60101    2    diag
    4      0.898D-02      0.155D-02      -129.91762676    155.232865    0.00000    0.57338   -0.54172    3    diag
    5      0.166D-02      0.513D-03      -129.91774027    155.318122    0.00000    0.57869   -0.54274    4    diag
    6      0.715D-03      0.153D-03      -129.91775902    155.303239    0.00000    0.57922   -0.53857    5    diag
    7      0.277D-03      0.767D-04      -129.91776455    155.305512    0.00000    0.58044   -0.53606    6    diag
    8      0.192D-03      0.246D-04      -129.91776508    155.304826    0.00000    0.58045   -0.53524    7    diag
    9      0.652D-04      0.446D-05      -129.91776510    155.304711    0.00000    0.58040   -0.53509    8    diag
   10      0.126D-04      0.983D-06      -129.91776511    155.304694    0.00000    0.58036   -0.53507    9    orth
   11      0.279D-05      0.192D-06      -129.91776511    155.304690    0.00000    0.58036   -0.53506    9    diag
   12      0.507D-06      0.401D-07      -129.91776511    155.304688    0.00000    0.58035   -0.53506    9    diag
   13      0.110D-06      0.996D-08      -129.91776511    155.304688    0.00000    0.58035   -0.53506    9    diag
   14      0.274D-07      0.180D-08      -129.91776511    155.304688    0.00000    0.58035   -0.53506    9    diag
   15      0.430D-08      0.459D-09      -129.91776511    155.304688    0.00000    0.58035   -0.53506    9    diag
   16      0.103D-08      0.109D-09      -129.91776511    155.304688    0.00000    0.58035   -0.53506    9    diag
   17      0.172D-09      0.293D-10      -129.91776511    155.304688    0.00000    0.58035   -0.53506    9    diag
   18      0.486D-10      0.939D-11      -129.91776511    155.304688    0.00000    0.58035   -0.53506    9    diag
   19      0.202D-10      0.183D-11      -129.91776511    155.304688    0.00000    0.58035   -0.53506    9    fixocc
   20      0.448D-11      0.303D-12      -129.91776511    155.304688    0.00000    0.58035   -0.53506    0    orth

 Final occupancy:   7   1

 !RHF STATE 1.1 Energy               -129.917765105606
 Nuclear energy                        30.38673526
 One-electron energy                 -237.95684439
 Two-electron energy                   77.65234403
 Virial quotient                       -0.99749499
 !RHF STATE 1.1 Dipole moment           0.00000000     0.58035361    -0.53506105
 Dipole moment /Debye                   0.00000000     1.47501512    -1.35990047

 Orbital energies:

         1.1          2.1          3.1          4.1          5.1          6.1          7.1          8.1          9.1
    -20.664928   -15.716085    -1.527512    -0.993388    -0.743607    -0.661752    -0.427006     0.144364     0.369596

         1.2          2.2          3.2
     -0.591799     0.086516     0.613080

 HOMO      7.1    -0.427006 =     -11.6194eV
 LUMO      2.2     0.086516 =       2.3542eV
 LUMO-HOMO         0.513522 =      13.9736eV


 **********************************************************************************************************************************
 DATASETS  * FILE   NREC   LENGTH (MB)   RECORD NAMES
              1      23       36.03       500      610      700      900      950      970     1000      129      960     1700   
                                          VAR    BASINP    GEOM    SYMINP    ZMAT    AOBASIS   BASIS     P2S    ABASIS    OPER   
                                         1101     1401     1411     1412     1650     1100     1400     1410     1200     1210   
                                          SR      EKINR    POTR     PVPR    MOLCAS      S      EKIN      POT      H0       H01  
                                         1300     1080     1600   
                                         ERIS     AOSYM     SMH  

              2       4        2.85       700     1000      520     2100   
                                         GEOM     BASIS   MCVARS     RHF  

 PROGRAMS   *        TOTAL        HF       INT
 CPU TIMES  *         0.83      0.19      0.55
 REAL TIME  *         1.47 SEC
 DISK USED  *        75.75 MB      
 **********************************************************************************************************************************


 PROGRAM * CCSD (Closed-shell coupled cluster)     Authors: C. Hampel, H.-J. Werner, 1991, M. Deegan, P.J. Knowles, 1992


 Convergence thresholds:  THRVAR = 1.00D-08  THRDEN = 1.00D-12

 CCSD(T)     terms to be evaluated (factor= 1.000)


 Number of core orbitals:           2 (   2   0 )
 Number of closed-shell orbitals:   6 (   5   1 )
 Number of external orbitals:      66 (  43  23 )

 Molecular orbitals read from record     2100.2  Type=RHF/CANONICAL (state 1.1)

 Number of N-1 electron functions:               6
 Number of N-2 electron functions:              21
 Number of singly external CSFs:               238
 Number of doubly external CSFs:             41002
 Total number of CSFs:                       41241

 Length of J-op  integral file:               0.00 MB
 Length of K-op  integral file:               0.25 MB
 Length of 3-ext integral record:             0.00 MB

 Memory could be reduced to 1.65 Mwords without degradation in triples

 Integral transformation finished. Total CPU:   0.03 sec, npass=  1  Memory used:   0.55 MW

 Reference energy:                   -129.91776511

 MP2 singlet pair energy:              -0.27364036
 MP2 triplet pair energy:              -0.16251401
 MP2 correlation energy:               -0.43615437
 MP2 total energy:                   -130.35391948

 SCS-MP2 correlation energy:           -0.42948826   (PS=  1.200000  PT=  0.333333)
 SCS-MP2 total energy:               -130.34725337

 ITER.      SQ.NORM     CORR.ENERGY   TOTAL ENERGY   ENERGY CHANGE        DEN1      VAR(S)    VAR(P)  DIIS     TIME  TIME/IT
   1      1.11828154    -0.44124081  -130.35900592    -0.00508644     0.01066006  0.29D-02  0.30D-02  1  1     0.07     0.04
   2      1.12908875    -0.44149379  -130.35925890    -0.00025298    -0.01225818  0.87D-04  0.50D-03  2  2     0.10     0.04
   3      1.13533072    -0.44187492  -130.35964003    -0.00038113    -0.00296511  0.46D-04  0.51D-04  3  3     0.14     0.04
   4      1.13812097    -0.44190196  -130.35966706    -0.00002703    -0.00095416  0.39D-05  0.88D-05  4  4     0.17     0.04
   5      1.13910633    -0.44193094  -130.35969605    -0.00002898    -0.00020423  0.13D-05  0.17D-05  5  5     0.21     0.04
   6      1.13946137    -0.44191451  -130.35967961     0.00001643    -0.00004041  0.92D-07  0.41D-06  6  6     0.25     0.04
   7      1.13954571    -0.44191664  -130.35968174    -0.00000213    -0.00000198  0.11D-07  0.88D-07  6  1     0.28     0.04
   8      1.13957582    -0.44191664  -130.35968175    -0.00000000     0.00000200  0.46D-08  0.10D-07  6  2     0.32     0.04
   9      1.13958341    -0.44191646  -130.35968157     0.00000018    -0.00000230  0.25D-08  0.11D-08  6  3     0.36     0.04
  10      1.13958213    -0.44191696  -130.35968207    -0.00000050     0.00000065  0.48D-09  0.20D-09  6  4     0.39     0.04
  11      1.13958044    -0.44191702  -130.35968212    -0.00000006     0.00000016  0.14D-09  0.22D-10  6  5     0.43     0.04
  12      1.13957909    -0.44191719  -130.35968230    -0.00000017     0.00000042  0.15D-10  0.72D-11  6  6     0.46     0.04
  13      1.13957850    -0.44191720  -130.35968230    -0.00000001     0.00000012  0.63D-11  0.12D-11  6  1     0.49     0.04
  14      1.13957813    -0.44191722  -130.35968232    -0.00000002     0.00000007  0.89D-12  0.42D-12  6  2     0.52     0.04
  15      1.13957799    -0.44191722  -130.35968233    -0.00000000     0.00000001  0.23D-12  0.14D-12  6  3     0.55     0.04
  16      1.13957789    -0.44191722  -130.35968233    -0.00000000     0.00000001  0.24D-13  0.16D-13  6  5     0.59     0.04
  17      1.13957786    -0.44191722  -130.35968233    -0.00000000     0.00000000  0.68D-15  0.20D-14  6  4     0.61     0.04
  18      1.13957786    -0.44191722  -130.35968233     0.00000000    -0.00000000  0.46D-15  0.29D-15  6  1     0.65     0.04
  19      1.13957786    -0.44191722  -130.35968233    -0.00000000     0.00000000  0.46D-16  0.52D-16  6  6     0.69     0.04
  20      1.13957786    -0.44191722  -130.35968233    -0.00000000     0.00000000  0.10D-16  0.13D-16  6  2     0.72     0.04
  21      1.13957785    -0.44191722  -130.35968233    -0.00000000     0.00000000  0.17D-17  0.10D-17  6  5     0.76     0.04
  22      1.13957785    -0.44191722  -130.35968233    -0.00000000     0.00000000  0.99D-19  0.78D-19  6  3     0.79     0.04
  23      1.13957785    -0.44191722  -130.35968233     0.00000000    -0.00000000  0.28D-19  0.16D-19  6  4     0.82     0.04
  24      1.13957785    -0.44191722  -130.35968233     0.00000000    -0.00000000  0.42D-20  0.45D-20  6  1     0.85     0.04
  25      1.13957785    -0.44191722  -130.35968233     0.00000000    -0.00000000  0.54D-21  0.77D-21  6  6     0.89     0.04

 Norm of t1 vector:      0.07476478      S-energy:     0.00000000      T1 diagnostic:  0.01526130
                                                                       D1 diagnostic:  0.04242278

 Doubles amplitudes (print threshold =  0.500E-01):

         I         J         SYM. A    SYM. B    A         B      T(IJ, AB)

         6         6         2         2         1         1     -0.14377267


 Total CPU time for triples:      0.24 sec


 RESULTS
 =======

  Reference energy                   -129.917765105606
  CCSD singlet pair energy             -0.302962376077
  CCSD triplet pair energy             -0.138954846907
  CCSD correlation energy              -0.441917222984

  Triples (T) contribution             -0.019757551177
  Total correlation energy             -0.461674774160

  CCSD total energy                  -130.359682328590
  CCSD[T] energy                     -130.380453167484
  CCSD-T energy                      -130.379043742846
 !CCSD(T) total energy               -130.379439879766

 Timing summary (sec):

 STEP                 CPU(USER)    SYS     CPU(TOT)    WALL
 Transformation          0.04      0.00      0.04      0.04
 CCSD iterations         0.86      0.15      1.01      1.01
 Triples                 0.24      0.01      0.25      0.26

 Program statistics:

 Available memory in ccsd:               994999756
 Min. memory needed in ccsd:                154850
 Max. memory used in ccsd:                  184802
 Max. memory used in cckext:                238416 (25 integral passes)



 **********************************************************************************************************************************
 DATASETS  * FILE   NREC   LENGTH (MB)   RECORD NAMES
              1      24       40.41       500      610      700      900      950      970     1000      129      960     1700   
                                          VAR    BASINP    GEOM    SYMINP    ZMAT    AOBASIS   BASIS     P2S    ABASIS    OPER   
                                         1101     1401     1411     1412     1650     1100     1400     1410     1200     1210   
                                          SR      EKINR    POTR     PVPR    MOLCAS      S      EKIN      POT      H0       H01  
                                         1300     1080     1600     1380   
                                         ERIS     AOSYM     SMH     JKOP   

              2       4        2.85       700     1000      520     2100   
                                         GEOM     BASIS   MCVARS     RHF  

 PROGRAMS   *        TOTAL   CCSD(T)        HF       INT
 CPU TIMES  *         1.99      1.16      0.19      0.55
 REAL TIME  *         2.81 SEC
 DISK USED  *        75.75 MB      
 **********************************************************************************************************************************

 CCSD(T)/cc-pVTZ-DK energy=   -130.379439879766

        CCSD(T)         HF-SCF  
   -130.37943988   -129.91776511
 **********************************************************************************************************************************
 Molpro calculation terminated
 Variable memory released
