
 Primary working directories    : /tmp/r2666/282727.maple
 Secondary working directories  : /tmp/r2666/282727.maple
 Wavefunction directory         : /ddn/home4/r2666/wfu/
 Main file repository           : /tmp/r2666/282727.maple/

 SHA1      : d5ffa45e93fdbca01ffc919aa182cfdae0147319
 NAME      : 2015.1.35
 ARCHNAME  : linux/x86_64
 FC        : /opt/intel/composer_xe_2015.1.133/bin/intel64/ifort
 BLASLIB   : -Wl,-_start-group /opt/intel/mkl/lib/intel64/libmkl_intel_ilp64.a /opt/intel/mkl/lib/intel64/libmkl_intel_thread.a /opt/intel/mkl/lib/intel64/libmkl_core.a -Wl,-_end-group
 id        : olemiss

 Nodes     nprocs
 cn075        1

 Using customized tuning parameters: mindgm=1; mindgv=20; mindgc=4; mindgr=1; noblas=0; minvec=7
 default implementation of scratch files=df  

 ***,hno CCSD(T)/TZ-F12 QFF
 memory, 995, m;
 gthresh,energy=1.d-12,zero=1.d-22,oneint=1.d-22,twoint=1.d-22;
 gthresh,optgrad=1.d-8,optstep=1.d-8;
 nocompress;
 geomtyp=xyz
 bohr
 geometry={
 3
        108       108
 H        0.0000000000        1.6730169914       -1.9371054457
 N        0.0000000000       -0.1642516276       -1.1532239909
 O        0.0000000000        0.0330024262        1.1397398457
 }
 
 basis=vtz-dk
 dkroll=1
   {hf,maxit=500;accu,20;}
 {ccsd(t),nocheck,maxit=250;orbital,IGNORE_ERROR;}

 Variables initialized (889), CPU time= 0.00 sec
 Commands  initialized (702), CPU time= 0.01 sec, 572 directives.
 Default parameters read. Elapsed time= 0.05 sec

 Checking input...
 Passed
1


                                         ***  PROGRAM SYSTEM MOLPRO  ***
                                       Copyright, TTI GmbH Stuttgart, 2015
                                    Version 2015.1 linked Jul  9 2018 13:16:40


 **********************************************************************************************************************************
 LABEL *   hno CCSD(T)/TZ-F12 QFF                                                        
  64 bit serial version                                                                  DATE: 04-Mar-20          TIME: 13:51:17  
 **********************************************************************************************************************************

 SHA1:             d5ffa45e93fdbca01ffc919aa182cfdae0147319
 **********************************************************************************************************************************

 THRESHOLDS:

 ZERO    =  1.00D-22  ONEINT  =  1.00D-22  TWOINT  =  1.00D-22  PREFAC  =  1.00D-14  LOCALI  =  1.00D-09  EORDER  =  1.00D-04
 ENERGY  =  1.00D-12  ETEST   =  0.00D+00  EDENS   =  0.00D+00  THRDEDEF=  1.00D-06  GRADIENT=  1.00D-02  STEP    =  1.00D-03
 ORBITAL =  1.00D-05  CIVEC   =  1.00D-05  COEFF   =  1.00D-04  PRINTCI =  5.00D-02  PUNCHCI =  9.90D+01  OPTGRAD =  3.00D-04
 OPTENERG=  1.00D-06  OPTSTEP =  3.00D-04  THRGRAD =  1.00D-10  COMPRESS=  1.00D-11  VARMIN  =  1.00D-07  VARMAX  =  1.00D-03
 THRDOUB =  0.00D+00  THRDIV  =  1.00D-05  THRRED  =  1.00D-07  THRPSP  =  1.00D+00  THRDC   =  1.00D-10  THRCS   =  1.00D-10
 THRNRM  =  1.00D-08  THREQ   =  0.00D+00  THRDE   =  1.00D+00  THRREF  =  1.00D-05  SPARFAC =  1.00D+00  THRDLP  =  1.00D-07
 THRDIA  =  1.00D-10  THRDLS  =  1.00D-07  THRGPS  =  0.00D+00  THRKEX  =  0.00D+00  THRDIS  =  2.00D-01  THRVAR  =  1.00D-10
 THRLOC  =  1.00D-06  THRGAP  =  1.00D-06  THRLOCT = -1.00D+00  THRGAPT = -1.00D+00  THRORB  =  1.00D-06  THRMLTP =  0.00D+00
 THRCPQCI=  1.00D-10  KEXTA   =  0.00D+00  THRCOARS=  0.00D+00  SYMTOL  =  1.00D-06  GRADTOL =  1.00D-06  THROVL  =  1.00D-08
 THRORTH =  1.00D-08  GRID    =  1.00D-06  GRIDMAX =  1.00D-03  DTMAX   =  0.00D+00  THROCCDE=  1.00D-01  THROCCDE=  1.00D-01



 THRESHOLDS:

 ZERO    =  1.00D-22  ONEINT  =  1.00D-22  TWOINT  =  1.00D-22  PREFAC  =  1.00D-14  LOCALI  =  1.00D-09  EORDER  =  1.00D-04
 ENERGY  =  1.00D-12  ETEST   =  0.00D+00  EDENS   =  0.00D+00  THRDEDEF=  1.00D-06  GRADIENT=  1.00D-02  STEP    =  1.00D-03
 ORBITAL =  1.00D-05  CIVEC   =  1.00D-05  COEFF   =  1.00D-04  PRINTCI =  5.00D-02  PUNCHCI =  9.90D+01  OPTGRAD =  1.00D-08
 OPTENERG=  1.00D-06  OPTSTEP =  1.00D-08  THRGRAD =  1.00D-10  COMPRESS=  1.00D-11  VARMIN  =  1.00D-07  VARMAX  =  1.00D-03
 THRDOUB =  0.00D+00  THRDIV  =  1.00D-05  THRRED  =  1.00D-07  THRPSP  =  1.00D+00  THRDC   =  1.00D-10  THRCS   =  1.00D-10
 THRNRM  =  1.00D-08  THREQ   =  0.00D+00  THRDE   =  1.00D+00  THRREF  =  1.00D-05  SPARFAC =  1.00D+00  THRDLP  =  1.00D-07
 THRDIA  =  1.00D-10  THRDLS  =  1.00D-07  THRGPS  =  0.00D+00  THRKEX  =  0.00D+00  THRDIS  =  2.00D-01  THRVAR  =  1.00D-10
 THRLOC  =  1.00D-06  THRGAP  =  1.00D-06  THRLOCT = -1.00D+00  THRGAPT = -1.00D+00  THRORB  =  1.00D-06  THRMLTP =  0.00D+00
 THRCPQCI=  1.00D-10  KEXTA   =  0.00D+00  THRCOARS=  0.00D+00  SYMTOL  =  1.00D-06  GRADTOL =  1.00D-06  THROVL  =  1.00D-08
 THRORTH =  1.00D-08  GRID    =  1.00D-06  GRIDMAX =  1.00D-03  DTMAX   =  0.00D+00  THROCCDE=  1.00D-01  THROCCDE=  1.00D-01



 Input parameters for SORTINT:

 COMPRESS =    0.000000
 C_FINAL  =    1.000000
 DEBUG    =   -1.000000
 C_SORT1  =    0.000000
 C_SEWARD =    0.000000
 THRESH   =    0.000000
 IO       =  molpro                                                          
 SPRI     =    0.000000
 SETTING GEOMTYP        =    XYZ
 ZUNIT=BOHR
 

 Variable memory set to  995000000 words,  buffer space   230000 words

 SETTING BASIS          =    VTZ-DK
 SETTING DKROLL         =         1.00000000                                  


 Recomputing integrals since basis changed


 Using spherical harmonics

 Library entry H      S cc-pVTZ-DK           selected for orbital group  1
 Library entry H      P cc-pVTZ-DK           selected for orbital group  1
 Library entry H      D cc-pVTZ-DK           selected for orbital group  1
 Library entry N      S cc-pVTZ-DK           selected for orbital group  2
 Library entry N      P cc-pVTZ-DK           selected for orbital group  2
 Library entry N      D cc-pVTZ-DK           selected for orbital group  2
 Library entry N      F cc-pVTZ-DK           selected for orbital group  2
 Library entry O      S cc-pVTZ-DK           selected for orbital group  3
 Library entry O      P cc-pVTZ-DK           selected for orbital group  3
 Library entry O      D cc-pVTZ-DK           selected for orbital group  3
 Library entry O      F cc-pVTZ-DK           selected for orbital group  3


 PROGRAM * SEWARD (Integral evaluation for generally contracted gaussian basis sets)     Author: Roland Lindh, 1990

 Geometry written to block  1 of record 700


 Point group  Cs  



 ATOMIC COORDINATES

 NR  ATOM    CHARGE       X              Y              Z

   1  H       1.00    0.000000000    1.673016991   -1.937105446
   2  N       7.00    0.000000000   -0.164251628   -1.153223991
   3  O       8.00    0.000000000    0.033002426    1.139739846

 Bond lengths in Bohr (Angstrom)

 1-2  1.997504972  2-3  2.301432666
     ( 1.057034110)     ( 1.217865719)

 Bond angles

  1-2-3  108.18899349

 NUCLEAR CHARGE:                   16
 NUMBER OF PRIMITIVE AOS:         111
 NUMBER OF SYMMETRY AOS:          100
 NUMBER OF CONTRACTIONS:           74   (  50A'  +  24A"  )
 NUMBER OF CORE ORBITALS:           2   (   2A'  +   0A"  )
 NUMBER OF VALENCE ORBITALS:        9   (   7A'  +   2A"  )


 NUCLEAR REPULSION ENERGY   30.13151686

 One-electron integrals computed with SEWARD

 2nd-order Douglas-Kroll-Hess method activated. Optimal DKH parametrization is used.

 Computing Douglas-Kroll / X2C integrals


        1874283. INTEGRALS WRITTEN OUT IN     458 BLOCKS ON RECORD 1290 OF FILE 1


 NUMBER OF SORTED TWO-ELECTRON INTEGRALS:    2006100.     BUFFER LENGTH:  32768
 NUMBER OF SEGMENTS:   1  SEGMENT LENGTH:    2006100      RECORD LENGTH: 524288

 Memory used in sort:       2.56 MW

 SORT1 READ     1874283. AND WROTE     1914195. INTEGRALS IN      6 RECORDS. CPU TIME:     0.04 SEC, REAL TIME:     0.04 SEC
 SORT2 READ     1914195. AND WROTE     2006100. INTEGRALS IN      1 RECORDS. CPU TIME:     0.05 SEC, REAL TIME:     0.05 SEC

 FILE SIZES:   FILE 1:    50.2 MBYTE,  FILE 4:    25.2 MBYTE,   TOTAL:     75.4 MBYTE

 OPERATOR DM      FOR CENTER  0  COORDINATES:    0.000000    0.000000    0.000000

 Eigenvalues of metric

         1 0.250E-02 0.402E-02 0.431E-02 0.851E-02 0.131E-01 0.334E-01 0.432E-01 0.465E-01
         2 0.348E-01 0.467E-01 0.103E+00 0.114E+00 0.238E+00 0.345E+00 0.399E+00 0.453E+00


 **********************************************************************************************************************************
 DATASETS  * FILE   NREC   LENGTH (MB)   RECORD NAMES
              1      23       36.03       500      610      700      900      950      970     1000      129      960     1700   
                                          VAR    BASINP    GEOM    SYMINP    ZMAT    AOBASIS   BASIS     P2S    ABASIS    OPER   
                                         1101     1401     1411     1412     1650     1100     1400     1410     1200     1210   
                                          SR      EKINR    POTR     PVPR    MOLCAS      S      EKIN      POT      H0       H01  
                                         1300     1080     1600   
                                         ERIS     AOSYM     SMH  

 PROGRAMS   *        TOTAL       INT
 CPU TIMES  *         0.66      0.58
 REAL TIME  *         1.19 SEC
 DISK USED  *        75.75 MB      
 **********************************************************************************************************************************


 PROGRAM * RHF-SCF (CLOSED SHELL)       Authors: W. Meyer, H.-J. Werner


 NUMBER OF ELECTRONS:       8+    8-
 CONVERGENCE THRESHOLDS:    1.00E-10 (Density)    1.00E-13 (Energy)
 MAX. NUMBER OF ITERATIONS:      500
 INTERPOLATION TYPE:            DIIS
 INTERPOLATION STEPS:              2 (START)      1 (STEP)
 LEVEL SHIFTS:                  0.00 (CLOSED)  0.00 (OPEN) 



 Orbital guess generated from atomic densities. Full valence occupancy:    9   2

 Molecular orbital dump at record        2100.2

 Initial occupancy:   7   1

 ITERATION    DDIFF          GRAD             ENERGY        2-EL.EN.            DIPOLE MOMENTS         DIIS   ORB.
    1      0.000D+00      0.000D+00      -129.86416836    153.796554    0.00000    0.59181   -1.07282    0    start
    2      0.000D+00      0.138D-01      -129.89053456    154.892861    0.00000    0.62093   -0.21247    1    diag
    3      0.190D-01      0.108D-01      -129.91490806    155.042914    0.00000    0.56620   -0.61404    2    diag
    4      0.932D-02      0.157D-02      -129.91566228    154.769981    0.00000    0.57442   -0.55321    3    diag
    5      0.167D-02      0.523D-03      -129.91578122    154.856827    0.00000    0.57985   -0.55406    4    diag
    6      0.730D-03      0.157D-03      -129.91580106    154.841639    0.00000    0.58033   -0.54967    5    diag
    7      0.284D-03      0.793D-04      -129.91580707    154.843844    0.00000    0.58155   -0.54702    6    diag
    8      0.198D-03      0.263D-04      -129.91580770    154.843106    0.00000    0.58156   -0.54613    7    diag
    9      0.713D-04      0.483D-05      -129.91580773    154.842976    0.00000    0.58150   -0.54595    8    diag
   10      0.140D-04      0.104D-05      -129.91580773    154.842958    0.00000    0.58147   -0.54593    9    orth
   11      0.292D-05      0.204D-06      -129.91580773    154.842954    0.00000    0.58146   -0.54593    9    diag
   12      0.529D-06      0.439D-07      -129.91580773    154.842953    0.00000    0.58146   -0.54592    9    diag
   13      0.118D-06      0.113D-07      -129.91580773    154.842952    0.00000    0.58146   -0.54592    9    diag
   14      0.302D-07      0.203D-08      -129.91580773    154.842952    0.00000    0.58146   -0.54592    9    diag
   15      0.452D-08      0.515D-09      -129.91580773    154.842952    0.00000    0.58146   -0.54592    9    diag
   16      0.112D-08      0.123D-09      -129.91580773    154.842952    0.00000    0.58146   -0.54592    9    diag
   17      0.177D-09      0.348D-10      -129.91580773    154.842952    0.00000    0.58146   -0.54592    9    diag
   18      0.531D-10      0.118D-10      -129.91580773    154.842952    0.00000    0.58146   -0.54592    9    diag
   19      0.230D-10      0.254D-11      -129.91580773    154.842952    0.00000    0.58146   -0.54592    0    orth

 Final occupancy:   7   1

 !RHF STATE 1.1 Energy               -129.915807727928
 Nuclear energy                        30.13151686
 One-electron energy                 -237.46880069
 Two-electron energy                   77.42147610
 Virial quotient                       -0.99790585
 !RHF STATE 1.1 Dipole moment           0.00000000     0.58145832    -0.54592429
 Dipole moment /Debye                   0.00000000     1.47782285    -1.38751025

 Orbital energies:

         1.1          2.1          3.1          4.1          5.1          6.1          7.1          8.1          9.1
    -20.666091   -15.719184    -1.519310    -0.993236    -0.739479    -0.658904    -0.429443     0.143128     0.368157

         1.2          2.2          3.2
     -0.587278     0.082819     0.614127

 HOMO      7.1    -0.429443 =     -11.6857eV
 LUMO      2.2     0.082819 =       2.2536eV
 LUMO-HOMO         0.512261 =      13.9393eV


 **********************************************************************************************************************************
 DATASETS  * FILE   NREC   LENGTH (MB)   RECORD NAMES
              1      23       36.03       500      610      700      900      950      970     1000      129      960     1700   
                                          VAR    BASINP    GEOM    SYMINP    ZMAT    AOBASIS   BASIS     P2S    ABASIS    OPER   
                                         1101     1401     1411     1412     1650     1100     1400     1410     1200     1210   
                                          SR      EKINR    POTR     PVPR    MOLCAS      S      EKIN      POT      H0       H01  
                                         1300     1080     1600   
                                         ERIS     AOSYM     SMH  

              2       4        2.85       700     1000      520     2100   
                                         GEOM     BASIS   MCVARS     RHF  

 PROGRAMS   *        TOTAL        HF       INT
 CPU TIMES  *         0.89      0.23      0.58
 REAL TIME  *         1.48 SEC
 DISK USED  *        75.75 MB      
 **********************************************************************************************************************************


 PROGRAM * CCSD (Closed-shell coupled cluster)     Authors: C. Hampel, H.-J. Werner, 1991, M. Deegan, P.J. Knowles, 1992


 Convergence thresholds:  THRVAR = 1.00D-08  THRDEN = 1.00D-12

 CCSD(T)     terms to be evaluated (factor= 1.000)


 Number of core orbitals:           2 (   2   0 )
 Number of closed-shell orbitals:   6 (   5   1 )
 Number of external orbitals:      66 (  43  23 )

 Molecular orbitals read from record     2100.2  Type=RHF/CANONICAL (state 1.1)

 Number of N-1 electron functions:               6
 Number of N-2 electron functions:              21
 Number of singly external CSFs:               238
 Number of doubly external CSFs:             41002
 Total number of CSFs:                       41241

 Length of J-op  integral file:               0.00 MB
 Length of K-op  integral file:               0.25 MB
 Length of 3-ext integral record:             0.00 MB

 Memory could be reduced to 1.65 Mwords without degradation in triples

 Integral transformation finished. Total CPU:   0.03 sec, npass=  1  Memory used:   0.55 MW

 Reference energy:                   -129.91580773

 MP2 singlet pair energy:              -0.27494131
 MP2 triplet pair energy:              -0.16334809
 MP2 correlation energy:               -0.43828940
 MP2 total energy:                   -130.35409713

 SCS-MP2 correlation energy:           -0.43156839   (PS=  1.200000  PT=  0.333333)
 SCS-MP2 total energy:               -130.34737611

 ITER.      SQ.NORM     CORR.ENERGY   TOTAL ENERGY   ENERGY CHANGE        DEN1      VAR(S)    VAR(P)  DIIS     TIME  TIME/IT
   1      1.11971238    -0.44296873  -130.35877646    -0.00467933     0.01157938  0.31D-02  0.31D-02  1  1     0.07     0.04
   2      1.13083836    -0.44313810  -130.35894583    -0.00016937    -0.01255787  0.94D-04  0.52D-03  2  2     0.11     0.04
   3      1.13736186    -0.44354269  -130.35935042    -0.00040459    -0.00305858  0.50D-04  0.53D-04  3  3     0.14     0.04
   4      1.14029757    -0.44356945  -130.35937718    -0.00002675    -0.00099464  0.44D-05  0.93D-05  4  4     0.17     0.04
   5      1.14136234    -0.44360114  -130.35940887    -0.00003169    -0.00022080  0.14D-05  0.17D-05  5  5     0.21     0.04
   6      1.14173854    -0.44358320  -130.35939092     0.00001794    -0.00004315  0.10D-06  0.41D-06  6  6     0.24     0.04
   7      1.14182466    -0.44358532  -130.35939305    -0.00000213    -0.00000176  0.12D-07  0.91D-07  6  1     0.28     0.04
   8      1.14185581    -0.44358520  -130.35939293     0.00000013     0.00000186  0.44D-08  0.12D-07  6  2     0.31     0.04
   9      1.14186415    -0.44358495  -130.35939268     0.00000025    -0.00000230  0.26D-08  0.13D-08  6  3     0.34     0.04
  10      1.14186289    -0.44358549  -130.35939322    -0.00000053     0.00000063  0.51D-09  0.23D-09  6  4     0.38     0.04
  11      1.14186113    -0.44358555  -130.35939327    -0.00000006     0.00000018  0.16D-09  0.25D-10  6  5     0.42     0.04
  12      1.14185968    -0.44358574  -130.35939346    -0.00000019     0.00000045  0.16D-10  0.80D-11  6  6     0.46     0.04
  13      1.14185903    -0.44358574  -130.35939347    -0.00000001     0.00000013  0.69D-11  0.13D-11  6  1     0.49     0.04
  14      1.14185862    -0.44358577  -130.35939349    -0.00000002     0.00000008  0.98D-12  0.46D-12  6  2     0.53     0.04
  15      1.14185846    -0.44358577  -130.35939350    -0.00000000     0.00000002  0.26D-12  0.14D-12  6  3     0.57     0.04
  16      1.14185834    -0.44358577  -130.35939350    -0.00000000     0.00000002  0.82D-14  0.37D-13  6  1     0.61     0.04
  17      1.14185832    -0.44358577  -130.35939350     0.00000000    -0.00000000  0.29D-14  0.25D-14  6  4     0.65     0.04
  18      1.14185831    -0.44358577  -130.35939350    -0.00000000     0.00000000  0.71D-15  0.42D-15  6  5     0.68     0.04
  19      1.14185831    -0.44358577  -130.35939350     0.00000000    -0.00000000  0.14D-15  0.83D-16  6  6     0.72     0.04
  20      1.14185831    -0.44358577  -130.35939350    -0.00000000     0.00000000  0.23D-16  0.21D-16  6  2     0.77     0.04
  21      1.14185831    -0.44358577  -130.35939350    -0.00000000     0.00000000  0.63D-18  0.15D-17  6  4     0.81     0.04
  22      1.14185831    -0.44358577  -130.35939350    -0.00000000     0.00000000  0.93D-19  0.15D-18  6  3     0.84     0.04
  23      1.14185831    -0.44358577  -130.35939350    -0.00000000     0.00000000  0.85D-20  0.16D-19  6  1     0.88     0.04
  24      1.14185831    -0.44358577  -130.35939350     0.00000000     0.00000000  0.45D-20  0.21D-20  6  6     0.92     0.04
  25      1.14185831    -0.44358577  -130.35939350     0.00000000    -0.00000000  0.28D-21  0.50D-21  6  4     0.96     0.04

 Norm of t1 vector:      0.07691432      S-energy:     0.00000000      T1 diagnostic:  0.01570007
                                                                       D1 diagnostic:  0.04377391

 Doubles amplitudes (print threshold =  0.500E-01):

         I         J         SYM. A    SYM. B    A         B      T(IJ, AB)

         6         6         2         2         1         1     -0.14646447


 Total CPU time for triples:      0.24 sec


 RESULTS
 =======

  Reference energy                   -129.915807727927
  CCSD singlet pair energy             -0.304413906023
  CCSD triplet pair energy             -0.139171866439
  CCSD correlation energy              -0.443585772461

  Triples (T) contribution             -0.020126737817
  Total correlation energy             -0.463712510278

  CCSD total energy                  -130.359393500389
  CCSD[T] energy                     -130.380588207381
  CCSD-T energy                      -130.379109328775
 !CCSD(T) total energy               -130.379520238205

 Timing summary (sec):

 STEP                 CPU(USER)    SYS     CPU(TOT)    WALL
 Transformation          0.04      0.01      0.05      0.04
 CCSD iterations         0.92      0.13      1.05      1.08
 Triples                 0.24      0.00      0.24      0.24

 Program statistics:

 Available memory in ccsd:               994999756
 Min. memory needed in ccsd:                154850
 Max. memory used in ccsd:                  184802
 Max. memory used in cckext:                238416 (25 integral passes)



 **********************************************************************************************************************************
 DATASETS  * FILE   NREC   LENGTH (MB)   RECORD NAMES
              1      24       40.41       500      610      700      900      950      970     1000      129      960     1700   
                                          VAR    BASINP    GEOM    SYMINP    ZMAT    AOBASIS   BASIS     P2S    ABASIS    OPER   
                                         1101     1401     1411     1412     1650     1100     1400     1410     1200     1210   
                                          SR      EKINR    POTR     PVPR    MOLCAS      S      EKIN      POT      H0       H01  
                                         1300     1080     1600     1380   
                                         ERIS     AOSYM     SMH     JKOP   

              2       4        2.85       700     1000      520     2100   
                                         GEOM     BASIS   MCVARS     RHF  

 PROGRAMS   *        TOTAL   CCSD(T)        HF       INT
 CPU TIMES  *         2.11      1.22      0.23      0.58
 REAL TIME  *         2.86 SEC
 DISK USED  *        75.75 MB      
 **********************************************************************************************************************************

 CCSD(T)/cc-pVTZ-DK energy=   -130.379520238205

        CCSD(T)         HF-SCF  
   -130.37952024   -129.91580773
 **********************************************************************************************************************************
 Molpro calculation terminated
 Variable memory released
