
 Primary working directories    : /tmp/r2666/282656.maple
 Secondary working directories  : /tmp/r2666/282656.maple
 Wavefunction directory         : /ddn/home4/r2666/wfu/
 Main file repository           : /tmp/r2666/282656.maple/

 SHA1      : d5ffa45e93fdbca01ffc919aa182cfdae0147319
 NAME      : 2015.1.35
 ARCHNAME  : linux/x86_64
 FC        : /opt/intel/composer_xe_2015.1.133/bin/intel64/ifort
 BLASLIB   : -Wl,-_start-group /opt/intel/mkl/lib/intel64/libmkl_intel_ilp64.a /opt/intel/mkl/lib/intel64/libmkl_intel_thread.a /opt/intel/mkl/lib/intel64/libmkl_core.a -Wl,-_end-group
 id        : olemiss

 Nodes     nprocs
 cn079        1

 Using customized tuning parameters: mindgm=1; mindgv=20; mindgc=4; mindgr=1; noblas=0; minvec=7
 default implementation of scratch files=df  

 ***,hno CCSD(T)/TZ-F12 QFF
 memory, 995, m;
 gthresh,energy=1.d-12,zero=1.d-22,oneint=1.d-22,twoint=1.d-22;
 gthresh,optgrad=1.d-8,optstep=1.d-8;
 nocompress;
 geomtyp=xyz
 bohr
 geometry={
 3
         37        37
 H        0.0000000000        1.6626528405       -1.9206412104
 N        0.0000000000       -0.1624103316       -1.1564207603
 O        0.0000000000        0.0415252811        1.1264723797
 }
 
 basis=vtz-dk
 dkroll=1
   {hf,maxit=500;accu,20;}
 {ccsd(t),nocheck,maxit=250;orbital,IGNORE_ERROR;}

 Variables initialized (889), CPU time= 0.00 sec
 Commands  initialized (702), CPU time= 0.02 sec, 572 directives.
 Default parameters read. Elapsed time= 0.04 sec

 Checking input...
 Passed
1


                                         ***  PROGRAM SYSTEM MOLPRO  ***
                                       Copyright, TTI GmbH Stuttgart, 2015
                                    Version 2015.1 linked Jul  9 2018 13:16:40


 **********************************************************************************************************************************
 LABEL *   hno CCSD(T)/TZ-F12 QFF                                                        
  64 bit serial version                                                                  DATE: 04-Mar-20          TIME: 13:51:09  
 **********************************************************************************************************************************

 SHA1:             d5ffa45e93fdbca01ffc919aa182cfdae0147319
 **********************************************************************************************************************************

 THRESHOLDS:

 ZERO    =  1.00D-22  ONEINT  =  1.00D-22  TWOINT  =  1.00D-22  PREFAC  =  1.00D-14  LOCALI  =  1.00D-09  EORDER  =  1.00D-04
 ENERGY  =  1.00D-12  ETEST   =  0.00D+00  EDENS   =  0.00D+00  THRDEDEF=  1.00D-06  GRADIENT=  1.00D-02  STEP    =  1.00D-03
 ORBITAL =  1.00D-05  CIVEC   =  1.00D-05  COEFF   =  1.00D-04  PRINTCI =  5.00D-02  PUNCHCI =  9.90D+01  OPTGRAD =  3.00D-04
 OPTENERG=  1.00D-06  OPTSTEP =  3.00D-04  THRGRAD =  1.00D-10  COMPRESS=  1.00D-11  VARMIN  =  1.00D-07  VARMAX  =  1.00D-03
 THRDOUB =  0.00D+00  THRDIV  =  1.00D-05  THRRED  =  1.00D-07  THRPSP  =  1.00D+00  THRDC   =  1.00D-10  THRCS   =  1.00D-10
 THRNRM  =  1.00D-08  THREQ   =  0.00D+00  THRDE   =  1.00D+00  THRREF  =  1.00D-05  SPARFAC =  1.00D+00  THRDLP  =  1.00D-07
 THRDIA  =  1.00D-10  THRDLS  =  1.00D-07  THRGPS  =  0.00D+00  THRKEX  =  0.00D+00  THRDIS  =  2.00D-01  THRVAR  =  1.00D-10
 THRLOC  =  1.00D-06  THRGAP  =  1.00D-06  THRLOCT = -1.00D+00  THRGAPT = -1.00D+00  THRORB  =  1.00D-06  THRMLTP =  0.00D+00
 THRCPQCI=  1.00D-10  KEXTA   =  0.00D+00  THRCOARS=  0.00D+00  SYMTOL  =  1.00D-06  GRADTOL =  1.00D-06  THROVL  =  1.00D-08
 THRORTH =  1.00D-08  GRID    =  1.00D-06  GRIDMAX =  1.00D-03  DTMAX   =  0.00D+00  THROCCDE=  1.00D-01  THROCCDE=  1.00D-01



 THRESHOLDS:

 ZERO    =  1.00D-22  ONEINT  =  1.00D-22  TWOINT  =  1.00D-22  PREFAC  =  1.00D-14  LOCALI  =  1.00D-09  EORDER  =  1.00D-04
 ENERGY  =  1.00D-12  ETEST   =  0.00D+00  EDENS   =  0.00D+00  THRDEDEF=  1.00D-06  GRADIENT=  1.00D-02  STEP    =  1.00D-03
 ORBITAL =  1.00D-05  CIVEC   =  1.00D-05  COEFF   =  1.00D-04  PRINTCI =  5.00D-02  PUNCHCI =  9.90D+01  OPTGRAD =  1.00D-08
 OPTENERG=  1.00D-06  OPTSTEP =  1.00D-08  THRGRAD =  1.00D-10  COMPRESS=  1.00D-11  VARMIN  =  1.00D-07  VARMAX  =  1.00D-03
 THRDOUB =  0.00D+00  THRDIV  =  1.00D-05  THRRED  =  1.00D-07  THRPSP  =  1.00D+00  THRDC   =  1.00D-10  THRCS   =  1.00D-10
 THRNRM  =  1.00D-08  THREQ   =  0.00D+00  THRDE   =  1.00D+00  THRREF  =  1.00D-05  SPARFAC =  1.00D+00  THRDLP  =  1.00D-07
 THRDIA  =  1.00D-10  THRDLS  =  1.00D-07  THRGPS  =  0.00D+00  THRKEX  =  0.00D+00  THRDIS  =  2.00D-01  THRVAR  =  1.00D-10
 THRLOC  =  1.00D-06  THRGAP  =  1.00D-06  THRLOCT = -1.00D+00  THRGAPT = -1.00D+00  THRORB  =  1.00D-06  THRMLTP =  0.00D+00
 THRCPQCI=  1.00D-10  KEXTA   =  0.00D+00  THRCOARS=  0.00D+00  SYMTOL  =  1.00D-06  GRADTOL =  1.00D-06  THROVL  =  1.00D-08
 THRORTH =  1.00D-08  GRID    =  1.00D-06  GRIDMAX =  1.00D-03  DTMAX   =  0.00D+00  THROCCDE=  1.00D-01  THROCCDE=  1.00D-01



 Input parameters for SORTINT:

 COMPRESS =    0.000000
 C_FINAL  =    1.000000
 DEBUG    =   -1.000000
 C_SORT1  =    0.000000
 C_SEWARD =    0.000000
 THRESH   =    0.000000
 IO       =  molpro                                                          
 SPRI     =    0.000000
 SETTING GEOMTYP        =    XYZ
 ZUNIT=BOHR
 

 Variable memory set to  995000000 words,  buffer space   230000 words

 SETTING BASIS          =    VTZ-DK
 SETTING DKROLL         =         1.00000000                                  


 Recomputing integrals since basis changed


 Using spherical harmonics

 Library entry H      S cc-pVTZ-DK           selected for orbital group  1
 Library entry H      P cc-pVTZ-DK           selected for orbital group  1
 Library entry H      D cc-pVTZ-DK           selected for orbital group  1
 Library entry N      S cc-pVTZ-DK           selected for orbital group  2
 Library entry N      P cc-pVTZ-DK           selected for orbital group  2
 Library entry N      D cc-pVTZ-DK           selected for orbital group  2
 Library entry N      F cc-pVTZ-DK           selected for orbital group  2
 Library entry O      S cc-pVTZ-DK           selected for orbital group  3
 Library entry O      P cc-pVTZ-DK           selected for orbital group  3
 Library entry O      D cc-pVTZ-DK           selected for orbital group  3
 Library entry O      F cc-pVTZ-DK           selected for orbital group  3


 PROGRAM * SEWARD (Integral evaluation for generally contracted gaussian basis sets)     Author: Roland Lindh, 1990

 Geometry written to block  1 of record 700


 Point group  Cs  



 ATOMIC COORDINATES

 NR  ATOM    CHARGE       X              Y              Z

   1  H       1.00    0.000000000    1.662652841   -1.920641210
   2  N       7.00    0.000000000   -0.162410332   -1.156420760
   3  O       8.00    0.000000000    0.041525281    1.126472380

 Bond lengths in Bohr (Angstrom)

 1-2  1.978607712  2-3  2.291984036
     ( 1.047034111)     ( 1.212865720)

 Bond angles

  1-2-3  107.61603570

 NUCLEAR CHARGE:                   16
 NUMBER OF PRIMITIVE AOS:         111
 NUMBER OF SYMMETRY AOS:          100
 NUMBER OF CONTRACTIONS:           74   (  50A'  +  24A"  )
 NUMBER OF CORE ORBITALS:           2   (   2A'  +   0A"  )
 NUMBER OF VALENCE ORBITALS:        9   (   7A'  +   2A"  )


 NUCLEAR REPULSION ENERGY   30.28864396

 One-electron integrals computed with SEWARD

 2nd-order Douglas-Kroll-Hess method activated. Optimal DKH parametrization is used.

 Computing Douglas-Kroll / X2C integrals


        1874283. INTEGRALS WRITTEN OUT IN     458 BLOCKS ON RECORD 1290 OF FILE 1


 NUMBER OF SORTED TWO-ELECTRON INTEGRALS:    2006100.     BUFFER LENGTH:  32768
 NUMBER OF SEGMENTS:   1  SEGMENT LENGTH:    2006100      RECORD LENGTH: 524288

 Memory used in sort:       2.56 MW

 SORT1 READ     1874283. AND WROTE     1914195. INTEGRALS IN      6 RECORDS. CPU TIME:     0.04 SEC, REAL TIME:     0.04 SEC
 SORT2 READ     1914195. AND WROTE     2006100. INTEGRALS IN      1 RECORDS. CPU TIME:     0.05 SEC, REAL TIME:     0.06 SEC

 FILE SIZES:   FILE 1:    50.2 MBYTE,  FILE 4:    25.2 MBYTE,   TOTAL:     75.4 MBYTE

 OPERATOR DM      FOR CENTER  0  COORDINATES:    0.000000    0.000000    0.000000

 Eigenvalues of metric

         1 0.245E-02 0.396E-02 0.423E-02 0.828E-02 0.129E-01 0.329E-01 0.428E-01 0.464E-01
         2 0.344E-01 0.465E-01 0.102E+00 0.111E+00 0.235E+00 0.340E+00 0.396E+00 0.450E+00


 **********************************************************************************************************************************
 DATASETS  * FILE   NREC   LENGTH (MB)   RECORD NAMES
              1      23       36.03       500      610      700      900      950      970     1000      129      960     1700   
                                          VAR    BASINP    GEOM    SYMINP    ZMAT    AOBASIS   BASIS     P2S    ABASIS    OPER   
                                         1101     1401     1411     1412     1650     1100     1400     1410     1200     1210   
                                          SR      EKINR    POTR     PVPR    MOLCAS      S      EKIN      POT      H0       H01  
                                         1300     1080     1600   
                                         ERIS     AOSYM     SMH  

 PROGRAMS   *        TOTAL       INT
 CPU TIMES  *         0.69      0.60
 REAL TIME  *         1.22 SEC
 DISK USED  *        75.75 MB      
 **********************************************************************************************************************************


 PROGRAM * RHF-SCF (CLOSED SHELL)       Authors: W. Meyer, H.-J. Werner


 NUMBER OF ELECTRONS:       8+    8-
 CONVERGENCE THRESHOLDS:    1.00E-10 (Density)    1.00E-13 (Energy)
 MAX. NUMBER OF ITERATIONS:      500
 INTERPOLATION TYPE:            DIIS
 INTERPOLATION STEPS:              2 (START)      1 (STEP)
 LEVEL SHIFTS:                  0.00 (CLOSED)  0.00 (OPEN) 



 Orbital guess generated from atomic densities. Full valence occupancy:    9   2

 Molecular orbital dump at record        2100.2

 Initial occupancy:   7   1

 ITERATION    DDIFF          GRAD             ENERGY        2-EL.EN.            DIPOLE MOMENTS         DIIS   ORB.
    1      0.000D+00      0.000D+00      -129.86646883    154.086741    0.00000    0.59074   -1.05375    0    start
    2      0.000D+00      0.136D-01      -129.89305505    155.180612    0.00000    0.61890   -0.21725    1    diag
    3      0.187D-01      0.105D-01      -129.91613458    155.322926    0.00000    0.56504   -0.60570    2    diag
    4      0.912D-02      0.156D-02      -129.91687680    155.054888    0.00000    0.57374   -0.54577    3    diag
    5      0.166D-02      0.517D-03      -129.91699227    155.140401    0.00000    0.57901   -0.54664    4    diag
    6      0.721D-03      0.154D-03      -129.91701142    155.125419    0.00000    0.57951   -0.54238    5    diag
    7      0.279D-03      0.778D-04      -129.91701716    155.127635    0.00000    0.58070   -0.53978    6    diag
    8      0.195D-03      0.253D-04      -129.91701774    155.126923    0.00000    0.58071   -0.53893    7    diag
    9      0.680D-04      0.460D-05      -129.91701776    155.126803    0.00000    0.58066   -0.53877    8    diag
   10      0.132D-04      0.997D-06      -129.91701776    155.126786    0.00000    0.58063   -0.53875    9    orth
   11      0.282D-05      0.195D-06      -129.91701776    155.126782    0.00000    0.58062   -0.53875    9    diag
   12      0.511D-06      0.415D-07      -129.91701776    155.126781    0.00000    0.58062   -0.53875    9    diag
   13      0.112D-06      0.104D-07      -129.91701776    155.126781    0.00000    0.58062   -0.53875    9    diag
   14      0.282D-07      0.187D-08      -129.91701776    155.126781    0.00000    0.58062   -0.53874    9    diag
   15      0.429D-08      0.474D-09      -129.91701776    155.126781    0.00000    0.58062   -0.53874    9    diag
   16      0.104D-08      0.111D-09      -129.91701776    155.126781    0.00000    0.58062   -0.53874    9    diag
   17      0.165D-09      0.302D-10      -129.91701776    155.126781    0.00000    0.58062   -0.53874    9    diag
   18      0.463D-10      0.970D-11      -129.91701776    155.126781    0.00000    0.58062   -0.53874    9    diag
   19      0.187D-10      0.190D-11      -129.91701776    155.126781    0.00000    0.58062   -0.53874    9    fixocc
   20      0.436D-11      0.295D-12      -129.91701776    155.126781    0.00000    0.58062   -0.53874    9    orth
   21      0.775D-12      0.100D-12      -129.91701776    155.126781    0.00000    0.58062   -0.53874    9    diag
   22      0.291D-12      0.258D-13      -129.91701776    155.126781    0.00000    0.58062   -0.53874    9    diag
   23      0.825D-13      0.193D-13      -129.91701776    155.126781    0.00000    0.58062   -0.53874    0    orth

 Final occupancy:   7   1

 !RHF STATE 1.1 Energy               -129.917017762434
 Nuclear energy                        30.28864396
 One-electron energy                 -237.76905209
 Two-electron energy                   77.56339037
 Virial quotient                       -0.99762706
 !RHF STATE 1.1 Dipole moment           0.00000000     0.58061745    -0.53874499
 Dipole moment /Debye                   0.00000000     1.47568569    -1.36926349

 Orbital energies:

         1.1          2.1          3.1          4.1          5.1          6.1          7.1          8.1          9.1
    -20.665283   -15.717076    -1.523760    -0.994218    -0.742125    -0.660226    -0.428912     0.144203     0.368832

         1.2          2.2          3.2
     -0.589537     0.084716     0.613580

 HOMO      7.1    -0.428912 =     -11.6713eV
 LUMO      2.2     0.084716 =       2.3052eV
 LUMO-HOMO         0.513627 =      13.9765eV


 **********************************************************************************************************************************
 DATASETS  * FILE   NREC   LENGTH (MB)   RECORD NAMES
              1      23       36.03       500      610      700      900      950      970     1000      129      960     1700   
                                          VAR    BASINP    GEOM    SYMINP    ZMAT    AOBASIS   BASIS     P2S    ABASIS    OPER   
                                         1101     1401     1411     1412     1650     1100     1400     1410     1200     1210   
                                          SR      EKINR    POTR     PVPR    MOLCAS      S      EKIN      POT      H0       H01  
                                         1300     1080     1600   
                                         ERIS     AOSYM     SMH  

              2       4        2.85       700     1000      520     2100   
                                         GEOM     BASIS   MCVARS     RHF  

 PROGRAMS   *        TOTAL        HF       INT
 CPU TIMES  *         0.94      0.25      0.60
 REAL TIME  *         1.51 SEC
 DISK USED  *        75.75 MB      
 **********************************************************************************************************************************


 PROGRAM * CCSD (Closed-shell coupled cluster)     Authors: C. Hampel, H.-J. Werner, 1991, M. Deegan, P.J. Knowles, 1992


 Convergence thresholds:  THRVAR = 1.00D-08  THRDEN = 1.00D-12

 CCSD(T)     terms to be evaluated (factor= 1.000)


 Number of core orbitals:           2 (   2   0 )
 Number of closed-shell orbitals:   6 (   5   1 )
 Number of external orbitals:      66 (  43  23 )

 Molecular orbitals read from record     2100.2  Type=RHF/CANONICAL (state 1.1)

 Number of N-1 electron functions:               6
 Number of N-2 electron functions:              21
 Number of singly external CSFs:               238
 Number of doubly external CSFs:             41002
 Total number of CSFs:                       41241

 Length of J-op  integral file:               0.00 MB
 Length of K-op  integral file:               0.25 MB
 Length of 3-ext integral record:             0.00 MB

 Memory could be reduced to 1.65 Mwords without degradation in triples

 Integral transformation finished. Total CPU:   0.03 sec, npass=  1  Memory used:   0.55 MW

 Reference energy:                   -129.91701776

 MP2 singlet pair energy:              -0.27417348
 MP2 triplet pair energy:              -0.16286350
 MP2 correlation energy:               -0.43703698
 MP2 total energy:                   -130.35405474

 SCS-MP2 correlation energy:           -0.43034546   (PS=  1.200000  PT=  0.333333)
 SCS-MP2 total energy:               -130.34736323

 ITER.      SQ.NORM     CORR.ENERGY   TOTAL ENERGY   ENERGY CHANGE        DEN1      VAR(S)    VAR(P)  DIIS     TIME  TIME/IT
   1      1.11881255    -0.44192970  -130.35894746    -0.00489272     0.01105152  0.30D-02  0.30D-02  1  1     0.08     0.05
   2      1.12973520    -0.44214611  -130.35916387    -0.00021641    -0.01237390  0.90D-04  0.51D-03  2  2     0.11     0.04
   3      1.13607182    -0.44253348  -130.35955124    -0.00038737    -0.00299824  0.47D-04  0.52D-04  3  3     0.15     0.04
   4      1.13891469    -0.44256139  -130.35957915    -0.00002791    -0.00096880  0.40D-05  0.90D-05  4  4     0.18     0.04
   5      1.13992145    -0.44259113  -130.35960890    -0.00002974    -0.00020883  0.13D-05  0.17D-05  5  5     0.21     0.04
   6      1.14028002    -0.44257414  -130.35959190     0.00001699    -0.00004111  0.92D-07  0.41D-06  6  6     0.25     0.04
   7      1.14036293    -0.44257637  -130.35959413    -0.00000223    -0.00000170  0.11D-07  0.89D-07  6  1     0.28     0.04
   8      1.14039290    -0.44257629  -130.35959405     0.00000008     0.00000202  0.45D-08  0.11D-07  6  2     0.31     0.04
   9      1.14040051    -0.44257612  -130.35959388     0.00000017    -0.00000232  0.25D-08  0.12D-08  6  3     0.34     0.04
  10      1.14039923    -0.44257662  -130.35959438    -0.00000050     0.00000067  0.48D-09  0.20D-09  6  4     0.36     0.04
  11      1.14039757    -0.44257667  -130.35959444    -0.00000006     0.00000014  0.14D-09  0.22D-10  6  5     0.39     0.04
  12      1.14039621    -0.44257685  -130.35959461    -0.00000018     0.00000042  0.14D-10  0.71D-11  6  6     0.43     0.04
  13      1.14039563    -0.44257686  -130.35959462    -0.00000001     0.00000012  0.61D-11  0.12D-11  6  1     0.46     0.04
  14      1.14039526    -0.44257688  -130.35959464    -0.00000002     0.00000007  0.88D-12  0.41D-12  6  2     0.49     0.04
  15      1.14039512    -0.44257688  -130.35959464    -0.00000000     0.00000001  0.23D-12  0.13D-12  6  3     0.53     0.04
  16      1.14039501    -0.44257688  -130.35959465    -0.00000000     0.00000002  0.71D-14  0.34D-13  6  1     0.56     0.04
  17      1.14039500    -0.44257688  -130.35959464     0.00000000    -0.00000000  0.27D-14  0.24D-14  6  4     0.60     0.04
  18      1.14039499    -0.44257688  -130.35959464    -0.00000000     0.00000000  0.68D-15  0.41D-15  6  5     0.63     0.04
  19      1.14039499    -0.44257688  -130.35959464     0.00000000    -0.00000000  0.12D-15  0.74D-16  6  6     0.66     0.04
  20      1.14039499    -0.44257688  -130.35959464    -0.00000000     0.00000000  0.18D-16  0.18D-16  6  2     0.69     0.04
  21      1.14039499    -0.44257688  -130.35959464    -0.00000000     0.00000000  0.25D-17  0.21D-17  6  3     0.73     0.04
  22      1.14039499    -0.44257688  -130.35959464    -0.00000000     0.00000000  0.24D-18  0.33D-18  6  4     0.77     0.04
  23      1.14039499    -0.44257688  -130.35959464    -0.00000000     0.00000000  0.95D-19  0.28D-19  6  1     0.81     0.04
  24      1.14039499    -0.44257688  -130.35959464     0.00000000    -0.00000000  0.16D-19  0.11D-19  6  6     0.84     0.04
  25      1.14039499    -0.44257688  -130.35959464     0.00000000    -0.00000000  0.30D-20  0.65D-21  6  5     0.88     0.04
  26      1.14039499    -0.44257688  -130.35959464     0.00000000    -0.00000000  0.61D-21  0.26D-21  6  2     0.91     0.04
  27      1.14039499    -0.44257688  -130.35959464     0.00000000    -0.00000000  0.22D-22  0.16D-22  6  3     0.94     0.04

 Norm of t1 vector:      0.07538003      S-energy:    -0.00000000      T1 diagnostic:  0.01538688
                                                                       D1 diagnostic:  0.04302055

 Doubles amplitudes (print threshold =  0.500E-01):

         I         J         SYM. A    SYM. B    A         B      T(IJ, AB)

         6         6         2         2         1         1     -0.14515442


 Total CPU time for triples:      0.23 sec


 RESULTS
 =======

  Reference energy                   -129.917017762434
  CCSD singlet pair energy             -0.303535780129
  CCSD triplet pair energy             -0.139041102149
  CCSD correlation energy              -0.442576882279

  Triples (T) contribution             -0.019904032154
  Total correlation energy             -0.462480914433

  CCSD total energy                  -130.359594644712
  CCSD[T] energy                     -130.380530025484
  CCSD-T energy                      -130.379098097021
 !CCSD(T) total energy               -130.379498676867

 Timing summary (sec):

 STEP                 CPU(USER)    SYS     CPU(TOT)    WALL
 Transformation          0.03      0.01      0.04      0.10
 CCSD iterations         0.91      0.17      1.08      1.08
 Triples                 0.23      0.01      0.24      0.24

 Program statistics:

 Available memory in ccsd:               994999756
 Min. memory needed in ccsd:                154850
 Max. memory used in ccsd:                  184802
 Max. memory used in cckext:                238416 (27 integral passes)



 **********************************************************************************************************************************
 DATASETS  * FILE   NREC   LENGTH (MB)   RECORD NAMES
              1      24       40.41       500      610      700      900      950      970     1000      129      960     1700   
                                          VAR    BASINP    GEOM    SYMINP    ZMAT    AOBASIS   BASIS     P2S    ABASIS    OPER   
                                         1101     1401     1411     1412     1650     1100     1400     1410     1200     1210   
                                          SR      EKINR    POTR     PVPR    MOLCAS      S      EKIN      POT      H0       H01  
                                         1300     1080     1600     1380   
                                         ERIS     AOSYM     SMH     JKOP   

              2       4        2.85       700     1000      520     2100   
                                         GEOM     BASIS   MCVARS     RHF  

 PROGRAMS   *        TOTAL   CCSD(T)        HF       INT
 CPU TIMES  *         2.15      1.21      0.25      0.60
 REAL TIME  *         3.05 SEC
 DISK USED  *        75.75 MB      
 **********************************************************************************************************************************

 CCSD(T)/cc-pVTZ-DK energy=   -130.379498676867

        CCSD(T)         HF-SCF  
   -130.37949868   -129.91701776
 **********************************************************************************************************************************
 Molpro calculation terminated
 Variable memory released
