
 Primary working directories    : /tmp/r2666/282674.maple
 Secondary working directories  : /tmp/r2666/282674.maple
 Wavefunction directory         : /ddn/home4/r2666/wfu/
 Main file repository           : /tmp/r2666/282674.maple/

 SHA1      : d5ffa45e93fdbca01ffc919aa182cfdae0147319
 NAME      : 2015.1.35
 ARCHNAME  : linux/x86_64
 FC        : /opt/intel/composer_xe_2015.1.133/bin/intel64/ifort
 BLASLIB   : -Wl,-_start-group /opt/intel/mkl/lib/intel64/libmkl_intel_ilp64.a /opt/intel/mkl/lib/intel64/libmkl_intel_thread.a /opt/intel/mkl/lib/intel64/libmkl_core.a -Wl,-_end-group
 id        : olemiss

 Nodes     nprocs
 cn075        1

 Using customized tuning parameters: mindgm=1; mindgv=20; mindgc=4; mindgr=1; noblas=0; minvec=7
 default implementation of scratch files=df  

 ***,hno CCSD(T)/TZ-F12 QFF
 memory, 995, m;
 gthresh,energy=1.d-12,zero=1.d-22,oneint=1.d-22,twoint=1.d-22;
 gthresh,optgrad=1.d-8,optstep=1.d-8;
 nocompress;
 geomtyp=xyz
 bohr
 geometry={
 3
         55        55
 H        0.0000000000        1.6653754404       -1.9163403877
 N        0.0000000000       -0.1684785890       -1.1486507251
 O        0.0000000000        0.0448709386        1.1144015219
 }
 
 basis=vtz-dk
 dkroll=1
   {hf,maxit=500;accu,20;}
 {ccsd(t),nocheck,maxit=250;orbital,IGNORE_ERROR;}

 Variables initialized (889), CPU time= 0.01 sec
 Commands  initialized (702), CPU time= 0.01 sec, 572 directives.
 Default parameters read. Elapsed time= 0.06 sec

 Checking input...
 Passed
1


                                         ***  PROGRAM SYSTEM MOLPRO  ***
                                       Copyright, TTI GmbH Stuttgart, 2015
                                    Version 2015.1 linked Jul  9 2018 13:16:40


 **********************************************************************************************************************************
 LABEL *   hno CCSD(T)/TZ-F12 QFF                                                        
  64 bit serial version                                                                  DATE: 04-Mar-20          TIME: 13:51:11  
 **********************************************************************************************************************************

 SHA1:             d5ffa45e93fdbca01ffc919aa182cfdae0147319
 **********************************************************************************************************************************

 THRESHOLDS:

 ZERO    =  1.00D-22  ONEINT  =  1.00D-22  TWOINT  =  1.00D-22  PREFAC  =  1.00D-14  LOCALI  =  1.00D-09  EORDER  =  1.00D-04
 ENERGY  =  1.00D-12  ETEST   =  0.00D+00  EDENS   =  0.00D+00  THRDEDEF=  1.00D-06  GRADIENT=  1.00D-02  STEP    =  1.00D-03
 ORBITAL =  1.00D-05  CIVEC   =  1.00D-05  COEFF   =  1.00D-04  PRINTCI =  5.00D-02  PUNCHCI =  9.90D+01  OPTGRAD =  3.00D-04
 OPTENERG=  1.00D-06  OPTSTEP =  3.00D-04  THRGRAD =  1.00D-10  COMPRESS=  1.00D-11  VARMIN  =  1.00D-07  VARMAX  =  1.00D-03
 THRDOUB =  0.00D+00  THRDIV  =  1.00D-05  THRRED  =  1.00D-07  THRPSP  =  1.00D+00  THRDC   =  1.00D-10  THRCS   =  1.00D-10
 THRNRM  =  1.00D-08  THREQ   =  0.00D+00  THRDE   =  1.00D+00  THRREF  =  1.00D-05  SPARFAC =  1.00D+00  THRDLP  =  1.00D-07
 THRDIA  =  1.00D-10  THRDLS  =  1.00D-07  THRGPS  =  0.00D+00  THRKEX  =  0.00D+00  THRDIS  =  2.00D-01  THRVAR  =  1.00D-10
 THRLOC  =  1.00D-06  THRGAP  =  1.00D-06  THRLOCT = -1.00D+00  THRGAPT = -1.00D+00  THRORB  =  1.00D-06  THRMLTP =  0.00D+00
 THRCPQCI=  1.00D-10  KEXTA   =  0.00D+00  THRCOARS=  0.00D+00  SYMTOL  =  1.00D-06  GRADTOL =  1.00D-06  THROVL  =  1.00D-08
 THRORTH =  1.00D-08  GRID    =  1.00D-06  GRIDMAX =  1.00D-03  DTMAX   =  0.00D+00  THROCCDE=  1.00D-01  THROCCDE=  1.00D-01



 THRESHOLDS:

 ZERO    =  1.00D-22  ONEINT  =  1.00D-22  TWOINT  =  1.00D-22  PREFAC  =  1.00D-14  LOCALI  =  1.00D-09  EORDER  =  1.00D-04
 ENERGY  =  1.00D-12  ETEST   =  0.00D+00  EDENS   =  0.00D+00  THRDEDEF=  1.00D-06  GRADIENT=  1.00D-02  STEP    =  1.00D-03
 ORBITAL =  1.00D-05  CIVEC   =  1.00D-05  COEFF   =  1.00D-04  PRINTCI =  5.00D-02  PUNCHCI =  9.90D+01  OPTGRAD =  1.00D-08
 OPTENERG=  1.00D-06  OPTSTEP =  1.00D-08  THRGRAD =  1.00D-10  COMPRESS=  1.00D-11  VARMIN  =  1.00D-07  VARMAX  =  1.00D-03
 THRDOUB =  0.00D+00  THRDIV  =  1.00D-05  THRRED  =  1.00D-07  THRPSP  =  1.00D+00  THRDC   =  1.00D-10  THRCS   =  1.00D-10
 THRNRM  =  1.00D-08  THREQ   =  0.00D+00  THRDE   =  1.00D+00  THRREF  =  1.00D-05  SPARFAC =  1.00D+00  THRDLP  =  1.00D-07
 THRDIA  =  1.00D-10  THRDLS  =  1.00D-07  THRGPS  =  0.00D+00  THRKEX  =  0.00D+00  THRDIS  =  2.00D-01  THRVAR  =  1.00D-10
 THRLOC  =  1.00D-06  THRGAP  =  1.00D-06  THRLOCT = -1.00D+00  THRGAPT = -1.00D+00  THRORB  =  1.00D-06  THRMLTP =  0.00D+00
 THRCPQCI=  1.00D-10  KEXTA   =  0.00D+00  THRCOARS=  0.00D+00  SYMTOL  =  1.00D-06  GRADTOL =  1.00D-06  THROVL  =  1.00D-08
 THRORTH =  1.00D-08  GRID    =  1.00D-06  GRIDMAX =  1.00D-03  DTMAX   =  0.00D+00  THROCCDE=  1.00D-01  THROCCDE=  1.00D-01



 Input parameters for SORTINT:

 COMPRESS =    0.000000
 C_FINAL  =    1.000000
 DEBUG    =   -1.000000
 C_SORT1  =    0.000000
 C_SEWARD =    0.000000
 THRESH   =    0.000000
 IO       =  molpro                                                          
 SPRI     =    0.000000
 SETTING GEOMTYP        =    XYZ
 ZUNIT=BOHR
 

 Variable memory set to  995000000 words,  buffer space   230000 words

 SETTING BASIS          =    VTZ-DK
 SETTING DKROLL         =         1.00000000                                  


 Recomputing integrals since basis changed


 Using spherical harmonics

 Library entry H      S cc-pVTZ-DK           selected for orbital group  1
 Library entry H      P cc-pVTZ-DK           selected for orbital group  1
 Library entry H      D cc-pVTZ-DK           selected for orbital group  1
 Library entry N      S cc-pVTZ-DK           selected for orbital group  2
 Library entry N      P cc-pVTZ-DK           selected for orbital group  2
 Library entry N      D cc-pVTZ-DK           selected for orbital group  2
 Library entry N      F cc-pVTZ-DK           selected for orbital group  2
 Library entry O      S cc-pVTZ-DK           selected for orbital group  3
 Library entry O      P cc-pVTZ-DK           selected for orbital group  3
 Library entry O      D cc-pVTZ-DK           selected for orbital group  3
 Library entry O      F cc-pVTZ-DK           selected for orbital group  3


 PROGRAM * SEWARD (Integral evaluation for generally contracted gaussian basis sets)     Author: Roland Lindh, 1990

 Geometry written to block  1 of record 700


 Point group  Cs  



 ATOMIC COORDINATES

 NR  ATOM    CHARGE       X              Y              Z

   1  H       1.00    0.000000000    1.665375440   -1.916340388
   2  N       7.00    0.000000000   -0.168478589   -1.148650725
   3  O       8.00    0.000000000    0.044870939    1.114401522

 Bond lengths in Bohr (Angstrom)

 1-2  1.988056342  2-3  2.273086777
     ( 1.052034110)     ( 1.202865721)

 Bond angles

  1-2-3  107.32955680

 NUCLEAR CHARGE:                   16
 NUMBER OF PRIMITIVE AOS:         111
 NUMBER OF SYMMETRY AOS:          100
 NUMBER OF CONTRACTIONS:           74   (  50A'  +  24A"  )
 NUMBER OF CORE ORBITALS:           2   (   2A'  +   0A"  )
 NUMBER OF VALENCE ORBITALS:        9   (   7A'  +   2A"  )


 NUCLEAR REPULSION ENERGY   30.48489278

 One-electron integrals computed with SEWARD

 2nd-order Douglas-Kroll-Hess method activated. Optimal DKH parametrization is used.

 Computing Douglas-Kroll / X2C integrals


        1874283. INTEGRALS WRITTEN OUT IN     458 BLOCKS ON RECORD 1290 OF FILE 1


 NUMBER OF SORTED TWO-ELECTRON INTEGRALS:    2006100.     BUFFER LENGTH:  32768
 NUMBER OF SEGMENTS:   1  SEGMENT LENGTH:    2006100      RECORD LENGTH: 524288

 Memory used in sort:       2.56 MW

 SORT1 READ     1874283. AND WROTE     1914195. INTEGRALS IN      6 RECORDS. CPU TIME:     0.04 SEC, REAL TIME:     0.05 SEC
 SORT2 READ     1914195. AND WROTE     2006100. INTEGRALS IN      1 RECORDS. CPU TIME:     0.03 SEC, REAL TIME:     0.05 SEC

 FILE SIZES:   FILE 1:    50.2 MBYTE,  FILE 4:    25.2 MBYTE,   TOTAL:     75.4 MBYTE

 OPERATOR DM      FOR CENTER  0  COORDINATES:    0.000000    0.000000    0.000000

 Eigenvalues of metric

         1 0.243E-02 0.394E-02 0.409E-02 0.831E-02 0.130E-01 0.324E-01 0.422E-01 0.464E-01
         2 0.340E-01 0.465E-01 0.101E+00 0.112E+00 0.232E+00 0.341E+00 0.394E+00 0.448E+00


 **********************************************************************************************************************************
 DATASETS  * FILE   NREC   LENGTH (MB)   RECORD NAMES
              1      23       36.03       500      610      700      900      950      970     1000      129      960     1700   
                                          VAR    BASINP    GEOM    SYMINP    ZMAT    AOBASIS   BASIS     P2S    ABASIS    OPER   
                                         1101     1401     1411     1412     1650     1100     1400     1410     1200     1210   
                                          SR      EKINR    POTR     PVPR    MOLCAS      S      EKIN      POT      H0       H01  
                                         1300     1080     1600   
                                         ERIS     AOSYM     SMH  

 PROGRAMS   *        TOTAL       INT
 CPU TIMES  *         0.66      0.56
 REAL TIME  *         1.23 SEC
 DISK USED  *        75.75 MB      
 **********************************************************************************************************************************


 PROGRAM * RHF-SCF (CLOSED SHELL)       Authors: W. Meyer, H.-J. Werner


 NUMBER OF ELECTRONS:       8+    8-
 CONVERGENCE THRESHOLDS:    1.00E-10 (Density)    1.00E-13 (Energy)
 MAX. NUMBER OF ITERATIONS:      500
 INTERPOLATION TYPE:            DIIS
 INTERPOLATION STEPS:              2 (START)      1 (STEP)
 LEVEL SHIFTS:                  0.00 (CLOSED)  0.00 (OPEN) 



 Orbital guess generated from atomic densities. Full valence occupancy:    9   2

 Molecular orbital dump at record        2100.2

 Initial occupancy:   7   1

 ITERATION    DDIFF          GRAD             ENERGY        2-EL.EN.            DIPOLE MOMENTS         DIIS   ORB.
    1      0.000D+00      0.000D+00      -129.86881405    154.436605    0.00000    0.58065   -1.02227    0    start
    2      0.000D+00      0.135D-01      -129.89570501    155.552858    0.00000    0.61183   -0.21946    1    diag
    3      0.184D-01      0.102D-01      -129.91738811    155.673389    0.00000    0.55722   -0.58999    2    diag
    4      0.890D-02      0.154D-02      -129.91811241    155.411633    0.00000    0.56619   -0.53173    3    diag
    5      0.165D-02      0.511D-03      -129.91822536    155.496589    0.00000    0.57149   -0.53278    4    diag
    6      0.712D-03      0.153D-03      -129.91824407    155.481667    0.00000    0.57202   -0.52868    5    diag
    7      0.276D-03      0.762D-04      -129.91824951    155.484008    0.00000    0.57325   -0.52621    6    diag
    8      0.191D-03      0.240D-04      -129.91825001    155.483333    0.00000    0.57326   -0.52543    7    diag
    9      0.631D-04      0.434D-05      -129.91825003    155.483222    0.00000    0.57321   -0.52528    8    diag
   10      0.121D-04      0.961D-06      -129.91825003    155.483205    0.00000    0.57318   -0.52526    9    orth
   11      0.272D-05      0.189D-06      -129.91825003    155.483201    0.00000    0.57317   -0.52526    9    diag
   12      0.502D-06      0.394D-07      -129.91825003    155.483199    0.00000    0.57317   -0.52525    9    diag
   13      0.110D-06      0.968D-08      -129.91825003    155.483199    0.00000    0.57317   -0.52525    9    diag
   14      0.273D-07      0.176D-08      -129.91825003    155.483199    0.00000    0.57317   -0.52525    9    diag
   15      0.444D-08      0.461D-09      -129.91825003    155.483199    0.00000    0.57317   -0.52525    9    diag
   16      0.106D-08      0.116D-09      -129.91825003    155.483199    0.00000    0.57317   -0.52525    9    diag
   17      0.199D-09      0.341D-10      -129.91825003    155.483199    0.00000    0.57317   -0.52525    9    diag
   18      0.635D-10      0.114D-10      -129.91825003    155.483199    0.00000    0.57317   -0.52525    0    orth

 Final occupancy:   7   1

 !RHF STATE 1.1 Energy               -129.918250027212
 Nuclear energy                        30.48489278
 One-electron energy                 -238.14474226
 Two-electron energy                   77.74159945
 Virial quotient                       -0.99737772
 !RHF STATE 1.1 Dipole moment           0.00000000     0.57317144    -0.52525341
 Dipole moment /Debye                   0.00000000     1.45676108    -1.33497356

 Orbital energies:

         1.1          2.1          3.1          4.1          5.1          6.1          7.1          8.1          9.1
    -20.664346   -15.716100    -1.532033    -0.990434    -0.744679    -0.663037    -0.425757     0.144520     0.370217

         1.2          2.2          3.2
     -0.594387     0.088455     0.612438

 HOMO      7.1    -0.425757 =     -11.5854eV
 LUMO      2.2     0.088455 =       2.4070eV
 LUMO-HOMO         0.514212 =      13.9924eV


 **********************************************************************************************************************************
 DATASETS  * FILE   NREC   LENGTH (MB)   RECORD NAMES
              1      23       36.03       500      610      700      900      950      970     1000      129      960     1700   
                                          VAR    BASINP    GEOM    SYMINP    ZMAT    AOBASIS   BASIS     P2S    ABASIS    OPER   
                                         1101     1401     1411     1412     1650     1100     1400     1410     1200     1210   
                                          SR      EKINR    POTR     PVPR    MOLCAS      S      EKIN      POT      H0       H01  
                                         1300     1080     1600   
                                         ERIS     AOSYM     SMH  

              2       4        2.85       700     1000      520     2100   
                                         GEOM     BASIS   MCVARS     RHF  

 PROGRAMS   *        TOTAL        HF       INT
 CPU TIMES  *         0.86      0.20      0.56
 REAL TIME  *         1.48 SEC
 DISK USED  *        75.75 MB      
 **********************************************************************************************************************************


 PROGRAM * CCSD (Closed-shell coupled cluster)     Authors: C. Hampel, H.-J. Werner, 1991, M. Deegan, P.J. Knowles, 1992


 Convergence thresholds:  THRVAR = 1.00D-08  THRDEN = 1.00D-12

 CCSD(T)     terms to be evaluated (factor= 1.000)


 Number of core orbitals:           2 (   2   0 )
 Number of closed-shell orbitals:   6 (   5   1 )
 Number of external orbitals:      66 (  43  23 )

 Molecular orbitals read from record     2100.2  Type=RHF/CANONICAL (state 1.1)

 Number of N-1 electron functions:               6
 Number of N-2 electron functions:              21
 Number of singly external CSFs:               238
 Number of doubly external CSFs:             41002
 Total number of CSFs:                       41241

 Length of J-op  integral file:               0.00 MB
 Length of K-op  integral file:               0.25 MB
 Length of 3-ext integral record:             0.00 MB

 Memory could be reduced to 1.65 Mwords without degradation in triples

 Integral transformation finished. Total CPU:   0.02 sec, npass=  1  Memory used:   0.55 MW

 Reference energy:                   -129.91825003

 MP2 singlet pair energy:              -0.27323349
 MP2 triplet pair energy:              -0.16223781
 MP2 correlation energy:               -0.43547130
 MP2 total energy:                   -130.35372133

 SCS-MP2 correlation energy:           -0.42882816   (PS=  1.200000  PT=  0.333333)
 SCS-MP2 total energy:               -130.34707819

 ITER.      SQ.NORM     CORR.ENERGY   TOTAL ENERGY   ENERGY CHANGE        DEN1      VAR(S)    VAR(P)  DIIS     TIME  TIME/IT
   1      1.11788894    -0.44073172  -130.35898174    -0.00526041     0.01030638  0.29D-02  0.29D-02  1  1     0.06     0.04
   2      1.12859352    -0.44102296  -130.35927299    -0.00029125    -0.01215700  0.85D-04  0.49D-03  2  2     0.09     0.04
   3      1.13474611    -0.44139781  -130.35964783    -0.00037484    -0.00294010  0.45D-04  0.49D-04  3  3     0.13     0.04
   4      1.13747673    -0.44142442  -130.35967444    -0.00002661    -0.00093901  0.38D-05  0.86D-05  4  4     0.17     0.04
   5      1.13843066    -0.44145265  -130.35970268    -0.00002824    -0.00019794  0.13D-05  0.16D-05  5  5     0.20     0.04
   6      1.13877663    -0.44143680  -130.35968682     0.00001586    -0.00003931  0.95D-07  0.40D-06  6  6     0.23     0.04
   7      1.13886010    -0.44143875  -130.35968878    -0.00000195    -0.00000211  0.12D-07  0.83D-07  6  1     0.28     0.04
   8      1.13888996    -0.44143875  -130.35968877     0.00000000     0.00000192  0.42D-08  0.96D-08  6  2     0.31     0.04
   9      1.13889726    -0.44143858  -130.35968861     0.00000017    -0.00000223  0.23D-08  0.11D-08  6  3     0.35     0.04
  10      1.13889606    -0.44143906  -130.35968908    -0.00000048     0.00000062  0.45D-09  0.19D-09  6  4     0.40     0.04
  11      1.13889441    -0.44143911  -130.35968914    -0.00000006     0.00000016  0.14D-09  0.21D-10  6  5     0.44     0.04
  12      1.13889309    -0.44143928  -130.35968931    -0.00000017     0.00000041  0.14D-10  0.68D-11  6  6     0.47     0.04
  13      1.13889252    -0.44143929  -130.35968931    -0.00000001     0.00000011  0.61D-11  0.11D-11  6  1     0.51     0.04
  14      1.13889216    -0.44143930  -130.35968933    -0.00000002     0.00000007  0.87D-12  0.39D-12  6  2     0.54     0.04
  15      1.13889203    -0.44143930  -130.35968933    -0.00000000     0.00000001  0.22D-12  0.13D-12  6  3     0.58     0.04
  16      1.13889194    -0.44143931  -130.35968933    -0.00000000     0.00000001  0.22D-13  0.14D-13  6  5     0.62     0.04
  17      1.13889191    -0.44143931  -130.35968934    -0.00000000     0.00000000  0.64D-15  0.20D-14  6  4     0.65     0.04
  18      1.13889191    -0.44143931  -130.35968933     0.00000000    -0.00000000  0.44D-15  0.28D-15  6  1     0.69     0.04
  19      1.13889191    -0.44143931  -130.35968934    -0.00000000     0.00000000  0.39D-16  0.50D-16  6  6     0.73     0.04
  20      1.13889191    -0.44143931  -130.35968934    -0.00000000     0.00000000  0.86D-17  0.12D-16  6  2     0.76     0.04
  21      1.13889191    -0.44143931  -130.35968934    -0.00000000     0.00000000  0.16D-17  0.93D-18  6  5     0.79     0.04
  22      1.13889191    -0.44143931  -130.35968934     0.00000000     0.00000000  0.94D-19  0.71D-19  6  3     0.83     0.04
  23      1.13889191    -0.44143931  -130.35968934     0.00000000    -0.00000000  0.27D-19  0.15D-19  6  4     0.86     0.04
  24      1.13889191    -0.44143931  -130.35968934     0.00000000    -0.00000000  0.41D-20  0.42D-20  6  1     0.89     0.04
  25      1.13889191    -0.44143931  -130.35968934     0.00000000    -0.00000000  0.51D-21  0.71D-21  6  6     0.93     0.04

 Norm of t1 vector:      0.07399649      S-energy:     0.00000000      T1 diagnostic:  0.01510447
                                                                       D1 diagnostic:  0.04171742

 Doubles amplitudes (print threshold =  0.500E-01):

         I         J         SYM. A    SYM. B    A         B      T(IJ, AB)

         6         6         2         2         1         1     -0.14228986


 Total CPU time for triples:      0.21 sec


 RESULTS
 =======

  Reference energy                   -129.918250027212
  CCSD singlet pair energy             -0.302542253228
  CCSD triplet pair energy             -0.138897054904
  CCSD correlation energy              -0.441439308131

  Triples (T) contribution             -0.019631644955
  Total correlation energy             -0.461070953086

  CCSD total energy                  -130.359689335343
  CCSD[T] energy                     -130.380313848858
  CCSD-T energy                      -130.378929328683
 !CCSD(T) total energy               -130.379320980297

 Timing summary (sec):

 STEP                 CPU(USER)    SYS     CPU(TOT)    WALL
 Transformation          0.02      0.02      0.04      0.04
 CCSD iterations         0.93      0.15      1.08      1.06
 Triples                 0.21      0.02      0.23      0.25

 Program statistics:

 Available memory in ccsd:               994999756
 Min. memory needed in ccsd:                154850
 Max. memory used in ccsd:                  184802
 Max. memory used in cckext:                238416 (25 integral passes)



 **********************************************************************************************************************************
 DATASETS  * FILE   NREC   LENGTH (MB)   RECORD NAMES
              1      24       40.41       500      610      700      900      950      970     1000      129      960     1700   
                                          VAR    BASINP    GEOM    SYMINP    ZMAT    AOBASIS   BASIS     P2S    ABASIS    OPER   
                                         1101     1401     1411     1412     1650     1100     1400     1410     1200     1210   
                                          SR      EKINR    POTR     PVPR    MOLCAS      S      EKIN      POT      H0       H01  
                                         1300     1080     1600     1380   
                                         ERIS     AOSYM     SMH     JKOP   

              2       4        2.85       700     1000      520     2100   
                                         GEOM     BASIS   MCVARS     RHF  

 PROGRAMS   *        TOTAL   CCSD(T)        HF       INT
 CPU TIMES  *         2.04      1.17      0.20      0.56
 REAL TIME  *         2.85 SEC
 DISK USED  *        75.75 MB      
 **********************************************************************************************************************************

 CCSD(T)/cc-pVTZ-DK energy=   -130.379320980297

        CCSD(T)         HF-SCF  
   -130.37932098   -129.91825003
 **********************************************************************************************************************************
 Molpro calculation terminated
 Variable memory released
