
 Primary working directories    : /tmp/r2666/282702.maple
 Secondary working directories  : /tmp/r2666/282702.maple
 Wavefunction directory         : /ddn/home4/r2666/wfu/
 Main file repository           : /tmp/r2666/282702.maple/

 SHA1      : d5ffa45e93fdbca01ffc919aa182cfdae0147319
 NAME      : 2015.1.35
 ARCHNAME  : linux/x86_64
 FC        : /opt/intel/composer_xe_2015.1.133/bin/intel64/ifort
 BLASLIB   : -Wl,-_start-group /opt/intel/mkl/lib/intel64/libmkl_intel_ilp64.a /opt/intel/mkl/lib/intel64/libmkl_intel_thread.a /opt/intel/mkl/lib/intel64/libmkl_core.a -Wl,-_end-group
 id        : olemiss

 Nodes     nprocs
 cn084        1

 Using customized tuning parameters: mindgm=1; mindgv=20; mindgc=4; mindgr=1; noblas=0; minvec=7
 default implementation of scratch files=df  

 ***,hno CCSD(T)/TZ-F12 QFF
 memory, 995, m;
 gthresh,energy=1.d-12,zero=1.d-22,oneint=1.d-22,twoint=1.d-22;
 gthresh,optgrad=1.d-8,optstep=1.d-8;
 nocompress;
 geomtyp=xyz
 bohr
 geometry={
 3
         83        83
 H        0.0000000000        1.6692679447       -1.9356948799
 N        0.0000000000       -0.1607106920       -1.1588125151
 O        0.0000000000        0.0332105373        1.1439178040
 }
 
 basis=vtz-dk
 dkroll=1
   {hf,maxit=500;accu,20;}
 {ccsd(t),nocheck,maxit=250;orbital,IGNORE_ERROR;}

 Variables initialized (889), CPU time= 0.00 sec
 Commands  initialized (702), CPU time= 0.01 sec, 572 directives.
 Default parameters read. Elapsed time= 0.09 sec

 Checking input...
 Passed
1


                                         ***  PROGRAM SYSTEM MOLPRO  ***
                                       Copyright, TTI GmbH Stuttgart, 2015
                                    Version 2015.1 linked Jul  9 2018 13:16:40


 **********************************************************************************************************************************
 LABEL *   hno CCSD(T)/TZ-F12 QFF                                                        
  64 bit serial version                                                                  DATE: 04-Mar-20          TIME: 13:51:14  
 **********************************************************************************************************************************

 SHA1:             d5ffa45e93fdbca01ffc919aa182cfdae0147319
 **********************************************************************************************************************************

 THRESHOLDS:

 ZERO    =  1.00D-22  ONEINT  =  1.00D-22  TWOINT  =  1.00D-22  PREFAC  =  1.00D-14  LOCALI  =  1.00D-09  EORDER  =  1.00D-04
 ENERGY  =  1.00D-12  ETEST   =  0.00D+00  EDENS   =  0.00D+00  THRDEDEF=  1.00D-06  GRADIENT=  1.00D-02  STEP    =  1.00D-03
 ORBITAL =  1.00D-05  CIVEC   =  1.00D-05  COEFF   =  1.00D-04  PRINTCI =  5.00D-02  PUNCHCI =  9.90D+01  OPTGRAD =  3.00D-04
 OPTENERG=  1.00D-06  OPTSTEP =  3.00D-04  THRGRAD =  1.00D-10  COMPRESS=  1.00D-11  VARMIN  =  1.00D-07  VARMAX  =  1.00D-03
 THRDOUB =  0.00D+00  THRDIV  =  1.00D-05  THRRED  =  1.00D-07  THRPSP  =  1.00D+00  THRDC   =  1.00D-10  THRCS   =  1.00D-10
 THRNRM  =  1.00D-08  THREQ   =  0.00D+00  THRDE   =  1.00D+00  THRREF  =  1.00D-05  SPARFAC =  1.00D+00  THRDLP  =  1.00D-07
 THRDIA  =  1.00D-10  THRDLS  =  1.00D-07  THRGPS  =  0.00D+00  THRKEX  =  0.00D+00  THRDIS  =  2.00D-01  THRVAR  =  1.00D-10
 THRLOC  =  1.00D-06  THRGAP  =  1.00D-06  THRLOCT = -1.00D+00  THRGAPT = -1.00D+00  THRORB  =  1.00D-06  THRMLTP =  0.00D+00
 THRCPQCI=  1.00D-10  KEXTA   =  0.00D+00  THRCOARS=  0.00D+00  SYMTOL  =  1.00D-06  GRADTOL =  1.00D-06  THROVL  =  1.00D-08
 THRORTH =  1.00D-08  GRID    =  1.00D-06  GRIDMAX =  1.00D-03  DTMAX   =  0.00D+00  THROCCDE=  1.00D-01  THROCCDE=  1.00D-01



 THRESHOLDS:

 ZERO    =  1.00D-22  ONEINT  =  1.00D-22  TWOINT  =  1.00D-22  PREFAC  =  1.00D-14  LOCALI  =  1.00D-09  EORDER  =  1.00D-04
 ENERGY  =  1.00D-12  ETEST   =  0.00D+00  EDENS   =  0.00D+00  THRDEDEF=  1.00D-06  GRADIENT=  1.00D-02  STEP    =  1.00D-03
 ORBITAL =  1.00D-05  CIVEC   =  1.00D-05  COEFF   =  1.00D-04  PRINTCI =  5.00D-02  PUNCHCI =  9.90D+01  OPTGRAD =  1.00D-08
 OPTENERG=  1.00D-06  OPTSTEP =  1.00D-08  THRGRAD =  1.00D-10  COMPRESS=  1.00D-11  VARMIN  =  1.00D-07  VARMAX  =  1.00D-03
 THRDOUB =  0.00D+00  THRDIV  =  1.00D-05  THRRED  =  1.00D-07  THRPSP  =  1.00D+00  THRDC   =  1.00D-10  THRCS   =  1.00D-10
 THRNRM  =  1.00D-08  THREQ   =  0.00D+00  THRDE   =  1.00D+00  THRREF  =  1.00D-05  SPARFAC =  1.00D+00  THRDLP  =  1.00D-07
 THRDIA  =  1.00D-10  THRDLS  =  1.00D-07  THRGPS  =  0.00D+00  THRKEX  =  0.00D+00  THRDIS  =  2.00D-01  THRVAR  =  1.00D-10
 THRLOC  =  1.00D-06  THRGAP  =  1.00D-06  THRLOCT = -1.00D+00  THRGAPT = -1.00D+00  THRORB  =  1.00D-06  THRMLTP =  0.00D+00
 THRCPQCI=  1.00D-10  KEXTA   =  0.00D+00  THRCOARS=  0.00D+00  SYMTOL  =  1.00D-06  GRADTOL =  1.00D-06  THROVL  =  1.00D-08
 THRORTH =  1.00D-08  GRID    =  1.00D-06  GRIDMAX =  1.00D-03  DTMAX   =  0.00D+00  THROCCDE=  1.00D-01  THROCCDE=  1.00D-01



 Input parameters for SORTINT:

 COMPRESS =    0.000000
 C_FINAL  =    1.000000
 DEBUG    =   -1.000000
 C_SORT1  =    0.000000
 C_SEWARD =    0.000000
 THRESH   =    0.000000
 IO       =  molpro                                                          
 SPRI     =    0.000000
 SETTING GEOMTYP        =    XYZ
 ZUNIT=BOHR
 

 Variable memory set to  995000000 words,  buffer space   230000 words

 SETTING BASIS          =    VTZ-DK
 SETTING DKROLL         =         1.00000000                                  


 Recomputing integrals since basis changed


 Using spherical harmonics

 Library entry H      S cc-pVTZ-DK           selected for orbital group  1
 Library entry H      P cc-pVTZ-DK           selected for orbital group  1
 Library entry H      D cc-pVTZ-DK           selected for orbital group  1
 Library entry N      S cc-pVTZ-DK           selected for orbital group  2
 Library entry N      P cc-pVTZ-DK           selected for orbital group  2
 Library entry N      D cc-pVTZ-DK           selected for orbital group  2
 Library entry N      F cc-pVTZ-DK           selected for orbital group  2
 Library entry O      S cc-pVTZ-DK           selected for orbital group  3
 Library entry O      P cc-pVTZ-DK           selected for orbital group  3
 Library entry O      D cc-pVTZ-DK           selected for orbital group  3
 Library entry O      F cc-pVTZ-DK           selected for orbital group  3


 PROGRAM * SEWARD (Integral evaluation for generally contracted gaussian basis sets)     Author: Roland Lindh, 1990

 Geometry written to block  1 of record 700


 Point group  Cs  



 ATOMIC COORDINATES

 NR  ATOM    CHARGE       X              Y              Z

   1  H       1.00    0.000000000    1.669267945   -1.935694880
   2  N       7.00    0.000000000   -0.160710692   -1.158812515
   3  O       8.00    0.000000000    0.033210537    1.143917804

 Bond lengths in Bohr (Angstrom)

 1-2  1.988056342  2-3  2.310881296
     ( 1.052034110)     ( 1.222865719)

 Bond angles

  1-2-3  108.18899349

 NUCLEAR CHARGE:                   16
 NUMBER OF PRIMITIVE AOS:         111
 NUMBER OF SYMMETRY AOS:          100
 NUMBER OF CONTRACTIONS:           74   (  50A'  +  24A"  )
 NUMBER OF CORE ORBITALS:           2   (   2A'  +   0A"  )
 NUMBER OF VALENCE ORBITALS:        9   (   7A'  +   2A"  )


 NUCLEAR REPULSION ENERGY   30.04829741

 One-electron integrals computed with SEWARD

 2nd-order Douglas-Kroll-Hess method activated. Optimal DKH parametrization is used.

 Computing Douglas-Kroll / X2C integrals


        1874283. INTEGRALS WRITTEN OUT IN     458 BLOCKS ON RECORD 1290 OF FILE 1


 NUMBER OF SORTED TWO-ELECTRON INTEGRALS:    2006100.     BUFFER LENGTH:  32768
 NUMBER OF SEGMENTS:   1  SEGMENT LENGTH:    2006100      RECORD LENGTH: 524288

 Memory used in sort:       2.56 MW

 SORT1 READ     1874283. AND WROTE     1914195. INTEGRALS IN      6 RECORDS. CPU TIME:     0.03 SEC, REAL TIME:     0.05 SEC
 SORT2 READ     1914195. AND WROTE     2006100. INTEGRALS IN      1 RECORDS. CPU TIME:     0.06 SEC, REAL TIME:     0.06 SEC

 FILE SIZES:   FILE 1:    50.2 MBYTE,  FILE 4:    25.2 MBYTE,   TOTAL:     75.4 MBYTE

 OPERATOR DM      FOR CENTER  0  COORDINATES:    0.000000    0.000000    0.000000

 Eigenvalues of metric

         1 0.250E-02 0.401E-02 0.439E-02 0.845E-02 0.130E-01 0.336E-01 0.434E-01 0.465E-01
         2 0.350E-01 0.467E-01 0.103E+00 0.113E+00 0.239E+00 0.343E+00 0.399E+00 0.454E+00


 **********************************************************************************************************************************
 DATASETS  * FILE   NREC   LENGTH (MB)   RECORD NAMES
              1      23       36.03       500      610      700      900      950      970     1000      129      960     1700   
                                          VAR    BASINP    GEOM    SYMINP    ZMAT    AOBASIS   BASIS     P2S    ABASIS    OPER   
                                         1101     1401     1411     1412     1650     1100     1400     1410     1200     1210   
                                          SR      EKINR    POTR     PVPR    MOLCAS      S      EKIN      POT      H0       H01  
                                         1300     1080     1600   
                                         ERIS     AOSYM     SMH  

 PROGRAMS   *        TOTAL       INT
 CPU TIMES  *         0.70      0.57
 REAL TIME  *         1.30 SEC
 DISK USED  *        75.75 MB      
 **********************************************************************************************************************************


 PROGRAM * RHF-SCF (CLOSED SHELL)       Authors: W. Meyer, H.-J. Werner


 NUMBER OF ELECTRONS:       8+    8-
 CONVERGENCE THRESHOLDS:    1.00E-10 (Density)    1.00E-13 (Energy)
 MAX. NUMBER OF ITERATIONS:      500
 INTERPOLATION TYPE:            DIIS
 INTERPOLATION STEPS:              2 (START)      1 (STEP)
 LEVEL SHIFTS:                  0.00 (CLOSED)  0.00 (OPEN) 



 Orbital guess generated from atomic densities. Full valence occupancy:    9   2

 Molecular orbital dump at record        2100.2

 Initial occupancy:   7   1

 ITERATION    DDIFF          GRAD             ENERGY        2-EL.EN.            DIPOLE MOMENTS         DIIS   ORB.
    1      0.000D+00      0.000D+00      -129.86299170    153.650712    0.00000    0.59712   -1.08796    0    start
    2      0.000D+00      0.138D-01      -129.88916165    154.731275    0.00000    0.62461   -0.21093    1    diag
    3      0.191D-01      0.109D-01      -129.91420645    154.893386    0.00000    0.57034   -0.62133    2    diag
    4      0.942D-02      0.158D-02      -129.91496828    154.617851    0.00000    0.57851   -0.55974    3    diag
    5      0.168D-02      0.526D-03      -129.91508795    154.704753    0.00000    0.58389   -0.56049    4    diag
    6      0.733D-03      0.157D-03      -129.91510788    154.689571    0.00000    0.58435   -0.55603    5    diag
    7      0.284D-03      0.799D-04      -129.91511403    154.691704    0.00000    0.58554   -0.55331    6    diag
    8      0.200D-03      0.270D-04      -129.91511470    154.690946    0.00000    0.58554   -0.55239    7    diag
    9      0.739D-04      0.495D-05      -129.91511473    154.690813    0.00000    0.58549   -0.55221    8    diag
   10      0.145D-04      0.105D-05      -129.91511473    154.690795    0.00000    0.58546   -0.55219    9    orth
   11      0.296D-05      0.207D-06      -129.91511473    154.690791    0.00000    0.58545   -0.55218    9    diag
   12      0.533D-06      0.452D-07      -129.91511473    154.690789    0.00000    0.58545   -0.55218    9    diag
   13      0.119D-06      0.118D-07      -129.91511473    154.690789    0.00000    0.58545   -0.55218    9    diag
   14      0.309D-07      0.216D-08      -129.91511473    154.690789    0.00000    0.58545   -0.55218    9    diag
   15      0.455D-08      0.559D-09      -129.91511473    154.690789    0.00000    0.58545   -0.55218    9    diag
   16      0.119D-08      0.145D-09      -129.91511473    154.690789    0.00000    0.58545   -0.55218    9    diag
   17      0.213D-09      0.433D-10      -129.91511473    154.690789    0.00000    0.58545   -0.55218    9    diag
   18      0.733D-10      0.153D-10      -129.91511473    154.690789    0.00000    0.58545   -0.55218    9    diag
   19      0.339D-10      0.311D-11      -129.91511473    154.690789    0.00000    0.58545   -0.55218    9    fixocc
   20      0.847D-11      0.596D-12      -129.91511473    154.690789    0.00000    0.58545   -0.55218    9    orth
   21      0.149D-11      0.165D-12      -129.91511473    154.690789    0.00000    0.58545   -0.55218    9    diag
   22      0.469D-12      0.423D-13      -129.91511473    154.690789    0.00000    0.58545   -0.55218    0    orth

 Final occupancy:   7   1

 !RHF STATE 1.1 Energy               -129.915114730452
 Nuclear energy                        30.04829741
 One-electron energy                 -237.30880668
 Two-electron energy                   77.34539453
 Virial quotient                       -0.99798808
 !RHF STATE 1.1 Dipole moment           0.00000000     0.58544641    -0.55218081
 Dipole moment /Debye                   0.00000000     1.48795889    -1.40341169

 Orbital energies:

         1.1          2.1          3.1          4.1          5.1          6.1          7.1          8.1          9.1
    -20.666468   -15.719363    -1.515383    -0.995654    -0.738538    -0.657481    -0.431217     0.143175     0.367324

         1.2          2.2          3.2
     -0.584905     0.080993     0.614675

 HOMO      7.1    -0.431217 =     -11.7340eV
 LUMO      2.2     0.080993 =       2.2039eV
 LUMO-HOMO         0.512210 =      13.9379eV


 **********************************************************************************************************************************
 DATASETS  * FILE   NREC   LENGTH (MB)   RECORD NAMES
              1      23       36.03       500      610      700      900      950      970     1000      129      960     1700   
                                          VAR    BASINP    GEOM    SYMINP    ZMAT    AOBASIS   BASIS     P2S    ABASIS    OPER   
                                         1101     1401     1411     1412     1650     1100     1400     1410     1200     1210   
                                          SR      EKINR    POTR     PVPR    MOLCAS      S      EKIN      POT      H0       H01  
                                         1300     1080     1600   
                                         ERIS     AOSYM     SMH  

              2       4        2.85       700     1000      520     2100   
                                         GEOM     BASIS   MCVARS     RHF  

 PROGRAMS   *        TOTAL        HF       INT
 CPU TIMES  *         0.92      0.22      0.57
 REAL TIME  *         1.58 SEC
 DISK USED  *        75.75 MB      
 **********************************************************************************************************************************


 PROGRAM * CCSD (Closed-shell coupled cluster)     Authors: C. Hampel, H.-J. Werner, 1991, M. Deegan, P.J. Knowles, 1992


 Convergence thresholds:  THRVAR = 1.00D-08  THRDEN = 1.00D-12

 CCSD(T)     terms to be evaluated (factor= 1.000)


 Number of core orbitals:           2 (   2   0 )
 Number of closed-shell orbitals:   6 (   5   1 )
 Number of external orbitals:      66 (  43  23 )

 Molecular orbitals read from record     2100.2  Type=RHF/CANONICAL (state 1.1)

 Number of N-1 electron functions:               6
 Number of N-2 electron functions:              21
 Number of singly external CSFs:               238
 Number of doubly external CSFs:             41002
 Total number of CSFs:                       41241

 Length of J-op  integral file:               0.00 MB
 Length of K-op  integral file:               0.25 MB
 Length of 3-ext integral record:             0.00 MB

 Memory could be reduced to 1.65 Mwords without degradation in triples

 Integral transformation finished. Total CPU:   0.03 sec, npass=  1  Memory used:   0.55 MW

 Reference energy:                   -129.91511473

 MP2 singlet pair energy:              -0.27536181
 MP2 triplet pair energy:              -0.16363533
 MP2 correlation energy:               -0.43899714
 MP2 total energy:                   -130.35411187

 SCS-MP2 correlation energy:           -0.43225171   (PS=  1.200000  PT=  0.333333)
 SCS-MP2 total energy:               -130.34736644

 ITER.      SQ.NORM     CORR.ENERGY   TOTAL ENERGY   ENERGY CHANGE        DEN1      VAR(S)    VAR(P)  DIIS     TIME  TIME/IT
   1      1.12009472    -0.44349120  -130.35860593    -0.00449406     0.01193830  0.31D-02  0.32D-02  1  1     0.06     0.04
   2      1.13131626    -0.44362176  -130.35873649    -0.00013056    -0.01265647  0.96D-04  0.53D-03  2  2     0.08     0.04
   3      1.13791740    -0.44403079  -130.35914552    -0.00040903    -0.00308200  0.51D-04  0.54D-04  3  3     0.12     0.04
   4      1.14090590    -0.44405866  -130.35917339    -0.00002788    -0.00100802  0.44D-05  0.95D-05  4  4     0.16     0.04
   5      1.14199435    -0.44409101  -130.35920574    -0.00003235    -0.00022559  0.14D-05  0.17D-05  5  5     0.20     0.04
   6      1.14237564    -0.44407251  -130.35918724     0.00001850    -0.00004396  0.99D-07  0.42D-06  6  6     0.22     0.04
   7      1.14246079    -0.44407484  -130.35918957    -0.00000233    -0.00000149  0.11D-07  0.93D-07  6  1     0.26     0.04
   8      1.14249174    -0.44407466  -130.35918939     0.00000018     0.00000196  0.46D-08  0.12D-07  6  2     0.29     0.04
   9      1.14250010    -0.44407443  -130.35918916     0.00000023    -0.00000235  0.27D-08  0.14D-08  6  3     0.33     0.04
  10      1.14249879    -0.44407497  -130.35918970    -0.00000054     0.00000066  0.52D-09  0.24D-09  6  4     0.36     0.04
  11      1.14249704    -0.44407503  -130.35918976    -0.00000006     0.00000016  0.16D-09  0.25D-10  6  5     0.40     0.04
  12      1.14249559    -0.44407522  -130.35918995    -0.00000019     0.00000045  0.15D-10  0.79D-11  6  6     0.43     0.04
  13      1.14249495    -0.44407523  -130.35918996    -0.00000001     0.00000013  0.67D-11  0.13D-11  6  1     0.47     0.04
  14      1.14249454    -0.44407525  -130.35918998    -0.00000002     0.00000008  0.96D-12  0.46D-12  6  2     0.51     0.04
  15      1.14249437    -0.44407525  -130.35918998    -0.00000000     0.00000002  0.26D-12  0.14D-12  6  3     0.53     0.04
  16      1.14249425    -0.44407526  -130.35918999    -0.00000000     0.00000002  0.84D-14  0.37D-13  6  1     0.57     0.04
  17      1.14249424    -0.44407526  -130.35918999     0.00000000    -0.00000000  0.27D-14  0.24D-14  6  4     0.61     0.04
  18      1.14249423    -0.44407526  -130.35918999    -0.00000000     0.00000000  0.70D-15  0.39D-15  6  5     0.64     0.04
  19      1.14249423    -0.44407526  -130.35918999     0.00000000    -0.00000000  0.14D-15  0.79D-16  6  6     0.67     0.04
  20      1.14249423    -0.44407526  -130.35918999    -0.00000000     0.00000000  0.24D-16  0.21D-16  6  2     0.71     0.04
  21      1.14249423    -0.44407526  -130.35918999    -0.00000000     0.00000000  0.67D-18  0.15D-17  6  4     0.74     0.04
  22      1.14249423    -0.44407526  -130.35918999    -0.00000000     0.00000000  0.90D-19  0.15D-18  6  3     0.78     0.04
  23      1.14249423    -0.44407526  -130.35918999    -0.00000000     0.00000000  0.85D-20  0.16D-19  6  1     0.81     0.04
  24      1.14249423    -0.44407526  -130.35918999     0.00000000     0.00000000  0.43D-20  0.22D-20  6  6     0.85     0.04
  25      1.14249423    -0.44407526  -130.35918999     0.00000000    -0.00000000  0.28D-21  0.53D-21  6  4     0.88     0.04

 Norm of t1 vector:      0.07747176      S-energy:    -0.00000000      T1 diagnostic:  0.01581386
                                                                       D1 diagnostic:  0.04443194

 Doubles amplitudes (print threshold =  0.500E-01):

         I         J         SYM. A    SYM. B    A         B      T(IJ, AB)

         6         6         2         2         1         1     -0.14793198


 Total CPU time for triples:      0.25 sec


 RESULTS
 =======

  Reference energy                   -129.915114730452
  CCSD singlet pair energy             -0.304843091446
  CCSD triplet pair energy             -0.139232166664
  CCSD correlation energy              -0.444075258110

  Triples (T) contribution             -0.020249799126
  Total correlation energy             -0.464325057236

  CCSD total energy                  -130.359189988562
  CCSD[T] energy                     -130.380524765310
  CCSD-T energy                      -130.379025656851
 !CCSD(T) total energy               -130.379439787687

 Timing summary (sec):

 STEP                 CPU(USER)    SYS     CPU(TOT)    WALL
 Transformation          0.03      0.01      0.04      0.03
 CCSD iterations         0.85      0.12      0.97      0.98
 Triples                 0.25      0.00      0.25      0.25

 Program statistics:

 Available memory in ccsd:               994999756
 Min. memory needed in ccsd:                154850
 Max. memory used in ccsd:                  184802
 Max. memory used in cckext:                238416 (25 integral passes)



 **********************************************************************************************************************************
 DATASETS  * FILE   NREC   LENGTH (MB)   RECORD NAMES
              1      24       40.41       500      610      700      900      950      970     1000      129      960     1700   
                                          VAR    BASINP    GEOM    SYMINP    ZMAT    AOBASIS   BASIS     P2S    ABASIS    OPER   
                                         1101     1401     1411     1412     1650     1100     1400     1410     1200     1210   
                                          SR      EKINR    POTR     PVPR    MOLCAS      S      EKIN      POT      H0       H01  
                                         1300     1080     1600     1380   
                                         ERIS     AOSYM     SMH     JKOP   

              2       4        2.85       700     1000      520     2100   
                                         GEOM     BASIS   MCVARS     RHF  

 PROGRAMS   *        TOTAL   CCSD(T)        HF       INT
 CPU TIMES  *         2.09      1.17      0.22      0.57
 REAL TIME  *         3.02 SEC
 DISK USED  *        75.75 MB      
 **********************************************************************************************************************************

 CCSD(T)/cc-pVTZ-DK energy=   -130.379439787687

        CCSD(T)         HF-SCF  
   -130.37943979   -129.91511473
 **********************************************************************************************************************************
 Molpro calculation terminated
 Variable memory released
