
 Primary working directories    : /tmp/r2666/282704.maple
 Secondary working directories  : /tmp/r2666/282704.maple
 Wavefunction directory         : /ddn/home4/r2666/wfu/
 Main file repository           : /tmp/r2666/282704.maple/

 SHA1      : d5ffa45e93fdbca01ffc919aa182cfdae0147319
 NAME      : 2015.1.35
 ARCHNAME  : linux/x86_64
 FC        : /opt/intel/composer_xe_2015.1.133/bin/intel64/ifort
 BLASLIB   : -Wl,-_start-group /opt/intel/mkl/lib/intel64/libmkl_intel_ilp64.a /opt/intel/mkl/lib/intel64/libmkl_intel_thread.a /opt/intel/mkl/lib/intel64/libmkl_core.a -Wl,-_end-group
 id        : olemiss

 Nodes     nprocs
 cn079        1

 Using customized tuning parameters: mindgm=1; mindgv=20; mindgc=4; mindgr=1; noblas=0; minvec=7
 default implementation of scratch files=df  

 ***,hno CCSD(T)/TZ-F12 QFF
 memory, 995, m;
 gthresh,energy=1.d-12,zero=1.d-22,oneint=1.d-22,twoint=1.d-22;
 gthresh,optgrad=1.d-8,optstep=1.d-8;
 nocompress;
 geomtyp=xyz
 bohr
 geometry={
 3
         85        85
 H        0.0000000000        1.6700726635       -1.9378742902
 N        0.0000000000       -0.1605500631       -1.1625108579
 O        0.0000000000        0.0322451895        1.1497955571
 }
 
 basis=vtz-dk
 dkroll=1
   {hf,maxit=500;accu,20;}
 {ccsd(t),nocheck,maxit=250;orbital,IGNORE_ERROR;}

 Variables initialized (889), CPU time= 0.00 sec
 Commands  initialized (702), CPU time= 0.01 sec, 572 directives.
 Default parameters read. Elapsed time= 0.07 sec

 Checking input...
 Passed
1


                                         ***  PROGRAM SYSTEM MOLPRO  ***
                                       Copyright, TTI GmbH Stuttgart, 2015
                                    Version 2015.1 linked Jul  9 2018 13:16:40


 **********************************************************************************************************************************
 LABEL *   hno CCSD(T)/TZ-F12 QFF                                                        
  64 bit serial version                                                                  DATE: 04-Mar-20          TIME: 13:51:14  
 **********************************************************************************************************************************

 SHA1:             d5ffa45e93fdbca01ffc919aa182cfdae0147319
 **********************************************************************************************************************************

 THRESHOLDS:

 ZERO    =  1.00D-22  ONEINT  =  1.00D-22  TWOINT  =  1.00D-22  PREFAC  =  1.00D-14  LOCALI  =  1.00D-09  EORDER  =  1.00D-04
 ENERGY  =  1.00D-12  ETEST   =  0.00D+00  EDENS   =  0.00D+00  THRDEDEF=  1.00D-06  GRADIENT=  1.00D-02  STEP    =  1.00D-03
 ORBITAL =  1.00D-05  CIVEC   =  1.00D-05  COEFF   =  1.00D-04  PRINTCI =  5.00D-02  PUNCHCI =  9.90D+01  OPTGRAD =  3.00D-04
 OPTENERG=  1.00D-06  OPTSTEP =  3.00D-04  THRGRAD =  1.00D-10  COMPRESS=  1.00D-11  VARMIN  =  1.00D-07  VARMAX  =  1.00D-03
 THRDOUB =  0.00D+00  THRDIV  =  1.00D-05  THRRED  =  1.00D-07  THRPSP  =  1.00D+00  THRDC   =  1.00D-10  THRCS   =  1.00D-10
 THRNRM  =  1.00D-08  THREQ   =  0.00D+00  THRDE   =  1.00D+00  THRREF  =  1.00D-05  SPARFAC =  1.00D+00  THRDLP  =  1.00D-07
 THRDIA  =  1.00D-10  THRDLS  =  1.00D-07  THRGPS  =  0.00D+00  THRKEX  =  0.00D+00  THRDIS  =  2.00D-01  THRVAR  =  1.00D-10
 THRLOC  =  1.00D-06  THRGAP  =  1.00D-06  THRLOCT = -1.00D+00  THRGAPT = -1.00D+00  THRORB  =  1.00D-06  THRMLTP =  0.00D+00
 THRCPQCI=  1.00D-10  KEXTA   =  0.00D+00  THRCOARS=  0.00D+00  SYMTOL  =  1.00D-06  GRADTOL =  1.00D-06  THROVL  =  1.00D-08
 THRORTH =  1.00D-08  GRID    =  1.00D-06  GRIDMAX =  1.00D-03  DTMAX   =  0.00D+00  THROCCDE=  1.00D-01  THROCCDE=  1.00D-01



 THRESHOLDS:

 ZERO    =  1.00D-22  ONEINT  =  1.00D-22  TWOINT  =  1.00D-22  PREFAC  =  1.00D-14  LOCALI  =  1.00D-09  EORDER  =  1.00D-04
 ENERGY  =  1.00D-12  ETEST   =  0.00D+00  EDENS   =  0.00D+00  THRDEDEF=  1.00D-06  GRADIENT=  1.00D-02  STEP    =  1.00D-03
 ORBITAL =  1.00D-05  CIVEC   =  1.00D-05  COEFF   =  1.00D-04  PRINTCI =  5.00D-02  PUNCHCI =  9.90D+01  OPTGRAD =  1.00D-08
 OPTENERG=  1.00D-06  OPTSTEP =  1.00D-08  THRGRAD =  1.00D-10  COMPRESS=  1.00D-11  VARMIN  =  1.00D-07  VARMAX  =  1.00D-03
 THRDOUB =  0.00D+00  THRDIV  =  1.00D-05  THRRED  =  1.00D-07  THRPSP  =  1.00D+00  THRDC   =  1.00D-10  THRCS   =  1.00D-10
 THRNRM  =  1.00D-08  THREQ   =  0.00D+00  THRDE   =  1.00D+00  THRREF  =  1.00D-05  SPARFAC =  1.00D+00  THRDLP  =  1.00D-07
 THRDIA  =  1.00D-10  THRDLS  =  1.00D-07  THRGPS  =  0.00D+00  THRKEX  =  0.00D+00  THRDIS  =  2.00D-01  THRVAR  =  1.00D-10
 THRLOC  =  1.00D-06  THRGAP  =  1.00D-06  THRLOCT = -1.00D+00  THRGAPT = -1.00D+00  THRORB  =  1.00D-06  THRMLTP =  0.00D+00
 THRCPQCI=  1.00D-10  KEXTA   =  0.00D+00  THRCOARS=  0.00D+00  SYMTOL  =  1.00D-06  GRADTOL =  1.00D-06  THROVL  =  1.00D-08
 THRORTH =  1.00D-08  GRID    =  1.00D-06  GRIDMAX =  1.00D-03  DTMAX   =  0.00D+00  THROCCDE=  1.00D-01  THROCCDE=  1.00D-01



 Input parameters for SORTINT:

 COMPRESS =    0.000000
 C_FINAL  =    1.000000
 DEBUG    =   -1.000000
 C_SORT1  =    0.000000
 C_SEWARD =    0.000000
 THRESH   =    0.000000
 IO       =  molpro                                                          
 SPRI     =    0.000000
 SETTING GEOMTYP        =    XYZ
 ZUNIT=BOHR
 

 Variable memory set to  995000000 words,  buffer space   230000 words

 SETTING BASIS          =    VTZ-DK
 SETTING DKROLL         =         1.00000000                                  


 Recomputing integrals since basis changed


 Using spherical harmonics

 Library entry H      S cc-pVTZ-DK           selected for orbital group  1
 Library entry H      P cc-pVTZ-DK           selected for orbital group  1
 Library entry H      D cc-pVTZ-DK           selected for orbital group  1
 Library entry N      S cc-pVTZ-DK           selected for orbital group  2
 Library entry N      P cc-pVTZ-DK           selected for orbital group  2
 Library entry N      D cc-pVTZ-DK           selected for orbital group  2
 Library entry N      F cc-pVTZ-DK           selected for orbital group  2
 Library entry O      S cc-pVTZ-DK           selected for orbital group  3
 Library entry O      P cc-pVTZ-DK           selected for orbital group  3
 Library entry O      D cc-pVTZ-DK           selected for orbital group  3
 Library entry O      F cc-pVTZ-DK           selected for orbital group  3


 PROGRAM * SEWARD (Integral evaluation for generally contracted gaussian basis sets)     Author: Roland Lindh, 1990

 Geometry written to block  1 of record 700


 Point group  Cs  



 ATOMIC COORDINATES

 NR  ATOM    CHARGE       X              Y              Z

   1  H       1.00    0.000000000    1.670072664   -1.937874290
   2  N       7.00    0.000000000   -0.160550063   -1.162510858
   3  O       8.00    0.000000000    0.032245190    1.149795557

 Bond lengths in Bohr (Angstrom)

 1-2  1.988056342  2-3  2.320329926
     ( 1.052034110)     ( 1.227865719)

 Bond angles

  1-2-3  108.18899349

 NUCLEAR CHARGE:                   16
 NUMBER OF PRIMITIVE AOS:         111
 NUMBER OF SYMMETRY AOS:          100
 NUMBER OF CONTRACTIONS:           74   (  50A'  +  24A"  )
 NUMBER OF CORE ORBITALS:           2   (   2A'  +   0A"  )
 NUMBER OF VALENCE ORBITALS:        9   (   7A'  +   2A"  )


 NUCLEAR REPULSION ENERGY   29.94440153

 One-electron integrals computed with SEWARD

 2nd-order Douglas-Kroll-Hess method activated. Optimal DKH parametrization is used.

 Computing Douglas-Kroll / X2C integrals


        1874283. INTEGRALS WRITTEN OUT IN     458 BLOCKS ON RECORD 1290 OF FILE 1


 NUMBER OF SORTED TWO-ELECTRON INTEGRALS:    2006100.     BUFFER LENGTH:  32768
 NUMBER OF SEGMENTS:   1  SEGMENT LENGTH:    2006100      RECORD LENGTH: 524288

 Memory used in sort:       2.56 MW

 SORT1 READ     1874283. AND WROTE     1914195. INTEGRALS IN      6 RECORDS. CPU TIME:     0.02 SEC, REAL TIME:     0.04 SEC
 SORT2 READ     1914195. AND WROTE     2006100. INTEGRALS IN      1 RECORDS. CPU TIME:     0.05 SEC, REAL TIME:     0.07 SEC

 FILE SIZES:   FILE 1:    50.2 MBYTE,  FILE 4:    25.2 MBYTE,   TOTAL:     75.4 MBYTE

 OPERATOR DM      FOR CENTER  0  COORDINATES:    0.000000    0.000000    0.000000

 Eigenvalues of metric

         1 0.251E-02 0.402E-02 0.448E-02 0.848E-02 0.130E-01 0.339E-01 0.436E-01 0.465E-01
         2 0.352E-01 0.467E-01 0.104E+00 0.113E+00 0.241E+00 0.343E+00 0.401E+00 0.455E+00


 **********************************************************************************************************************************
 DATASETS  * FILE   NREC   LENGTH (MB)   RECORD NAMES
              1      23       36.03       500      610      700      900      950      970     1000      129      960     1700   
                                          VAR    BASINP    GEOM    SYMINP    ZMAT    AOBASIS   BASIS     P2S    ABASIS    OPER   
                                         1101     1401     1411     1412     1650     1100     1400     1410     1200     1210   
                                          SR      EKINR    POTR     PVPR    MOLCAS      S      EKIN      POT      H0       H01  
                                         1300     1080     1600   
                                         ERIS     AOSYM     SMH  

 PROGRAMS   *        TOTAL       INT
 CPU TIMES  *         0.65      0.55
 REAL TIME  *         1.18 SEC
 DISK USED  *        75.75 MB      
 **********************************************************************************************************************************


 PROGRAM * RHF-SCF (CLOSED SHELL)       Authors: W. Meyer, H.-J. Werner


 NUMBER OF ELECTRONS:       8+    8-
 CONVERGENCE THRESHOLDS:    1.00E-10 (Density)    1.00E-13 (Energy)
 MAX. NUMBER OF ITERATIONS:      500
 INTERPOLATION TYPE:            DIIS
 INTERPOLATION STEPS:              2 (START)      1 (STEP)
 LEVEL SHIFTS:                  0.00 (CLOSED)  0.00 (OPEN) 



 Orbital guess generated from atomic densities. Full valence occupancy:    9   2

 Molecular orbital dump at record        2100.2

 Initial occupancy:   7   1

 ITERATION    DDIFF          GRAD             ENERGY        2-EL.EN.            DIPOLE MOMENTS         DIIS   ORB.
    1      0.000D+00      0.000D+00      -129.86130361    153.464654    0.00000    0.59923   -1.10406    0    start
    2      0.000D+00      0.139D-01      -129.88723807    154.534056    0.00000    0.62781   -0.20704    1    diag
    3      0.193D-01      0.111D-01      -129.91323050    154.707082    0.00000    0.57268   -0.62811    2    diag
    4      0.956D-02      0.158D-02      -129.91400066    154.428349    0.00000    0.58075   -0.56577    3    diag
    5      0.169D-02      0.529D-03      -129.91412202    154.515683    0.00000    0.58613   -0.56644    4    diag
    6      0.738D-03      0.158D-03      -129.91414227    154.500429    0.00000    0.58657   -0.56190    5    diag
    7      0.286D-03      0.808D-04      -129.91414860    154.502508    0.00000    0.58774   -0.55911    6    diag
    8      0.202D-03      0.277D-04      -129.91414933    154.501726    0.00000    0.58775   -0.55815    7    diag
    9      0.769D-04      0.511D-05      -129.91414936    154.501587    0.00000    0.58769   -0.55796    8    diag
   10      0.152D-04      0.108D-05      -129.91414936    154.501569    0.00000    0.58766   -0.55794    9    orth
   11      0.302D-05      0.212D-06      -129.91414936    154.501565    0.00000    0.58765   -0.55793    9    diag
   12      0.541D-06      0.473D-07      -129.91414936    154.501563    0.00000    0.58765   -0.55793    9    diag
   13      0.122D-06      0.126D-07      -129.91414936    154.501563    0.00000    0.58765   -0.55793    9    diag
   14      0.323D-07      0.234D-08      -129.91414936    154.501563    0.00000    0.58765   -0.55793    9    diag
   15      0.474D-08      0.619D-09      -129.91414936    154.501563    0.00000    0.58765   -0.55793    9    diag
   16      0.131D-08      0.171D-09      -129.91414936    154.501563    0.00000    0.58765   -0.55793    9    diag
   17      0.268D-09      0.516D-10      -129.91414936    154.501563    0.00000    0.58765   -0.55793    9    diag
   18      0.963D-10      0.180D-10      -129.91414936    154.501563    0.00000    0.58765   -0.55793    0    orth

 Final occupancy:   7   1

 !RHF STATE 1.1 Energy               -129.914149356857
 Nuclear energy                        29.94440153
 One-electron energy                 -237.10933238
 Two-electron energy                   77.25078149
 Virial quotient                       -0.99812520
 !RHF STATE 1.1 Dipole moment           0.00000000     0.58765018    -0.55793235
 Dipole moment /Debye                   0.00000000     1.49355995    -1.41802971

 Orbital energies:

         1.1          2.1          3.1          4.1          5.1          6.1          7.1          8.1          9.1
    -20.666940   -15.720225    -1.511442    -0.996832    -0.737058    -0.656070    -0.432685     0.142890     0.366460

         1.2          2.2          3.2
     -0.582634     0.079176     0.615192

 HOMO      7.1    -0.432685 =     -11.7739eV
 LUMO      2.2     0.079176 =       2.1545eV
 LUMO-HOMO         0.511860 =      13.9284eV


 **********************************************************************************************************************************
 DATASETS  * FILE   NREC   LENGTH (MB)   RECORD NAMES
              1      23       36.03       500      610      700      900      950      970     1000      129      960     1700   
                                          VAR    BASINP    GEOM    SYMINP    ZMAT    AOBASIS   BASIS     P2S    ABASIS    OPER   
                                         1101     1401     1411     1412     1650     1100     1400     1410     1200     1210   
                                          SR      EKINR    POTR     PVPR    MOLCAS      S      EKIN      POT      H0       H01  
                                         1300     1080     1600   
                                         ERIS     AOSYM     SMH  

              2       4        2.85       700     1000      520     2100   
                                         GEOM     BASIS   MCVARS     RHF  

 PROGRAMS   *        TOTAL        HF       INT
 CPU TIMES  *         0.84      0.19      0.55
 REAL TIME  *         1.41 SEC
 DISK USED  *        75.75 MB      
 **********************************************************************************************************************************


 PROGRAM * CCSD (Closed-shell coupled cluster)     Authors: C. Hampel, H.-J. Werner, 1991, M. Deegan, P.J. Knowles, 1992


 Convergence thresholds:  THRVAR = 1.00D-08  THRDEN = 1.00D-12

 CCSD(T)     terms to be evaluated (factor= 1.000)


 Number of core orbitals:           2 (   2   0 )
 Number of closed-shell orbitals:   6 (   5   1 )
 Number of external orbitals:      66 (  43  23 )

 Molecular orbitals read from record     2100.2  Type=RHF/CANONICAL (state 1.1)

 Number of N-1 electron functions:               6
 Number of N-2 electron functions:              21
 Number of singly external CSFs:               238
 Number of doubly external CSFs:             41002
 Total number of CSFs:                       41241

 Length of J-op  integral file:               0.00 MB
 Length of K-op  integral file:               0.25 MB
 Length of 3-ext integral record:             0.00 MB

 Memory could be reduced to 1.65 Mwords without degradation in triples

 Integral transformation finished. Total CPU:   0.02 sec, npass=  1  Memory used:   0.55 MW

 Reference energy:                   -129.91414936

 MP2 singlet pair energy:              -0.27590432
 MP2 triplet pair energy:              -0.16399383
 MP2 correlation energy:               -0.43989815
 MP2 total energy:                   -130.35404751

 SCS-MP2 correlation energy:           -0.43312579   (PS=  1.200000  PT=  0.333333)
 SCS-MP2 total energy:               -130.34727515

 ITER.      SQ.NORM     CORR.ENERGY   TOTAL ENERGY   ENERGY CHANGE        DEN1      VAR(S)    VAR(P)  DIIS     TIME  TIME/IT
   1      1.12065024    -0.44419288  -130.35834224    -0.00429474     0.01236053  0.32D-02  0.32D-02  1  1     0.05     0.04
   2      1.13200352    -0.44428058  -130.35842994    -0.00008769    -0.01278480  0.99D-04  0.54D-03  2  2     0.08     0.04
   3      1.13871793    -0.44469809  -130.35884745    -0.00041751    -0.00311765  0.52D-04  0.56D-04  3  3     0.12     0.04
   4      1.14177238    -0.44472649  -130.35887584    -0.00002840    -0.00102544  0.46D-05  0.98D-05  4  4     0.15     0.04
   5      1.14289562    -0.44475996  -130.35890931    -0.00003347    -0.00023271  0.15D-05  0.17D-05  5  5     0.19     0.04
   6      1.14328573    -0.44474075  -130.35889011     0.00001921    -0.00004517  0.10D-06  0.42D-06  6  6     0.23     0.04
   7      1.14337098    -0.44474319  -130.35889254    -0.00000244    -0.00000130  0.11D-07  0.95D-07  6  1     0.27     0.04
   8      1.14340207    -0.44474294  -130.35889230     0.00000024     0.00000197  0.46D-08  0.13D-07  6  2     0.29     0.04
   9      1.14341063    -0.44474270  -130.35889206     0.00000024    -0.00000237  0.28D-08  0.14D-08  6  3     0.32     0.04
  10      1.14340929    -0.44474325  -130.35889261    -0.00000055     0.00000068  0.53D-09  0.25D-09  6  4     0.36     0.04
  11      1.14340754    -0.44474331  -130.35889267    -0.00000006     0.00000015  0.16D-09  0.26D-10  6  5     0.39     0.04
  12      1.14340607    -0.44474351  -130.35889287    -0.00000020     0.00000046  0.15D-10  0.81D-11  6  6     0.43     0.04
  13      1.14340542    -0.44474352  -130.35889288    -0.00000001     0.00000013  0.67D-11  0.14D-11  6  1     0.47     0.04
  14      1.14340499    -0.44474354  -130.35889290    -0.00000002     0.00000008  0.96D-12  0.48D-12  6  2     0.50     0.04
  15      1.14340482    -0.44474354  -130.35889290    -0.00000000     0.00000002  0.26D-12  0.15D-12  6  3     0.53     0.04
  16      1.14340469    -0.44474355  -130.35889291    -0.00000001     0.00000002  0.89D-14  0.38D-13  6  1     0.57     0.04
  17      1.14340468    -0.44474355  -130.35889290     0.00000000    -0.00000000  0.26D-14  0.23D-14  6  4     0.61     0.04
  18      1.14340467    -0.44474355  -130.35889291    -0.00000000     0.00000000  0.67D-15  0.37D-15  6  5     0.65     0.04
  19      1.14340467    -0.44474355  -130.35889290     0.00000000    -0.00000000  0.14D-15  0.77D-16  6  6     0.68     0.04
  20      1.14340467    -0.44474355  -130.35889291    -0.00000000     0.00000000  0.26D-16  0.21D-16  6  2     0.71     0.04
  21      1.14340467    -0.44474355  -130.35889291    -0.00000000     0.00000000  0.73D-18  0.16D-17  6  4     0.75     0.04
  22      1.14340467    -0.44474355  -130.35889291    -0.00000000     0.00000000  0.92D-19  0.16D-18  6  3     0.78     0.04
  23      1.14340467    -0.44474355  -130.35889291    -0.00000000     0.00000000  0.88D-20  0.17D-19  6  1     0.81     0.04
  24      1.14340467    -0.44474355  -130.35889291     0.00000000     0.00000000  0.44D-20  0.23D-20  6  6     0.85     0.04
  25      1.14340467    -0.44474355  -130.35889291    -0.00000000     0.00000000  0.54D-21  0.57D-21  6  5     0.89     0.04

 Norm of t1 vector:      0.07832205      S-energy:     0.00000000      T1 diagnostic:  0.01598742
                                                                       D1 diagnostic:  0.04511825

 Doubles amplitudes (print threshold =  0.500E-01):

         I         J         SYM. A    SYM. B    A         B      T(IJ, AB)

         6         6         2         2         1         1     -0.14934550


 Total CPU time for triples:      0.24 sec


 RESULTS
 =======

  Reference energy                   -129.914149356857
  CCSD singlet pair energy             -0.305426804250
  CCSD triplet pair energy             -0.139316743954
  CCSD correlation energy              -0.444743548201

  Triples (T) contribution             -0.020406890757
  Total correlation energy             -0.465150438958

  CCSD total energy                  -130.358892905059
  CCSD[T] energy                     -130.380408063501
  CCSD-T energy                      -130.378880323485
 !CCSD(T) total energy               -130.379299795816

 Timing summary (sec):

 STEP                 CPU(USER)    SYS     CPU(TOT)    WALL
 Transformation          0.02      0.01      0.03      0.03
 CCSD iterations         0.87      0.11      0.98      1.01
 Triples                 0.24      0.01      0.25      0.24

 Program statistics:

 Available memory in ccsd:               994999756
 Min. memory needed in ccsd:                154850
 Max. memory used in ccsd:                  184802
 Max. memory used in cckext:                238416 (25 integral passes)



 **********************************************************************************************************************************
 DATASETS  * FILE   NREC   LENGTH (MB)   RECORD NAMES
              1      24       40.41       500      610      700      900      950      970     1000      129      960     1700   
                                          VAR    BASINP    GEOM    SYMINP    ZMAT    AOBASIS   BASIS     P2S    ABASIS    OPER   
                                         1101     1401     1411     1412     1650     1100     1400     1410     1200     1210   
                                          SR      EKINR    POTR     PVPR    MOLCAS      S      EKIN      POT      H0       H01  
                                         1300     1080     1600     1380   
                                         ERIS     AOSYM     SMH     JKOP   

              2       4        2.85       700     1000      520     2100   
                                         GEOM     BASIS   MCVARS     RHF  

 PROGRAMS   *        TOTAL   CCSD(T)        HF       INT
 CPU TIMES  *         1.99      1.15      0.19      0.55
 REAL TIME  *         2.72 SEC
 DISK USED  *        75.75 MB      
 **********************************************************************************************************************************

 CCSD(T)/cc-pVTZ-DK energy=   -130.379299795816

        CCSD(T)         HF-SCF  
   -130.37929980   -129.91414936
 **********************************************************************************************************************************
 Molpro calculation terminated
 Variable memory released
