
 Primary working directories    : /tmp/r2666/282705.maple
 Secondary working directories  : /tmp/r2666/282705.maple
 Wavefunction directory         : /ddn/home4/r2666/wfu/
 Main file repository           : /tmp/r2666/282705.maple/

 SHA1      : d5ffa45e93fdbca01ffc919aa182cfdae0147319
 NAME      : 2015.1.35
 ARCHNAME  : linux/x86_64
 FC        : /opt/intel/composer_xe_2015.1.133/bin/intel64/ifort
 BLASLIB   : -Wl,-_start-group /opt/intel/mkl/lib/intel64/libmkl_intel_ilp64.a /opt/intel/mkl/lib/intel64/libmkl_intel_thread.a /opt/intel/mkl/lib/intel64/libmkl_core.a -Wl,-_end-group
 id        : olemiss

 Nodes     nprocs
 cn079        1

 Using customized tuning parameters: mindgm=1; mindgv=20; mindgc=4; mindgr=1; noblas=0; minvec=7
 default implementation of scratch files=df  

 ***,hno CCSD(T)/TZ-F12 QFF
 memory, 995, m;
 gthresh,energy=1.d-12,zero=1.d-22,oneint=1.d-22,twoint=1.d-22;
 gthresh,optgrad=1.d-8,optstep=1.d-8;
 nocompress;
 geomtyp=xyz
 bohr
 geometry={
 3
         86        86
 H        0.0000000000        1.6689798054       -1.9263123244
 N        0.0000000000       -0.1649570095       -1.1346672827
 O        0.0000000000        0.0377449941        1.1103900161
 }
 
 basis=vtz-dk
 dkroll=1
   {hf,maxit=500;accu,20;}
 {ccsd(t),nocheck,maxit=250;orbital,IGNORE_ERROR;}

 Variables initialized (889), CPU time= 0.01 sec
 Commands  initialized (702), CPU time= 0.00 sec, 572 directives.
 Default parameters read. Elapsed time= 0.04 sec

 Checking input...
 Passed
1


                                         ***  PROGRAM SYSTEM MOLPRO  ***
                                       Copyright, TTI GmbH Stuttgart, 2015
                                    Version 2015.1 linked Jul  9 2018 13:16:40


 **********************************************************************************************************************************
 LABEL *   hno CCSD(T)/TZ-F12 QFF                                                        
  64 bit serial version                                                                  DATE: 04-Mar-20          TIME: 13:51:14  
 **********************************************************************************************************************************

 SHA1:             d5ffa45e93fdbca01ffc919aa182cfdae0147319
 **********************************************************************************************************************************

 THRESHOLDS:

 ZERO    =  1.00D-22  ONEINT  =  1.00D-22  TWOINT  =  1.00D-22  PREFAC  =  1.00D-14  LOCALI  =  1.00D-09  EORDER  =  1.00D-04
 ENERGY  =  1.00D-12  ETEST   =  0.00D+00  EDENS   =  0.00D+00  THRDEDEF=  1.00D-06  GRADIENT=  1.00D-02  STEP    =  1.00D-03
 ORBITAL =  1.00D-05  CIVEC   =  1.00D-05  COEFF   =  1.00D-04  PRINTCI =  5.00D-02  PUNCHCI =  9.90D+01  OPTGRAD =  3.00D-04
 OPTENERG=  1.00D-06  OPTSTEP =  3.00D-04  THRGRAD =  1.00D-10  COMPRESS=  1.00D-11  VARMIN  =  1.00D-07  VARMAX  =  1.00D-03
 THRDOUB =  0.00D+00  THRDIV  =  1.00D-05  THRRED  =  1.00D-07  THRPSP  =  1.00D+00  THRDC   =  1.00D-10  THRCS   =  1.00D-10
 THRNRM  =  1.00D-08  THREQ   =  0.00D+00  THRDE   =  1.00D+00  THRREF  =  1.00D-05  SPARFAC =  1.00D+00  THRDLP  =  1.00D-07
 THRDIA  =  1.00D-10  THRDLS  =  1.00D-07  THRGPS  =  0.00D+00  THRKEX  =  0.00D+00  THRDIS  =  2.00D-01  THRVAR  =  1.00D-10
 THRLOC  =  1.00D-06  THRGAP  =  1.00D-06  THRLOCT = -1.00D+00  THRGAPT = -1.00D+00  THRORB  =  1.00D-06  THRMLTP =  0.00D+00
 THRCPQCI=  1.00D-10  KEXTA   =  0.00D+00  THRCOARS=  0.00D+00  SYMTOL  =  1.00D-06  GRADTOL =  1.00D-06  THROVL  =  1.00D-08
 THRORTH =  1.00D-08  GRID    =  1.00D-06  GRIDMAX =  1.00D-03  DTMAX   =  0.00D+00  THROCCDE=  1.00D-01  THROCCDE=  1.00D-01



 THRESHOLDS:

 ZERO    =  1.00D-22  ONEINT  =  1.00D-22  TWOINT  =  1.00D-22  PREFAC  =  1.00D-14  LOCALI  =  1.00D-09  EORDER  =  1.00D-04
 ENERGY  =  1.00D-12  ETEST   =  0.00D+00  EDENS   =  0.00D+00  THRDEDEF=  1.00D-06  GRADIENT=  1.00D-02  STEP    =  1.00D-03
 ORBITAL =  1.00D-05  CIVEC   =  1.00D-05  COEFF   =  1.00D-04  PRINTCI =  5.00D-02  PUNCHCI =  9.90D+01  OPTGRAD =  1.00D-08
 OPTENERG=  1.00D-06  OPTSTEP =  1.00D-08  THRGRAD =  1.00D-10  COMPRESS=  1.00D-11  VARMIN  =  1.00D-07  VARMAX  =  1.00D-03
 THRDOUB =  0.00D+00  THRDIV  =  1.00D-05  THRRED  =  1.00D-07  THRPSP  =  1.00D+00  THRDC   =  1.00D-10  THRCS   =  1.00D-10
 THRNRM  =  1.00D-08  THREQ   =  0.00D+00  THRDE   =  1.00D+00  THRREF  =  1.00D-05  SPARFAC =  1.00D+00  THRDLP  =  1.00D-07
 THRDIA  =  1.00D-10  THRDLS  =  1.00D-07  THRGPS  =  0.00D+00  THRKEX  =  0.00D+00  THRDIS  =  2.00D-01  THRVAR  =  1.00D-10
 THRLOC  =  1.00D-06  THRGAP  =  1.00D-06  THRLOCT = -1.00D+00  THRGAPT = -1.00D+00  THRORB  =  1.00D-06  THRMLTP =  0.00D+00
 THRCPQCI=  1.00D-10  KEXTA   =  0.00D+00  THRCOARS=  0.00D+00  SYMTOL  =  1.00D-06  GRADTOL =  1.00D-06  THROVL  =  1.00D-08
 THRORTH =  1.00D-08  GRID    =  1.00D-06  GRIDMAX =  1.00D-03  DTMAX   =  0.00D+00  THROCCDE=  1.00D-01  THROCCDE=  1.00D-01



 Input parameters for SORTINT:

 COMPRESS =    0.000000
 C_FINAL  =    1.000000
 DEBUG    =   -1.000000
 C_SORT1  =    0.000000
 C_SEWARD =    0.000000
 THRESH   =    0.000000
 IO       =  molpro                                                          
 SPRI     =    0.000000
 SETTING GEOMTYP        =    XYZ
 ZUNIT=BOHR
 

 Variable memory set to  995000000 words,  buffer space   230000 words

 SETTING BASIS          =    VTZ-DK
 SETTING DKROLL         =         1.00000000                                  


 Recomputing integrals since basis changed


 Using spherical harmonics

 Library entry H      S cc-pVTZ-DK           selected for orbital group  1
 Library entry H      P cc-pVTZ-DK           selected for orbital group  1
 Library entry H      D cc-pVTZ-DK           selected for orbital group  1
 Library entry N      S cc-pVTZ-DK           selected for orbital group  2
 Library entry N      P cc-pVTZ-DK           selected for orbital group  2
 Library entry N      D cc-pVTZ-DK           selected for orbital group  2
 Library entry N      F cc-pVTZ-DK           selected for orbital group  2
 Library entry O      S cc-pVTZ-DK           selected for orbital group  3
 Library entry O      P cc-pVTZ-DK           selected for orbital group  3
 Library entry O      D cc-pVTZ-DK           selected for orbital group  3
 Library entry O      F cc-pVTZ-DK           selected for orbital group  3


 PROGRAM * SEWARD (Integral evaluation for generally contracted gaussian basis sets)     Author: Roland Lindh, 1990

 Geometry written to block  1 of record 700


 Point group  Cs  



 ATOMIC COORDINATES

 NR  ATOM    CHARGE       X              Y              Z

   1  H       1.00    0.000000000    1.668979805   -1.926312324
   2  N       7.00    0.000000000   -0.164957010   -1.134667283
   3  O       8.00    0.000000000    0.037744994    1.110390016

 Bond lengths in Bohr (Angstrom)

 1-2  1.997504972  2-3  2.254189517
     ( 1.057034110)     ( 1.192865721)

 Bond angles

  1-2-3  108.18899349

 NUCLEAR CHARGE:                   16
 NUMBER OF PRIMITIVE AOS:         111
 NUMBER OF SYMMETRY AOS:          100
 NUMBER OF CONTRACTIONS:           74   (  50A'  +  24A"  )
 NUMBER OF CORE ORBITALS:           2   (   2A'  +   0A"  )
 NUMBER OF VALENCE ORBITALS:        9   (   7A'  +   2A"  )


 NUCLEAR REPULSION ENERGY   30.66779587

 One-electron integrals computed with SEWARD

 2nd-order Douglas-Kroll-Hess method activated. Optimal DKH parametrization is used.

 Computing Douglas-Kroll / X2C integrals


        1874283. INTEGRALS WRITTEN OUT IN     458 BLOCKS ON RECORD 1290 OF FILE 1


 NUMBER OF SORTED TWO-ELECTRON INTEGRALS:    2006100.     BUFFER LENGTH:  32768
 NUMBER OF SEGMENTS:   1  SEGMENT LENGTH:    2006100      RECORD LENGTH: 524288

 Memory used in sort:       2.56 MW

 SORT1 READ     1874283. AND WROTE     1914195. INTEGRALS IN      6 RECORDS. CPU TIME:     0.03 SEC, REAL TIME:     0.05 SEC
 SORT2 READ     1914195. AND WROTE     2006100. INTEGRALS IN      1 RECORDS. CPU TIME:     0.05 SEC, REAL TIME:     0.07 SEC

 FILE SIZES:   FILE 1:    50.2 MBYTE,  FILE 4:    25.2 MBYTE,   TOTAL:     75.4 MBYTE

 OPERATOR DM      FOR CENTER  0  COORDINATES:    0.000000    0.000000    0.000000

 Eigenvalues of metric

         1 0.241E-02 0.387E-02 0.402E-02 0.836E-02 0.131E-01 0.318E-01 0.417E-01 0.463E-01
         2 0.336E-01 0.464E-01 0.998E-01 0.112E+00 0.230E+00 0.343E+00 0.391E+00 0.446E+00


 **********************************************************************************************************************************
 DATASETS  * FILE   NREC   LENGTH (MB)   RECORD NAMES
              1      23       36.03       500      610      700      900      950      970     1000      129      960     1700   
                                          VAR    BASINP    GEOM    SYMINP    ZMAT    AOBASIS   BASIS     P2S    ABASIS    OPER   
                                         1101     1401     1411     1412     1650     1100     1400     1410     1200     1210   
                                          SR      EKINR    POTR     PVPR    MOLCAS      S      EKIN      POT      H0       H01  
                                         1300     1080     1600   
                                         ERIS     AOSYM     SMH  

 PROGRAMS   *        TOTAL       INT
 CPU TIMES  *         0.65      0.57
 REAL TIME  *         1.24 SEC
 DISK USED  *        75.75 MB      
 **********************************************************************************************************************************


 PROGRAM * RHF-SCF (CLOSED SHELL)       Authors: W. Meyer, H.-J. Werner


 NUMBER OF ELECTRONS:       8+    8-
 CONVERGENCE THRESHOLDS:    1.00E-10 (Density)    1.00E-13 (Energy)
 MAX. NUMBER OF ITERATIONS:      500
 INTERPOLATION TYPE:            DIIS
 INTERPOLATION STEPS:              2 (START)      1 (STEP)
 LEVEL SHIFTS:                  0.00 (CLOSED)  0.00 (OPEN) 



 Orbital guess generated from atomic densities. Full valence occupancy:    9   2

 Molecular orbital dump at record        2100.2

 Initial occupancy:   7   1

 ITERATION    DDIFF          GRAD             ENERGY        2-EL.EN.            DIPOLE MOMENTS         DIIS   ORB.
    1      0.000D+00      0.000D+00      -129.87102821    154.756940    0.00000    0.58001   -0.99305    0    start
    2      0.000D+00      0.134D-01      -129.89812097    155.898646    0.00000    0.60363   -0.22500    1    diag
    3      0.181D-01      0.992D-02      -129.91839109    155.997302    0.00000    0.55326   -0.57816    2    diag
    4      0.867D-02      0.153D-02      -129.91909958    155.741445    0.00000    0.56195   -0.52130    3    diag
    5      0.163D-02      0.504D-03      -129.91920955    155.826191    0.00000    0.56737   -0.52266    4    diag
    6      0.703D-03      0.151D-03      -129.91922770    155.811391    0.00000    0.56797   -0.51873    5    diag
    7      0.273D-03      0.742D-04      -129.91923281    155.813866    0.00000    0.56925   -0.51642    6    diag
    8      0.186D-03      0.228D-04      -129.91923324    155.813235    0.00000    0.56927   -0.51571    7    diag
    9      0.584D-04      0.411D-05      -129.91923325    155.813131    0.00000    0.56923   -0.51557    8    diag
   10      0.111D-04      0.936D-06      -129.91923325    155.813113    0.00000    0.56919   -0.51554    9    orth
   11      0.266D-05      0.186D-06      -129.91923325    155.813109    0.00000    0.56919   -0.51554    9    diag
   12      0.500D-06      0.379D-07      -129.91923325    155.813107    0.00000    0.56918   -0.51554    9    diag
   13      0.109D-06      0.921D-08      -129.91923325    155.813107    0.00000    0.56918   -0.51554    9    diag
   14      0.268D-07      0.174D-08      -129.91923325    155.813107    0.00000    0.56918   -0.51554    9    diag
   15      0.466D-08      0.480D-09      -129.91923325    155.813107    0.00000    0.56918   -0.51554    9    diag
   16      0.113D-08      0.133D-09      -129.91923325    155.813107    0.00000    0.56918   -0.51554    9    diag
   17      0.243D-09      0.402D-10      -129.91923325    155.813107    0.00000    0.56918   -0.51554    9    diag
   18      0.828D-10      0.125D-10      -129.91923325    155.813107    0.00000    0.56918   -0.51554    9    diag
   19      0.289D-10      0.273D-11      -129.91923325    155.813107    0.00000    0.56918   -0.51554    9    fixocc
   20      0.663D-11      0.427D-12      -129.91923325    155.813107    0.00000    0.56918   -0.51554    9    orth
   21      0.811D-12      0.127D-12      -129.91923325    155.813107    0.00000    0.56918   -0.51554    9    diag
   22      0.338D-12      0.379D-13      -129.91923325    155.813107    0.00000    0.56918   -0.51554    9    diag
   23      0.950D-13      0.190D-13      -129.91923325    155.813107    0.00000    0.56918   -0.51554    0    orth

 Final occupancy:   7   1

 !RHF STATE 1.1 Energy               -129.919233253647
 Nuclear energy                        30.66779587
 One-electron energy                 -238.49358269
 Two-electron energy                   77.90655357
 Virial quotient                       -0.99714601
 !RHF STATE 1.1 Dipole moment           0.00000000     0.56918415    -0.51553845
 Dipole moment /Debye                   0.00000000     1.44662704    -1.31028220

 Orbital energies:

         1.1          2.1          3.1          4.1          5.1          6.1          7.1          8.1          9.1
    -20.663715   -15.714904    -1.539901    -0.987377    -0.747208    -0.666135    -0.421793     0.144626     0.371495

         1.2          2.2          3.2
     -0.599205     0.092109     0.611329

 HOMO      7.1    -0.421793 =     -11.4776eV
 LUMO      2.2     0.092109 =       2.5064eV
 LUMO-HOMO         0.513902 =      13.9840eV


 **********************************************************************************************************************************
 DATASETS  * FILE   NREC   LENGTH (MB)   RECORD NAMES
              1      23       36.03       500      610      700      900      950      970     1000      129      960     1700   
                                          VAR    BASINP    GEOM    SYMINP    ZMAT    AOBASIS   BASIS     P2S    ABASIS    OPER   
                                         1101     1401     1411     1412     1650     1100     1400     1410     1200     1210   
                                          SR      EKINR    POTR     PVPR    MOLCAS      S      EKIN      POT      H0       H01  
                                         1300     1080     1600   
                                         ERIS     AOSYM     SMH  

              2       4        2.85       700     1000      520     2100   
                                         GEOM     BASIS   MCVARS     RHF  

 PROGRAMS   *        TOTAL        HF       INT
 CPU TIMES  *         0.90      0.25      0.57
 REAL TIME  *         1.52 SEC
 DISK USED  *        75.75 MB      
 **********************************************************************************************************************************


 PROGRAM * CCSD (Closed-shell coupled cluster)     Authors: C. Hampel, H.-J. Werner, 1991, M. Deegan, P.J. Knowles, 1992


 Convergence thresholds:  THRVAR = 1.00D-08  THRDEN = 1.00D-12

 CCSD(T)     terms to be evaluated (factor= 1.000)


 Number of core orbitals:           2 (   2   0 )
 Number of closed-shell orbitals:   6 (   5   1 )
 Number of external orbitals:      66 (  43  23 )

 Molecular orbitals read from record     2100.2  Type=RHF/CANONICAL (state 1.1)

 Number of N-1 electron functions:               6
 Number of N-2 electron functions:              21
 Number of singly external CSFs:               238
 Number of doubly external CSFs:             41002
 Total number of CSFs:                       41241

 Length of J-op  integral file:               0.00 MB
 Length of K-op  integral file:               0.25 MB
 Length of 3-ext integral record:             0.00 MB

 Memory could be reduced to 1.65 Mwords without degradation in triples

 Integral transformation finished. Total CPU:   0.03 sec, npass=  1  Memory used:   0.55 MW

 Reference energy:                   -129.91923325

 MP2 singlet pair energy:              -0.27230856
 MP2 triplet pair energy:              -0.16162847
 MP2 correlation energy:               -0.43393703
 MP2 total energy:                   -130.35317029

 SCS-MP2 correlation energy:           -0.42733910   (PS=  1.200000  PT=  0.333333)
 SCS-MP2 total energy:               -130.34657235

 ITER.      SQ.NORM     CORR.ENERGY   TOTAL ENERGY   ENERGY CHANGE        DEN1      VAR(S)    VAR(P)  DIIS     TIME  TIME/IT
   1      1.11701328    -0.43955628  -130.35878953    -0.00561924     0.00961136  0.28D-02  0.29D-02  1  1     0.06     0.04
   2      1.12752858    -0.43991322  -130.35914647    -0.00035694    -0.01196112  0.81D-04  0.48D-03  2  2     0.10     0.04
   3      1.13352918    -0.44027923  -130.35951248    -0.00036601    -0.00288640  0.44D-04  0.47D-04  3  3     0.14     0.04
   4      1.13616975    -0.44030374  -130.35953699    -0.00002451    -0.00091399  0.37D-05  0.84D-05  4  4     0.17     0.04
   5      1.13709238    -0.44033096  -130.35956421    -0.00002722    -0.00019116  0.13D-05  0.16D-05  5  5     0.21     0.04
   6      1.13743484    -0.44031603  -130.35954928     0.00001493    -0.00003831  0.10D-06  0.40D-06  6  6     0.24     0.04
   7      1.13752179    -0.44031769  -130.35955094    -0.00000166    -0.00000270  0.13D-07  0.80D-07  6  1     0.27     0.04
   8      1.13755213    -0.44031781  -130.35955107    -0.00000012     0.00000179  0.41D-08  0.90D-08  6  2     0.30     0.04
   9      1.13755943    -0.44031762  -130.35955087     0.00000020    -0.00000216  0.23D-08  0.10D-08  6  3     0.34     0.04
  10      1.13755826    -0.44031809  -130.35955135    -0.00000048     0.00000057  0.45D-09  0.18D-09  6  4     0.37     0.04
  11      1.13755657    -0.44031815  -130.35955140    -0.00000006     0.00000020  0.14D-09  0.21D-10  6  5     0.41     0.04
  12      1.13755522    -0.44031831  -130.35955156    -0.00000016     0.00000041  0.15D-10  0.71D-11  6  6     0.45     0.04
  13      1.13755464    -0.44031832  -130.35955157    -0.00000001     0.00000012  0.65D-11  0.11D-11  6  1     0.49     0.04
  14      1.13755428    -0.44031834  -130.35955159    -0.00000002     0.00000007  0.89D-12  0.39D-12  6  2     0.52     0.04
  15      1.13755415    -0.44031834  -130.35955159    -0.00000000     0.00000001  0.22D-12  0.13D-12  6  3     0.56     0.04
  16      1.13755406    -0.44031834  -130.35955159    -0.00000000     0.00000001  0.24D-13  0.14D-13  6  5     0.59     0.04
  17      1.13755404    -0.44031834  -130.35955159    -0.00000000     0.00000000  0.78D-15  0.23D-14  6  4     0.63     0.04
  18      1.13755403    -0.44031834  -130.35955159     0.00000000    -0.00000000  0.49D-15  0.33D-15  6  1     0.66     0.04
  19      1.13755403    -0.44031834  -130.35955159    -0.00000000     0.00000000  0.38D-16  0.55D-16  6  6     0.69     0.04
  20      1.13755403    -0.44031834  -130.35955159    -0.00000000     0.00000000  0.77D-17  0.13D-16  6  2     0.73     0.04
  21      1.13755403    -0.44031834  -130.35955159    -0.00000000     0.00000000  0.17D-17  0.95D-18  6  5     0.77     0.04
  22      1.13755403    -0.44031834  -130.35955159     0.00000000     0.00000000  0.11D-18  0.70D-19  6  3     0.81     0.04
  23      1.13755403    -0.44031834  -130.35955159     0.00000000    -0.00000000  0.31D-19  0.15D-19  6  4     0.84     0.04
  24      1.13755403    -0.44031834  -130.35955159     0.00000000    -0.00000000  0.45D-20  0.42D-20  6  1     0.88     0.04
  25      1.13755403    -0.44031834  -130.35955159     0.00000000    -0.00000000  0.47D-21  0.76D-21  6  6     0.91     0.04

 Norm of t1 vector:      0.07305894      S-energy:     0.00000000      T1 diagnostic:  0.01491309
                                                                       D1 diagnostic:  0.04054723

 Doubles amplitudes (print threshold =  0.500E-01):

         I         J         SYM. A    SYM. B    A         B      T(IJ, AB)

         6         6         2         2         1         1     -0.13947829


 Total CPU time for triples:      0.28 sec


 RESULTS
 =======

  Reference energy                   -129.919233253647
  CCSD singlet pair energy             -0.301564706301
  CCSD triplet pair energy             -0.138753633040
  CCSD correlation energy              -0.440318339341

  Triples (T) contribution             -0.019378521776
  Total correlation energy             -0.459696861117

  CCSD total energy                  -130.359551592988
  CCSD[T] energy                     -130.379893443803
  CCSD-T energy                      -130.378545423403
 !CCSD(T) total energy               -130.378930114764

 Timing summary (sec):

 STEP                 CPU(USER)    SYS     CPU(TOT)    WALL
 Transformation          0.04      0.01      0.05      0.05
 CCSD iterations         0.87      0.10      0.97      1.00
 Triples                 0.28      0.00      0.28      0.27

 Program statistics:

 Available memory in ccsd:               994999756
 Min. memory needed in ccsd:                154850
 Max. memory used in ccsd:                  184802
 Max. memory used in cckext:                238416 (25 integral passes)



 **********************************************************************************************************************************
 DATASETS  * FILE   NREC   LENGTH (MB)   RECORD NAMES
              1      24       40.41       500      610      700      900      950      970     1000      129      960     1700   
                                          VAR    BASINP    GEOM    SYMINP    ZMAT    AOBASIS   BASIS     P2S    ABASIS    OPER   
                                         1101     1401     1411     1412     1650     1100     1400     1410     1200     1210   
                                          SR      EKINR    POTR     PVPR    MOLCAS      S      EKIN      POT      H0       H01  
                                         1300     1080     1600     1380   
                                         ERIS     AOSYM     SMH     JKOP   

              2       4        2.85       700     1000      520     2100   
                                         GEOM     BASIS   MCVARS     RHF  

 PROGRAMS   *        TOTAL   CCSD(T)        HF       INT
 CPU TIMES  *         2.12      1.22      0.25      0.57
 REAL TIME  *         2.87 SEC
 DISK USED  *        75.75 MB      
 **********************************************************************************************************************************

 CCSD(T)/cc-pVTZ-DK energy=   -130.378930114764

        CCSD(T)         HF-SCF  
   -130.37893011   -129.91923325
 **********************************************************************************************************************************
 Molpro calculation terminated
 Variable memory released
