
 Primary working directories    : /tmp/r2666/282720.maple
 Secondary working directories  : /tmp/r2666/282720.maple
 Wavefunction directory         : /ddn/home4/r2666/wfu/
 Main file repository           : /tmp/r2666/282720.maple/

 SHA1      : d5ffa45e93fdbca01ffc919aa182cfdae0147319
 NAME      : 2015.1.35
 ARCHNAME  : linux/x86_64
 FC        : /opt/intel/composer_xe_2015.1.133/bin/intel64/ifort
 BLASLIB   : -Wl,-_start-group /opt/intel/mkl/lib/intel64/libmkl_intel_ilp64.a /opt/intel/mkl/lib/intel64/libmkl_intel_thread.a /opt/intel/mkl/lib/intel64/libmkl_core.a -Wl,-_end-group
 id        : olemiss

 Nodes     nprocs
 cn012        1

 Using customized tuning parameters: mindgm=1; mindgv=20; mindgc=4; mindgr=1; noblas=0; minvec=7
 default implementation of scratch files=df  

 ***,hno CCSD(T)/TZ-F12 QFF
 memory, 995, m;
 gthresh,energy=1.d-12,zero=1.d-22,oneint=1.d-22,twoint=1.d-22;
 gthresh,optgrad=1.d-8,optstep=1.d-8;
 nocompress;
 geomtyp=xyz
 bohr
 geometry={
 3
        101       101
 H        0.0000000000        1.6719981722       -1.9434243970
 N        0.0000000000       -0.1573010005       -1.1411210566
 O        0.0000000000        0.0270706183        1.1339558626
 }
 
 basis=vtz-dk
 dkroll=1
   {hf,maxit=500;accu,20;}
 {ccsd(t),nocheck,maxit=250;orbital,IGNORE_ERROR;}

 Variables initialized (889), CPU time= 0.01 sec
 Commands  initialized (702), CPU time= 0.00 sec, 572 directives.
 Default parameters read. Elapsed time= 0.11 sec

 Checking input...
 Passed
1


                                         ***  PROGRAM SYSTEM MOLPRO  ***
                                       Copyright, TTI GmbH Stuttgart, 2015
                                    Version 2015.1 linked Jul  9 2018 13:16:40


 **********************************************************************************************************************************
 LABEL *   hno CCSD(T)/TZ-F12 QFF                                                        
  64 bit serial version                                                                  DATE: 04-Mar-20          TIME: 13:51:17  
 **********************************************************************************************************************************

 SHA1:             d5ffa45e93fdbca01ffc919aa182cfdae0147319
 **********************************************************************************************************************************

 THRESHOLDS:

 ZERO    =  1.00D-22  ONEINT  =  1.00D-22  TWOINT  =  1.00D-22  PREFAC  =  1.00D-14  LOCALI  =  1.00D-09  EORDER  =  1.00D-04
 ENERGY  =  1.00D-12  ETEST   =  0.00D+00  EDENS   =  0.00D+00  THRDEDEF=  1.00D-06  GRADIENT=  1.00D-02  STEP    =  1.00D-03
 ORBITAL =  1.00D-05  CIVEC   =  1.00D-05  COEFF   =  1.00D-04  PRINTCI =  5.00D-02  PUNCHCI =  9.90D+01  OPTGRAD =  3.00D-04
 OPTENERG=  1.00D-06  OPTSTEP =  3.00D-04  THRGRAD =  1.00D-10  COMPRESS=  1.00D-11  VARMIN  =  1.00D-07  VARMAX  =  1.00D-03
 THRDOUB =  0.00D+00  THRDIV  =  1.00D-05  THRRED  =  1.00D-07  THRPSP  =  1.00D+00  THRDC   =  1.00D-10  THRCS   =  1.00D-10
 THRNRM  =  1.00D-08  THREQ   =  0.00D+00  THRDE   =  1.00D+00  THRREF  =  1.00D-05  SPARFAC =  1.00D+00  THRDLP  =  1.00D-07
 THRDIA  =  1.00D-10  THRDLS  =  1.00D-07  THRGPS  =  0.00D+00  THRKEX  =  0.00D+00  THRDIS  =  2.00D-01  THRVAR  =  1.00D-10
 THRLOC  =  1.00D-06  THRGAP  =  1.00D-06  THRLOCT = -1.00D+00  THRGAPT = -1.00D+00  THRORB  =  1.00D-06  THRMLTP =  0.00D+00
 THRCPQCI=  1.00D-10  KEXTA   =  0.00D+00  THRCOARS=  0.00D+00  SYMTOL  =  1.00D-06  GRADTOL =  1.00D-06  THROVL  =  1.00D-08
 THRORTH =  1.00D-08  GRID    =  1.00D-06  GRIDMAX =  1.00D-03  DTMAX   =  0.00D+00  THROCCDE=  1.00D-01  THROCCDE=  1.00D-01



 THRESHOLDS:

 ZERO    =  1.00D-22  ONEINT  =  1.00D-22  TWOINT  =  1.00D-22  PREFAC  =  1.00D-14  LOCALI  =  1.00D-09  EORDER  =  1.00D-04
 ENERGY  =  1.00D-12  ETEST   =  0.00D+00  EDENS   =  0.00D+00  THRDEDEF=  1.00D-06  GRADIENT=  1.00D-02  STEP    =  1.00D-03
 ORBITAL =  1.00D-05  CIVEC   =  1.00D-05  COEFF   =  1.00D-04  PRINTCI =  5.00D-02  PUNCHCI =  9.90D+01  OPTGRAD =  1.00D-08
 OPTENERG=  1.00D-06  OPTSTEP =  1.00D-08  THRGRAD =  1.00D-10  COMPRESS=  1.00D-11  VARMIN  =  1.00D-07  VARMAX  =  1.00D-03
 THRDOUB =  0.00D+00  THRDIV  =  1.00D-05  THRRED  =  1.00D-07  THRPSP  =  1.00D+00  THRDC   =  1.00D-10  THRCS   =  1.00D-10
 THRNRM  =  1.00D-08  THREQ   =  0.00D+00  THRDE   =  1.00D+00  THRREF  =  1.00D-05  SPARFAC =  1.00D+00  THRDLP  =  1.00D-07
 THRDIA  =  1.00D-10  THRDLS  =  1.00D-07  THRGPS  =  0.00D+00  THRKEX  =  0.00D+00  THRDIS  =  2.00D-01  THRVAR  =  1.00D-10
 THRLOC  =  1.00D-06  THRGAP  =  1.00D-06  THRLOCT = -1.00D+00  THRGAPT = -1.00D+00  THRORB  =  1.00D-06  THRMLTP =  0.00D+00
 THRCPQCI=  1.00D-10  KEXTA   =  0.00D+00  THRCOARS=  0.00D+00  SYMTOL  =  1.00D-06  GRADTOL =  1.00D-06  THROVL  =  1.00D-08
 THRORTH =  1.00D-08  GRID    =  1.00D-06  GRIDMAX =  1.00D-03  DTMAX   =  0.00D+00  THROCCDE=  1.00D-01  THROCCDE=  1.00D-01



 Input parameters for SORTINT:

 COMPRESS =    0.000000
 C_FINAL  =    1.000000
 DEBUG    =   -1.000000
 C_SORT1  =    0.000000
 C_SEWARD =    0.000000
 THRESH   =    0.000000
 IO       =  molpro                                                          
 SPRI     =    0.000000
 SETTING GEOMTYP        =    XYZ
 ZUNIT=BOHR
 

 Variable memory set to  995000000 words,  buffer space   230000 words

 SETTING BASIS          =    VTZ-DK
 SETTING DKROLL         =         1.00000000                                  


 Recomputing integrals since basis changed


 Using spherical harmonics

 Library entry H      S cc-pVTZ-DK           selected for orbital group  1
 Library entry H      P cc-pVTZ-DK           selected for orbital group  1
 Library entry H      D cc-pVTZ-DK           selected for orbital group  1
 Library entry N      S cc-pVTZ-DK           selected for orbital group  2
 Library entry N      P cc-pVTZ-DK           selected for orbital group  2
 Library entry N      D cc-pVTZ-DK           selected for orbital group  2
 Library entry N      F cc-pVTZ-DK           selected for orbital group  2
 Library entry O      S cc-pVTZ-DK           selected for orbital group  3
 Library entry O      P cc-pVTZ-DK           selected for orbital group  3
 Library entry O      D cc-pVTZ-DK           selected for orbital group  3
 Library entry O      F cc-pVTZ-DK           selected for orbital group  3


 PROGRAM * SEWARD (Integral evaluation for generally contracted gaussian basis sets)     Author: Roland Lindh, 1990

 Geometry written to block  1 of record 700


 Point group  Cs  



 ATOMIC COORDINATES

 NR  ATOM    CHARGE       X              Y              Z

   1  H       1.00    0.000000000    1.671998172   -1.943424397
   2  N       7.00    0.000000000   -0.157301001   -1.141121057
   3  O       8.00    0.000000000    0.027070618    1.133955863

 Bond lengths in Bohr (Angstrom)

 1-2  1.997504972  2-3  2.282535407
     ( 1.057034110)     ( 1.207865720)

 Bond angles

  1-2-3  109.04843018

 NUCLEAR CHARGE:                   16
 NUMBER OF PRIMITIVE AOS:         111
 NUMBER OF SYMMETRY AOS:          100
 NUMBER OF CONTRACTIONS:           74   (  50A'  +  24A"  )
 NUMBER OF CORE ORBITALS:           2   (   2A'  +   0A"  )
 NUMBER OF VALENCE ORBITALS:        9   (   7A'  +   2A"  )


 NUCLEAR REPULSION ENERGY   30.33113707

 One-electron integrals computed with SEWARD

 2nd-order Douglas-Kroll-Hess method activated. Optimal DKH parametrization is used.

 Computing Douglas-Kroll / X2C integrals


        1874254. INTEGRALS WRITTEN OUT IN     458 BLOCKS ON RECORD 1290 OF FILE 1


 NUMBER OF SORTED TWO-ELECTRON INTEGRALS:    2006100.     BUFFER LENGTH:  32768
 NUMBER OF SEGMENTS:   1  SEGMENT LENGTH:    2006100      RECORD LENGTH: 524288

 Memory used in sort:       2.56 MW

 SORT1 READ     1874254. AND WROTE     1914161. INTEGRALS IN      6 RECORDS. CPU TIME:     0.04 SEC, REAL TIME:     0.05 SEC
 SORT2 READ     1914161. AND WROTE     2006100. INTEGRALS IN      1 RECORDS. CPU TIME:     0.05 SEC, REAL TIME:     0.06 SEC

 FILE SIZES:   FILE 1:    50.2 MBYTE,  FILE 4:    25.2 MBYTE,   TOTAL:     75.4 MBYTE

 OPERATOR DM      FOR CENTER  0  COORDINATES:    0.000000    0.000000    0.000000

 Eigenvalues of metric

         1 0.246E-02 0.400E-02 0.415E-02 0.847E-02 0.131E-01 0.328E-01 0.426E-01 0.463E-01
         2 0.344E-01 0.465E-01 0.102E+00 0.112E+00 0.235E+00 0.345E+00 0.395E+00 0.451E+00


 **********************************************************************************************************************************
 DATASETS  * FILE   NREC   LENGTH (MB)   RECORD NAMES
              1      23       36.03       500      610      700      900      950      970     1000      129      960     1700   
                                          VAR    BASINP    GEOM    SYMINP    ZMAT    AOBASIS   BASIS     P2S    ABASIS    OPER   
                                         1101     1401     1411     1412     1650     1100     1400     1410     1200     1210   
                                          SR      EKINR    POTR     PVPR    MOLCAS      S      EKIN      POT      H0       H01  
                                         1300     1080     1600   
                                         ERIS     AOSYM     SMH  

 PROGRAMS   *        TOTAL       INT
 CPU TIMES  *         0.82      0.72
 REAL TIME  *         1.97 SEC
 DISK USED  *        75.75 MB      
 **********************************************************************************************************************************


 PROGRAM * RHF-SCF (CLOSED SHELL)       Authors: W. Meyer, H.-J. Werner


 NUMBER OF ELECTRONS:       8+    8-
 CONVERGENCE THRESHOLDS:    1.00E-10 (Density)    1.00E-13 (Energy)
 MAX. NUMBER OF ITERATIONS:      500
 INTERPOLATION TYPE:            DIIS
 INTERPOLATION STEPS:              2 (START)      1 (STEP)
 LEVEL SHIFTS:                  0.00 (CLOSED)  0.00 (OPEN) 



 Orbital guess generated from atomic densities. Full valence occupancy:    9   2

 Molecular orbital dump at record        2100.2

 Initial occupancy:   7   1

 ITERATION    DDIFF          GRAD             ENERGY        2-EL.EN.            DIPOLE MOMENTS         DIIS   ORB.
    1      0.000D+00      0.000D+00      -129.86721315    154.150825    0.00000    0.59492   -1.04267    0    start
    2      0.000D+00      0.136D-01      -129.89391616    155.270193    0.00000    0.61363   -0.22218    1    diag
    3      0.186D-01      0.104D-01      -129.91646594    155.398754    0.00000    0.56449   -0.60339    2    diag
    4      0.904D-02      0.156D-02      -129.91720445    155.132085    0.00000    0.57249   -0.54388    3    diag
    5      0.166D-02      0.514D-03      -129.91731954    155.218338    0.00000    0.57799   -0.54501    4    diag
    6      0.719D-03      0.154D-03      -129.91733862    155.203341    0.00000    0.57853   -0.54081    5    diag
    7      0.279D-03      0.770D-04      -129.91734422    155.205659    0.00000    0.57978   -0.53831    6    diag
    8      0.193D-03      0.248D-04      -129.91734476    155.204974    0.00000    0.57979   -0.53749    7    diag
    9      0.657D-04      0.454D-05      -129.91734478    155.204854    0.00000    0.57974   -0.53733    8    diag
   10      0.128D-04      0.101D-05      -129.91734478    155.204836    0.00000    0.57971   -0.53731    9    orth
   11      0.285D-05      0.197D-06      -129.91734478    155.204831    0.00000    0.57970   -0.53731    9    diag
   12      0.520D-06      0.410D-07      -129.91734478    155.204830    0.00000    0.57970   -0.53730    9    diag
   13      0.113D-06      0.102D-07      -129.91734478    155.204830    0.00000    0.57970   -0.53730    9    diag
   14      0.285D-07      0.186D-08      -129.91734478    155.204830    0.00000    0.57970   -0.53730    9    diag
   15      0.450D-08      0.476D-09      -129.91734478    155.204830    0.00000    0.57970   -0.53730    9    diag
   16      0.108D-08      0.113D-09      -129.91734478    155.204830    0.00000    0.57970   -0.53730    9    diag
   17      0.182D-09      0.310D-10      -129.91734478    155.204830    0.00000    0.57970   -0.53730    9    diag
   18      0.530D-10      0.101D-10      -129.91734478    155.204830    0.00000    0.57970   -0.53730    0    orth

 Final occupancy:   7   1

 !RHF STATE 1.1 Energy               -129.917344783845
 Nuclear energy                        30.33113707
 One-electron energy                 -237.85089662
 Two-electron energy                   77.60241477
 Virial quotient                       -0.99763690
 !RHF STATE 1.1 Dipole moment           0.00000000     0.57969822    -0.53730302
 Dipole moment /Debye                   0.00000000     1.47334941    -1.36559860

 Orbital energies:

         1.1          2.1          3.1          4.1          5.1          6.1          7.1          8.1          9.1
    -20.665345   -15.717274    -1.526971    -0.991385    -0.742472    -0.661917    -0.425828     0.143531     0.369673

         1.2          2.2          3.2
     -0.591840     0.086424     0.613106

 HOMO      7.1    -0.425828 =     -11.5874eV
 LUMO      2.2     0.086424 =       2.3517eV
 LUMO-HOMO         0.512252 =      13.9391eV


 **********************************************************************************************************************************
 DATASETS  * FILE   NREC   LENGTH (MB)   RECORD NAMES
              1      23       36.03       500      610      700      900      950      970     1000      129      960     1700   
                                          VAR    BASINP    GEOM    SYMINP    ZMAT    AOBASIS   BASIS     P2S    ABASIS    OPER   
                                         1101     1401     1411     1412     1650     1100     1400     1410     1200     1210   
                                          SR      EKINR    POTR     PVPR    MOLCAS      S      EKIN      POT      H0       H01  
                                         1300     1080     1600   
                                         ERIS     AOSYM     SMH  

              2       4        2.85       700     1000      520     2100   
                                         GEOM     BASIS   MCVARS     RHF  

 PROGRAMS   *        TOTAL        HF       INT
 CPU TIMES  *         1.06      0.24      0.72
 REAL TIME  *         2.28 SEC
 DISK USED  *        75.75 MB      
 **********************************************************************************************************************************


 PROGRAM * CCSD (Closed-shell coupled cluster)     Authors: C. Hampel, H.-J. Werner, 1991, M. Deegan, P.J. Knowles, 1992


 Convergence thresholds:  THRVAR = 1.00D-08  THRDEN = 1.00D-12

 CCSD(T)     terms to be evaluated (factor= 1.000)


 Number of core orbitals:           2 (   2   0 )
 Number of closed-shell orbitals:   6 (   5   1 )
 Number of external orbitals:      66 (  43  23 )

 Molecular orbitals read from record     2100.2  Type=RHF/CANONICAL (state 1.1)

 Number of N-1 electron functions:               6
 Number of N-2 electron functions:              21
 Number of singly external CSFs:               238
 Number of doubly external CSFs:             41002
 Total number of CSFs:                       41241

 Length of J-op  integral file:               0.00 MB
 Length of K-op  integral file:               0.25 MB
 Length of 3-ext integral record:             0.00 MB

 Memory could be reduced to 1.65 Mwords without degradation in triples

 Integral transformation finished. Total CPU:   0.04 sec, npass=  1  Memory used:   0.55 MW

 Reference energy:                   -129.91734478

 MP2 singlet pair energy:              -0.27387531
 MP2 triplet pair energy:              -0.16265109
 MP2 correlation energy:               -0.43652640
 MP2 total energy:                   -130.35387119

 SCS-MP2 correlation energy:           -0.42985550   (PS=  1.200000  PT=  0.333333)
 SCS-MP2 total energy:               -130.34720028

 ITER.      SQ.NORM     CORR.ENERGY   TOTAL ENERGY   ENERGY CHANGE        DEN1      VAR(S)    VAR(P)  DIIS     TIME  TIME/IT
   1      1.11864379    -0.44159288  -130.35893766    -0.00506647     0.01078702  0.30D-02  0.30D-02  1  1     0.12     0.06
   2      1.12953282    -0.44183791  -130.35918270    -0.00024504    -0.01232178  0.89D-04  0.51D-03  2  2     0.17     0.06
   3      1.13585908    -0.44222896  -130.35957374    -0.00039104    -0.00299123  0.48D-04  0.51D-04  3  3     0.22     0.06
   4      1.13868394    -0.44225412  -130.35959891    -0.00002517    -0.00096415  0.41D-05  0.91D-05  4  4     0.28     0.06
   5      1.13970025    -0.44228411  -130.35962889    -0.00002999    -0.00021055  0.14D-05  0.17D-05  5  5     0.33     0.06
   6      1.14006721    -0.44226736  -130.35961214     0.00001675    -0.00004152  0.10D-06  0.42D-06  6  6     0.39     0.06
   7      1.14015562    -0.44226927  -130.35961406    -0.00000192    -0.00000228  0.12D-07  0.89D-07  6  1     0.44     0.06
   8      1.14018695    -0.44226930  -130.35961409    -0.00000003     0.00000181  0.44D-08  0.11D-07  6  2     0.50     0.06
   9      1.14019514    -0.44226905  -130.35961384     0.00000025    -0.00000227  0.26D-08  0.12D-08  6  3     0.55     0.06
  10      1.14019390    -0.44226958  -130.35961437    -0.00000053     0.00000059  0.51D-09  0.22D-09  6  4     0.61     0.06
  11      1.14019210    -0.44226964  -130.35961443    -0.00000006     0.00000021  0.16D-09  0.24D-10  6  5     0.66     0.06
  12      1.14019065    -0.44226982  -130.35961461    -0.00000018     0.00000045  0.16D-10  0.81D-11  6  6     0.72     0.06
  13      1.14019000    -0.44226983  -130.35961462    -0.00000001     0.00000013  0.71D-11  0.13D-11  6  1     0.77     0.06
  14      1.14018959    -0.44226985  -130.35961464    -0.00000002     0.00000008  0.10D-11  0.46D-12  6  2     0.83     0.06
  15      1.14018944    -0.44226986  -130.35961464    -0.00000000     0.00000001  0.26D-12  0.15D-12  6  3     0.88     0.06
  16      1.14018934    -0.44226986  -130.35961464    -0.00000000     0.00000001  0.28D-13  0.17D-13  6  5     0.94     0.06
  17      1.14018931    -0.44226986  -130.35961464    -0.00000000     0.00000000  0.73D-15  0.21D-14  6  4     1.00     0.06
  18      1.14018931    -0.44226986  -130.35961464     0.00000000    -0.00000000  0.49D-15  0.30D-15  6  1     1.06     0.06
  19      1.14018930    -0.44226986  -130.35961464    -0.00000000     0.00000000  0.49D-16  0.56D-16  6  6     1.12     0.06
  20      1.14018930    -0.44226986  -130.35961464    -0.00000000     0.00000000  0.11D-16  0.14D-16  6  2     1.18     0.06
  21      1.14018930    -0.44226986  -130.35961464    -0.00000000     0.00000000  0.20D-17  0.11D-17  6  5     1.24     0.06
  22      1.14018930    -0.44226986  -130.35961464    -0.00000000     0.00000000  0.11D-18  0.82D-19  6  3     1.29     0.06
  23      1.14018930    -0.44226986  -130.35961464     0.00000000    -0.00000000  0.29D-19  0.17D-19  6  4     1.34     0.06
  24      1.14018930    -0.44226986  -130.35961464     0.00000000    -0.00000000  0.43D-20  0.47D-20  6  1     1.40     0.06
  25      1.14018930    -0.44226986  -130.35961464     0.00000000    -0.00000000  0.58D-21  0.82D-21  6  6     1.46     0.06

 Norm of t1 vector:      0.07559459      S-energy:     0.00000000      T1 diagnostic:  0.01543068
                                                                       D1 diagnostic:  0.04253596

 Doubles amplitudes (print threshold =  0.500E-01):

         I         J         SYM. A    SYM. B    A         B      T(IJ, AB)

         6         6         2         2         1         1     -0.14368033


 Total CPU time for triples:      0.37 sec


 RESULTS
 =======

  Reference energy                   -129.917344783845
  CCSD singlet pair energy             -0.303265683331
  CCSD triplet pair energy             -0.139004176262
  CCSD correlation energy              -0.442269859592

  Triples (T) contribution             -0.019830750760
  Total correlation energy             -0.462100610352

  CCSD total energy                  -130.359614643437
  CCSD[T] energy                     -130.380475043535
  CCSD-T energy                      -130.379043737742
 !CCSD(T) total energy               -130.379445394197

 Timing summary (sec):

 STEP                 CPU(USER)    SYS     CPU(TOT)    WALL
 Transformation          0.05      0.00      0.05      0.06
 CCSD iterations         1.42      0.13      1.55      1.55
 Triples                 0.37      0.01      0.38      0.38

 Program statistics:

 Available memory in ccsd:               994999756
 Min. memory needed in ccsd:                154850
 Max. memory used in ccsd:                  184802
 Max. memory used in cckext:                238416 (25 integral passes)



 **********************************************************************************************************************************
 DATASETS  * FILE   NREC   LENGTH (MB)   RECORD NAMES
              1      24       40.41       500      610      700      900      950      970     1000      129      960     1700   
                                          VAR    BASINP    GEOM    SYMINP    ZMAT    AOBASIS   BASIS     P2S    ABASIS    OPER   
                                         1101     1401     1411     1412     1650     1100     1400     1410     1200     1210   
                                          SR      EKINR    POTR     PVPR    MOLCAS      S      EKIN      POT      H0       H01  
                                         1300     1080     1600     1380   
                                         ERIS     AOSYM     SMH     JKOP   

              2       4        2.85       700     1000      520     2100   
                                         GEOM     BASIS   MCVARS     RHF  

 PROGRAMS   *        TOTAL   CCSD(T)        HF       INT
 CPU TIMES  *         2.93      1.85      0.24      0.72
 REAL TIME  *         4.35 SEC
 DISK USED  *        75.75 MB      
 **********************************************************************************************************************************

 CCSD(T)/cc-pVTZ-DK energy=   -130.379445394197

        CCSD(T)         HF-SCF  
   -130.37944539   -129.91734478
 **********************************************************************************************************************************
 Molpro calculation terminated
 Variable memory released
