
 Primary working directories    : /tmp/r2666/282621.maple
 Secondary working directories  : /tmp/r2666/282621.maple
 Wavefunction directory         : /ddn/home4/r2666/wfu/
 Main file repository           : /tmp/r2666/282621.maple/

 SHA1      : d5ffa45e93fdbca01ffc919aa182cfdae0147319
 NAME      : 2015.1.35
 ARCHNAME  : linux/x86_64
 FC        : /opt/intel/composer_xe_2015.1.133/bin/intel64/ifort
 BLASLIB   : -Wl,-_start-group /opt/intel/mkl/lib/intel64/libmkl_intel_ilp64.a /opt/intel/mkl/lib/intel64/libmkl_intel_thread.a /opt/intel/mkl/lib/intel64/libmkl_core.a -Wl,-_end-group
 id        : olemiss

 Nodes     nprocs
 cn080        1

 Using customized tuning parameters: mindgm=1; mindgv=20; mindgc=4; mindgr=1; noblas=0; minvec=7
 default implementation of scratch files=df  

 ***,hno CCSD(T)/TZ-F12 QFF
 memory, 995, m;
 gthresh,energy=1.d-12,zero=1.d-22,oneint=1.d-22,twoint=1.d-22;
 gthresh,optgrad=1.d-8,optstep=1.d-8;
 nocompress;
 geomtyp=xyz
 bohr
 geometry={
 3
          2         2
 H        0.0000000000        1.6486310147       -1.9148537920
 N        0.0000000000       -0.1476183441       -1.1552424332
 O        0.0000000000        0.0407551195        1.1195066342
 }
 
 basis=vtz-dk
 dkroll=1
   {hf,maxit=500;accu,20;}
 {ccsd(t),nocheck,maxit=250;orbital,IGNORE_ERROR;}

 Variables initialized (889), CPU time= 0.01 sec
 Commands  initialized (702), CPU time= 0.01 sec, 572 directives.
 Default parameters read. Elapsed time= 0.04 sec

 Checking input...
 Passed
1


                                         ***  PROGRAM SYSTEM MOLPRO  ***
                                       Copyright, TTI GmbH Stuttgart, 2015
                                    Version 2015.1 linked Jul  9 2018 13:16:40


 **********************************************************************************************************************************
 LABEL *   hno CCSD(T)/TZ-F12 QFF                                                        
  64 bit serial version                                                                  DATE: 04-Mar-20          TIME: 13:51:04  
 **********************************************************************************************************************************

 SHA1:             d5ffa45e93fdbca01ffc919aa182cfdae0147319
 **********************************************************************************************************************************

 THRESHOLDS:

 ZERO    =  1.00D-22  ONEINT  =  1.00D-22  TWOINT  =  1.00D-22  PREFAC  =  1.00D-14  LOCALI  =  1.00D-09  EORDER  =  1.00D-04
 ENERGY  =  1.00D-12  ETEST   =  0.00D+00  EDENS   =  0.00D+00  THRDEDEF=  1.00D-06  GRADIENT=  1.00D-02  STEP    =  1.00D-03
 ORBITAL =  1.00D-05  CIVEC   =  1.00D-05  COEFF   =  1.00D-04  PRINTCI =  5.00D-02  PUNCHCI =  9.90D+01  OPTGRAD =  3.00D-04
 OPTENERG=  1.00D-06  OPTSTEP =  3.00D-04  THRGRAD =  1.00D-10  COMPRESS=  1.00D-11  VARMIN  =  1.00D-07  VARMAX  =  1.00D-03
 THRDOUB =  0.00D+00  THRDIV  =  1.00D-05  THRRED  =  1.00D-07  THRPSP  =  1.00D+00  THRDC   =  1.00D-10  THRCS   =  1.00D-10
 THRNRM  =  1.00D-08  THREQ   =  0.00D+00  THRDE   =  1.00D+00  THRREF  =  1.00D-05  SPARFAC =  1.00D+00  THRDLP  =  1.00D-07
 THRDIA  =  1.00D-10  THRDLS  =  1.00D-07  THRGPS  =  0.00D+00  THRKEX  =  0.00D+00  THRDIS  =  2.00D-01  THRVAR  =  1.00D-10
 THRLOC  =  1.00D-06  THRGAP  =  1.00D-06  THRLOCT = -1.00D+00  THRGAPT = -1.00D+00  THRORB  =  1.00D-06  THRMLTP =  0.00D+00
 THRCPQCI=  1.00D-10  KEXTA   =  0.00D+00  THRCOARS=  0.00D+00  SYMTOL  =  1.00D-06  GRADTOL =  1.00D-06  THROVL  =  1.00D-08
 THRORTH =  1.00D-08  GRID    =  1.00D-06  GRIDMAX =  1.00D-03  DTMAX   =  0.00D+00  THROCCDE=  1.00D-01  THROCCDE=  1.00D-01



 THRESHOLDS:

 ZERO    =  1.00D-22  ONEINT  =  1.00D-22  TWOINT  =  1.00D-22  PREFAC  =  1.00D-14  LOCALI  =  1.00D-09  EORDER  =  1.00D-04
 ENERGY  =  1.00D-12  ETEST   =  0.00D+00  EDENS   =  0.00D+00  THRDEDEF=  1.00D-06  GRADIENT=  1.00D-02  STEP    =  1.00D-03
 ORBITAL =  1.00D-05  CIVEC   =  1.00D-05  COEFF   =  1.00D-04  PRINTCI =  5.00D-02  PUNCHCI =  9.90D+01  OPTGRAD =  1.00D-08
 OPTENERG=  1.00D-06  OPTSTEP =  1.00D-08  THRGRAD =  1.00D-10  COMPRESS=  1.00D-11  VARMIN  =  1.00D-07  VARMAX  =  1.00D-03
 THRDOUB =  0.00D+00  THRDIV  =  1.00D-05  THRRED  =  1.00D-07  THRPSP  =  1.00D+00  THRDC   =  1.00D-10  THRCS   =  1.00D-10
 THRNRM  =  1.00D-08  THREQ   =  0.00D+00  THRDE   =  1.00D+00  THRREF  =  1.00D-05  SPARFAC =  1.00D+00  THRDLP  =  1.00D-07
 THRDIA  =  1.00D-10  THRDLS  =  1.00D-07  THRGPS  =  0.00D+00  THRKEX  =  0.00D+00  THRDIS  =  2.00D-01  THRVAR  =  1.00D-10
 THRLOC  =  1.00D-06  THRGAP  =  1.00D-06  THRLOCT = -1.00D+00  THRGAPT = -1.00D+00  THRORB  =  1.00D-06  THRMLTP =  0.00D+00
 THRCPQCI=  1.00D-10  KEXTA   =  0.00D+00  THRCOARS=  0.00D+00  SYMTOL  =  1.00D-06  GRADTOL =  1.00D-06  THROVL  =  1.00D-08
 THRORTH =  1.00D-08  GRID    =  1.00D-06  GRIDMAX =  1.00D-03  DTMAX   =  0.00D+00  THROCCDE=  1.00D-01  THROCCDE=  1.00D-01



 Input parameters for SORTINT:

 COMPRESS =    0.000000
 C_FINAL  =    1.000000
 DEBUG    =   -1.000000
 C_SORT1  =    0.000000
 C_SEWARD =    0.000000
 THRESH   =    0.000000
 IO       =  molpro                                                          
 SPRI     =    0.000000
 SETTING GEOMTYP        =    XYZ
 ZUNIT=BOHR
 

 Variable memory set to  995000000 words,  buffer space   230000 words

 SETTING BASIS          =    VTZ-DK
 SETTING DKROLL         =         1.00000000                                  


 Recomputing integrals since basis changed


 Using spherical harmonics

 Library entry H      S cc-pVTZ-DK           selected for orbital group  1
 Library entry H      P cc-pVTZ-DK           selected for orbital group  1
 Library entry H      D cc-pVTZ-DK           selected for orbital group  1
 Library entry N      S cc-pVTZ-DK           selected for orbital group  2
 Library entry N      P cc-pVTZ-DK           selected for orbital group  2
 Library entry N      D cc-pVTZ-DK           selected for orbital group  2
 Library entry N      F cc-pVTZ-DK           selected for orbital group  2
 Library entry O      S cc-pVTZ-DK           selected for orbital group  3
 Library entry O      P cc-pVTZ-DK           selected for orbital group  3
 Library entry O      D cc-pVTZ-DK           selected for orbital group  3
 Library entry O      F cc-pVTZ-DK           selected for orbital group  3


 PROGRAM * SEWARD (Integral evaluation for generally contracted gaussian basis sets)     Author: Roland Lindh, 1990

 Geometry written to block  1 of record 700


 Point group  Cs  



 ATOMIC COORDINATES

 NR  ATOM    CHARGE       X              Y              Z

   1  H       1.00    0.000000000    1.648631015   -1.914853792
   2  N       7.00    0.000000000   -0.147618344   -1.155242433
   3  O       8.00    0.000000000    0.040755119    1.119506634

 Bond lengths in Bohr (Angstrom)

 1-2  1.950261822  2-3  2.282535406
     ( 1.032034112)     ( 1.207865720)

 Bond angles

  1-2-3  108.18899349

 NUCLEAR CHARGE:                   16
 NUMBER OF PRIMITIVE AOS:         111
 NUMBER OF SYMMETRY AOS:          100
 NUMBER OF CONTRACTIONS:           74   (  50A'  +  24A"  )
 NUMBER OF CORE ORBITALS:           2   (   2A'  +   0A"  )
 NUMBER OF VALENCE ORBITALS:        9   (   7A'  +   2A"  )


 NUCLEAR REPULSION ENERGY   30.45300256

 One-electron integrals computed with SEWARD

 2nd-order Douglas-Kroll-Hess method activated. Optimal DKH parametrization is used.

 Computing Douglas-Kroll / X2C integrals


        1874283. INTEGRALS WRITTEN OUT IN     458 BLOCKS ON RECORD 1290 OF FILE 1


 NUMBER OF SORTED TWO-ELECTRON INTEGRALS:    2006100.     BUFFER LENGTH:  32768
 NUMBER OF SEGMENTS:   1  SEGMENT LENGTH:    2006100      RECORD LENGTH: 524288

 Memory used in sort:       2.56 MW

 SORT1 READ     1874283. AND WROTE     1914195. INTEGRALS IN      6 RECORDS. CPU TIME:     0.04 SEC, REAL TIME:     0.04 SEC
 SORT2 READ     1914195. AND WROTE     2006100. INTEGRALS IN      1 RECORDS. CPU TIME:     0.04 SEC, REAL TIME:     0.06 SEC

 FILE SIZES:   FILE 1:    50.2 MBYTE,  FILE 4:    25.2 MBYTE,   TOTAL:     75.4 MBYTE

 OPERATOR DM      FOR CENTER  0  COORDINATES:    0.000000    0.000000    0.000000

 Eigenvalues of metric

         1 0.238E-02 0.388E-02 0.415E-02 0.797E-02 0.126E-01 0.323E-01 0.424E-01 0.462E-01
         2 0.340E-01 0.463E-01 0.101E+00 0.107E+00 0.231E+00 0.333E+00 0.392E+00 0.447E+00


 **********************************************************************************************************************************
 DATASETS  * FILE   NREC   LENGTH (MB)   RECORD NAMES
              1      23       36.03       500      610      700      900      950      970     1000      129      960     1700   
                                          VAR    BASINP    GEOM    SYMINP    ZMAT    AOBASIS   BASIS     P2S    ABASIS    OPER   
                                         1101     1401     1411     1412     1650     1100     1400     1410     1200     1210   
                                          SR      EKINR    POTR     PVPR    MOLCAS      S      EKIN      POT      H0       H01  
                                         1300     1080     1600   
                                         ERIS     AOSYM     SMH  

 PROGRAMS   *        TOTAL       INT
 CPU TIMES  *         0.65      0.57
 REAL TIME  *         1.18 SEC
 DISK USED  *        75.75 MB      
 **********************************************************************************************************************************


 PROGRAM * RHF-SCF (CLOSED SHELL)       Authors: W. Meyer, H.-J. Werner


 NUMBER OF ELECTRONS:       8+    8-
 CONVERGENCE THRESHOLDS:    1.00E-10 (Density)    1.00E-13 (Energy)
 MAX. NUMBER OF ITERATIONS:      500
 INTERPOLATION TYPE:            DIIS
 INTERPOLATION STEPS:              2 (START)      1 (STEP)
 LEVEL SHIFTS:                  0.00 (CLOSED)  0.00 (OPEN) 



 Orbital guess generated from atomic densities. Full valence occupancy:    9   2

 Molecular orbital dump at record        2100.2

 Initial occupancy:   7   1

 ITERATION    DDIFF          GRAD             ENERGY        2-EL.EN.            DIPOLE MOMENTS         DIIS   ORB.
    1      0.000D+00      0.000D+00      -129.86895960    154.388509    0.00000    0.60272   -1.03629    0    start
    2      0.000D+00      0.134D-01      -129.89569530    155.478821    0.00000    0.61681   -0.22850    1    diag
    3      0.184D-01      0.102D-01      -129.91720192    155.613881    0.00000    0.57010   -0.60230    2    diag
    4      0.888D-02      0.156D-02      -129.91793401    155.350882    0.00000    0.57875   -0.54296    3    diag
    5      0.166D-02      0.509D-03      -129.91804474    155.435052    0.00000    0.58390   -0.54395    4    diag
    6      0.709D-03      0.151D-03      -129.91806286    155.420395    0.00000    0.58443   -0.53985    5    diag
    7      0.272D-03      0.757D-04      -129.91806824    155.422608    0.00000    0.58560   -0.53734    6    diag
    8      0.189D-03      0.242D-04      -129.91806876    155.421934    0.00000    0.58561   -0.53653    7    diag
    9      0.642D-04      0.435D-05      -129.91806878    155.421823    0.00000    0.58556   -0.53638    8    diag
   10      0.124D-04      0.961D-06      -129.91806878    155.421808    0.00000    0.58553   -0.53636    9    orth
   11      0.276D-05      0.187D-06      -129.91806878    155.421804    0.00000    0.58552   -0.53636    9    diag
   12      0.495D-06      0.389D-07      -129.91806878    155.421803    0.00000    0.58552   -0.53636    9    diag
   13      0.106D-06      0.961D-08      -129.91806878    155.421803    0.00000    0.58552   -0.53636    9    diag
   14      0.260D-07      0.173D-08      -129.91806878    155.421803    0.00000    0.58552   -0.53636    9    diag
   15      0.404D-08      0.443D-09      -129.91806878    155.421803    0.00000    0.58552   -0.53636    9    diag
   16      0.984D-09      0.106D-09      -129.91806878    155.421803    0.00000    0.58552   -0.53636    9    diag
   17      0.159D-09      0.278D-10      -129.91806878    155.421803    0.00000    0.58552   -0.53636    9    diag
   18      0.436D-10      0.875D-11      -129.91806878    155.421803    0.00000    0.58552   -0.53636    9    diag
   19      0.171D-10      0.168D-11      -129.91806878    155.421803    0.00000    0.58552   -0.53636    9    fixocc
   20      0.377D-11      0.223D-12      -129.91806878    155.421803    0.00000    0.58552   -0.53636    9    orth
   21      0.560D-12      0.671D-13      -129.91806878    155.421803    0.00000    0.58552   -0.53636    9    diag
   22      0.181D-12      0.239D-13      -129.91806878    155.421803    0.00000    0.58552   -0.53636    9    diag
   23      0.734D-13      0.198D-13      -129.91806878    155.421803    0.00000    0.58552   -0.53636    0    orth

 Final occupancy:   7   1

 !RHF STATE 1.1 Energy               -129.918068777539
 Nuclear energy                        30.45300256
 One-electron energy                 -238.08197274
 Two-electron energy                   77.71090140
 Virial quotient                       -0.99730902
 !RHF STATE 1.1 Dipole moment           0.00000000     0.58551991    -0.53635659
 Dipole moment /Debye                   0.00000000     1.48814568    -1.36319319

 Orbital energies:

         1.1          2.1          3.1          4.1          5.1          6.1          7.1          8.1          9.1
    -20.664641   -15.714010    -1.527709    -0.997305    -0.745223    -0.661749    -0.427867     0.145280     0.369539

         1.2          2.2          3.2
     -0.591581     0.086511     0.613083

 HOMO      7.1    -0.427867 =     -11.6429eV
 LUMO      2.2     0.086511 =       2.3541eV
 LUMO-HOMO         0.514379 =      13.9970eV


 **********************************************************************************************************************************
 DATASETS  * FILE   NREC   LENGTH (MB)   RECORD NAMES
              1      23       36.03       500      610      700      900      950      970     1000      129      960     1700   
                                          VAR    BASINP    GEOM    SYMINP    ZMAT    AOBASIS   BASIS     P2S    ABASIS    OPER   
                                         1101     1401     1411     1412     1650     1100     1400     1410     1200     1210   
                                          SR      EKINR    POTR     PVPR    MOLCAS      S      EKIN      POT      H0       H01  
                                         1300     1080     1600   
                                         ERIS     AOSYM     SMH  

              2       4        2.85       700     1000      520     2100   
                                         GEOM     BASIS   MCVARS     RHF  

 PROGRAMS   *        TOTAL        HF       INT
 CPU TIMES  *         0.91      0.26      0.57
 REAL TIME  *         1.50 SEC
 DISK USED  *        75.75 MB      
 **********************************************************************************************************************************


 PROGRAM * CCSD (Closed-shell coupled cluster)     Authors: C. Hampel, H.-J. Werner, 1991, M. Deegan, P.J. Knowles, 1992


 Convergence thresholds:  THRVAR = 1.00D-08  THRDEN = 1.00D-12

 CCSD(T)     terms to be evaluated (factor= 1.000)


 Number of core orbitals:           2 (   2   0 )
 Number of closed-shell orbitals:   6 (   5   1 )
 Number of external orbitals:      66 (  43  23 )

 Molecular orbitals read from record     2100.2  Type=RHF/CANONICAL (state 1.1)

 Number of N-1 electron functions:               6
 Number of N-2 electron functions:              21
 Number of singly external CSFs:               238
 Number of doubly external CSFs:             41002
 Total number of CSFs:                       41241

 Length of J-op  integral file:               0.00 MB
 Length of K-op  integral file:               0.25 MB
 Length of 3-ext integral record:             0.00 MB

 Memory could be reduced to 1.65 Mwords without degradation in triples

 Integral transformation finished. Total CPU:   0.03 sec, npass=  1  Memory used:   0.55 MW

 Reference energy:                   -129.91806878

 MP2 singlet pair energy:              -0.27329565
 MP2 triplet pair energy:              -0.16231666
 MP2 correlation energy:               -0.43561231
 MP2 total energy:                   -130.35368109

 SCS-MP2 correlation energy:           -0.42895181   (PS=  1.200000  PT=  0.333333)
 SCS-MP2 total energy:               -130.34702059

 ITER.      SQ.NORM     CORR.ENERGY   TOTAL ENERGY   ENERGY CHANGE        DEN1      VAR(S)    VAR(P)  DIIS     TIME  TIME/IT
   1      1.11778749    -0.44073252  -130.35880130    -0.00512021     0.01049909  0.29D-02  0.30D-02  1  1     0.06     0.04
   2      1.12849859    -0.44099235  -130.35906113    -0.00025983    -0.01217957  0.86D-04  0.49D-03  2  2     0.10     0.04
   3      1.13464759    -0.44136299  -130.35943177    -0.00037064    -0.00293107  0.44D-04  0.50D-04  3  3     0.13     0.04
   4      1.13740749    -0.44139182  -130.35946060    -0.00002883    -0.00094410  0.36D-05  0.87D-05  4  4     0.17     0.04
   5      1.13836761    -0.44141970  -130.35948847    -0.00002788    -0.00019877  0.12D-05  0.17D-05  5  5     0.21     0.04
   6      1.13871399    -0.44140362  -130.35947239     0.00001608    -0.00003949  0.80D-07  0.42D-06  6  6     0.24     0.04
   7      1.13879568    -0.44140603  -130.35947481    -0.00000242    -0.00000176  0.94D-08  0.89D-07  6  1     0.27     0.04
   8      1.13882483    -0.44140606  -130.35947483    -0.00000002     0.00000222  0.50D-08  0.99D-08  6  2     0.30     0.04
   9      1.13883197    -0.44140595  -130.35947472     0.00000011    -0.00000237  0.25D-08  0.11D-08  6  3     0.34     0.04
  10      1.13883063    -0.44140642  -130.35947520    -0.00000048     0.00000071  0.46D-09  0.19D-09  6  4     0.38     0.04
  11      1.13882904    -0.44140648  -130.35947526    -0.00000006     0.00000012  0.13D-09  0.21D-10  6  5     0.42     0.04
  12      1.13882775    -0.44140665  -130.35947542    -0.00000017     0.00000041  0.13D-10  0.64D-11  6  6     0.45     0.04
  13      1.13882722    -0.44140665  -130.35947543    -0.00000001     0.00000011  0.56D-11  0.11D-11  6  1     0.48     0.04
  14      1.13882687    -0.44140667  -130.35947545    -0.00000002     0.00000007  0.79D-12  0.39D-12  6  2     0.52     0.04
  15      1.13882675    -0.44140667  -130.35947545    -0.00000000     0.00000001  0.20D-12  0.13D-12  6  3     0.56     0.04
  16      1.13882666    -0.44140667  -130.35947545    -0.00000000     0.00000001  0.21D-13  0.15D-13  6  5     0.60     0.04
  17      1.13882663    -0.44140667  -130.35947545    -0.00000000     0.00000000  0.72D-15  0.20D-14  6  4     0.64     0.04
  18      1.13882663    -0.44140667  -130.35947545     0.00000000    -0.00000000  0.47D-15  0.28D-15  6  1     0.67     0.04
  19      1.13882662    -0.44140667  -130.35947545    -0.00000000     0.00000000  0.47D-16  0.51D-16  6  6     0.71     0.04
  20      1.13882662    -0.44140667  -130.35947545    -0.00000000     0.00000000  0.11D-16  0.13D-16  6  2     0.75     0.04
  21      1.13882662    -0.44140667  -130.35947545    -0.00000000     0.00000000  0.16D-17  0.95D-18  6  5     0.79     0.04
  22      1.13882662    -0.44140667  -130.35947545    -0.00000000     0.00000000  0.96D-19  0.76D-19  6  3     0.82     0.04
  23      1.13882662    -0.44140667  -130.35947545     0.00000000    -0.00000000  0.28D-19  0.16D-19  6  4     0.85     0.04
  24      1.13882662    -0.44140667  -130.35947545     0.00000000    -0.00000000  0.42D-20  0.46D-20  6  1     0.88     0.04
  25      1.13882662    -0.44140667  -130.35947545     0.00000000    -0.00000000  0.49D-21  0.77D-21  6  6     0.92     0.04

 Norm of t1 vector:      0.07397668      S-energy:     0.00000000      T1 diagnostic:  0.01510043
                                                                       D1 diagnostic:  0.04237602

 Doubles amplitudes (print threshold =  0.500E-01):

         I         J         SYM. A    SYM. B    A         B      T(IJ, AB)

         6         6         2         2         1         1     -0.14394549


 Total CPU time for triples:      0.23 sec


 RESULTS
 =======

  Reference energy                   -129.918068777539
  CCSD singlet pair energy             -0.302522934873
  CCSD triplet pair energy             -0.138883738562
  CCSD correlation energy              -0.441406673435

  Triples (T) contribution             -0.019664504449
  Total correlation energy             -0.461071177885

  CCSD total energy                  -130.359475450975
  CCSD[T] energy                     -130.380137328024
  CCSD-T energy                      -130.378749830940
 !CCSD(T) total energy               -130.379139955424

 Timing summary (sec):

 STEP                 CPU(USER)    SYS     CPU(TOT)    WALL
 Transformation          0.03      0.02      0.05      0.04
 CCSD iterations         0.89      0.15      1.04      1.05
 Triples                 0.23      0.01      0.24      0.24

 Program statistics:

 Available memory in ccsd:               994999756
 Min. memory needed in ccsd:                154850
 Max. memory used in ccsd:                  184802
 Max. memory used in cckext:                238416 (25 integral passes)



 **********************************************************************************************************************************
 DATASETS  * FILE   NREC   LENGTH (MB)   RECORD NAMES
              1      24       40.41       500      610      700      900      950      970     1000      129      960     1700   
                                          VAR    BASINP    GEOM    SYMINP    ZMAT    AOBASIS   BASIS     P2S    ABASIS    OPER   
                                         1101     1401     1411     1412     1650     1100     1400     1410     1200     1210   
                                          SR      EKINR    POTR     PVPR    MOLCAS      S      EKIN      POT      H0       H01  
                                         1300     1080     1600     1380   
                                         ERIS     AOSYM     SMH     JKOP   

              2       4        2.85       700     1000      520     2100   
                                         GEOM     BASIS   MCVARS     RHF  

 PROGRAMS   *        TOTAL   CCSD(T)        HF       INT
 CPU TIMES  *         2.08      1.17      0.26      0.57
 REAL TIME  *         2.86 SEC
 DISK USED  *        75.75 MB      
 **********************************************************************************************************************************

 CCSD(T)/cc-pVTZ-DK energy=   -130.379139955424

        CCSD(T)         HF-SCF  
   -130.37913996   -129.91806878
 **********************************************************************************************************************************
 Molpro calculation terminated
 Variable memory released
