
 Primary working directories    : /tmp/r2666/282726.maple
 Secondary working directories  : /tmp/r2666/282726.maple
 Wavefunction directory         : /ddn/home4/r2666/wfu/
 Main file repository           : /tmp/r2666/282726.maple/

 SHA1      : d5ffa45e93fdbca01ffc919aa182cfdae0147319
 NAME      : 2015.1.35
 ARCHNAME  : linux/x86_64
 FC        : /opt/intel/composer_xe_2015.1.133/bin/intel64/ifort
 BLASLIB   : -Wl,-_start-group /opt/intel/mkl/lib/intel64/libmkl_intel_ilp64.a /opt/intel/mkl/lib/intel64/libmkl_intel_thread.a /opt/intel/mkl/lib/intel64/libmkl_core.a -Wl,-_end-group
 id        : olemiss

 Nodes     nprocs
 cn091        1

 Using customized tuning parameters: mindgm=1; mindgv=20; mindgc=4; mindgr=1; noblas=0; minvec=7
 default implementation of scratch files=df  

 ***,hno CCSD(T)/TZ-F12 QFF
 memory, 995, m;
 gthresh,energy=1.d-12,zero=1.d-22,oneint=1.d-22,twoint=1.d-22;
 gthresh,optgrad=1.d-8,optstep=1.d-8;
 nocompress;
 geomtyp=xyz
 bohr
 geometry={
 3
        107       107
 H        0.0000000000        1.6727973741       -1.9335243628
 N        0.0000000000       -0.1666609025       -1.1547950377
 O        0.0000000000        0.0356313184        1.1377298095
 }
 
 basis=vtz-dk
 dkroll=1
   {hf,maxit=500;accu,20;}
 {ccsd(t),nocheck,maxit=250;orbital,IGNORE_ERROR;}

 Variables initialized (889), CPU time= 0.00 sec
 Commands  initialized (702), CPU time= 0.01 sec, 572 directives.
 Default parameters read. Elapsed time= 0.04 sec

 Checking input...
 Passed
1


                                         ***  PROGRAM SYSTEM MOLPRO  ***
                                       Copyright, TTI GmbH Stuttgart, 2015
                                    Version 2015.1 linked Jul  9 2018 13:16:40


 **********************************************************************************************************************************
 LABEL *   hno CCSD(T)/TZ-F12 QFF                                                        
  64 bit serial version                                                                  DATE: 04-Mar-20          TIME: 13:51:17  
 **********************************************************************************************************************************

 SHA1:             d5ffa45e93fdbca01ffc919aa182cfdae0147319
 **********************************************************************************************************************************

 THRESHOLDS:

 ZERO    =  1.00D-22  ONEINT  =  1.00D-22  TWOINT  =  1.00D-22  PREFAC  =  1.00D-14  LOCALI  =  1.00D-09  EORDER  =  1.00D-04
 ENERGY  =  1.00D-12  ETEST   =  0.00D+00  EDENS   =  0.00D+00  THRDEDEF=  1.00D-06  GRADIENT=  1.00D-02  STEP    =  1.00D-03
 ORBITAL =  1.00D-05  CIVEC   =  1.00D-05  COEFF   =  1.00D-04  PRINTCI =  5.00D-02  PUNCHCI =  9.90D+01  OPTGRAD =  3.00D-04
 OPTENERG=  1.00D-06  OPTSTEP =  3.00D-04  THRGRAD =  1.00D-10  COMPRESS=  1.00D-11  VARMIN  =  1.00D-07  VARMAX  =  1.00D-03
 THRDOUB =  0.00D+00  THRDIV  =  1.00D-05  THRRED  =  1.00D-07  THRPSP  =  1.00D+00  THRDC   =  1.00D-10  THRCS   =  1.00D-10
 THRNRM  =  1.00D-08  THREQ   =  0.00D+00  THRDE   =  1.00D+00  THRREF  =  1.00D-05  SPARFAC =  1.00D+00  THRDLP  =  1.00D-07
 THRDIA  =  1.00D-10  THRDLS  =  1.00D-07  THRGPS  =  0.00D+00  THRKEX  =  0.00D+00  THRDIS  =  2.00D-01  THRVAR  =  1.00D-10
 THRLOC  =  1.00D-06  THRGAP  =  1.00D-06  THRLOCT = -1.00D+00  THRGAPT = -1.00D+00  THRORB  =  1.00D-06  THRMLTP =  0.00D+00
 THRCPQCI=  1.00D-10  KEXTA   =  0.00D+00  THRCOARS=  0.00D+00  SYMTOL  =  1.00D-06  GRADTOL =  1.00D-06  THROVL  =  1.00D-08
 THRORTH =  1.00D-08  GRID    =  1.00D-06  GRIDMAX =  1.00D-03  DTMAX   =  0.00D+00  THROCCDE=  1.00D-01  THROCCDE=  1.00D-01



 THRESHOLDS:

 ZERO    =  1.00D-22  ONEINT  =  1.00D-22  TWOINT  =  1.00D-22  PREFAC  =  1.00D-14  LOCALI  =  1.00D-09  EORDER  =  1.00D-04
 ENERGY  =  1.00D-12  ETEST   =  0.00D+00  EDENS   =  0.00D+00  THRDEDEF=  1.00D-06  GRADIENT=  1.00D-02  STEP    =  1.00D-03
 ORBITAL =  1.00D-05  CIVEC   =  1.00D-05  COEFF   =  1.00D-04  PRINTCI =  5.00D-02  PUNCHCI =  9.90D+01  OPTGRAD =  1.00D-08
 OPTENERG=  1.00D-06  OPTSTEP =  1.00D-08  THRGRAD =  1.00D-10  COMPRESS=  1.00D-11  VARMIN  =  1.00D-07  VARMAX  =  1.00D-03
 THRDOUB =  0.00D+00  THRDIV  =  1.00D-05  THRRED  =  1.00D-07  THRPSP  =  1.00D+00  THRDC   =  1.00D-10  THRCS   =  1.00D-10
 THRNRM  =  1.00D-08  THREQ   =  0.00D+00  THRDE   =  1.00D+00  THRREF  =  1.00D-05  SPARFAC =  1.00D+00  THRDLP  =  1.00D-07
 THRDIA  =  1.00D-10  THRDLS  =  1.00D-07  THRGPS  =  0.00D+00  THRKEX  =  0.00D+00  THRDIS  =  2.00D-01  THRVAR  =  1.00D-10
 THRLOC  =  1.00D-06  THRGAP  =  1.00D-06  THRLOCT = -1.00D+00  THRGAPT = -1.00D+00  THRORB  =  1.00D-06  THRMLTP =  0.00D+00
 THRCPQCI=  1.00D-10  KEXTA   =  0.00D+00  THRCOARS=  0.00D+00  SYMTOL  =  1.00D-06  GRADTOL =  1.00D-06  THROVL  =  1.00D-08
 THRORTH =  1.00D-08  GRID    =  1.00D-06  GRIDMAX =  1.00D-03  DTMAX   =  0.00D+00  THROCCDE=  1.00D-01  THROCCDE=  1.00D-01



 Input parameters for SORTINT:

 COMPRESS =    0.000000
 C_FINAL  =    1.000000
 DEBUG    =   -1.000000
 C_SORT1  =    0.000000
 C_SEWARD =    0.000000
 THRESH   =    0.000000
 IO       =  molpro                                                          
 SPRI     =    0.000000
 SETTING GEOMTYP        =    XYZ
 ZUNIT=BOHR
 

 Variable memory set to  995000000 words,  buffer space   230000 words

 SETTING BASIS          =    VTZ-DK
 SETTING DKROLL         =         1.00000000                                  


 Recomputing integrals since basis changed


 Using spherical harmonics

 Library entry H      S cc-pVTZ-DK           selected for orbital group  1
 Library entry H      P cc-pVTZ-DK           selected for orbital group  1
 Library entry H      D cc-pVTZ-DK           selected for orbital group  1
 Library entry N      S cc-pVTZ-DK           selected for orbital group  2
 Library entry N      P cc-pVTZ-DK           selected for orbital group  2
 Library entry N      D cc-pVTZ-DK           selected for orbital group  2
 Library entry N      F cc-pVTZ-DK           selected for orbital group  2
 Library entry O      S cc-pVTZ-DK           selected for orbital group  3
 Library entry O      P cc-pVTZ-DK           selected for orbital group  3
 Library entry O      D cc-pVTZ-DK           selected for orbital group  3
 Library entry O      F cc-pVTZ-DK           selected for orbital group  3


 PROGRAM * SEWARD (Integral evaluation for generally contracted gaussian basis sets)     Author: Roland Lindh, 1990

 Geometry written to block  1 of record 700


 Point group  Cs  



 ATOMIC COORDINATES

 NR  ATOM    CHARGE       X              Y              Z

   1  H       1.00    0.000000000    1.672797374   -1.933524363
   2  N       7.00    0.000000000   -0.166660903   -1.154795038
   3  O       8.00    0.000000000    0.035631318    1.137729809

 Bond lengths in Bohr (Angstrom)

 1-2  1.997504972  2-3  2.301432666
     ( 1.057034110)     ( 1.217865719)

 Bond angles

  1-2-3  107.90251459

 NUCLEAR CHARGE:                   16
 NUMBER OF PRIMITIVE AOS:         111
 NUMBER OF SYMMETRY AOS:          100
 NUMBER OF CONTRACTIONS:           74   (  50A'  +  24A"  )
 NUMBER OF CORE ORBITALS:           2   (   2A'  +   0A"  )
 NUMBER OF VALENCE ORBITALS:        9   (   7A'  +   2A"  )


 NUCLEAR REPULSION ENERGY   30.13565298

 One-electron integrals computed with SEWARD

 2nd-order Douglas-Kroll-Hess method activated. Optimal DKH parametrization is used.

 Computing Douglas-Kroll / X2C integrals


        1874283. INTEGRALS WRITTEN OUT IN     458 BLOCKS ON RECORD 1290 OF FILE 1


 NUMBER OF SORTED TWO-ELECTRON INTEGRALS:    2006100.     BUFFER LENGTH:  32768
 NUMBER OF SEGMENTS:   1  SEGMENT LENGTH:    2006100      RECORD LENGTH: 524288

 Memory used in sort:       2.56 MW

 SORT1 READ     1874283. AND WROTE     1914195. INTEGRALS IN      6 RECORDS. CPU TIME:     0.02 SEC, REAL TIME:     0.05 SEC
 SORT2 READ     1914195. AND WROTE     2006100. INTEGRALS IN      1 RECORDS. CPU TIME:     0.04 SEC, REAL TIME:     0.06 SEC

 FILE SIZES:   FILE 1:    50.2 MBYTE,  FILE 4:    25.2 MBYTE,   TOTAL:     75.4 MBYTE

 OPERATOR DM      FOR CENTER  0  COORDINATES:    0.000000    0.000000    0.000000

 Eigenvalues of metric

         1 0.250E-02 0.402E-02 0.431E-02 0.850E-02 0.131E-01 0.334E-01 0.431E-01 0.465E-01
         2 0.348E-01 0.467E-01 0.103E+00 0.114E+00 0.238E+00 0.344E+00 0.399E+00 0.453E+00


 **********************************************************************************************************************************
 DATASETS  * FILE   NREC   LENGTH (MB)   RECORD NAMES
              1      23       36.03       500      610      700      900      950      970     1000      129      960     1700   
                                          VAR    BASINP    GEOM    SYMINP    ZMAT    AOBASIS   BASIS     P2S    ABASIS    OPER   
                                         1101     1401     1411     1412     1650     1100     1400     1410     1200     1210   
                                          SR      EKINR    POTR     PVPR    MOLCAS      S      EKIN      POT      H0       H01  
                                         1300     1080     1600   
                                         ERIS     AOSYM     SMH  

 PROGRAMS   *        TOTAL       INT
 CPU TIMES  *         0.62      0.52
 REAL TIME  *         1.17 SEC
 DISK USED  *        75.75 MB      
 **********************************************************************************************************************************


 PROGRAM * RHF-SCF (CLOSED SHELL)       Authors: W. Meyer, H.-J. Werner


 NUMBER OF ELECTRONS:       8+    8-
 CONVERGENCE THRESHOLDS:    1.00E-10 (Density)    1.00E-13 (Energy)
 MAX. NUMBER OF ITERATIONS:      500
 INTERPOLATION TYPE:            DIIS
 INTERPOLATION STEPS:              2 (START)      1 (STEP)
 LEVEL SHIFTS:                  0.00 (CLOSED)  0.00 (OPEN) 



 Orbital guess generated from atomic densities. Full valence occupancy:    9   2

 Molecular orbital dump at record        2100.2

 Initial occupancy:   7   1

 ITERATION    DDIFF          GRAD             ENERGY        2-EL.EN.            DIPOLE MOMENTS         DIIS   ORB.
    1      0.000D+00      0.000D+00      -129.86414434    153.805021    0.00000    0.58920   -1.07217    0    start
    2      0.000D+00      0.138D-01      -129.89051612    154.900248    0.00000    0.62115   -0.21124    1    diag
    3      0.190D-01      0.108D-01      -129.91491977    155.050421    0.00000    0.56507   -0.61288    2    diag
    4      0.932D-02      0.157D-02      -129.91567330    154.777633    0.00000    0.57343   -0.55213    3    diag
    5      0.167D-02      0.523D-03      -129.91579234    154.864392    0.00000    0.57885   -0.55295    4    diag
    6      0.730D-03      0.157D-03      -129.91581223    154.849191    0.00000    0.57932   -0.54856    5    diag
    7      0.284D-03      0.793D-04      -129.91581825    154.851393    0.00000    0.58053   -0.54590    6    diag
    8      0.198D-03      0.263D-04      -129.91581888    154.850652    0.00000    0.58054   -0.54501    7    diag
    9      0.714D-04      0.483D-05      -129.91581891    154.850523    0.00000    0.58049   -0.54483    8    diag
   10      0.140D-04      0.104D-05      -129.91581891    154.850505    0.00000    0.58045   -0.54481    9    orth
   11      0.291D-05      0.204D-06      -129.91581891    154.850501    0.00000    0.58045   -0.54481    9    diag
   12      0.528D-06      0.438D-07      -129.91581891    154.850500    0.00000    0.58045   -0.54481    9    diag
   13      0.118D-06      0.113D-07      -129.91581891    154.850499    0.00000    0.58044   -0.54481    9    diag
   14      0.302D-07      0.202D-08      -129.91581891    154.850499    0.00000    0.58044   -0.54481    9    diag
   15      0.451D-08      0.512D-09      -129.91581891    154.850499    0.00000    0.58044   -0.54481    9    diag
   16      0.111D-08      0.122D-09      -129.91581891    154.850499    0.00000    0.58044   -0.54481    9    diag
   17      0.176D-09      0.344D-10      -129.91581891    154.850499    0.00000    0.58044   -0.54481    9    diag
   18      0.523D-10      0.116D-10      -129.91581891    154.850499    0.00000    0.58044   -0.54481    0    orth

 Final occupancy:   7   1

 !RHF STATE 1.1 Energy               -129.915818911316
 Nuclear energy                        30.13565298
 One-electron energy                 -237.47672153
 Two-electron energy                   77.42524964
 Virial quotient                       -0.99789797
 !RHF STATE 1.1 Dipole moment           0.00000000     0.58044478    -0.54480572
 Dipole moment /Debye                   0.00000000     1.47524685    -1.38466732

 Orbital energies:

         1.1          2.1          3.1          4.1          5.1          6.1          7.1          8.1          9.1
    -20.666025   -15.719247    -1.519460    -0.993070    -0.739493    -0.658861    -0.429636     0.143192     0.368130

         1.2          2.2          3.2
     -0.587320     0.082845     0.614106

 HOMO      7.1    -0.429636 =     -11.6910eV
 LUMO      2.2     0.082845 =       2.2543eV
 LUMO-HOMO         0.512481 =      13.9453eV


 **********************************************************************************************************************************
 DATASETS  * FILE   NREC   LENGTH (MB)   RECORD NAMES
              1      23       36.03       500      610      700      900      950      970     1000      129      960     1700   
                                          VAR    BASINP    GEOM    SYMINP    ZMAT    AOBASIS   BASIS     P2S    ABASIS    OPER   
                                         1101     1401     1411     1412     1650     1100     1400     1410     1200     1210   
                                          SR      EKINR    POTR     PVPR    MOLCAS      S      EKIN      POT      H0       H01  
                                         1300     1080     1600   
                                         ERIS     AOSYM     SMH  

              2       4        2.85       700     1000      520     2100   
                                         GEOM     BASIS   MCVARS     RHF  

 PROGRAMS   *        TOTAL        HF       INT
 CPU TIMES  *         0.83      0.21      0.52
 REAL TIME  *         1.45 SEC
 DISK USED  *        75.75 MB      
 **********************************************************************************************************************************


 PROGRAM * CCSD (Closed-shell coupled cluster)     Authors: C. Hampel, H.-J. Werner, 1991, M. Deegan, P.J. Knowles, 1992


 Convergence thresholds:  THRVAR = 1.00D-08  THRDEN = 1.00D-12

 CCSD(T)     terms to be evaluated (factor= 1.000)


 Number of core orbitals:           2 (   2   0 )
 Number of closed-shell orbitals:   6 (   5   1 )
 Number of external orbitals:      66 (  43  23 )

 Molecular orbitals read from record     2100.2  Type=RHF/CANONICAL (state 1.1)

 Number of N-1 electron functions:               6
 Number of N-2 electron functions:              21
 Number of singly external CSFs:               238
 Number of doubly external CSFs:             41002
 Total number of CSFs:                       41241

 Length of J-op  integral file:               0.00 MB
 Length of K-op  integral file:               0.25 MB
 Length of 3-ext integral record:             0.00 MB

 Memory could be reduced to 1.65 Mwords without degradation in triples

 Integral transformation finished. Total CPU:   0.03 sec, npass=  1  Memory used:   0.55 MW

 Reference energy:                   -129.91581891

 MP2 singlet pair energy:              -0.27494227
 MP2 triplet pair energy:              -0.16334863
 MP2 correlation energy:               -0.43829091
 MP2 total energy:                   -130.35410982

 SCS-MP2 correlation energy:           -0.43156988   (PS=  1.200000  PT=  0.333333)
 SCS-MP2 total energy:               -130.34738879

 ITER.      SQ.NORM     CORR.ENERGY   TOTAL ENERGY   ENERGY CHANGE        DEN1      VAR(S)    VAR(P)  DIIS     TIME  TIME/IT
   1      1.11970514    -0.44296875  -130.35878767    -0.00467785     0.01157470  0.31D-02  0.31D-02  1  1     0.07     0.04
   2      1.13082633    -0.44313918  -130.35895809    -0.00017043    -0.01255487  0.94D-04  0.52D-03  2  2     0.10     0.04
   3      1.13734358    -0.44354294  -130.35936185    -0.00040376    -0.00305775  0.50D-04  0.53D-04  3  3     0.14     0.04
   4      1.14027513    -0.44356992  -130.35938883    -0.00002698    -0.00099372  0.43D-05  0.93D-05  4  4     0.19     0.04
   5      1.14133552    -0.44360152  -130.35942043    -0.00003161    -0.00021998  0.14D-05  0.17D-05  5  5     0.23     0.04
   6      1.14170983    -0.44358361  -130.35940252     0.00001791    -0.00004299  0.10D-06  0.41D-06  6  6     0.26     0.04
   7      1.14179528    -0.44358575  -130.35940466    -0.00000213    -0.00000171  0.12D-07  0.90D-07  6  1     0.30     0.04
   8      1.14182627    -0.44358560  -130.35940452     0.00000014     0.00000186  0.43D-08  0.11D-07  6  2     0.33     0.04
   9      1.14183452    -0.44358537  -130.35940428     0.00000024    -0.00000230  0.26D-08  0.13D-08  6  3     0.37     0.04
  10      1.14183327    -0.44358590  -130.35940481    -0.00000053     0.00000063  0.50D-09  0.23D-09  6  4     0.42     0.04
  11      1.14183152    -0.44358596  -130.35940487    -0.00000006     0.00000017  0.15D-09  0.24D-10  6  5     0.47     0.05
  12      1.14183009    -0.44358614  -130.35940505    -0.00000019     0.00000045  0.15D-10  0.79D-11  6  6     0.51     0.05
  13      1.14182945    -0.44358615  -130.35940506    -0.00000001     0.00000013  0.68D-11  0.13D-11  6  1     0.58     0.05
  14      1.14182904    -0.44358617  -130.35940508    -0.00000002     0.00000008  0.97D-12  0.45D-12  6  2     0.62     0.05
  15      1.14182888    -0.44358617  -130.35940509    -0.00000000     0.00000002  0.26D-12  0.14D-12  6  3     0.65     0.05
  16      1.14182876    -0.44358618  -130.35940509    -0.00000000     0.00000002  0.80D-14  0.36D-13  6  1     0.69     0.05
  17      1.14182875    -0.44358618  -130.35940509     0.00000000    -0.00000000  0.28D-14  0.24D-14  6  4     0.74     0.05
  18      1.14182874    -0.44358618  -130.35940509    -0.00000000     0.00000000  0.69D-15  0.41D-15  6  5     0.78     0.05
  19      1.14182874    -0.44358618  -130.35940509     0.00000000    -0.00000000  0.14D-15  0.81D-16  6  6     0.83     0.05
  20      1.14182874    -0.44358618  -130.35940509    -0.00000000     0.00000000  0.22D-16  0.20D-16  6  2     0.88     0.05
  21      1.14182874    -0.44358618  -130.35940509    -0.00000000     0.00000000  0.61D-18  0.15D-17  6  4     0.92     0.05
  22      1.14182874    -0.44358618  -130.35940509    -0.00000000     0.00000000  0.90D-19  0.15D-18  6  3     0.97     0.05
  23      1.14182874    -0.44358618  -130.35940509    -0.00000000     0.00000000  0.83D-20  0.15D-19  6  1     1.01     0.05
  24      1.14182874    -0.44358618  -130.35940509     0.00000000     0.00000000  0.44D-20  0.20D-20  6  6     1.06     0.05
  25      1.14182874    -0.44358618  -130.35940509     0.00000000    -0.00000000  0.27D-21  0.49D-21  6  4     1.12     0.05

 Norm of t1 vector:      0.07682063      S-energy:     0.00000000      T1 diagnostic:  0.01568094
                                                                       D1 diagnostic:  0.04374494

 Doubles amplitudes (print threshold =  0.500E-01):

         I         J         SYM. A    SYM. B    A         B      T(IJ, AB)

         6         6         2         2         1         1     -0.14645562


 Total CPU time for triples:      0.30 sec


 RESULTS
 =======

  Reference energy                   -129.915818911316
  CCSD singlet pair energy             -0.304413679984
  CCSD triplet pair energy             -0.139172498548
  CCSD correlation energy              -0.443586178530

  Triples (T) contribution             -0.020123987709
  Total correlation energy             -0.463710166238

  CCSD total energy                  -130.359405089846
  CCSD[T] energy                     -130.380595258439
  CCSD-T energy                      -130.379118609570
 !CCSD(T) total energy               -130.379529077554

 Timing summary (sec):

 STEP                 CPU(USER)    SYS     CPU(TOT)    WALL
 Transformation          0.03      0.01      0.04      0.04
 CCSD iterations         1.09      0.16      1.25      1.25
 Triples                 0.30      0.02      0.32      0.32

 Program statistics:

 Available memory in ccsd:               994999756
 Min. memory needed in ccsd:                154850
 Max. memory used in ccsd:                  184802
 Max. memory used in cckext:                238416 (25 integral passes)



 **********************************************************************************************************************************
 DATASETS  * FILE   NREC   LENGTH (MB)   RECORD NAMES
              1      24       40.41       500      610      700      900      950      970     1000      129      960     1700   
                                          VAR    BASINP    GEOM    SYMINP    ZMAT    AOBASIS   BASIS     P2S    ABASIS    OPER   
                                         1101     1401     1411     1412     1650     1100     1400     1410     1200     1210   
                                          SR      EKINR    POTR     PVPR    MOLCAS      S      EKIN      POT      H0       H01  
                                         1300     1080     1600     1380   
                                         ERIS     AOSYM     SMH     JKOP   

              2       4        2.85       700     1000      520     2100   
                                         GEOM     BASIS   MCVARS     RHF  

 PROGRAMS   *        TOTAL   CCSD(T)        HF       INT
 CPU TIMES  *         2.28      1.45      0.21      0.52
 REAL TIME  *         3.10 SEC
 DISK USED  *        75.75 MB      
 **********************************************************************************************************************************

 CCSD(T)/cc-pVTZ-DK energy=   -130.379529077554

        CCSD(T)         HF-SCF  
   -130.37952908   -129.91581891
 **********************************************************************************************************************************
 Molpro calculation terminated
 Variable memory released
