
 Primary working directories    : /tmp/r2666/282666.maple
 Secondary working directories  : /tmp/r2666/282666.maple
 Wavefunction directory         : /ddn/home4/r2666/wfu/
 Main file repository           : /tmp/r2666/282666.maple/

 SHA1      : d5ffa45e93fdbca01ffc919aa182cfdae0147319
 NAME      : 2015.1.35
 ARCHNAME  : linux/x86_64
 FC        : /opt/intel/composer_xe_2015.1.133/bin/intel64/ifort
 BLASLIB   : -Wl,-_start-group /opt/intel/mkl/lib/intel64/libmkl_intel_ilp64.a /opt/intel/mkl/lib/intel64/libmkl_intel_thread.a /opt/intel/mkl/lib/intel64/libmkl_core.a -Wl,-_end-group
 id        : olemiss

 Nodes     nprocs
 cn083        1

 Using customized tuning parameters: mindgm=1; mindgv=20; mindgc=4; mindgr=1; noblas=0; minvec=7
 default implementation of scratch files=df  

 ***,hno CCSD(T)/TZ-F12 QFF
 memory, 995, m;
 gthresh,energy=1.d-12,zero=1.d-22,oneint=1.d-22,twoint=1.d-22;
 gthresh,optgrad=1.d-8,optstep=1.d-8;
 nocompress;
 geomtyp=xyz
 bohr
 geometry={
 3
         47        47
 H        0.0000000000        1.6642187737       -1.9191672325
 N        0.0000000000       -0.1639827206       -1.1381119749
 O        0.0000000000        0.0415317369        1.1066896164
 }
 
 basis=vtz-dk
 dkroll=1
   {hf,maxit=500;accu,20;}
 {ccsd(t),nocheck,maxit=250;orbital,IGNORE_ERROR;}

 Variables initialized (889), CPU time= 0.00 sec
 Commands  initialized (702), CPU time= 0.01 sec, 572 directives.
 Default parameters read. Elapsed time= 0.04 sec

 Checking input...
 Passed
1


                                         ***  PROGRAM SYSTEM MOLPRO  ***
                                       Copyright, TTI GmbH Stuttgart, 2015
                                    Version 2015.1 linked Jul  9 2018 13:16:40


 **********************************************************************************************************************************
 LABEL *   hno CCSD(T)/TZ-F12 QFF                                                        
  64 bit serial version                                                                  DATE: 04-Mar-20          TIME: 13:51:10  
 **********************************************************************************************************************************

 SHA1:             d5ffa45e93fdbca01ffc919aa182cfdae0147319
 **********************************************************************************************************************************

 THRESHOLDS:

 ZERO    =  1.00D-22  ONEINT  =  1.00D-22  TWOINT  =  1.00D-22  PREFAC  =  1.00D-14  LOCALI  =  1.00D-09  EORDER  =  1.00D-04
 ENERGY  =  1.00D-12  ETEST   =  0.00D+00  EDENS   =  0.00D+00  THRDEDEF=  1.00D-06  GRADIENT=  1.00D-02  STEP    =  1.00D-03
 ORBITAL =  1.00D-05  CIVEC   =  1.00D-05  COEFF   =  1.00D-04  PRINTCI =  5.00D-02  PUNCHCI =  9.90D+01  OPTGRAD =  3.00D-04
 OPTENERG=  1.00D-06  OPTSTEP =  3.00D-04  THRGRAD =  1.00D-10  COMPRESS=  1.00D-11  VARMIN  =  1.00D-07  VARMAX  =  1.00D-03
 THRDOUB =  0.00D+00  THRDIV  =  1.00D-05  THRRED  =  1.00D-07  THRPSP  =  1.00D+00  THRDC   =  1.00D-10  THRCS   =  1.00D-10
 THRNRM  =  1.00D-08  THREQ   =  0.00D+00  THRDE   =  1.00D+00  THRREF  =  1.00D-05  SPARFAC =  1.00D+00  THRDLP  =  1.00D-07
 THRDIA  =  1.00D-10  THRDLS  =  1.00D-07  THRGPS  =  0.00D+00  THRKEX  =  0.00D+00  THRDIS  =  2.00D-01  THRVAR  =  1.00D-10
 THRLOC  =  1.00D-06  THRGAP  =  1.00D-06  THRLOCT = -1.00D+00  THRGAPT = -1.00D+00  THRORB  =  1.00D-06  THRMLTP =  0.00D+00
 THRCPQCI=  1.00D-10  KEXTA   =  0.00D+00  THRCOARS=  0.00D+00  SYMTOL  =  1.00D-06  GRADTOL =  1.00D-06  THROVL  =  1.00D-08
 THRORTH =  1.00D-08  GRID    =  1.00D-06  GRIDMAX =  1.00D-03  DTMAX   =  0.00D+00  THROCCDE=  1.00D-01  THROCCDE=  1.00D-01



 THRESHOLDS:

 ZERO    =  1.00D-22  ONEINT  =  1.00D-22  TWOINT  =  1.00D-22  PREFAC  =  1.00D-14  LOCALI  =  1.00D-09  EORDER  =  1.00D-04
 ENERGY  =  1.00D-12  ETEST   =  0.00D+00  EDENS   =  0.00D+00  THRDEDEF=  1.00D-06  GRADIENT=  1.00D-02  STEP    =  1.00D-03
 ORBITAL =  1.00D-05  CIVEC   =  1.00D-05  COEFF   =  1.00D-04  PRINTCI =  5.00D-02  PUNCHCI =  9.90D+01  OPTGRAD =  1.00D-08
 OPTENERG=  1.00D-06  OPTSTEP =  1.00D-08  THRGRAD =  1.00D-10  COMPRESS=  1.00D-11  VARMIN  =  1.00D-07  VARMAX  =  1.00D-03
 THRDOUB =  0.00D+00  THRDIV  =  1.00D-05  THRRED  =  1.00D-07  THRPSP  =  1.00D+00  THRDC   =  1.00D-10  THRCS   =  1.00D-10
 THRNRM  =  1.00D-08  THREQ   =  0.00D+00  THRDE   =  1.00D+00  THRREF  =  1.00D-05  SPARFAC =  1.00D+00  THRDLP  =  1.00D-07
 THRDIA  =  1.00D-10  THRDLS  =  1.00D-07  THRGPS  =  0.00D+00  THRKEX  =  0.00D+00  THRDIS  =  2.00D-01  THRVAR  =  1.00D-10
 THRLOC  =  1.00D-06  THRGAP  =  1.00D-06  THRLOCT = -1.00D+00  THRGAPT = -1.00D+00  THRORB  =  1.00D-06  THRMLTP =  0.00D+00
 THRCPQCI=  1.00D-10  KEXTA   =  0.00D+00  THRCOARS=  0.00D+00  SYMTOL  =  1.00D-06  GRADTOL =  1.00D-06  THROVL  =  1.00D-08
 THRORTH =  1.00D-08  GRID    =  1.00D-06  GRIDMAX =  1.00D-03  DTMAX   =  0.00D+00  THROCCDE=  1.00D-01  THROCCDE=  1.00D-01



 Input parameters for SORTINT:

 COMPRESS =    0.000000
 C_FINAL  =    1.000000
 DEBUG    =   -1.000000
 C_SORT1  =    0.000000
 C_SEWARD =    0.000000
 THRESH   =    0.000000
 IO       =  molpro                                                          
 SPRI     =    0.000000
 SETTING GEOMTYP        =    XYZ
 ZUNIT=BOHR
 

 Variable memory set to  995000000 words,  buffer space   230000 words

 SETTING BASIS          =    VTZ-DK
 SETTING DKROLL         =         1.00000000                                  


 Recomputing integrals since basis changed


 Using spherical harmonics

 Library entry H      S cc-pVTZ-DK           selected for orbital group  1
 Library entry H      P cc-pVTZ-DK           selected for orbital group  1
 Library entry H      D cc-pVTZ-DK           selected for orbital group  1
 Library entry N      S cc-pVTZ-DK           selected for orbital group  2
 Library entry N      P cc-pVTZ-DK           selected for orbital group  2
 Library entry N      D cc-pVTZ-DK           selected for orbital group  2
 Library entry N      F cc-pVTZ-DK           selected for orbital group  2
 Library entry O      S cc-pVTZ-DK           selected for orbital group  3
 Library entry O      P cc-pVTZ-DK           selected for orbital group  3
 Library entry O      D cc-pVTZ-DK           selected for orbital group  3
 Library entry O      F cc-pVTZ-DK           selected for orbital group  3


 PROGRAM * SEWARD (Integral evaluation for generally contracted gaussian basis sets)     Author: Roland Lindh, 1990

 Geometry written to block  1 of record 700


 Point group  Cs  



 ATOMIC COORDINATES

 NR  ATOM    CHARGE       X              Y              Z

   1  H       1.00    0.000000000    1.664218774   -1.919167232
   2  N       7.00    0.000000000   -0.163982721   -1.138111975
   3  O       8.00    0.000000000    0.041531737    1.106689616

 Bond lengths in Bohr (Angstrom)

 1-2  1.988056342  2-3  2.254189517
     ( 1.052034110)     ( 1.192865721)

 Bond angles

  1-2-3  107.90251460

 NUCLEAR CHARGE:                   16
 NUMBER OF PRIMITIVE AOS:         111
 NUMBER OF SYMMETRY AOS:          100
 NUMBER OF CONTRACTIONS:           74   (  50A'  +  24A"  )
 NUMBER OF CORE ORBITALS:           2   (   2A'  +   0A"  )
 NUMBER OF VALENCE ORBITALS:        9   (   7A'  +   2A"  )


 NUCLEAR REPULSION ENERGY   30.69364261

 One-electron integrals computed with SEWARD

 2nd-order Douglas-Kroll-Hess method activated. Optimal DKH parametrization is used.

 Computing Douglas-Kroll / X2C integrals


        1874283. INTEGRALS WRITTEN OUT IN     458 BLOCKS ON RECORD 1290 OF FILE 1


 NUMBER OF SORTED TWO-ELECTRON INTEGRALS:    2006100.     BUFFER LENGTH:  32768
 NUMBER OF SEGMENTS:   1  SEGMENT LENGTH:    2006100      RECORD LENGTH: 524288

 Memory used in sort:       2.56 MW

 SORT1 READ     1874283. AND WROTE     1914195. INTEGRALS IN      6 RECORDS. CPU TIME:     0.04 SEC, REAL TIME:     0.05 SEC
 SORT2 READ     1914195. AND WROTE     2006100. INTEGRALS IN      1 RECORDS. CPU TIME:     0.06 SEC, REAL TIME:     0.06 SEC

 FILE SIZES:   FILE 1:    50.2 MBYTE,  FILE 4:    25.2 MBYTE,   TOTAL:     75.4 MBYTE

 OPERATOR DM      FOR CENTER  0  COORDINATES:    0.000000    0.000000    0.000000

 Eigenvalues of metric

         1 0.239E-02 0.386E-02 0.400E-02 0.827E-02 0.130E-01 0.318E-01 0.416E-01 0.463E-01
         2 0.335E-01 0.463E-01 0.996E-01 0.111E+00 0.229E+00 0.340E+00 0.391E+00 0.445E+00


 **********************************************************************************************************************************
 DATASETS  * FILE   NREC   LENGTH (MB)   RECORD NAMES
              1      23       36.03       500      610      700      900      950      970     1000      129      960     1700   
                                          VAR    BASINP    GEOM    SYMINP    ZMAT    AOBASIS   BASIS     P2S    ABASIS    OPER   
                                         1101     1401     1411     1412     1650     1100     1400     1410     1200     1210   
                                          SR      EKINR    POTR     PVPR    MOLCAS      S      EKIN      POT      H0       H01  
                                         1300     1080     1600   
                                         ERIS     AOSYM     SMH  

 PROGRAMS   *        TOTAL       INT
 CPU TIMES  *         0.66      0.57
 REAL TIME  *         1.21 SEC
 DISK USED  *        75.75 MB      
 **********************************************************************************************************************************


 PROGRAM * RHF-SCF (CLOSED SHELL)       Authors: W. Meyer, H.-J. Werner


 NUMBER OF ELECTRONS:       8+    8-
 CONVERGENCE THRESHOLDS:    1.00E-10 (Density)    1.00E-13 (Energy)
 MAX. NUMBER OF ITERATIONS:      500
 INTERPOLATION TYPE:            DIIS
 INTERPOLATION STEPS:              2 (START)      1 (STEP)
 LEVEL SHIFTS:                  0.00 (CLOSED)  0.00 (OPEN) 



 Orbital guess generated from atomic densities. Full valence occupancy:    9   2

 Molecular orbital dump at record        2100.2

 Initial occupancy:   7   1

 ITERATION    DDIFF          GRAD             ENERGY        2-EL.EN.            DIPOLE MOMENTS         DIIS   ORB.
    1      0.000D+00      0.000D+00      -129.87136924    154.809005    0.00000    0.58094   -0.99207    0    start
    2      0.000D+00      0.133D-01      -129.89846685    155.943507    0.00000    0.60459   -0.22594    1    diag
    3      0.180D-01      0.989D-02      -129.91856437    156.043824    0.00000    0.55422   -0.57777    2    diag
    4      0.864D-02      0.153D-02      -129.91927107    155.788786    0.00000    0.56310   -0.52100    3    diag
    5      0.163D-02      0.503D-03      -129.91938020    155.873075    0.00000    0.56844   -0.52231    4    diag
    6      0.701D-03      0.150D-03      -129.91939817    155.858334    0.00000    0.56903   -0.51840    5    diag
    7      0.272D-03      0.740D-04      -129.91940323    155.860786    0.00000    0.57029   -0.51609    6    diag
    8      0.185D-03      0.227D-04      -129.91940366    155.860156    0.00000    0.57031   -0.51537    7    diag
    9      0.582D-04      0.407D-05      -129.91940367    155.860053    0.00000    0.57026   -0.51523    8    diag
   10      0.111D-04      0.926D-06      -129.91940368    155.860036    0.00000    0.57023   -0.51521    9    orth
   11      0.265D-05      0.184D-06      -129.91940368    155.860032    0.00000    0.57022   -0.51521    9    diag
   12      0.495D-06      0.374D-07      -129.91940368    155.860030    0.00000    0.57022   -0.51521    9    diag
   13      0.108D-06      0.907D-08      -129.91940368    155.860030    0.00000    0.57022   -0.51521    9    diag
   14      0.263D-07      0.171D-08      -129.91940368    155.860030    0.00000    0.57022   -0.51521    9    diag
   15      0.456D-08      0.469D-09      -129.91940368    155.860030    0.00000    0.57022   -0.51521    9    diag
   16      0.110D-08      0.130D-09      -129.91940368    155.860030    0.00000    0.57022   -0.51521    9    diag
   17      0.237D-09      0.390D-10      -129.91940368    155.860030    0.00000    0.57022   -0.51521    9    diag
   18      0.802D-10      0.122D-10      -129.91940368    155.860030    0.00000    0.57022   -0.51521    0    orth

 Final occupancy:   7   1

 !RHF STATE 1.1 Energy               -129.919403675507
 Nuclear energy                        30.69364261
 One-electron energy                 -238.54306124
 Two-electron energy                   77.93001495
 Virial quotient                       -0.99707852
 !RHF STATE 1.1 Dipole moment           0.00000000     0.57022025    -0.51520588
 Dipole moment /Debye                   0.00000000     1.44926037    -1.30943696

 Orbital energies:

         1.1          2.1          3.1          4.1          5.1          6.1          7.1          8.1          9.1
    -20.663512   -15.714258    -1.540078    -0.988438    -0.747760    -0.666050    -0.422270     0.144997     0.371469

         1.2          2.2          3.2
     -0.599148     0.092156     0.611334

 HOMO      7.1    -0.422270 =     -11.4906eV
 LUMO      2.2     0.092156 =       2.5077eV
 LUMO-HOMO         0.514426 =      13.9982eV


 **********************************************************************************************************************************
 DATASETS  * FILE   NREC   LENGTH (MB)   RECORD NAMES
              1      23       36.03       500      610      700      900      950      970     1000      129      960     1700   
                                          VAR    BASINP    GEOM    SYMINP    ZMAT    AOBASIS   BASIS     P2S    ABASIS    OPER   
                                         1101     1401     1411     1412     1650     1100     1400     1410     1200     1210   
                                          SR      EKINR    POTR     PVPR    MOLCAS      S      EKIN      POT      H0       H01  
                                         1300     1080     1600   
                                         ERIS     AOSYM     SMH  

              2       4        2.85       700     1000      520     2100   
                                         GEOM     BASIS   MCVARS     RHF  

 PROGRAMS   *        TOTAL        HF       INT
 CPU TIMES  *         0.87      0.21      0.57
 REAL TIME  *         1.47 SEC
 DISK USED  *        75.75 MB      
 **********************************************************************************************************************************


 PROGRAM * CCSD (Closed-shell coupled cluster)     Authors: C. Hampel, H.-J. Werner, 1991, M. Deegan, P.J. Knowles, 1992


 Convergence thresholds:  THRVAR = 1.00D-08  THRDEN = 1.00D-12

 CCSD(T)     terms to be evaluated (factor= 1.000)


 Number of core orbitals:           2 (   2   0 )
 Number of closed-shell orbitals:   6 (   5   1 )
 Number of external orbitals:      66 (  43  23 )

 Molecular orbitals read from record     2100.2  Type=RHF/CANONICAL (state 1.1)

 Number of N-1 electron functions:               6
 Number of N-2 electron functions:              21
 Number of singly external CSFs:               238
 Number of doubly external CSFs:             41002
 Total number of CSFs:                       41241

 Length of J-op  integral file:               0.00 MB
 Length of K-op  integral file:               0.25 MB
 Length of 3-ext integral record:             0.00 MB

 Memory could be reduced to 1.65 Mwords without degradation in triples

 Integral transformation finished. Total CPU:   0.04 sec, npass=  1  Memory used:   0.55 MW

 Reference energy:                   -129.91940368

 MP2 singlet pair energy:              -0.27218961
 MP2 triplet pair energy:              -0.16155938
 MP2 correlation energy:               -0.43374899
 MP2 total energy:                   -130.35315266

 SCS-MP2 correlation energy:           -0.42715337   (PS=  1.200000  PT=  0.333333)
 SCS-MP2 total energy:               -130.34655704

 ITER.      SQ.NORM     CORR.ENERGY   TOTAL ENERGY   ENERGY CHANGE        DEN1      VAR(S)    VAR(P)  DIIS     TIME  TIME/IT
   1      1.11683314    -0.43937915  -130.35878282    -0.00563016     0.00955022  0.28D-02  0.28D-02  1  1     0.07     0.04
   2      1.12730918    -0.43973909  -130.35914277    -0.00035995    -0.01193068  0.80D-04  0.48D-03  2  2     0.10     0.04
   3      1.13327064    -0.44010068  -130.35950436    -0.00036159    -0.00287368  0.43D-04  0.47D-04  3  3     0.14     0.04
   4      1.13589592    -0.44012601  -130.35952968    -0.00002533    -0.00090945  0.36D-05  0.83D-05  4  4     0.18     0.04
   5      1.13680572    -0.44015279  -130.35955647    -0.00002678    -0.00018850  0.13D-05  0.16D-05  5  5     0.22     0.04
   6      1.13714324    -0.44013801  -130.35954168     0.00001479    -0.00003785  0.96D-07  0.40D-06  6  6     0.25     0.04
   7      1.13722848    -0.44013977  -130.35954345    -0.00000177    -0.00000258  0.12D-07  0.80D-07  6  1     0.29     0.04
   8      1.13725828    -0.44013989  -130.35954357    -0.00000012     0.00000187  0.41D-08  0.88D-08  6  2     0.32     0.04
   9      1.13726534    -0.44013972  -130.35954340     0.00000017    -0.00000217  0.23D-08  0.97D-09  6  3     0.35     0.04
  10      1.13726415    -0.44014019  -130.35954386    -0.00000046     0.00000059  0.44D-09  0.18D-09  6  4     0.39     0.04
  11      1.13726250    -0.44014024  -130.35954392    -0.00000005     0.00000018  0.13D-09  0.20D-10  6  5     0.43     0.04
  12      1.13726119    -0.44014040  -130.35954408    -0.00000016     0.00000040  0.15D-10  0.68D-11  6  6     0.47     0.04
  13      1.13726063    -0.44014041  -130.35954408    -0.00000001     0.00000011  0.62D-11  0.11D-11  6  1     0.51     0.04
  14      1.13726028    -0.44014042  -130.35954410    -0.00000002     0.00000007  0.85D-12  0.38D-12  6  2     0.55     0.04
  15      1.13726016    -0.44014043  -130.35954410    -0.00000000     0.00000001  0.21D-12  0.13D-12  6  3     0.58     0.04
  16      1.13726007    -0.44014043  -130.35954410    -0.00000000     0.00000001  0.23D-13  0.14D-13  6  5     0.62     0.04
  17      1.13726005    -0.44014043  -130.35954410    -0.00000000     0.00000000  0.77D-15  0.22D-14  6  4     0.66     0.04
  18      1.13726005    -0.44014043  -130.35954410     0.00000000    -0.00000000  0.48D-15  0.32D-15  6  1     0.70     0.04
  19      1.13726004    -0.44014043  -130.35954410    -0.00000000     0.00000000  0.38D-16  0.55D-16  6  6     0.74     0.04
  20      1.13726004    -0.44014043  -130.35954410    -0.00000000     0.00000000  0.77D-17  0.12D-16  6  2     0.78     0.04
  21      1.13726004    -0.44014043  -130.35954410    -0.00000000     0.00000000  0.16D-17  0.91D-18  6  5     0.82     0.04
  22      1.13726004    -0.44014043  -130.35954410     0.00000000     0.00000000  0.10D-18  0.69D-19  6  3     0.86     0.04
  23      1.13726004    -0.44014043  -130.35954410     0.00000000    -0.00000000  0.31D-19  0.15D-19  6  4     0.89     0.04
  24      1.13726004    -0.44014043  -130.35954410     0.00000000    -0.00000000  0.45D-20  0.43D-20  6  1     0.93     0.04
  25      1.13726004    -0.44014043  -130.35954410     0.00000000    -0.00000000  0.46D-21  0.75D-21  6  6     0.96     0.04

 Norm of t1 vector:      0.07268327      S-energy:     0.00000000      T1 diagnostic:  0.01483641
                                                                       D1 diagnostic:  0.04051096

 Doubles amplitudes (print threshold =  0.500E-01):

         I         J         SYM. A    SYM. B    A         B      T(IJ, AB)

         6         6         2         2         1         1     -0.13952650


 Total CPU time for triples:      0.23 sec


 RESULTS
 =======

  Reference energy                   -129.919403675507
  CCSD singlet pair energy             -0.301412162158
  CCSD triplet pair energy             -0.138728266094
  CCSD correlation energy              -0.440140428251

  Triples (T) contribution             -0.019342810521
  Total correlation energy             -0.459483238772

  CCSD total energy                  -130.359544103757
  CCSD[T] energy                     -130.379843058653
  CCSD-T energy                      -130.378504794196
 !CCSD(T) total energy               -130.378886914278

 Timing summary (sec):

 STEP                 CPU(USER)    SYS     CPU(TOT)    WALL
 Transformation          0.04      0.01      0.05      0.04
 CCSD iterations         0.93      0.14      1.07      1.06
 Triples                 0.23      0.02      0.25      0.25

 Program statistics:

 Available memory in ccsd:               994999756
 Min. memory needed in ccsd:                154850
 Max. memory used in ccsd:                  184802
 Max. memory used in cckext:                238416 (25 integral passes)



 **********************************************************************************************************************************
 DATASETS  * FILE   NREC   LENGTH (MB)   RECORD NAMES
              1      24       40.41       500      610      700      900      950      970     1000      129      960     1700   
                                          VAR    BASINP    GEOM    SYMINP    ZMAT    AOBASIS   BASIS     P2S    ABASIS    OPER   
                                         1101     1401     1411     1412     1650     1100     1400     1410     1200     1210   
                                          SR      EKINR    POTR     PVPR    MOLCAS      S      EKIN      POT      H0       H01  
                                         1300     1080     1600     1380   
                                         ERIS     AOSYM     SMH     JKOP   

              2       4        2.85       700     1000      520     2100   
                                         GEOM     BASIS   MCVARS     RHF  

 PROGRAMS   *        TOTAL   CCSD(T)        HF       INT
 CPU TIMES  *         2.09      1.22      0.21      0.57
 REAL TIME  *         2.87 SEC
 DISK USED  *        75.75 MB      
 **********************************************************************************************************************************

 CCSD(T)/cc-pVTZ-DK energy=   -130.378886914278

        CCSD(T)         HF-SCF  
   -130.37888691   -129.91940368
 **********************************************************************************************************************************
 Molpro calculation terminated
 Variable memory released
