
 Primary working directories    : /tmp/r2666/282632.maple
 Secondary working directories  : /tmp/r2666/282632.maple
 Wavefunction directory         : /ddn/home4/r2666/wfu/
 Main file repository           : /tmp/r2666/282632.maple/

 SHA1      : d5ffa45e93fdbca01ffc919aa182cfdae0147319
 NAME      : 2015.1.35
 ARCHNAME  : linux/x86_64
 FC        : /opt/intel/composer_xe_2015.1.133/bin/intel64/ifort
 BLASLIB   : -Wl,-_start-group /opt/intel/mkl/lib/intel64/libmkl_intel_ilp64.a /opt/intel/mkl/lib/intel64/libmkl_intel_thread.a /opt/intel/mkl/lib/intel64/libmkl_core.a -Wl,-_end-group
 id        : olemiss

 Nodes     nprocs
 cn053        1

 Using customized tuning parameters: mindgm=1; mindgv=20; mindgc=4; mindgr=1; noblas=0; minvec=7
 default implementation of scratch files=df  

 ***,hno CCSD(T)/TZ-F12 QFF
 memory, 995, m;
 gthresh,energy=1.d-12,zero=1.d-22,oneint=1.d-22,twoint=1.d-22;
 gthresh,optgrad=1.d-8,optstep=1.d-8;
 nocompress;
 geomtyp=xyz
 bohr
 geometry={
 3
         13        13
 H        0.0000000000        1.6575223299       -1.9184656207
 N        0.0000000000       -0.1567832567       -1.1530358530
 O        0.0000000000        0.0410287168        1.1209118827
 }
 
 basis=vtz-dk
 dkroll=1
   {hf,maxit=500;accu,20;}
 {ccsd(t),nocheck,maxit=250;orbital,IGNORE_ERROR;}

 Variables initialized (889), CPU time= 0.00 sec
 Commands  initialized (702), CPU time= 0.00 sec, 572 directives.
 Default parameters read. Elapsed time= 0.05 sec

 Checking input...
 Passed
1


                                         ***  PROGRAM SYSTEM MOLPRO  ***
                                       Copyright, TTI GmbH Stuttgart, 2015
                                    Version 2015.1 linked Jul  9 2018 13:16:40


 **********************************************************************************************************************************
 LABEL *   hno CCSD(T)/TZ-F12 QFF                                                        
  64 bit serial version                                                                  DATE: 04-Mar-20          TIME: 13:51:06  
 **********************************************************************************************************************************

 SHA1:             d5ffa45e93fdbca01ffc919aa182cfdae0147319
 **********************************************************************************************************************************

 THRESHOLDS:

 ZERO    =  1.00D-22  ONEINT  =  1.00D-22  TWOINT  =  1.00D-22  PREFAC  =  1.00D-14  LOCALI  =  1.00D-09  EORDER  =  1.00D-04
 ENERGY  =  1.00D-12  ETEST   =  0.00D+00  EDENS   =  0.00D+00  THRDEDEF=  1.00D-06  GRADIENT=  1.00D-02  STEP    =  1.00D-03
 ORBITAL =  1.00D-05  CIVEC   =  1.00D-05  COEFF   =  1.00D-04  PRINTCI =  5.00D-02  PUNCHCI =  9.90D+01  OPTGRAD =  3.00D-04
 OPTENERG=  1.00D-06  OPTSTEP =  3.00D-04  THRGRAD =  1.00D-10  COMPRESS=  1.00D-11  VARMIN  =  1.00D-07  VARMAX  =  1.00D-03
 THRDOUB =  0.00D+00  THRDIV  =  1.00D-05  THRRED  =  1.00D-07  THRPSP  =  1.00D+00  THRDC   =  1.00D-10  THRCS   =  1.00D-10
 THRNRM  =  1.00D-08  THREQ   =  0.00D+00  THRDE   =  1.00D+00  THRREF  =  1.00D-05  SPARFAC =  1.00D+00  THRDLP  =  1.00D-07
 THRDIA  =  1.00D-10  THRDLS  =  1.00D-07  THRGPS  =  0.00D+00  THRKEX  =  0.00D+00  THRDIS  =  2.00D-01  THRVAR  =  1.00D-10
 THRLOC  =  1.00D-06  THRGAP  =  1.00D-06  THRLOCT = -1.00D+00  THRGAPT = -1.00D+00  THRORB  =  1.00D-06  THRMLTP =  0.00D+00
 THRCPQCI=  1.00D-10  KEXTA   =  0.00D+00  THRCOARS=  0.00D+00  SYMTOL  =  1.00D-06  GRADTOL =  1.00D-06  THROVL  =  1.00D-08
 THRORTH =  1.00D-08  GRID    =  1.00D-06  GRIDMAX =  1.00D-03  DTMAX   =  0.00D+00  THROCCDE=  1.00D-01  THROCCDE=  1.00D-01



 THRESHOLDS:

 ZERO    =  1.00D-22  ONEINT  =  1.00D-22  TWOINT  =  1.00D-22  PREFAC  =  1.00D-14  LOCALI  =  1.00D-09  EORDER  =  1.00D-04
 ENERGY  =  1.00D-12  ETEST   =  0.00D+00  EDENS   =  0.00D+00  THRDEDEF=  1.00D-06  GRADIENT=  1.00D-02  STEP    =  1.00D-03
 ORBITAL =  1.00D-05  CIVEC   =  1.00D-05  COEFF   =  1.00D-04  PRINTCI =  5.00D-02  PUNCHCI =  9.90D+01  OPTGRAD =  1.00D-08
 OPTENERG=  1.00D-06  OPTSTEP =  1.00D-08  THRGRAD =  1.00D-10  COMPRESS=  1.00D-11  VARMIN  =  1.00D-07  VARMAX  =  1.00D-03
 THRDOUB =  0.00D+00  THRDIV  =  1.00D-05  THRRED  =  1.00D-07  THRPSP  =  1.00D+00  THRDC   =  1.00D-10  THRCS   =  1.00D-10
 THRNRM  =  1.00D-08  THREQ   =  0.00D+00  THRDE   =  1.00D+00  THRREF  =  1.00D-05  SPARFAC =  1.00D+00  THRDLP  =  1.00D-07
 THRDIA  =  1.00D-10  THRDLS  =  1.00D-07  THRGPS  =  0.00D+00  THRKEX  =  0.00D+00  THRDIS  =  2.00D-01  THRVAR  =  1.00D-10
 THRLOC  =  1.00D-06  THRGAP  =  1.00D-06  THRLOCT = -1.00D+00  THRGAPT = -1.00D+00  THRORB  =  1.00D-06  THRMLTP =  0.00D+00
 THRCPQCI=  1.00D-10  KEXTA   =  0.00D+00  THRCOARS=  0.00D+00  SYMTOL  =  1.00D-06  GRADTOL =  1.00D-06  THROVL  =  1.00D-08
 THRORTH =  1.00D-08  GRID    =  1.00D-06  GRIDMAX =  1.00D-03  DTMAX   =  0.00D+00  THROCCDE=  1.00D-01  THROCCDE=  1.00D-01



 Input parameters for SORTINT:

 COMPRESS =    0.000000
 C_FINAL  =    1.000000
 DEBUG    =   -1.000000
 C_SORT1  =    0.000000
 C_SEWARD =    0.000000
 THRESH   =    0.000000
 IO       =  molpro                                                          
 SPRI     =    0.000000
 SETTING GEOMTYP        =    XYZ
 ZUNIT=BOHR
 

 Variable memory set to  995000000 words,  buffer space   230000 words

 SETTING BASIS          =    VTZ-DK
 SETTING DKROLL         =         1.00000000                                  


 Recomputing integrals since basis changed


 Using spherical harmonics

 Library entry H      S cc-pVTZ-DK           selected for orbital group  1
 Library entry H      P cc-pVTZ-DK           selected for orbital group  1
 Library entry H      D cc-pVTZ-DK           selected for orbital group  1
 Library entry N      S cc-pVTZ-DK           selected for orbital group  2
 Library entry N      P cc-pVTZ-DK           selected for orbital group  2
 Library entry N      D cc-pVTZ-DK           selected for orbital group  2
 Library entry N      F cc-pVTZ-DK           selected for orbital group  2
 Library entry O      S cc-pVTZ-DK           selected for orbital group  3
 Library entry O      P cc-pVTZ-DK           selected for orbital group  3
 Library entry O      D cc-pVTZ-DK           selected for orbital group  3
 Library entry O      F cc-pVTZ-DK           selected for orbital group  3


 PROGRAM * SEWARD (Integral evaluation for generally contracted gaussian basis sets)     Author: Roland Lindh, 1990

 Geometry written to block  1 of record 700


 Point group  Cs  



 ATOMIC COORDINATES

 NR  ATOM    CHARGE       X              Y              Z

   1  H       1.00    0.000000000    1.657522330   -1.918465621
   2  N       7.00    0.000000000   -0.156783257   -1.153035853
   3  O       8.00    0.000000000    0.041028717    1.120911883

 Bond lengths in Bohr (Angstrom)

 1-2  1.969159082  2-3  2.282535406
     ( 1.042034111)     ( 1.207865720)

 Bond angles

  1-2-3  107.90251459

 NUCLEAR CHARGE:                   16
 NUMBER OF PRIMITIVE AOS:         111
 NUMBER OF SYMMETRY AOS:          100
 NUMBER OF CONTRACTIONS:           74   (  50A'  +  24A"  )
 NUMBER OF CORE ORBITALS:           2   (   2A'  +   0A"  )
 NUMBER OF VALENCE ORBITALS:        9   (   7A'  +   2A"  )


 NUCLEAR REPULSION ENERGY   30.41282452

 One-electron integrals computed with SEWARD

 2nd-order Douglas-Kroll-Hess method activated. Optimal DKH parametrization is used.

 Computing Douglas-Kroll / X2C integrals


        1874283. INTEGRALS WRITTEN OUT IN     458 BLOCKS ON RECORD 1290 OF FILE 1


 NUMBER OF SORTED TWO-ELECTRON INTEGRALS:    2006100.     BUFFER LENGTH:  32768
 NUMBER OF SEGMENTS:   1  SEGMENT LENGTH:    2006100      RECORD LENGTH: 524288

 Memory used in sort:       2.56 MW

 SORT1 READ     1874283. AND WROTE     1914195. INTEGRALS IN      6 RECORDS. CPU TIME:     0.06 SEC, REAL TIME:     0.08 SEC
 SORT2 READ     1914195. AND WROTE     2006100. INTEGRALS IN      1 RECORDS. CPU TIME:     0.04 SEC, REAL TIME:     0.07 SEC

 FILE SIZES:   FILE 1:    50.2 MBYTE,  FILE 4:    25.2 MBYTE,   TOTAL:     75.4 MBYTE

 OPERATOR DM      FOR CENTER  0  COORDINATES:    0.000000    0.000000    0.000000

 Eigenvalues of metric

         1 0.242E-02 0.392E-02 0.415E-02 0.816E-02 0.128E-01 0.325E-01 0.425E-01 0.463E-01
         2 0.341E-01 0.464E-01 0.101E+00 0.110E+00 0.232E+00 0.337E+00 0.394E+00 0.448E+00


 **********************************************************************************************************************************
 DATASETS  * FILE   NREC   LENGTH (MB)   RECORD NAMES
              1      23       36.03       500      610      700      900      950      970     1000      129      960     1700   
                                          VAR    BASINP    GEOM    SYMINP    ZMAT    AOBASIS   BASIS     P2S    ABASIS    OPER   
                                         1101     1401     1411     1412     1650     1100     1400     1410     1200     1210   
                                          SR      EKINR    POTR     PVPR    MOLCAS      S      EKIN      POT      H0       H01  
                                         1300     1080     1600   
                                         ERIS     AOSYM     SMH  

 PROGRAMS   *        TOTAL       INT
 CPU TIMES  *         0.75      0.65
 REAL TIME  *         1.56 SEC
 DISK USED  *        75.75 MB      
 **********************************************************************************************************************************


 PROGRAM * RHF-SCF (CLOSED SHELL)       Authors: W. Meyer, H.-J. Werner


 NUMBER OF ELECTRONS:       8+    8-
 CONVERGENCE THRESHOLDS:    1.00E-10 (Density)    1.00E-13 (Energy)
 MAX. NUMBER OF ITERATIONS:      500
 INTERPOLATION TYPE:            DIIS
 INTERPOLATION STEPS:              2 (START)      1 (STEP)
 LEVEL SHIFTS:                  0.00 (CLOSED)  0.00 (OPEN) 



 Orbital guess generated from atomic densities. Full valence occupancy:    9   2

 Molecular orbital dump at record        2100.2

 Initial occupancy:   7   1

 ITERATION    DDIFF          GRAD             ENERGY        2-EL.EN.            DIPOLE MOMENTS         DIIS   ORB.
    1      0.000D+00      0.000D+00      -129.86829886    154.311845    0.00000    0.59422   -1.03773    0    start
    2      0.000D+00      0.135D-01      -129.89504167    155.410916    0.00000    0.61598   -0.22335    1    diag
    3      0.185D-01      0.103D-01      -129.91703160    155.543937    0.00000    0.56553   -0.60035    2    diag
    4      0.895D-02      0.155D-02      -129.91776457    155.279789    0.00000    0.57423   -0.54112    3    diag
    5      0.166D-02      0.512D-03      -129.91787725    155.364599    0.00000    0.57947   -0.54211    4    diag
    6      0.713D-03      0.152D-03      -129.91789581    155.349780    0.00000    0.57999   -0.53796    5    diag
    7      0.275D-03      0.764D-04      -129.91790131    155.352031    0.00000    0.58119   -0.53544    6    diag
    8      0.191D-03      0.245D-04      -129.91790184    155.351347    0.00000    0.58120   -0.53463    7    diag
    9      0.649D-04      0.442D-05      -129.91790186    155.351233    0.00000    0.58115   -0.53447    8    diag
   10      0.125D-04      0.973D-06      -129.91790186    155.351217    0.00000    0.58111   -0.53445    9    orth
   11      0.277D-05      0.190D-06      -129.91790186    155.351213    0.00000    0.58111   -0.53445    9    diag
   12      0.502D-06      0.397D-07      -129.91790186    155.351212    0.00000    0.58110   -0.53445    9    diag
   13      0.109D-06      0.983D-08      -129.91790186    155.351212    0.00000    0.58110   -0.53445    9    diag
   14      0.269D-07      0.177D-08      -129.91790186    155.351212    0.00000    0.58110   -0.53445    9    diag
   15      0.421D-08      0.452D-09      -129.91790186    155.351212    0.00000    0.58110   -0.53445    9    diag
   16      0.101D-08      0.107D-09      -129.91790186    155.351212    0.00000    0.58110   -0.53445    9    diag
   17      0.167D-09      0.286D-10      -129.91790186    155.351212    0.00000    0.58110   -0.53445    9    diag
   18      0.466D-10      0.907D-11      -129.91790186    155.351212    0.00000    0.58110   -0.53445    9    diag
   19      0.190D-10      0.172D-11      -129.91790186    155.351212    0.00000    0.58110   -0.53445    9    fixocc
   20      0.407D-11      0.255D-12      -129.91790186    155.351212    0.00000    0.58110   -0.53445    9    orth
   21      0.569D-12      0.883D-13      -129.91790186    155.351212    0.00000    0.58110   -0.53445    9    diag
   22      0.197D-12      0.320D-13      -129.91790186    155.351212    0.00000    0.58110   -0.53445    9    diag
   23      0.810D-13      0.169D-13      -129.91790186    155.351212    0.00000    0.58110   -0.53445    0    orth

 Final occupancy:   7   1

 !RHF STATE 1.1 Energy               -129.917901858964
 Nuclear energy                        30.41282452
 One-electron energy                 -238.00633214
 Two-electron energy                   77.67560576
 Virial quotient                       -0.99742596
 !RHF STATE 1.1 Dipole moment           0.00000000     0.58110395    -0.53444584
 Dipole moment /Debye                   0.00000000     1.47692217    -1.35833685

 Orbital energies:

         1.1          2.1          3.1          4.1          5.1          6.1          7.1          8.1          9.1
    -20.664761   -15.715455    -1.527727    -0.994495    -0.744167    -0.661697    -0.427492     0.144740     0.369558

         1.2          2.2          3.2
     -0.591766     0.086544     0.613065

 HOMO      7.1    -0.427492 =     -11.6326eV
 LUMO      2.2     0.086544 =       2.3550eV
 LUMO-HOMO         0.514036 =      13.9876eV


 **********************************************************************************************************************************
 DATASETS  * FILE   NREC   LENGTH (MB)   RECORD NAMES
              1      23       36.03       500      610      700      900      950      970     1000      129      960     1700   
                                          VAR    BASINP    GEOM    SYMINP    ZMAT    AOBASIS   BASIS     P2S    ABASIS    OPER   
                                         1101     1401     1411     1412     1650     1100     1400     1410     1200     1210   
                                          SR      EKINR    POTR     PVPR    MOLCAS      S      EKIN      POT      H0       H01  
                                         1300     1080     1600   
                                         ERIS     AOSYM     SMH  

              2       4        2.85       700     1000      520     2100   
                                         GEOM     BASIS   MCVARS     RHF  

 PROGRAMS   *        TOTAL        HF       INT
 CPU TIMES  *         1.07      0.32      0.65
 REAL TIME  *         1.94 SEC
 DISK USED  *        75.75 MB      
 **********************************************************************************************************************************


 PROGRAM * CCSD (Closed-shell coupled cluster)     Authors: C. Hampel, H.-J. Werner, 1991, M. Deegan, P.J. Knowles, 1992


 Convergence thresholds:  THRVAR = 1.00D-08  THRDEN = 1.00D-12

 CCSD(T)     terms to be evaluated (factor= 1.000)


 Number of core orbitals:           2 (   2   0 )
 Number of closed-shell orbitals:   6 (   5   1 )
 Number of external orbitals:      66 (  43  23 )

 Molecular orbitals read from record     2100.2  Type=RHF/CANONICAL (state 1.1)

 Number of N-1 electron functions:               6
 Number of N-2 electron functions:              21
 Number of singly external CSFs:               238
 Number of doubly external CSFs:             41002
 Total number of CSFs:                       41241

 Length of J-op  integral file:               0.00 MB
 Length of K-op  integral file:               0.25 MB
 Length of 3-ext integral record:             0.00 MB

 Memory could be reduced to 1.65 Mwords without degradation in triples

 Integral transformation finished. Total CPU:   0.03 sec, npass=  1  Memory used:   0.55 MW

 Reference energy:                   -129.91790186

 MP2 singlet pair energy:              -0.27352512
 MP2 triplet pair energy:              -0.16244804
 MP2 correlation energy:               -0.43597316
 MP2 total energy:                   -130.35387502

 SCS-MP2 correlation energy:           -0.42930892   (PS=  1.200000  PT=  0.333333)
 SCS-MP2 total energy:               -130.34721078

 ITER.      SQ.NORM     CORR.ENERGY   TOTAL ENERGY   ENERGY CHANGE        DEN1      VAR(S)    VAR(P)  DIIS     TIME  TIME/IT
   1      1.11810776    -0.44106965  -130.35897151    -0.00509649     0.01060112  0.29D-02  0.30D-02  1  1     0.09     0.06
   2      1.12887762    -0.44132586  -130.35922772    -0.00025622    -0.01222870  0.87D-04  0.50D-03  2  2     0.15     0.06
   3      1.13508190    -0.44170262  -130.35960448    -0.00037676    -0.00295276  0.45D-04  0.50D-04  3  3     0.22     0.06
   4      1.13785762    -0.44173045  -130.35963231    -0.00002783    -0.00094981  0.38D-05  0.88D-05  4  4     0.28     0.06
   5      1.13883029    -0.44175898  -130.35966084    -0.00002852    -0.00020160  0.13D-05  0.17D-05  5  5     0.34     0.06
   6      1.13918053    -0.44174269  -130.35964455     0.00001629    -0.00003994  0.87D-07  0.41D-06  6  6     0.39     0.06
   7      1.13926328    -0.44174492  -130.35964678    -0.00000223    -0.00000186  0.10D-07  0.88D-07  6  1     0.45     0.06
   8      1.13929290    -0.44174492  -130.35964678     0.00000001     0.00000208  0.47D-08  0.10D-07  6  2     0.50     0.06
   9      1.13930025    -0.44174477  -130.35964663     0.00000014    -0.00000232  0.24D-08  0.11D-08  6  3     0.56     0.06
  10      1.13929895    -0.44174526  -130.35964712    -0.00000048     0.00000067  0.47D-09  0.19D-09  6  4     0.61     0.06
  11      1.13929731    -0.44174531  -130.35964717    -0.00000006     0.00000014  0.14D-09  0.21D-10  6  5     0.66     0.06
  12      1.13929599    -0.44174548  -130.35964734    -0.00000017     0.00000041  0.14D-10  0.68D-11  6  6     0.71     0.06
  13      1.13929543    -0.44174549  -130.35964735    -0.00000001     0.00000011  0.60D-11  0.11D-11  6  1     0.76     0.06
  14      1.13929507    -0.44174551  -130.35964737    -0.00000002     0.00000007  0.84D-12  0.40D-12  6  2     0.82     0.06
  15      1.13929494    -0.44174551  -130.35964737    -0.00000000     0.00000001  0.21D-12  0.13D-12  6  3     0.87     0.06
  16      1.13929485    -0.44174551  -130.35964737    -0.00000000     0.00000001  0.22D-13  0.15D-13  6  5     0.93     0.06
  17      1.13929482    -0.44174551  -130.35964737    -0.00000000     0.00000000  0.67D-15  0.20D-14  6  4     0.99     0.06
  18      1.13929482    -0.44174551  -130.35964737     0.00000000    -0.00000000  0.46D-15  0.28D-15  6  1     1.05     0.06
  19      1.13929482    -0.44174551  -130.35964737    -0.00000000     0.00000000  0.45D-16  0.50D-16  6  6     1.10     0.06
  20      1.13929481    -0.44174551  -130.35964737    -0.00000000     0.00000000  0.10D-16  0.13D-16  6  2     1.15     0.06
  21      1.13929481    -0.44174551  -130.35964737    -0.00000000     0.00000000  0.16D-17  0.97D-18  6  5     1.21     0.06
  22      1.13929481    -0.44174551  -130.35964737    -0.00000000     0.00000000  0.95D-19  0.76D-19  6  3     1.27     0.06
  23      1.13929481    -0.44174551  -130.35964737     0.00000000    -0.00000000  0.28D-19  0.16D-19  6  4     1.32     0.06
  24      1.13929481    -0.44174551  -130.35964737     0.00000000    -0.00000000  0.41D-20  0.45D-20  6  1     1.38     0.06
  25      1.13929481    -0.44174551  -130.35964737     0.00000000    -0.00000000  0.51D-21  0.75D-21  6  6     1.43     0.06

 Norm of t1 vector:      0.07440887      S-energy:     0.00000000      T1 diagnostic:  0.01518865
                                                                       D1 diagnostic:  0.04238054

 Doubles amplitudes (print threshold =  0.500E-01):

         I         J         SYM. A    SYM. B    A         B      T(IJ, AB)

         6         6         2         2         1         1     -0.14382002


 Total CPU time for triples:      0.40 sec


 RESULTS
 =======

  Reference energy                   -129.917901858964
  CCSD singlet pair energy             -0.302813873555
  CCSD triplet pair energy             -0.138931638692
  CCSD correlation energy              -0.441745512247

  Triples (T) contribution             -0.019723438055
  Total correlation energy             -0.461468950302

  CCSD total energy                  -130.359647371212
  CCSD[T] energy                     -130.380377055607
  CCSD-T energy                      -130.378977127292
 !CCSD(T) total energy               -130.379370809267

 Timing summary (sec):

 STEP                 CPU(USER)    SYS     CPU(TOT)    WALL
 Transformation          0.03      0.02      0.05      0.09
 CCSD iterations         1.41      0.13      1.54      1.54
 Triples                 0.40      0.01      0.41      0.41

 Program statistics:

 Available memory in ccsd:               994999756
 Min. memory needed in ccsd:                154850
 Max. memory used in ccsd:                  184802
 Max. memory used in cckext:                238416 (25 integral passes)



 **********************************************************************************************************************************
 DATASETS  * FILE   NREC   LENGTH (MB)   RECORD NAMES
              1      24       40.41       500      610      700      900      950      970     1000      129      960     1700   
                                          VAR    BASINP    GEOM    SYMINP    ZMAT    AOBASIS   BASIS     P2S    ABASIS    OPER   
                                         1101     1401     1411     1412     1650     1100     1400     1410     1200     1210   
                                          SR      EKINR    POTR     PVPR    MOLCAS      S      EKIN      POT      H0       H01  
                                         1300     1080     1600     1380   
                                         ERIS     AOSYM     SMH     JKOP   

              2       4        2.85       700     1000      520     2100   
                                         GEOM     BASIS   MCVARS     RHF  

 PROGRAMS   *        TOTAL   CCSD(T)        HF       INT
 CPU TIMES  *         2.94      1.86      0.32      0.65
 REAL TIME  *         4.01 SEC
 DISK USED  *        75.75 MB      
 **********************************************************************************************************************************

 CCSD(T)/cc-pVTZ-DK energy=   -130.379370809267

        CCSD(T)         HF-SCF  
   -130.37937081   -129.91790186
 **********************************************************************************************************************************
 Molpro calculation terminated
 Variable memory released
