
 Primary working directories    : /tmp/r2666/282669.maple
 Secondary working directories  : /tmp/r2666/282669.maple
 Wavefunction directory         : /ddn/home4/r2666/wfu/
 Main file repository           : /tmp/r2666/282669.maple/

 SHA1      : d5ffa45e93fdbca01ffc919aa182cfdae0147319
 NAME      : 2015.1.35
 ARCHNAME  : linux/x86_64
 FC        : /opt/intel/composer_xe_2015.1.133/bin/intel64/ifort
 BLASLIB   : -Wl,-_start-group /opt/intel/mkl/lib/intel64/libmkl_intel_ilp64.a /opt/intel/mkl/lib/intel64/libmkl_intel_thread.a /opt/intel/mkl/lib/intel64/libmkl_core.a -Wl,-_end-group
 id        : olemiss

 Nodes     nprocs
 cn083        1

 Using customized tuning parameters: mindgm=1; mindgv=20; mindgc=4; mindgr=1; noblas=0; minvec=7
 default implementation of scratch files=df  

 ***,hno CCSD(T)/TZ-F12 QFF
 memory, 995, m;
 gthresh,energy=1.d-12,zero=1.d-22,oneint=1.d-22,twoint=1.d-22;
 gthresh,optgrad=1.d-8,optstep=1.d-8;
 nocompress;
 geomtyp=xyz
 bohr
 geometry={
 3
         50        50
 H        0.0000000000        1.6648039328       -1.9177632981
 N        0.0000000000       -0.1662326794       -1.1433777712
 O        0.0000000000        0.0431965366        1.1105514783
 }
 
 basis=vtz-dk
 dkroll=1
   {hf,maxit=500;accu,20;}
 {ccsd(t),nocheck,maxit=250;orbital,IGNORE_ERROR;}

 Variables initialized (889), CPU time= 0.01 sec
 Commands  initialized (702), CPU time= 0.01 sec, 572 directives.
 Default parameters read. Elapsed time= 0.07 sec

 Checking input...
 Passed
1


                                         ***  PROGRAM SYSTEM MOLPRO  ***
                                       Copyright, TTI GmbH Stuttgart, 2015
                                    Version 2015.1 linked Jul  9 2018 13:16:40


 **********************************************************************************************************************************
 LABEL *   hno CCSD(T)/TZ-F12 QFF                                                        
  64 bit serial version                                                                  DATE: 04-Mar-20          TIME: 13:51:11  
 **********************************************************************************************************************************

 SHA1:             d5ffa45e93fdbca01ffc919aa182cfdae0147319
 **********************************************************************************************************************************

 THRESHOLDS:

 ZERO    =  1.00D-22  ONEINT  =  1.00D-22  TWOINT  =  1.00D-22  PREFAC  =  1.00D-14  LOCALI  =  1.00D-09  EORDER  =  1.00D-04
 ENERGY  =  1.00D-12  ETEST   =  0.00D+00  EDENS   =  0.00D+00  THRDEDEF=  1.00D-06  GRADIENT=  1.00D-02  STEP    =  1.00D-03
 ORBITAL =  1.00D-05  CIVEC   =  1.00D-05  COEFF   =  1.00D-04  PRINTCI =  5.00D-02  PUNCHCI =  9.90D+01  OPTGRAD =  3.00D-04
 OPTENERG=  1.00D-06  OPTSTEP =  3.00D-04  THRGRAD =  1.00D-10  COMPRESS=  1.00D-11  VARMIN  =  1.00D-07  VARMAX  =  1.00D-03
 THRDOUB =  0.00D+00  THRDIV  =  1.00D-05  THRRED  =  1.00D-07  THRPSP  =  1.00D+00  THRDC   =  1.00D-10  THRCS   =  1.00D-10
 THRNRM  =  1.00D-08  THREQ   =  0.00D+00  THRDE   =  1.00D+00  THRREF  =  1.00D-05  SPARFAC =  1.00D+00  THRDLP  =  1.00D-07
 THRDIA  =  1.00D-10  THRDLS  =  1.00D-07  THRGPS  =  0.00D+00  THRKEX  =  0.00D+00  THRDIS  =  2.00D-01  THRVAR  =  1.00D-10
 THRLOC  =  1.00D-06  THRGAP  =  1.00D-06  THRLOCT = -1.00D+00  THRGAPT = -1.00D+00  THRORB  =  1.00D-06  THRMLTP =  0.00D+00
 THRCPQCI=  1.00D-10  KEXTA   =  0.00D+00  THRCOARS=  0.00D+00  SYMTOL  =  1.00D-06  GRADTOL =  1.00D-06  THROVL  =  1.00D-08
 THRORTH =  1.00D-08  GRID    =  1.00D-06  GRIDMAX =  1.00D-03  DTMAX   =  0.00D+00  THROCCDE=  1.00D-01  THROCCDE=  1.00D-01



 THRESHOLDS:

 ZERO    =  1.00D-22  ONEINT  =  1.00D-22  TWOINT  =  1.00D-22  PREFAC  =  1.00D-14  LOCALI  =  1.00D-09  EORDER  =  1.00D-04
 ENERGY  =  1.00D-12  ETEST   =  0.00D+00  EDENS   =  0.00D+00  THRDEDEF=  1.00D-06  GRADIENT=  1.00D-02  STEP    =  1.00D-03
 ORBITAL =  1.00D-05  CIVEC   =  1.00D-05  COEFF   =  1.00D-04  PRINTCI =  5.00D-02  PUNCHCI =  9.90D+01  OPTGRAD =  1.00D-08
 OPTENERG=  1.00D-06  OPTSTEP =  1.00D-08  THRGRAD =  1.00D-10  COMPRESS=  1.00D-11  VARMIN  =  1.00D-07  VARMAX  =  1.00D-03
 THRDOUB =  0.00D+00  THRDIV  =  1.00D-05  THRRED  =  1.00D-07  THRPSP  =  1.00D+00  THRDC   =  1.00D-10  THRCS   =  1.00D-10
 THRNRM  =  1.00D-08  THREQ   =  0.00D+00  THRDE   =  1.00D+00  THRREF  =  1.00D-05  SPARFAC =  1.00D+00  THRDLP  =  1.00D-07
 THRDIA  =  1.00D-10  THRDLS  =  1.00D-07  THRGPS  =  0.00D+00  THRKEX  =  0.00D+00  THRDIS  =  2.00D-01  THRVAR  =  1.00D-10
 THRLOC  =  1.00D-06  THRGAP  =  1.00D-06  THRLOCT = -1.00D+00  THRGAPT = -1.00D+00  THRORB  =  1.00D-06  THRMLTP =  0.00D+00
 THRCPQCI=  1.00D-10  KEXTA   =  0.00D+00  THRCOARS=  0.00D+00  SYMTOL  =  1.00D-06  GRADTOL =  1.00D-06  THROVL  =  1.00D-08
 THRORTH =  1.00D-08  GRID    =  1.00D-06  GRIDMAX =  1.00D-03  DTMAX   =  0.00D+00  THROCCDE=  1.00D-01  THROCCDE=  1.00D-01



 Input parameters for SORTINT:

 COMPRESS =    0.000000
 C_FINAL  =    1.000000
 DEBUG    =   -1.000000
 C_SORT1  =    0.000000
 C_SEWARD =    0.000000
 THRESH   =    0.000000
 IO       =  molpro                                                          
 SPRI     =    0.000000
 SETTING GEOMTYP        =    XYZ
 ZUNIT=BOHR
 

 Variable memory set to  995000000 words,  buffer space   230000 words

 SETTING BASIS          =    VTZ-DK
 SETTING DKROLL         =         1.00000000                                  


 Recomputing integrals since basis changed


 Using spherical harmonics

 Library entry H      S cc-pVTZ-DK           selected for orbital group  1
 Library entry H      P cc-pVTZ-DK           selected for orbital group  1
 Library entry H      D cc-pVTZ-DK           selected for orbital group  1
 Library entry N      S cc-pVTZ-DK           selected for orbital group  2
 Library entry N      P cc-pVTZ-DK           selected for orbital group  2
 Library entry N      D cc-pVTZ-DK           selected for orbital group  2
 Library entry N      F cc-pVTZ-DK           selected for orbital group  2
 Library entry O      S cc-pVTZ-DK           selected for orbital group  3
 Library entry O      P cc-pVTZ-DK           selected for orbital group  3
 Library entry O      D cc-pVTZ-DK           selected for orbital group  3
 Library entry O      F cc-pVTZ-DK           selected for orbital group  3


 PROGRAM * SEWARD (Integral evaluation for generally contracted gaussian basis sets)     Author: Roland Lindh, 1990

 Geometry written to block  1 of record 700


 Point group  Cs  



 ATOMIC COORDINATES

 NR  ATOM    CHARGE       X              Y              Z

   1  H       1.00    0.000000000    1.664803933   -1.917763298
   2  N       7.00    0.000000000   -0.166232679   -1.143377771
   3  O       8.00    0.000000000    0.043196537    1.110551478

 Bond lengths in Bohr (Angstrom)

 1-2  1.988056342  2-3  2.263638146
     ( 1.052034110)     ( 1.197865721)

 Bond angles

  1-2-3  107.61603569

 NUCLEAR CHARGE:                   16
 NUMBER OF PRIMITIVE AOS:         111
 NUMBER OF SYMMETRY AOS:          100
 NUMBER OF CONTRACTIONS:           74   (  50A'  +  24A"  )
 NUMBER OF CORE ORBITALS:           2   (   2A'  +   0A"  )
 NUMBER OF VALENCE ORBITALS:        9   (   7A'  +   2A"  )


 NUCLEAR REPULSION ENERGY   30.58882365

 One-electron integrals computed with SEWARD

 2nd-order Douglas-Kroll-Hess method activated. Optimal DKH parametrization is used.

 Computing Douglas-Kroll / X2C integrals


        1874283. INTEGRALS WRITTEN OUT IN     458 BLOCKS ON RECORD 1290 OF FILE 1


 NUMBER OF SORTED TWO-ELECTRON INTEGRALS:    2006100.     BUFFER LENGTH:  32768
 NUMBER OF SEGMENTS:   1  SEGMENT LENGTH:    2006100      RECORD LENGTH: 524288

 Memory used in sort:       2.56 MW

 SORT1 READ     1874283. AND WROTE     1914195. INTEGRALS IN      6 RECORDS. CPU TIME:     0.02 SEC, REAL TIME:     0.05 SEC
 SORT2 READ     1914195. AND WROTE     2006100. INTEGRALS IN      1 RECORDS. CPU TIME:     0.05 SEC, REAL TIME:     0.05 SEC

 FILE SIZES:   FILE 1:    50.2 MBYTE,  FILE 4:    25.2 MBYTE,   TOTAL:     75.4 MBYTE

 OPERATOR DM      FOR CENTER  0  COORDINATES:    0.000000    0.000000    0.000000

 Eigenvalues of metric

         1 0.241E-02 0.391E-02 0.404E-02 0.829E-02 0.130E-01 0.321E-01 0.419E-01 0.463E-01
         2 0.338E-01 0.464E-01 0.100E+00 0.111E+00 0.231E+00 0.340E+00 0.393E+00 0.446E+00


 **********************************************************************************************************************************
 DATASETS  * FILE   NREC   LENGTH (MB)   RECORD NAMES
              1      23       36.03       500      610      700      900      950      970     1000      129      960     1700   
                                          VAR    BASINP    GEOM    SYMINP    ZMAT    AOBASIS   BASIS     P2S    ABASIS    OPER   
                                         1101     1401     1411     1412     1650     1100     1400     1410     1200     1210   
                                          SR      EKINR    POTR     PVPR    MOLCAS      S      EKIN      POT      H0       H01  
                                         1300     1080     1600   
                                         ERIS     AOSYM     SMH  

 PROGRAMS   *        TOTAL       INT
 CPU TIMES  *         0.63      0.52
 REAL TIME  *         1.19 SEC
 DISK USED  *        75.75 MB      
 **********************************************************************************************************************************


 PROGRAM * RHF-SCF (CLOSED SHELL)       Authors: W. Meyer, H.-J. Werner


 NUMBER OF ELECTRONS:       8+    8-
 CONVERGENCE THRESHOLDS:    1.00E-10 (Density)    1.00E-13 (Energy)
 MAX. NUMBER OF ITERATIONS:      500
 INTERPOLATION TYPE:            DIIS
 INTERPOLATION STEPS:              2 (START)      1 (STEP)
 LEVEL SHIFTS:                  0.00 (CLOSED)  0.00 (OPEN) 



 Orbital guess generated from atomic densities. Full valence occupancy:    9   2

 Molecular orbital dump at record        2100.2

 Initial occupancy:   7   1

 ITERATION    DDIFF          GRAD             ENERGY        2-EL.EN.            DIPOLE MOMENTS         DIIS   ORB.
    1      0.000D+00      0.000D+00      -129.87013604    154.621977    0.00000    0.58085   -1.00715    0    start
    2      0.000D+00      0.134D-01      -129.89714087    155.747650    0.00000    0.60822   -0.22287    1    diag
    3      0.182D-01      0.101D-01      -129.91801560    155.857987    0.00000    0.55575   -0.58393    2    diag
    4      0.877D-02      0.153D-02      -129.91873119    155.599564    0.00000    0.56468   -0.52641    3    diag
    5      0.164D-02      0.507D-03      -129.91884223    155.684187    0.00000    0.57000   -0.52759    4    diag
    6      0.707D-03      0.152D-03      -129.91886057    155.669355    0.00000    0.57056   -0.52358    5    diag
    7      0.274D-03      0.751D-04      -129.91886582    155.671752    0.00000    0.57180   -0.52119    6    diag
    8      0.188D-03      0.233D-04      -129.91886628    155.671099    0.00000    0.57182   -0.52044    7    diag
    9      0.606D-04      0.420D-05      -129.91886630    155.670993    0.00000    0.57177   -0.52030    8    diag
   10      0.116D-04      0.944D-06      -129.91886630    155.670976    0.00000    0.57174   -0.52028    9    orth
   11      0.269D-05      0.187D-06      -129.91886630    155.670972    0.00000    0.57173   -0.52028    9    diag
   12      0.498D-06      0.384D-07      -129.91886630    155.670970    0.00000    0.57173   -0.52027    9    diag
   13      0.109D-06      0.935D-08      -129.91886630    155.670970    0.00000    0.57173   -0.52027    9    diag
   14      0.267D-07      0.173D-08      -129.91886630    155.670970    0.00000    0.57173   -0.52027    9    diag
   15      0.450D-08      0.464D-09      -129.91886630    155.670970    0.00000    0.57173   -0.52027    9    diag
   16      0.108D-08      0.124D-09      -129.91886630    155.670970    0.00000    0.57173   -0.52027    9    diag
   17      0.219D-09      0.371D-10      -129.91886630    155.670970    0.00000    0.57173   -0.52027    9    diag
   18      0.732D-10      0.120D-10      -129.91886630    155.670970    0.00000    0.57173   -0.52027    9    diag
   19      0.283D-10      0.263D-11      -129.91886630    155.670970    0.00000    0.57173   -0.52027    0    orth

 Final occupancy:   7   1

 !RHF STATE 1.1 Energy               -129.918866300104
 Nuclear energy                        30.58882365
 One-electron energy                 -238.34317484
 Two-electron energy                   77.83548489
 Virial quotient                       -0.99723009
 !RHF STATE 1.1 Dipole moment           0.00000000     0.57173151    -0.52027329
 Dipole moment /Debye                   0.00000000     1.45310138    -1.32231618

 Orbital energies:

         1.1          2.1          3.1          4.1          5.1          6.1          7.1          8.1          9.1
    -20.663929   -15.715179    -1.536034    -0.989435    -0.746214    -0.664537    -0.424023     0.144756     0.370869

         1.2          2.2          3.2
     -0.596753     0.090300     0.611891

 HOMO      7.1    -0.424023 =     -11.5383eV
 LUMO      2.2     0.090300 =       2.4572eV
 LUMO-HOMO         0.514323 =      13.9954eV


 **********************************************************************************************************************************
 DATASETS  * FILE   NREC   LENGTH (MB)   RECORD NAMES
              1      23       36.03       500      610      700      900      950      970     1000      129      960     1700   
                                          VAR    BASINP    GEOM    SYMINP    ZMAT    AOBASIS   BASIS     P2S    ABASIS    OPER   
                                         1101     1401     1411     1412     1650     1100     1400     1410     1200     1210   
                                          SR      EKINR    POTR     PVPR    MOLCAS      S      EKIN      POT      H0       H01  
                                         1300     1080     1600   
                                         ERIS     AOSYM     SMH  

              2       4        2.85       700     1000      520     2100   
                                         GEOM     BASIS   MCVARS     RHF  

 PROGRAMS   *        TOTAL        HF       INT
 CPU TIMES  *         0.86      0.23      0.52
 REAL TIME  *         1.48 SEC
 DISK USED  *        75.75 MB      
 **********************************************************************************************************************************


 PROGRAM * CCSD (Closed-shell coupled cluster)     Authors: C. Hampel, H.-J. Werner, 1991, M. Deegan, P.J. Knowles, 1992


 Convergence thresholds:  THRVAR = 1.00D-08  THRDEN = 1.00D-12

 CCSD(T)     terms to be evaluated (factor= 1.000)


 Number of core orbitals:           2 (   2   0 )
 Number of closed-shell orbitals:   6 (   5   1 )
 Number of external orbitals:      66 (  43  23 )

 Molecular orbitals read from record     2100.2  Type=RHF/CANONICAL (state 1.1)

 Number of N-1 electron functions:               6
 Number of N-2 electron functions:              21
 Number of singly external CSFs:               238
 Number of doubly external CSFs:             41002
 Total number of CSFs:                       41241

 Length of J-op  integral file:               0.00 MB
 Length of K-op  integral file:               0.25 MB
 Length of 3-ext integral record:             0.00 MB

 Memory could be reduced to 1.65 Mwords without degradation in triples

 Integral transformation finished. Total CPU:   0.03 sec, npass=  1  Memory used:   0.55 MW

 Reference energy:                   -129.91886630

 MP2 singlet pair energy:              -0.27270936
 MP2 triplet pair energy:              -0.16189633
 MP2 correlation energy:               -0.43460569
 MP2 total energy:                   -130.35347199

 SCS-MP2 correlation energy:           -0.42798673   (PS=  1.200000  PT=  0.333333)
 SCS-MP2 total energy:               -130.34685303

 ITER.      SQ.NORM     CORR.ENERGY   TOTAL ENERGY   ENERGY CHANGE        DEN1      VAR(S)    VAR(P)  DIIS     TIME  TIME/IT
   1      1.11735906    -0.44005269  -130.35891899    -0.00544700     0.00992453  0.28D-02  0.29D-02  1  1     0.07     0.04
   2      1.12794828    -0.44037894  -130.35924524    -0.00032625    -0.01204277  0.82D-04  0.49D-03  2  2     0.11     0.04
   3      1.13400437    -0.44074708  -130.35961338    -0.00036814    -0.00290675  0.44D-04  0.48D-04  3  3     0.15     0.04
   4      1.13668159    -0.44077304  -130.35963934    -0.00002596    -0.00092409  0.37D-05  0.84D-05  4  4     0.19     0.04
   5      1.13761282    -0.44080053  -130.35966683    -0.00002749    -0.00019310  0.13D-05  0.16D-05  5  5     0.23     0.04
   6      1.13795435    -0.44078521  -130.35965151     0.00001531    -0.00003855  0.96D-07  0.40D-06  6  6     0.26     0.04
   7      1.13803867    -0.44078707  -130.35965337    -0.00000186    -0.00000234  0.12D-07  0.82D-07  6  1     0.30     0.04
   8      1.13806851    -0.44078713  -130.35965343    -0.00000006     0.00000189  0.42D-08  0.92D-08  6  2     0.32     0.04
   9      1.13807570    -0.44078697  -130.35965327     0.00000017    -0.00000220  0.23D-08  0.10D-08  6  3     0.36     0.04
  10      1.13807450    -0.44078744  -130.35965374    -0.00000047     0.00000061  0.45D-09  0.18D-09  6  4     0.40     0.04
  11      1.13807285    -0.44078749  -130.35965379    -0.00000005     0.00000017  0.14D-09  0.21D-10  6  5     0.43     0.04
  12      1.13807153    -0.44078765  -130.35965395    -0.00000016     0.00000041  0.14D-10  0.68D-11  6  6     0.47     0.04
  13      1.13807097    -0.44078766  -130.35965396    -0.00000001     0.00000011  0.62D-11  0.11D-11  6  1     0.51     0.04
  14      1.13807061    -0.44078768  -130.35965398    -0.00000002     0.00000007  0.86D-12  0.38D-12  6  2     0.55     0.04
  15      1.13807049    -0.44078768  -130.35965398    -0.00000000     0.00000001  0.22D-12  0.13D-12  6  3     0.59     0.04
  16      1.13807040    -0.44078768  -130.35965398    -0.00000000     0.00000001  0.23D-13  0.14D-13  6  5     0.62     0.04
  17      1.13807037    -0.44078768  -130.35965398    -0.00000000     0.00000000  0.71D-15  0.21D-14  6  4     0.66     0.04
  18      1.13807037    -0.44078768  -130.35965398     0.00000000    -0.00000000  0.46D-15  0.30D-15  6  1     0.69     0.04
  19      1.13807037    -0.44078768  -130.35965398    -0.00000000     0.00000000  0.39D-16  0.53D-16  6  6     0.73     0.04
  20      1.13807037    -0.44078768  -130.35965398    -0.00000000     0.00000000  0.81D-17  0.12D-16  6  2     0.77     0.04
  21      1.13807037    -0.44078768  -130.35965398    -0.00000000     0.00000000  0.16D-17  0.92D-18  6  5     0.81     0.04
  22      1.13807037    -0.44078768  -130.35965398     0.00000000     0.00000000  0.10D-18  0.70D-19  6  3     0.84     0.04
  23      1.13807037    -0.44078768  -130.35965398     0.00000000    -0.00000000  0.29D-19  0.15D-19  6  4     0.87     0.04
  24      1.13807037    -0.44078768  -130.35965398     0.00000000    -0.00000000  0.43D-20  0.42D-20  6  1     0.91     0.04
  25      1.13807037    -0.44078768  -130.35965398     0.00000000    -0.00000000  0.49D-21  0.74D-21  6  6     0.95     0.04

 Norm of t1 vector:      0.07333161      S-energy:     0.00000000      T1 diagnostic:  0.01496875
                                                                       D1 diagnostic:  0.04111018

 Doubles amplitudes (print threshold =  0.500E-01):

         I         J         SYM. A    SYM. B    A         B      T(IJ, AB)

         6         6         2         2         1         1     -0.14090659


 Total CPU time for triples:      0.24 sec


 RESULTS
 =======

  Reference energy                   -129.918866300104
  CCSD singlet pair energy             -0.301975426395
  CCSD triplet pair energy             -0.138812255683
  CCSD correlation energy              -0.440787682076

  Triples (T) contribution             -0.019486269298
  Total correlation energy             -0.460273951375

  CCSD total energy                  -130.359653982180
  CCSD[T] energy                     -130.380114505283
  CCSD-T energy                      -130.378753383241
 !CCSD(T) total energy               -130.379140251479

 Timing summary (sec):

 STEP                 CPU(USER)    SYS     CPU(TOT)    WALL
 Transformation          0.03      0.00      0.03      0.04
 CCSD iterations         0.92      0.16      1.08      1.08
 Triples                 0.24      0.02      0.26      0.26

 Program statistics:

 Available memory in ccsd:               994999756
 Min. memory needed in ccsd:                154850
 Max. memory used in ccsd:                  184802
 Max. memory used in cckext:                238416 (25 integral passes)



 **********************************************************************************************************************************
 DATASETS  * FILE   NREC   LENGTH (MB)   RECORD NAMES
              1      24       40.41       500      610      700      900      950      970     1000      129      960     1700   
                                          VAR    BASINP    GEOM    SYMINP    ZMAT    AOBASIS   BASIS     P2S    ABASIS    OPER   
                                         1101     1401     1411     1412     1650     1100     1400     1410     1200     1210   
                                          SR      EKINR    POTR     PVPR    MOLCAS      S      EKIN      POT      H0       H01  
                                         1300     1080     1600     1380   
                                         ERIS     AOSYM     SMH     JKOP   

              2       4        2.85       700     1000      520     2100   
                                         GEOM     BASIS   MCVARS     RHF  

 PROGRAMS   *        TOTAL   CCSD(T)        HF       INT
 CPU TIMES  *         2.08      1.22      0.23      0.52
 REAL TIME  *         2.89 SEC
 DISK USED  *        75.75 MB      
 **********************************************************************************************************************************

 CCSD(T)/cc-pVTZ-DK energy=   -130.379140251479

        CCSD(T)         HF-SCF  
   -130.37914025   -129.91886630
 **********************************************************************************************************************************
 Molpro calculation terminated
 Variable memory released
