
 Primary working directories    : /tmp/r2666/282636.maple
 Secondary working directories  : /tmp/r2666/282636.maple
 Wavefunction directory         : /ddn/home4/r2666/wfu/
 Main file repository           : /tmp/r2666/282636.maple/

 SHA1      : d5ffa45e93fdbca01ffc919aa182cfdae0147319
 NAME      : 2015.1.35
 ARCHNAME  : linux/x86_64
 FC        : /opt/intel/composer_xe_2015.1.133/bin/intel64/ifort
 BLASLIB   : -Wl,-_start-group /opt/intel/mkl/lib/intel64/libmkl_intel_ilp64.a /opt/intel/mkl/lib/intel64/libmkl_intel_thread.a /opt/intel/mkl/lib/intel64/libmkl_core.a -Wl,-_end-group
 id        : olemiss

 Nodes     nprocs
 cn075        1

 Using customized tuning parameters: mindgm=1; mindgv=20; mindgc=4; mindgr=1; noblas=0; minvec=7
 default implementation of scratch files=df  

 ***,hno CCSD(T)/TZ-F12 QFF
 memory, 995, m;
 gthresh,energy=1.d-12,zero=1.d-22,oneint=1.d-22,twoint=1.d-22;
 gthresh,optgrad=1.d-8,optstep=1.d-8;
 nocompress;
 geomtyp=xyz
 bohr
 geometry={
 3
         17        17
 H        0.0000000000        1.6583251233       -1.9206351166
 N        0.0000000000       -0.1566276936       -1.1567412998
 O        0.0000000000        0.0400703603        1.1267868254
 }
 
 basis=vtz-dk
 dkroll=1
   {hf,maxit=500;accu,20;}
 {ccsd(t),nocheck,maxit=250;orbital,IGNORE_ERROR;}

 Variables initialized (889), CPU time= 0.01 sec
 Commands  initialized (702), CPU time= 0.01 sec, 572 directives.
 Default parameters read. Elapsed time= 0.06 sec

 Checking input...
 Passed
1


                                         ***  PROGRAM SYSTEM MOLPRO  ***
                                       Copyright, TTI GmbH Stuttgart, 2015
                                    Version 2015.1 linked Jul  9 2018 13:16:40


 **********************************************************************************************************************************
 LABEL *   hno CCSD(T)/TZ-F12 QFF                                                        
  64 bit serial version                                                                  DATE: 04-Mar-20          TIME: 13:51:07  
 **********************************************************************************************************************************

 SHA1:             d5ffa45e93fdbca01ffc919aa182cfdae0147319
 **********************************************************************************************************************************

 THRESHOLDS:

 ZERO    =  1.00D-22  ONEINT  =  1.00D-22  TWOINT  =  1.00D-22  PREFAC  =  1.00D-14  LOCALI  =  1.00D-09  EORDER  =  1.00D-04
 ENERGY  =  1.00D-12  ETEST   =  0.00D+00  EDENS   =  0.00D+00  THRDEDEF=  1.00D-06  GRADIENT=  1.00D-02  STEP    =  1.00D-03
 ORBITAL =  1.00D-05  CIVEC   =  1.00D-05  COEFF   =  1.00D-04  PRINTCI =  5.00D-02  PUNCHCI =  9.90D+01  OPTGRAD =  3.00D-04
 OPTENERG=  1.00D-06  OPTSTEP =  3.00D-04  THRGRAD =  1.00D-10  COMPRESS=  1.00D-11  VARMIN  =  1.00D-07  VARMAX  =  1.00D-03
 THRDOUB =  0.00D+00  THRDIV  =  1.00D-05  THRRED  =  1.00D-07  THRPSP  =  1.00D+00  THRDC   =  1.00D-10  THRCS   =  1.00D-10
 THRNRM  =  1.00D-08  THREQ   =  0.00D+00  THRDE   =  1.00D+00  THRREF  =  1.00D-05  SPARFAC =  1.00D+00  THRDLP  =  1.00D-07
 THRDIA  =  1.00D-10  THRDLS  =  1.00D-07  THRGPS  =  0.00D+00  THRKEX  =  0.00D+00  THRDIS  =  2.00D-01  THRVAR  =  1.00D-10
 THRLOC  =  1.00D-06  THRGAP  =  1.00D-06  THRLOCT = -1.00D+00  THRGAPT = -1.00D+00  THRORB  =  1.00D-06  THRMLTP =  0.00D+00
 THRCPQCI=  1.00D-10  KEXTA   =  0.00D+00  THRCOARS=  0.00D+00  SYMTOL  =  1.00D-06  GRADTOL =  1.00D-06  THROVL  =  1.00D-08
 THRORTH =  1.00D-08  GRID    =  1.00D-06  GRIDMAX =  1.00D-03  DTMAX   =  0.00D+00  THROCCDE=  1.00D-01  THROCCDE=  1.00D-01



 THRESHOLDS:

 ZERO    =  1.00D-22  ONEINT  =  1.00D-22  TWOINT  =  1.00D-22  PREFAC  =  1.00D-14  LOCALI  =  1.00D-09  EORDER  =  1.00D-04
 ENERGY  =  1.00D-12  ETEST   =  0.00D+00  EDENS   =  0.00D+00  THRDEDEF=  1.00D-06  GRADIENT=  1.00D-02  STEP    =  1.00D-03
 ORBITAL =  1.00D-05  CIVEC   =  1.00D-05  COEFF   =  1.00D-04  PRINTCI =  5.00D-02  PUNCHCI =  9.90D+01  OPTGRAD =  1.00D-08
 OPTENERG=  1.00D-06  OPTSTEP =  1.00D-08  THRGRAD =  1.00D-10  COMPRESS=  1.00D-11  VARMIN  =  1.00D-07  VARMAX  =  1.00D-03
 THRDOUB =  0.00D+00  THRDIV  =  1.00D-05  THRRED  =  1.00D-07  THRPSP  =  1.00D+00  THRDC   =  1.00D-10  THRCS   =  1.00D-10
 THRNRM  =  1.00D-08  THREQ   =  0.00D+00  THRDE   =  1.00D+00  THRREF  =  1.00D-05  SPARFAC =  1.00D+00  THRDLP  =  1.00D-07
 THRDIA  =  1.00D-10  THRDLS  =  1.00D-07  THRGPS  =  0.00D+00  THRKEX  =  0.00D+00  THRDIS  =  2.00D-01  THRVAR  =  1.00D-10
 THRLOC  =  1.00D-06  THRGAP  =  1.00D-06  THRLOCT = -1.00D+00  THRGAPT = -1.00D+00  THRORB  =  1.00D-06  THRMLTP =  0.00D+00
 THRCPQCI=  1.00D-10  KEXTA   =  0.00D+00  THRCOARS=  0.00D+00  SYMTOL  =  1.00D-06  GRADTOL =  1.00D-06  THROVL  =  1.00D-08
 THRORTH =  1.00D-08  GRID    =  1.00D-06  GRIDMAX =  1.00D-03  DTMAX   =  0.00D+00  THROCCDE=  1.00D-01  THROCCDE=  1.00D-01



 Input parameters for SORTINT:

 COMPRESS =    0.000000
 C_FINAL  =    1.000000
 DEBUG    =   -1.000000
 C_SORT1  =    0.000000
 C_SEWARD =    0.000000
 THRESH   =    0.000000
 IO       =  molpro                                                          
 SPRI     =    0.000000
 SETTING GEOMTYP        =    XYZ
 ZUNIT=BOHR
 

 Variable memory set to  995000000 words,  buffer space   230000 words

 SETTING BASIS          =    VTZ-DK
 SETTING DKROLL         =         1.00000000                                  


 Recomputing integrals since basis changed


 Using spherical harmonics

 Library entry H      S cc-pVTZ-DK           selected for orbital group  1
 Library entry H      P cc-pVTZ-DK           selected for orbital group  1
 Library entry H      D cc-pVTZ-DK           selected for orbital group  1
 Library entry N      S cc-pVTZ-DK           selected for orbital group  2
 Library entry N      P cc-pVTZ-DK           selected for orbital group  2
 Library entry N      D cc-pVTZ-DK           selected for orbital group  2
 Library entry N      F cc-pVTZ-DK           selected for orbital group  2
 Library entry O      S cc-pVTZ-DK           selected for orbital group  3
 Library entry O      P cc-pVTZ-DK           selected for orbital group  3
 Library entry O      D cc-pVTZ-DK           selected for orbital group  3
 Library entry O      F cc-pVTZ-DK           selected for orbital group  3


 PROGRAM * SEWARD (Integral evaluation for generally contracted gaussian basis sets)     Author: Roland Lindh, 1990

 Geometry written to block  1 of record 700


 Point group  Cs  



 ATOMIC COORDINATES

 NR  ATOM    CHARGE       X              Y              Z

   1  H       1.00    0.000000000    1.658325123   -1.920635117
   2  N       7.00    0.000000000   -0.156627694   -1.156741300
   3  O       8.00    0.000000000    0.040070360    1.126786825

 Bond lengths in Bohr (Angstrom)

 1-2  1.969159082  2-3  2.291984036
     ( 1.042034111)     ( 1.212865720)

 Bond angles

  1-2-3  107.90251459

 NUCLEAR CHARGE:                   16
 NUMBER OF PRIMITIVE AOS:         111
 NUMBER OF SYMMETRY AOS:          100
 NUMBER OF CONTRACTIONS:           74   (  50A'  +  24A"  )
 NUMBER OF CORE ORBITALS:           2   (   2A'  +   0A"  )
 NUMBER OF VALENCE ORBITALS:        9   (   7A'  +   2A"  )


 NUCLEAR REPULSION ENERGY   30.30634244

 One-electron integrals computed with SEWARD

 2nd-order Douglas-Kroll-Hess method activated. Optimal DKH parametrization is used.

 Computing Douglas-Kroll / X2C integrals


        1874283. INTEGRALS WRITTEN OUT IN     458 BLOCKS ON RECORD 1290 OF FILE 1


 NUMBER OF SORTED TWO-ELECTRON INTEGRALS:    2006100.     BUFFER LENGTH:  32768
 NUMBER OF SEGMENTS:   1  SEGMENT LENGTH:    2006100      RECORD LENGTH: 524288

 Memory used in sort:       2.56 MW

 SORT1 READ     1874283. AND WROTE     1914195. INTEGRALS IN      6 RECORDS. CPU TIME:     0.04 SEC, REAL TIME:     0.04 SEC
 SORT2 READ     1914195. AND WROTE     2006100. INTEGRALS IN      1 RECORDS. CPU TIME:     0.05 SEC, REAL TIME:     0.07 SEC

 FILE SIZES:   FILE 1:    50.2 MBYTE,  FILE 4:    25.2 MBYTE,   TOTAL:     75.4 MBYTE

 OPERATOR DM      FOR CENTER  0  COORDINATES:    0.000000    0.000000    0.000000

 Eigenvalues of metric

         1 0.243E-02 0.394E-02 0.423E-02 0.819E-02 0.128E-01 0.328E-01 0.428E-01 0.464E-01
         2 0.344E-01 0.465E-01 0.102E+00 0.110E+00 0.234E+00 0.338E+00 0.395E+00 0.450E+00


 **********************************************************************************************************************************
 DATASETS  * FILE   NREC   LENGTH (MB)   RECORD NAMES
              1      23       36.03       500      610      700      900      950      970     1000      129      960     1700   
                                          VAR    BASINP    GEOM    SYMINP    ZMAT    AOBASIS   BASIS     P2S    ABASIS    OPER   
                                         1101     1401     1411     1412     1650     1100     1400     1410     1200     1210   
                                          SR      EKINR    POTR     PVPR    MOLCAS      S      EKIN      POT      H0       H01  
                                         1300     1080     1600   
                                         ERIS     AOSYM     SMH  

 PROGRAMS   *        TOTAL       INT
 CPU TIMES  *         0.66      0.57
 REAL TIME  *         1.49 SEC
 DISK USED  *        75.75 MB      
 **********************************************************************************************************************************


 PROGRAM * RHF-SCF (CLOSED SHELL)       Authors: W. Meyer, H.-J. Werner


 NUMBER OF ELECTRONS:       8+    8-
 CONVERGENCE THRESHOLDS:    1.00E-10 (Density)    1.00E-13 (Energy)
 MAX. NUMBER OF ITERATIONS:      500
 INTERPOLATION TYPE:            DIIS
 INTERPOLATION STEPS:              2 (START)      1 (STEP)
 LEVEL SHIFTS:                  0.00 (CLOSED)  0.00 (OPEN) 



 Orbital guess generated from atomic densities. Full valence occupancy:    9   2

 Molecular orbital dump at record        2100.2

 Initial occupancy:   7   1

 ITERATION    DDIFF          GRAD             ENERGY        2-EL.EN.            DIPOLE MOMENTS         DIIS   ORB.
    1      0.000D+00      0.000D+00      -129.86687358    154.120364    0.00000    0.59636   -1.05341    0    start
    2      0.000D+00      0.136D-01      -129.89346003    155.210346    0.00000    0.61917   -0.22045    1    diag
    3      0.187D-01      0.105D-01      -129.91627643    155.353705    0.00000    0.56789   -0.60726    2    diag
    4      0.908D-02      0.156D-02      -129.91701848    155.086172    0.00000    0.57650   -0.54724    3    diag
    5      0.167D-02      0.516D-03      -129.91713291    155.171405    0.00000    0.58174   -0.54813    4    diag
    6      0.718D-03      0.153D-03      -129.91715180    155.156514    0.00000    0.58224   -0.54389    5    diag
    7      0.277D-03      0.774D-04      -129.91715749    155.158712    0.00000    0.58343   -0.54130    6    diag
    8      0.194D-03      0.252D-04      -129.91715805    155.158007    0.00000    0.58343   -0.54045    7    diag
    9      0.676D-04      0.456D-05      -129.91715808    155.157888    0.00000    0.58338   -0.54029    8    diag
   10      0.131D-04      0.993D-06      -129.91715808    155.157871    0.00000    0.58335   -0.54027    9    orth
   11      0.282D-05      0.194D-06      -129.91715808    155.157868    0.00000    0.58334   -0.54027    9    diag
   12      0.508D-06      0.411D-07      -129.91715808    155.157866    0.00000    0.58334   -0.54027    9    diag
   13      0.111D-06      0.103D-07      -129.91715808    155.157866    0.00000    0.58334   -0.54027    9    diag
   14      0.278D-07      0.186D-08      -129.91715808    155.157866    0.00000    0.58334   -0.54027    9    diag
   15      0.422D-08      0.473D-09      -129.91715808    155.157866    0.00000    0.58334   -0.54027    9    diag
   16      0.104D-08      0.113D-09      -129.91715808    155.157866    0.00000    0.58334   -0.54027    9    diag
   17      0.165D-09      0.306D-10      -129.91715808    155.157866    0.00000    0.58334   -0.54027    9    diag
   18      0.467D-10      0.100D-10      -129.91715808    155.157866    0.00000    0.58334   -0.54027    9    diag
   19      0.190D-10      0.208D-11      -129.91715808    155.157866    0.00000    0.58334   -0.54027    9    fixocc
   20      0.497D-11      0.379D-12      -129.91715808    155.157866    0.00000    0.58334   -0.54027    0    orth

 Final occupancy:   7   1

 !RHF STATE 1.1 Energy               -129.917158076655
 Nuclear energy                        30.30634244
 One-electron energy                 -237.80243358
 Two-electron energy                   77.57893306
 Virial quotient                       -0.99757445
 !RHF STATE 1.1 Dipole moment           0.00000000     0.58333866    -0.54026755
 Dipole moment /Debye                   0.00000000     1.48260187    -1.37313321

 Orbital energies:

         1.1          2.1          3.1          4.1          5.1          6.1          7.1          8.1          9.1
    -20.665255   -15.716327    -1.523671    -0.995673    -0.742652    -0.660274    -0.429010     0.144457     0.368839

         1.2          2.2          3.2
     -0.589423     0.084688     0.613610

 HOMO      7.1    -0.429010 =     -11.6739eV
 LUMO      2.2     0.084688 =       2.3045eV
 LUMO-HOMO         0.513697 =      13.9784eV


 **********************************************************************************************************************************
 DATASETS  * FILE   NREC   LENGTH (MB)   RECORD NAMES
              1      23       36.03       500      610      700      900      950      970     1000      129      960     1700   
                                          VAR    BASINP    GEOM    SYMINP    ZMAT    AOBASIS   BASIS     P2S    ABASIS    OPER   
                                         1101     1401     1411     1412     1650     1100     1400     1410     1200     1210   
                                          SR      EKINR    POTR     PVPR    MOLCAS      S      EKIN      POT      H0       H01  
                                         1300     1080     1600   
                                         ERIS     AOSYM     SMH  

              2       4        2.85       700     1000      520     2100   
                                         GEOM     BASIS   MCVARS     RHF  

 PROGRAMS   *        TOTAL        HF       INT
 CPU TIMES  *         0.84      0.18      0.57
 REAL TIME  *         1.77 SEC
 DISK USED  *        75.75 MB      
 **********************************************************************************************************************************


 PROGRAM * CCSD (Closed-shell coupled cluster)     Authors: C. Hampel, H.-J. Werner, 1991, M. Deegan, P.J. Knowles, 1992


 Convergence thresholds:  THRVAR = 1.00D-08  THRDEN = 1.00D-12

 CCSD(T)     terms to be evaluated (factor= 1.000)


 Number of core orbitals:           2 (   2   0 )
 Number of closed-shell orbitals:   6 (   5   1 )
 Number of external orbitals:      66 (  43  23 )

 Molecular orbitals read from record     2100.2  Type=RHF/CANONICAL (state 1.1)

 Number of N-1 electron functions:               6
 Number of N-2 electron functions:              21
 Number of singly external CSFs:               238
 Number of doubly external CSFs:             41002
 Total number of CSFs:                       41241

 Length of J-op  integral file:               0.00 MB
 Length of K-op  integral file:               0.25 MB
 Length of 3-ext integral record:             0.00 MB

 Memory could be reduced to 1.65 Mwords without degradation in triples

 Integral transformation finished. Total CPU:   0.04 sec, npass=  1  Memory used:   0.55 MW

 Reference energy:                   -129.91715808

 MP2 singlet pair energy:              -0.27405650
 MP2 triplet pair energy:              -0.16279636
 MP2 correlation energy:               -0.43685286
 MP2 total energy:                   -130.35401094

 SCS-MP2 correlation energy:           -0.43016332   (PS=  1.200000  PT=  0.333333)
 SCS-MP2 total energy:               -130.34732139

 ITER.      SQ.NORM     CORR.ENERGY   TOTAL ENERGY   ENERGY CHANGE        DEN1      VAR(S)    VAR(P)  DIIS     TIME  TIME/IT
   1      1.11865350    -0.44175824  -130.35891631    -0.00490537     0.01100168  0.30D-02  0.30D-02  1  1     0.08     0.05
   2      1.12954829    -0.44197606  -130.35913413    -0.00021782    -0.01235024  0.89D-04  0.51D-03  2  2     0.12     0.04
   3      1.13585920    -0.44236061  -130.35951868    -0.00038455    -0.00298752  0.46D-04  0.52D-04  3  3     0.16     0.04
   4      1.13869559    -0.44238891  -130.35954699    -0.00002830    -0.00096623  0.39D-05  0.90D-05  4  4     0.19     0.04
   5      1.13969778    -0.44241835  -130.35957643    -0.00002944    -0.00020773  0.13D-05  0.17D-05  5  5     0.22     0.04
   6      1.14005521    -0.44240145  -130.35955952     0.00001691    -0.00004095  0.88D-07  0.41D-06  6  6     0.25     0.04
   7      1.14013787    -0.44240377  -130.35956185    -0.00000232    -0.00000167  0.10D-07  0.90D-07  6  1     0.29     0.04
   8      1.14016766    -0.44240371  -130.35956179     0.00000006     0.00000210  0.47D-08  0.11D-07  6  2     0.32     0.04
   9      1.14017520    -0.44240356  -130.35956163     0.00000015    -0.00000235  0.25D-08  0.12D-08  6  3     0.36     0.04
  10      1.14017388    -0.44240405  -130.35956213    -0.00000050     0.00000069  0.48D-09  0.20D-09  6  4     0.39     0.04
  11      1.14017224    -0.44240411  -130.35956219    -0.00000006     0.00000013  0.14D-09  0.22D-10  6  5     0.43     0.04
  12      1.14017090    -0.44240429  -130.35956236    -0.00000018     0.00000042  0.14D-10  0.69D-11  6  6     0.46     0.04
  13      1.14017032    -0.44240429  -130.35956237    -0.00000001     0.00000012  0.60D-11  0.11D-11  6  1     0.50     0.04
  14      1.14016996    -0.44240431  -130.35956239    -0.00000002     0.00000007  0.85D-12  0.41D-12  6  2     0.54     0.04
  15      1.14016982    -0.44240431  -130.35956239    -0.00000000     0.00000001  0.22D-12  0.13D-12  6  3     0.58     0.04
  16      1.14016972    -0.44240431  -130.35956239    -0.00000000     0.00000001  0.23D-13  0.16D-13  6  5     0.62     0.04
  17      1.14016969    -0.44240432  -130.35956239    -0.00000000     0.00000000  0.61D-15  0.19D-14  6  4     0.66     0.04
  18      1.14016969    -0.44240432  -130.35956239     0.00000000    -0.00000000  0.43D-15  0.26D-15  6  1     0.69     0.04
  19      1.14016969    -0.44240432  -130.35956239    -0.00000000     0.00000000  0.46D-16  0.48D-16  6  6     0.73     0.04
  20      1.14016969    -0.44240432  -130.35956239    -0.00000000     0.00000000  0.11D-16  0.13D-16  6  2     0.75     0.04
  21      1.14016969    -0.44240432  -130.35956239    -0.00000000     0.00000000  0.16D-17  0.98D-18  6  5     0.79     0.04
  22      1.14016969    -0.44240432  -130.35956239    -0.00000000     0.00000000  0.91D-19  0.77D-19  6  3     0.84     0.04
  23      1.14016969    -0.44240432  -130.35956239     0.00000000     0.00000000  0.26D-19  0.16D-19  6  4     0.87     0.04
  24      1.14016969    -0.44240432  -130.35956239     0.00000000    -0.00000000  0.39D-20  0.44D-20  6  1     0.91     0.04
  25      1.14016969    -0.44240432  -130.35956239     0.00000000    -0.00000000  0.54D-21  0.73D-21  6  6     0.94     0.04

 Norm of t1 vector:      0.07520584      S-energy:     0.00000000      T1 diagnostic:  0.01535133
                                                                       D1 diagnostic:  0.04303157

 Doubles amplitudes (print threshold =  0.500E-01):

         I         J         SYM. A    SYM. B    A         B      T(IJ, AB)

         6         6         2         2         1         1     -0.14522196


 Total CPU time for triples:      0.25 sec


 RESULTS
 =======

  Reference energy                   -129.917158076655
  CCSD singlet pair energy             -0.303387883483
  CCSD triplet pair energy             -0.139016432986
  CCSD correlation energy              -0.442404316469

  Triples (T) contribution             -0.019875322419
  Total correlation energy             -0.462279638888

  CCSD total energy                  -130.359562393124
  CCSD[T] energy                     -130.380465359006
  CCSD-T energy                      -130.379038736159
 !CCSD(T) total energy               -130.379437715544

 Timing summary (sec):

 STEP                 CPU(USER)    SYS     CPU(TOT)    WALL
 Transformation          0.05      0.01      0.06      0.19
 CCSD iterations         0.89      0.16      1.05      1.05
 Triples                 0.25      0.01      0.26      0.26

 Program statistics:

 Available memory in ccsd:               994999756
 Min. memory needed in ccsd:                154850
 Max. memory used in ccsd:                  184802
 Max. memory used in cckext:                238416 (25 integral passes)



 **********************************************************************************************************************************
 DATASETS  * FILE   NREC   LENGTH (MB)   RECORD NAMES
              1      24       40.41       500      610      700      900      950      970     1000      129      960     1700   
                                          VAR    BASINP    GEOM    SYMINP    ZMAT    AOBASIS   BASIS     P2S    ABASIS    OPER   
                                         1101     1401     1411     1412     1650     1100     1400     1410     1200     1210   
                                          SR      EKINR    POTR     PVPR    MOLCAS      S      EKIN      POT      H0       H01  
                                         1300     1080     1600     1380   
                                         ERIS     AOSYM     SMH     JKOP   

              2       4        2.85       700     1000      520     2100   
                                         GEOM     BASIS   MCVARS     RHF  

 PROGRAMS   *        TOTAL   CCSD(T)        HF       INT
 CPU TIMES  *         2.06      1.21      0.18      0.57
 REAL TIME  *         3.31 SEC
 DISK USED  *        75.75 MB      
 **********************************************************************************************************************************

 CCSD(T)/cc-pVTZ-DK energy=   -130.379437715544

        CCSD(T)         HF-SCF  
   -130.37943772   -129.91715808
 **********************************************************************************************************************************
 Molpro calculation terminated
 Variable memory released
