
 Primary working directories    : /tmp/r2666/282721.maple
 Secondary working directories  : /tmp/r2666/282721.maple
 Wavefunction directory         : /ddn/home4/r2666/wfu/
 Main file repository           : /tmp/r2666/282721.maple/

 SHA1      : d5ffa45e93fdbca01ffc919aa182cfdae0147319
 NAME      : 2015.1.35
 ARCHNAME  : linux/x86_64
 FC        : /opt/intel/composer_xe_2015.1.133/bin/intel64/ifort
 BLASLIB   : -Wl,-_start-group /opt/intel/mkl/lib/intel64/libmkl_intel_ilp64.a /opt/intel/mkl/lib/intel64/libmkl_intel_thread.a /opt/intel/mkl/lib/intel64/libmkl_core.a -Wl,-_end-group
 id        : olemiss

 Nodes     nprocs
 cn094        1

 Using customized tuning parameters: mindgm=1; mindgv=20; mindgc=4; mindgr=1; noblas=0; minvec=7
 default implementation of scratch files=df  

 ***,hno CCSD(T)/TZ-F12 QFF
 memory, 995, m;
 gthresh,energy=1.d-12,zero=1.d-22,oneint=1.d-22,twoint=1.d-22;
 gthresh,optgrad=1.d-8,optstep=1.d-8;
 nocompress;
 geomtyp=xyz
 bohr
 geometry={
 3
        102       102
 H        0.0000000000        1.6717674218       -1.9277827079
 N        0.0000000000       -0.1692083303       -1.1526476272
 O        0.0000000000        0.0392086985        1.1298407441
 }
 
 basis=vtz-dk
 dkroll=1
   {hf,maxit=500;accu,20;}
 {ccsd(t),nocheck,maxit=250;orbital,IGNORE_ERROR;}

 Variables initialized (889), CPU time= 0.00 sec
 Commands  initialized (702), CPU time= 0.01 sec, 572 directives.
 Default parameters read. Elapsed time= 0.05 sec

 Checking input...
 Passed
1


                                         ***  PROGRAM SYSTEM MOLPRO  ***
                                       Copyright, TTI GmbH Stuttgart, 2015
                                    Version 2015.1 linked Jul  9 2018 13:16:40


 **********************************************************************************************************************************
 LABEL *   hno CCSD(T)/TZ-F12 QFF                                                        
  64 bit serial version                                                                  DATE: 04-Mar-20          TIME: 13:51:16  
 **********************************************************************************************************************************

 SHA1:             d5ffa45e93fdbca01ffc919aa182cfdae0147319
 **********************************************************************************************************************************

 THRESHOLDS:

 ZERO    =  1.00D-22  ONEINT  =  1.00D-22  TWOINT  =  1.00D-22  PREFAC  =  1.00D-14  LOCALI  =  1.00D-09  EORDER  =  1.00D-04
 ENERGY  =  1.00D-12  ETEST   =  0.00D+00  EDENS   =  0.00D+00  THRDEDEF=  1.00D-06  GRADIENT=  1.00D-02  STEP    =  1.00D-03
 ORBITAL =  1.00D-05  CIVEC   =  1.00D-05  COEFF   =  1.00D-04  PRINTCI =  5.00D-02  PUNCHCI =  9.90D+01  OPTGRAD =  3.00D-04
 OPTENERG=  1.00D-06  OPTSTEP =  3.00D-04  THRGRAD =  1.00D-10  COMPRESS=  1.00D-11  VARMIN  =  1.00D-07  VARMAX  =  1.00D-03
 THRDOUB =  0.00D+00  THRDIV  =  1.00D-05  THRRED  =  1.00D-07  THRPSP  =  1.00D+00  THRDC   =  1.00D-10  THRCS   =  1.00D-10
 THRNRM  =  1.00D-08  THREQ   =  0.00D+00  THRDE   =  1.00D+00  THRREF  =  1.00D-05  SPARFAC =  1.00D+00  THRDLP  =  1.00D-07
 THRDIA  =  1.00D-10  THRDLS  =  1.00D-07  THRGPS  =  0.00D+00  THRKEX  =  0.00D+00  THRDIS  =  2.00D-01  THRVAR  =  1.00D-10
 THRLOC  =  1.00D-06  THRGAP  =  1.00D-06  THRLOCT = -1.00D+00  THRGAPT = -1.00D+00  THRORB  =  1.00D-06  THRMLTP =  0.00D+00
 THRCPQCI=  1.00D-10  KEXTA   =  0.00D+00  THRCOARS=  0.00D+00  SYMTOL  =  1.00D-06  GRADTOL =  1.00D-06  THROVL  =  1.00D-08
 THRORTH =  1.00D-08  GRID    =  1.00D-06  GRIDMAX =  1.00D-03  DTMAX   =  0.00D+00  THROCCDE=  1.00D-01  THROCCDE=  1.00D-01



 THRESHOLDS:

 ZERO    =  1.00D-22  ONEINT  =  1.00D-22  TWOINT  =  1.00D-22  PREFAC  =  1.00D-14  LOCALI  =  1.00D-09  EORDER  =  1.00D-04
 ENERGY  =  1.00D-12  ETEST   =  0.00D+00  EDENS   =  0.00D+00  THRDEDEF=  1.00D-06  GRADIENT=  1.00D-02  STEP    =  1.00D-03
 ORBITAL =  1.00D-05  CIVEC   =  1.00D-05  COEFF   =  1.00D-04  PRINTCI =  5.00D-02  PUNCHCI =  9.90D+01  OPTGRAD =  1.00D-08
 OPTENERG=  1.00D-06  OPTSTEP =  1.00D-08  THRGRAD =  1.00D-10  COMPRESS=  1.00D-11  VARMIN  =  1.00D-07  VARMAX  =  1.00D-03
 THRDOUB =  0.00D+00  THRDIV  =  1.00D-05  THRRED  =  1.00D-07  THRPSP  =  1.00D+00  THRDC   =  1.00D-10  THRCS   =  1.00D-10
 THRNRM  =  1.00D-08  THREQ   =  0.00D+00  THRDE   =  1.00D+00  THRREF  =  1.00D-05  SPARFAC =  1.00D+00  THRDLP  =  1.00D-07
 THRDIA  =  1.00D-10  THRDLS  =  1.00D-07  THRGPS  =  0.00D+00  THRKEX  =  0.00D+00  THRDIS  =  2.00D-01  THRVAR  =  1.00D-10
 THRLOC  =  1.00D-06  THRGAP  =  1.00D-06  THRLOCT = -1.00D+00  THRGAPT = -1.00D+00  THRORB  =  1.00D-06  THRMLTP =  0.00D+00
 THRCPQCI=  1.00D-10  KEXTA   =  0.00D+00  THRCOARS=  0.00D+00  SYMTOL  =  1.00D-06  GRADTOL =  1.00D-06  THROVL  =  1.00D-08
 THRORTH =  1.00D-08  GRID    =  1.00D-06  GRIDMAX =  1.00D-03  DTMAX   =  0.00D+00  THROCCDE=  1.00D-01  THROCCDE=  1.00D-01



 Input parameters for SORTINT:

 COMPRESS =    0.000000
 C_FINAL  =    1.000000
 DEBUG    =   -1.000000
 C_SORT1  =    0.000000
 C_SEWARD =    0.000000
 THRESH   =    0.000000
 IO       =  molpro                                                          
 SPRI     =    0.000000
 SETTING GEOMTYP        =    XYZ
 ZUNIT=BOHR
 

 Variable memory set to  995000000 words,  buffer space   230000 words

 SETTING BASIS          =    VTZ-DK
 SETTING DKROLL         =         1.00000000                                  


 Recomputing integrals since basis changed


 Using spherical harmonics

 Library entry H      S cc-pVTZ-DK           selected for orbital group  1
 Library entry H      P cc-pVTZ-DK           selected for orbital group  1
 Library entry H      D cc-pVTZ-DK           selected for orbital group  1
 Library entry N      S cc-pVTZ-DK           selected for orbital group  2
 Library entry N      P cc-pVTZ-DK           selected for orbital group  2
 Library entry N      D cc-pVTZ-DK           selected for orbital group  2
 Library entry N      F cc-pVTZ-DK           selected for orbital group  2
 Library entry O      S cc-pVTZ-DK           selected for orbital group  3
 Library entry O      P cc-pVTZ-DK           selected for orbital group  3
 Library entry O      D cc-pVTZ-DK           selected for orbital group  3
 Library entry O      F cc-pVTZ-DK           selected for orbital group  3


 PROGRAM * SEWARD (Integral evaluation for generally contracted gaussian basis sets)     Author: Roland Lindh, 1990

 Geometry written to block  1 of record 700


 Point group  Cs  



 ATOMIC COORDINATES

 NR  ATOM    CHARGE       X              Y              Z

   1  H       1.00    0.000000000    1.671767422   -1.927782708
   2  N       7.00    0.000000000   -0.169208330   -1.152647627
   3  O       8.00    0.000000000    0.039208698    1.129840744

 Bond lengths in Bohr (Angstrom)

 1-2  1.997504972  2-3  2.291984036
     ( 1.057034110)     ( 1.212865720)

 Bond angles

  1-2-3  107.61603570

 NUCLEAR CHARGE:                   16
 NUMBER OF PRIMITIVE AOS:         111
 NUMBER OF SYMMETRY AOS:          100
 NUMBER OF CONTRACTIONS:           74   (  50A'  +  24A"  )
 NUMBER OF CORE ORBITALS:           2   (   2A'  +   0A"  )
 NUMBER OF VALENCE ORBITALS:        9   (   7A'  +   2A"  )


 NUCLEAR REPULSION ENERGY   30.24537711

 One-electron integrals computed with SEWARD

 2nd-order Douglas-Kroll-Hess method activated. Optimal DKH parametrization is used.

 Computing Douglas-Kroll / X2C integrals


        1874283. INTEGRALS WRITTEN OUT IN     458 BLOCKS ON RECORD 1290 OF FILE 1


 NUMBER OF SORTED TWO-ELECTRON INTEGRALS:    2006100.     BUFFER LENGTH:  32768
 NUMBER OF SEGMENTS:   1  SEGMENT LENGTH:    2006100      RECORD LENGTH: 524288

 Memory used in sort:       2.56 MW

 SORT1 READ     1874283. AND WROTE     1914195. INTEGRALS IN      6 RECORDS. CPU TIME:     0.02 SEC, REAL TIME:     0.04 SEC
 SORT2 READ     1914195. AND WROTE     2006100. INTEGRALS IN      1 RECORDS. CPU TIME:     0.05 SEC, REAL TIME:     0.06 SEC

 FILE SIZES:   FILE 1:    50.2 MBYTE,  FILE 4:    25.2 MBYTE,   TOTAL:     75.4 MBYTE

 OPERATOR DM      FOR CENTER  0  COORDINATES:    0.000000    0.000000    0.000000

 Eigenvalues of metric

         1 0.248E-02 0.401E-02 0.423E-02 0.846E-02 0.131E-01 0.331E-01 0.429E-01 0.465E-01
         2 0.345E-01 0.466E-01 0.102E+00 0.114E+00 0.237E+00 0.344E+00 0.398E+00 0.452E+00


 **********************************************************************************************************************************
 DATASETS  * FILE   NREC   LENGTH (MB)   RECORD NAMES
              1      23       36.03       500      610      700      900      950      970     1000      129      960     1700   
                                          VAR    BASINP    GEOM    SYMINP    ZMAT    AOBASIS   BASIS     P2S    ABASIS    OPER   
                                         1101     1401     1411     1412     1650     1100     1400     1410     1200     1210   
                                          SR      EKINR    POTR     PVPR    MOLCAS      S      EKIN      POT      H0       H01  
                                         1300     1080     1600   
                                         ERIS     AOSYM     SMH  

 PROGRAMS   *        TOTAL       INT
 CPU TIMES  *         0.65      0.57
 REAL TIME  *         1.10 SEC
 DISK USED  *        75.75 MB      
 **********************************************************************************************************************************


 PROGRAM * RHF-SCF (CLOSED SHELL)       Authors: W. Meyer, H.-J. Werner


 NUMBER OF ELECTRONS:       8+    8-
 CONVERGENCE THRESHOLDS:    1.00E-10 (Density)    1.00E-13 (Energy)
 MAX. NUMBER OF ITERATIONS:      500
 INTERPOLATION TYPE:            DIIS
 INTERPOLATION STEPS:              2 (START)      1 (STEP)
 LEVEL SHIFTS:                  0.00 (CLOSED)  0.00 (OPEN) 



 Orbital guess generated from atomic densities. Full valence occupancy:    9   2

 Molecular orbital dump at record        2100.2

 Initial occupancy:   7   1

 ITERATION    DDIFF          GRAD             ENERGY        2-EL.EN.            DIPOLE MOMENTS         DIIS   ORB.
    1      0.000D+00      0.000D+00      -129.86564420    154.002497    0.00000    0.58440   -1.05544    0    start
    2      0.000D+00      0.137D-01      -129.89221251    155.106848    0.00000    0.61797   -0.21320    1    diag
    3      0.188D-01      0.106D-01      -129.91575873    155.246522    0.00000    0.56148   -0.60474    2    diag
    4      0.919D-02      0.156D-02      -129.91650284    154.977186    0.00000    0.57008   -0.54482    3    diag
    5      0.166D-02      0.520D-03      -129.91662023    155.063435    0.00000    0.57547   -0.54572    4    diag
    6      0.725D-03      0.156D-03      -129.91663982    155.048296    0.00000    0.57596   -0.54141    5    diag
    7      0.282D-03      0.784D-04      -129.91664567    155.050550    0.00000    0.57718   -0.53881    6    diag
    8      0.196D-03      0.256D-04      -129.91664626    155.049829    0.00000    0.57719   -0.53796    7    diag
    9      0.686D-04      0.467D-05      -129.91664628    155.049707    0.00000    0.57714   -0.53779    8    diag
   10      0.133D-04      0.101D-05      -129.91664628    155.049689    0.00000    0.57711   -0.53777    9    orth
   11      0.285D-05      0.199D-06      -129.91664628    155.049685    0.00000    0.57710   -0.53777    9    diag
   12      0.519D-06      0.423D-07      -129.91664628    155.049683    0.00000    0.57710   -0.53777    9    diag
   13      0.115D-06      0.107D-07      -129.91664628    155.049683    0.00000    0.57710   -0.53777    9    diag
   14      0.292D-07      0.191D-08      -129.91664628    155.049683    0.00000    0.57710   -0.53777    9    diag
   15      0.447D-08      0.484D-09      -129.91664628    155.049683    0.00000    0.57710   -0.53777    9    diag
   16      0.107D-08      0.112D-09      -129.91664628    155.049683    0.00000    0.57710   -0.53777    9    diag
   17      0.171D-09      0.306D-10      -129.91664628    155.049683    0.00000    0.57710   -0.53777    9    diag
   18      0.483D-10      0.978D-11      -129.91664628    155.049683    0.00000    0.57710   -0.53777    9    diag
   19      0.199D-10      0.181D-11      -129.91664628    155.049683    0.00000    0.57710   -0.53777    0    orth

 Final occupancy:   7   1

 !RHF STATE 1.1 Energy               -129.916646282069
 Nuclear energy                        30.24537711
 One-electron energy                 -237.68686484
 Two-electron energy                   77.52484145
 Virial quotient                       -0.99774545
 !RHF STATE 1.1 Dipole moment           0.00000000     0.57709735    -0.53776536
 Dipole moment /Debye                   0.00000000     1.46673907    -1.36677368

 Orbital energies:

         1.1          2.1          3.1          4.1          5.1          6.1          7.1          8.1          9.1
    -20.665485   -15.718451    -1.523644    -0.991726    -0.741030    -0.660239    -0.428326     0.143546     0.368867

         1.2          2.2          3.2
     -0.589690     0.084708     0.613546

 HOMO      7.1    -0.428326 =     -11.6553eV
 LUMO      2.2     0.084708 =       2.3050eV
 LUMO-HOMO         0.513034 =      13.9604eV


 **********************************************************************************************************************************
 DATASETS  * FILE   NREC   LENGTH (MB)   RECORD NAMES
              1      23       36.03       500      610      700      900      950      970     1000      129      960     1700   
                                          VAR    BASINP    GEOM    SYMINP    ZMAT    AOBASIS   BASIS     P2S    ABASIS    OPER   
                                         1101     1401     1411     1412     1650     1100     1400     1410     1200     1210   
                                          SR      EKINR    POTR     PVPR    MOLCAS      S      EKIN      POT      H0       H01  
                                         1300     1080     1600   
                                         ERIS     AOSYM     SMH  

              2       4        2.85       700     1000      520     2100   
                                         GEOM     BASIS   MCVARS     RHF  

 PROGRAMS   *        TOTAL        HF       INT
 CPU TIMES  *         0.84      0.19      0.57
 REAL TIME  *         1.36 SEC
 DISK USED  *        75.75 MB      
 **********************************************************************************************************************************


 PROGRAM * CCSD (Closed-shell coupled cluster)     Authors: C. Hampel, H.-J. Werner, 1991, M. Deegan, P.J. Knowles, 1992


 Convergence thresholds:  THRVAR = 1.00D-08  THRDEN = 1.00D-12

 CCSD(T)     terms to be evaluated (factor= 1.000)


 Number of core orbitals:           2 (   2   0 )
 Number of closed-shell orbitals:   6 (   5   1 )
 Number of external orbitals:      66 (  43  23 )

 Molecular orbitals read from record     2100.2  Type=RHF/CANONICAL (state 1.1)

 Number of N-1 electron functions:               6
 Number of N-2 electron functions:              21
 Number of singly external CSFs:               238
 Number of doubly external CSFs:             41002
 Total number of CSFs:                       41241

 Length of J-op  integral file:               0.00 MB
 Length of K-op  integral file:               0.25 MB
 Length of 3-ext integral record:             0.00 MB

 Memory could be reduced to 1.65 Mwords without degradation in triples

 Integral transformation finished. Total CPU:   0.02 sec, npass=  1  Memory used:   0.55 MW

 Reference energy:                   -129.91664628

 MP2 singlet pair energy:              -0.27440873
 MP2 triplet pair energy:              -0.16299770
 MP2 correlation energy:               -0.43740644
 MP2 total energy:                   -130.35405272

 SCS-MP2 correlation energy:           -0.43071127   (PS=  1.200000  PT=  0.333333)
 SCS-MP2 total energy:               -130.34735756

 ITER.      SQ.NORM     CORR.ENERGY   TOTAL ENERGY   ENERGY CHANGE        DEN1      VAR(S)    VAR(P)  DIIS     TIME  TIME/IT
   1      1.11915067    -0.44227691  -130.35892319    -0.00487047     0.01116180  0.30D-02  0.31D-02  1  1     0.06     0.04
   2      1.13014044    -0.44248863  -130.35913491    -0.00021172    -0.01242812  0.91D-04  0.51D-03  2  2     0.10     0.04
   3      1.13654292    -0.44288350  -130.35952978    -0.00039487    -0.00302192  0.48D-04  0.52D-04  3  3     0.14     0.04
   4      1.13940815    -0.44291021  -130.35955650    -0.00002672    -0.00097607  0.42D-05  0.90D-05  4  4     0.18     0.04
   5      1.14043293    -0.44294074  -130.35958702    -0.00003052    -0.00021269  0.14D-05  0.16D-05  5  5     0.21     0.04
   6      1.14079768    -0.44292351  -130.35956979     0.00001723    -0.00004176  0.10D-06  0.40D-06  6  6     0.25     0.04
   7      1.14088252    -0.44292555  -130.35957183    -0.00000204    -0.00000186  0.12D-07  0.87D-07  6  1     0.29     0.04
   8      1.14091321    -0.44292545  -130.35957173     0.00000010     0.00000186  0.43D-08  0.11D-07  6  2     0.32     0.04
   9      1.14092117    -0.44292523  -130.35957152     0.00000022    -0.00000227  0.25D-08  0.12D-08  6  3     0.35     0.04
  10      1.14091995    -0.44292575  -130.35957203    -0.00000051     0.00000062  0.48D-09  0.21D-09  6  4     0.39     0.04
  11      1.14091823    -0.44292580  -130.35957209    -0.00000006     0.00000017  0.15D-09  0.23D-10  6  5     0.42     0.04
  12      1.14091683    -0.44292598  -130.35957227    -0.00000018     0.00000044  0.15D-10  0.75D-11  6  6     0.45     0.04
  13      1.14091621    -0.44292599  -130.35957227    -0.00000001     0.00000012  0.66D-11  0.12D-11  6  1     0.49     0.04
  14      1.14091582    -0.44292601  -130.35957229    -0.00000002     0.00000008  0.94D-12  0.43D-12  6  2     0.53     0.04
  15      1.14091567    -0.44292601  -130.35957230    -0.00000000     0.00000001  0.25D-12  0.14D-12  6  3     0.56     0.04
  16      1.14091556    -0.44292602  -130.35957230    -0.00000000     0.00000002  0.74D-14  0.35D-13  6  1     0.59     0.04
  17      1.14091555    -0.44292602  -130.35957230     0.00000000    -0.00000000  0.28D-14  0.24D-14  6  4     0.63     0.04
  18      1.14091554    -0.44292602  -130.35957230    -0.00000000     0.00000000  0.68D-15  0.42D-15  6  5     0.67     0.04
  19      1.14091554    -0.44292602  -130.35957230     0.00000000    -0.00000000  0.13D-15  0.79D-16  6  6     0.70     0.04
  20      1.14091554    -0.44292602  -130.35957230    -0.00000000     0.00000000  0.20D-16  0.19D-16  6  2     0.74     0.04
  21      1.14091553    -0.44292602  -130.35957230    -0.00000000     0.00000000  0.54D-18  0.14D-17  6  4     0.77     0.04
  22      1.14091553    -0.44292602  -130.35957230    -0.00000000     0.00000000  0.84D-19  0.14D-18  6  3     0.81     0.04
  23      1.14091553    -0.44292602  -130.35957230    -0.00000000     0.00000000  0.78D-20  0.15D-19  6  1     0.85     0.04
  24      1.14091553    -0.44292602  -130.35957230     0.00000000     0.00000000  0.41D-20  0.19D-20  6  6     0.88     0.04
  25      1.14091553    -0.44292602  -130.35957230     0.00000000    -0.00000000  0.26D-21  0.43D-21  6  4     0.92     0.04

 Norm of t1 vector:      0.07592098      S-energy:     0.00000000      T1 diagnostic:  0.01549731
                                                                       D1 diagnostic:  0.04305292

 Doubles amplitudes (print threshold =  0.500E-01):

         I         J         SYM. A    SYM. B    A         B      T(IJ, AB)

         6         6         2         2         1         1     -0.14504136


 Total CPU time for triples:      0.23 sec


 RESULTS
 =======

  Reference energy                   -129.916646282069
  CCSD singlet pair energy             -0.303837023217
  CCSD triplet pair energy             -0.139088993767
  CCSD correlation energy              -0.442926016984

  Triples (T) contribution             -0.019967961869
  Total correlation energy             -0.462893978852

  CCSD total energy                  -130.359572299053
  CCSD[T] energy                     -130.380582628194
  CCSD-T energy                      -130.379135538886
 !CCSD(T) total energy               -130.379540260921

 Timing summary (sec):

 STEP                 CPU(USER)    SYS     CPU(TOT)    WALL
 Transformation          0.02      0.02      0.04      0.04
 CCSD iterations         0.91      0.11      1.02      1.01
 Triples                 0.23      0.00      0.23      0.24

 Program statistics:

 Available memory in ccsd:               994999756
 Min. memory needed in ccsd:                154850
 Max. memory used in ccsd:                  184802
 Max. memory used in cckext:                238416 (25 integral passes)



 **********************************************************************************************************************************
 DATASETS  * FILE   NREC   LENGTH (MB)   RECORD NAMES
              1      24       40.41       500      610      700      900      950      970     1000      129      960     1700   
                                          VAR    BASINP    GEOM    SYMINP    ZMAT    AOBASIS   BASIS     P2S    ABASIS    OPER   
                                         1101     1401     1411     1412     1650     1100     1400     1410     1200     1210   
                                          SR      EKINR    POTR     PVPR    MOLCAS      S      EKIN      POT      H0       H01  
                                         1300     1080     1600     1380   
                                         ERIS     AOSYM     SMH     JKOP   

              2       4        2.85       700     1000      520     2100   
                                         GEOM     BASIS   MCVARS     RHF  

 PROGRAMS   *        TOTAL   CCSD(T)        HF       INT
 CPU TIMES  *         2.03      1.19      0.19      0.57
 REAL TIME  *         2.71 SEC
 DISK USED  *        75.75 MB      
 **********************************************************************************************************************************

 CCSD(T)/cc-pVTZ-DK energy=   -130.379540260921

        CCSD(T)         HF-SCF  
   -130.37954026   -129.91664628
 **********************************************************************************************************************************
 Molpro calculation terminated
 Variable memory released
