
 Primary working directories    : /tmp/r2666/282664.maple
 Secondary working directories  : /tmp/r2666/282664.maple
 Wavefunction directory         : /ddn/home4/r2666/wfu/
 Main file repository           : /tmp/r2666/282664.maple/

 SHA1      : d5ffa45e93fdbca01ffc919aa182cfdae0147319
 NAME      : 2015.1.35
 ARCHNAME  : linux/x86_64
 FC        : /opt/intel/composer_xe_2015.1.133/bin/intel64/ifort
 BLASLIB   : -Wl,-_start-group /opt/intel/mkl/lib/intel64/libmkl_intel_ilp64.a /opt/intel/mkl/lib/intel64/libmkl_intel_thread.a /opt/intel/mkl/lib/intel64/libmkl_core.a -Wl,-_end-group
 id        : olemiss

 Nodes     nprocs
 cn078        1

 Using customized tuning parameters: mindgm=1; mindgv=20; mindgc=4; mindgr=1; noblas=0; minvec=7
 default implementation of scratch files=df  

 ***,hno CCSD(T)/TZ-F12 QFF
 memory, 995, m;
 gthresh,energy=1.d-12,zero=1.d-22,oneint=1.d-22,twoint=1.d-22;
 gthresh,optgrad=1.d-8,optstep=1.d-8;
 nocompress;
 geomtyp=xyz
 bohr
 geometry={
 3
         45        45
 H        0.0000000000        1.6647122751       -1.9321189941
 N        0.0000000000       -0.1573172911       -1.1606938596
 O        0.0000000000        0.0343728060        1.1422232627
 }
 
 basis=vtz-dk
 dkroll=1
   {hf,maxit=500;accu,20;}
 {ccsd(t),nocheck,maxit=250;orbital,IGNORE_ERROR;}

 Variables initialized (889), CPU time= 0.01 sec
 Commands  initialized (702), CPU time= 0.01 sec, 572 directives.
 Default parameters read. Elapsed time= 0.05 sec

 Checking input...
 Passed
1


                                         ***  PROGRAM SYSTEM MOLPRO  ***
                                       Copyright, TTI GmbH Stuttgart, 2015
                                    Version 2015.1 linked Jul  9 2018 13:16:40


 **********************************************************************************************************************************
 LABEL *   hno CCSD(T)/TZ-F12 QFF                                                        
  64 bit serial version                                                                  DATE: 04-Mar-20          TIME: 13:51:10  
 **********************************************************************************************************************************

 SHA1:             d5ffa45e93fdbca01ffc919aa182cfdae0147319
 **********************************************************************************************************************************

 THRESHOLDS:

 ZERO    =  1.00D-22  ONEINT  =  1.00D-22  TWOINT  =  1.00D-22  PREFAC  =  1.00D-14  LOCALI  =  1.00D-09  EORDER  =  1.00D-04
 ENERGY  =  1.00D-12  ETEST   =  0.00D+00  EDENS   =  0.00D+00  THRDEDEF=  1.00D-06  GRADIENT=  1.00D-02  STEP    =  1.00D-03
 ORBITAL =  1.00D-05  CIVEC   =  1.00D-05  COEFF   =  1.00D-04  PRINTCI =  5.00D-02  PUNCHCI =  9.90D+01  OPTGRAD =  3.00D-04
 OPTENERG=  1.00D-06  OPTSTEP =  3.00D-04  THRGRAD =  1.00D-10  COMPRESS=  1.00D-11  VARMIN  =  1.00D-07  VARMAX  =  1.00D-03
 THRDOUB =  0.00D+00  THRDIV  =  1.00D-05  THRRED  =  1.00D-07  THRPSP  =  1.00D+00  THRDC   =  1.00D-10  THRCS   =  1.00D-10
 THRNRM  =  1.00D-08  THREQ   =  0.00D+00  THRDE   =  1.00D+00  THRREF  =  1.00D-05  SPARFAC =  1.00D+00  THRDLP  =  1.00D-07
 THRDIA  =  1.00D-10  THRDLS  =  1.00D-07  THRGPS  =  0.00D+00  THRKEX  =  0.00D+00  THRDIS  =  2.00D-01  THRVAR  =  1.00D-10
 THRLOC  =  1.00D-06  THRGAP  =  1.00D-06  THRLOCT = -1.00D+00  THRGAPT = -1.00D+00  THRORB  =  1.00D-06  THRMLTP =  0.00D+00
 THRCPQCI=  1.00D-10  KEXTA   =  0.00D+00  THRCOARS=  0.00D+00  SYMTOL  =  1.00D-06  GRADTOL =  1.00D-06  THROVL  =  1.00D-08
 THRORTH =  1.00D-08  GRID    =  1.00D-06  GRIDMAX =  1.00D-03  DTMAX   =  0.00D+00  THROCCDE=  1.00D-01  THROCCDE=  1.00D-01



 THRESHOLDS:

 ZERO    =  1.00D-22  ONEINT  =  1.00D-22  TWOINT  =  1.00D-22  PREFAC  =  1.00D-14  LOCALI  =  1.00D-09  EORDER  =  1.00D-04
 ENERGY  =  1.00D-12  ETEST   =  0.00D+00  EDENS   =  0.00D+00  THRDEDEF=  1.00D-06  GRADIENT=  1.00D-02  STEP    =  1.00D-03
 ORBITAL =  1.00D-05  CIVEC   =  1.00D-05  COEFF   =  1.00D-04  PRINTCI =  5.00D-02  PUNCHCI =  9.90D+01  OPTGRAD =  1.00D-08
 OPTENERG=  1.00D-06  OPTSTEP =  1.00D-08  THRGRAD =  1.00D-10  COMPRESS=  1.00D-11  VARMIN  =  1.00D-07  VARMAX  =  1.00D-03
 THRDOUB =  0.00D+00  THRDIV  =  1.00D-05  THRRED  =  1.00D-07  THRPSP  =  1.00D+00  THRDC   =  1.00D-10  THRCS   =  1.00D-10
 THRNRM  =  1.00D-08  THREQ   =  0.00D+00  THRDE   =  1.00D+00  THRREF  =  1.00D-05  SPARFAC =  1.00D+00  THRDLP  =  1.00D-07
 THRDIA  =  1.00D-10  THRDLS  =  1.00D-07  THRGPS  =  0.00D+00  THRKEX  =  0.00D+00  THRDIS  =  2.00D-01  THRVAR  =  1.00D-10
 THRLOC  =  1.00D-06  THRGAP  =  1.00D-06  THRLOCT = -1.00D+00  THRGAPT = -1.00D+00  THRORB  =  1.00D-06  THRMLTP =  0.00D+00
 THRCPQCI=  1.00D-10  KEXTA   =  0.00D+00  THRCOARS=  0.00D+00  SYMTOL  =  1.00D-06  GRADTOL =  1.00D-06  THROVL  =  1.00D-08
 THRORTH =  1.00D-08  GRID    =  1.00D-06  GRIDMAX =  1.00D-03  DTMAX   =  0.00D+00  THROCCDE=  1.00D-01  THROCCDE=  1.00D-01



 Input parameters for SORTINT:

 COMPRESS =    0.000000
 C_FINAL  =    1.000000
 DEBUG    =   -1.000000
 C_SORT1  =    0.000000
 C_SEWARD =    0.000000
 THRESH   =    0.000000
 IO       =  molpro                                                          
 SPRI     =    0.000000
 SETTING GEOMTYP        =    XYZ
 ZUNIT=BOHR
 

 Variable memory set to  995000000 words,  buffer space   230000 words

 SETTING BASIS          =    VTZ-DK
 SETTING DKROLL         =         1.00000000                                  


 Recomputing integrals since basis changed


 Using spherical harmonics

 Library entry H      S cc-pVTZ-DK           selected for orbital group  1
 Library entry H      P cc-pVTZ-DK           selected for orbital group  1
 Library entry H      D cc-pVTZ-DK           selected for orbital group  1
 Library entry N      S cc-pVTZ-DK           selected for orbital group  2
 Library entry N      P cc-pVTZ-DK           selected for orbital group  2
 Library entry N      D cc-pVTZ-DK           selected for orbital group  2
 Library entry N      F cc-pVTZ-DK           selected for orbital group  2
 Library entry O      S cc-pVTZ-DK           selected for orbital group  3
 Library entry O      P cc-pVTZ-DK           selected for orbital group  3
 Library entry O      D cc-pVTZ-DK           selected for orbital group  3
 Library entry O      F cc-pVTZ-DK           selected for orbital group  3


 PROGRAM * SEWARD (Integral evaluation for generally contracted gaussian basis sets)     Author: Roland Lindh, 1990

 Geometry written to block  1 of record 700


 Point group  Cs  



 ATOMIC COORDINATES

 NR  ATOM    CHARGE       X              Y              Z

   1  H       1.00    0.000000000    1.664712275   -1.932118994
   2  N       7.00    0.000000000   -0.157317291   -1.160693860
   3  O       8.00    0.000000000    0.034372806    1.142223263

 Bond lengths in Bohr (Angstrom)

 1-2  1.978607712  2-3  2.310881296
     ( 1.047034111)     ( 1.222865719)

 Bond angles

  1-2-3  108.18899349

 NUCLEAR CHARGE:                   16
 NUMBER OF PRIMITIVE AOS:         111
 NUMBER OF SYMMETRY AOS:          100
 NUMBER OF CONTRACTIONS:           74   (  50A'  +  24A"  )
 NUMBER OF CORE ORBITALS:           2   (   2A'  +   0A"  )
 NUMBER OF VALENCE ORBITALS:        9   (   7A'  +   2A"  )


 NUCLEAR REPULSION ENERGY   30.06994795

 One-electron integrals computed with SEWARD

 2nd-order Douglas-Kroll-Hess method activated. Optimal DKH parametrization is used.

 Computing Douglas-Kroll / X2C integrals


        1874283. INTEGRALS WRITTEN OUT IN     458 BLOCKS ON RECORD 1290 OF FILE 1


 NUMBER OF SORTED TWO-ELECTRON INTEGRALS:    2006100.     BUFFER LENGTH:  32768
 NUMBER OF SEGMENTS:   1  SEGMENT LENGTH:    2006100      RECORD LENGTH: 524288

 Memory used in sort:       2.56 MW

 SORT1 READ     1874283. AND WROTE     1914195. INTEGRALS IN      6 RECORDS. CPU TIME:     0.03 SEC, REAL TIME:     0.04 SEC
 SORT2 READ     1914195. AND WROTE     2006100. INTEGRALS IN      1 RECORDS. CPU TIME:     0.05 SEC, REAL TIME:     0.07 SEC

 FILE SIZES:   FILE 1:    50.2 MBYTE,  FILE 4:    25.2 MBYTE,   TOTAL:     75.4 MBYTE

 OPERATOR DM      FOR CENTER  0  COORDINATES:    0.000000    0.000000    0.000000

 Eigenvalues of metric

         1 0.248E-02 0.399E-02 0.439E-02 0.835E-02 0.129E-01 0.335E-01 0.433E-01 0.464E-01
         2 0.349E-01 0.466E-01 0.103E+00 0.112E+00 0.238E+00 0.341E+00 0.398E+00 0.453E+00


 **********************************************************************************************************************************
 DATASETS  * FILE   NREC   LENGTH (MB)   RECORD NAMES
              1      23       36.03       500      610      700      900      950      970     1000      129      960     1700   
                                          VAR    BASINP    GEOM    SYMINP    ZMAT    AOBASIS   BASIS     P2S    ABASIS    OPER   
                                         1101     1401     1411     1412     1650     1100     1400     1410     1200     1210   
                                          SR      EKINR    POTR     PVPR    MOLCAS      S      EKIN      POT      H0       H01  
                                         1300     1080     1600   
                                         ERIS     AOSYM     SMH  

 PROGRAMS   *        TOTAL       INT
 CPU TIMES  *         0.64      0.54
 REAL TIME  *         1.11 SEC
 DISK USED  *        75.75 MB      
 **********************************************************************************************************************************


 PROGRAM * RHF-SCF (CLOSED SHELL)       Authors: W. Meyer, H.-J. Werner


 NUMBER OF ELECTRONS:       8+    8-
 CONVERGENCE THRESHOLDS:    1.00E-10 (Density)    1.00E-13 (Energy)
 MAX. NUMBER OF ITERATIONS:      500
 INTERPOLATION TYPE:            DIIS
 INTERPOLATION STEPS:              2 (START)      1 (STEP)
 LEVEL SHIFTS:                  0.00 (CLOSED)  0.00 (OPEN) 



 Orbital guess generated from atomic densities. Full valence occupancy:    9   2

 Molecular orbital dump at record        2100.2

 Initial occupancy:   7   1

 ITERATION    DDIFF          GRAD             ENERGY        2-EL.EN.            DIPOLE MOMENTS         DIIS   ORB.
    1      0.000D+00      0.000D+00      -129.86340800    153.692214    0.00000    0.60015   -1.08685    0    start
    2      0.000D+00      0.138D-01      -129.88959403    154.767993    0.00000    0.62495   -0.21290    1    diag
    3      0.191D-01      0.109D-01      -129.91438744    154.931289    0.00000    0.57200   -0.62167    2    diag
    4      0.938D-02      0.158D-02      -129.91514844    154.656393    0.00000    0.58023   -0.56006    3    diag
    5      0.168D-02      0.524D-03      -129.91526713    154.742926    0.00000    0.58555   -0.56080    4    diag
    6      0.731D-03      0.156D-03      -129.91528684    154.727826    0.00000    0.58601   -0.55637    5    diag
    7      0.283D-03      0.796D-04      -129.91529294    154.729940    0.00000    0.58719   -0.55366    6    diag
    8      0.199D-03      0.268D-04      -129.91529360    154.729187    0.00000    0.58719   -0.55273    7    diag
    9      0.735D-04      0.491D-05      -129.91529363    154.729055    0.00000    0.58714   -0.55255    8    diag
   10      0.144D-04      0.105D-05      -129.91529363    154.729038    0.00000    0.58710   -0.55253    9    orth
   11      0.295D-05      0.205D-06      -129.91529363    154.729034    0.00000    0.58710   -0.55253    9    diag
   12      0.528D-06      0.449D-07      -129.91529363    154.729033    0.00000    0.58710   -0.55253    9    diag
   13      0.117D-06      0.117D-07      -129.91529363    154.729032    0.00000    0.58710   -0.55253    9    diag
   14      0.305D-07      0.215D-08      -129.91529363    154.729032    0.00000    0.58710   -0.55253    9    diag
   15      0.449D-08      0.560D-09      -129.91529363    154.729032    0.00000    0.58710   -0.55253    9    diag
   16      0.119D-08      0.148D-09      -129.91529363    154.729032    0.00000    0.58710   -0.55253    9    diag
   17      0.220D-09      0.443D-10      -129.91529363    154.729032    0.00000    0.58710   -0.55253    9    diag
   18      0.767D-10      0.156D-10      -129.91529363    154.729032    0.00000    0.58710   -0.55253    9    diag
   19      0.351D-10      0.312D-11      -129.91529363    154.729032    0.00000    0.58710   -0.55253    9    fixocc
   20      0.840D-11      0.591D-12      -129.91529363    154.729032    0.00000    0.58710   -0.55253    9    orth
   21      0.152D-11      0.163D-12      -129.91529363    154.729032    0.00000    0.58710   -0.55253    0    orth

 Final occupancy:   7   1

 !RHF STATE 1.1 Energy               -129.915293630841
 Nuclear energy                        30.06994795
 One-electron energy                 -237.34975771
 Two-electron energy                   77.36451613
 Virial quotient                       -0.99792862
 !RHF STATE 1.1 Dipole moment           0.00000000     0.58709525    -0.55252588
 Dipole moment /Debye                   0.00000000     1.49214954    -1.40428873

 Orbital energies:

         1.1          2.1          3.1          4.1          5.1          6.1          7.1          8.1          9.1
    -20.666381   -15.718685    -1.515452    -0.996919    -0.739096    -0.657484    -0.431508     0.143507     0.367303

         1.2          2.2          3.2
     -0.584837     0.080989     0.614688

 HOMO      7.1    -0.431508 =     -11.7419eV
 LUMO      2.2     0.080989 =       2.2038eV
 LUMO-HOMO         0.512497 =      13.9458eV


 **********************************************************************************************************************************
 DATASETS  * FILE   NREC   LENGTH (MB)   RECORD NAMES
              1      23       36.03       500      610      700      900      950      970     1000      129      960     1700   
                                          VAR    BASINP    GEOM    SYMINP    ZMAT    AOBASIS   BASIS     P2S    ABASIS    OPER   
                                         1101     1401     1411     1412     1650     1100     1400     1410     1200     1210   
                                          SR      EKINR    POTR     PVPR    MOLCAS      S      EKIN      POT      H0       H01  
                                         1300     1080     1600   
                                         ERIS     AOSYM     SMH  

              2       4        2.85       700     1000      520     2100   
                                         GEOM     BASIS   MCVARS     RHF  

 PROGRAMS   *        TOTAL        HF       INT
 CPU TIMES  *         0.83      0.19      0.54
 REAL TIME  *         1.37 SEC
 DISK USED  *        75.75 MB      
 **********************************************************************************************************************************


 PROGRAM * CCSD (Closed-shell coupled cluster)     Authors: C. Hampel, H.-J. Werner, 1991, M. Deegan, P.J. Knowles, 1992


 Convergence thresholds:  THRVAR = 1.00D-08  THRDEN = 1.00D-12

 CCSD(T)     terms to be evaluated (factor= 1.000)


 Number of core orbitals:           2 (   2   0 )
 Number of closed-shell orbitals:   6 (   5   1 )
 Number of external orbitals:      66 (  43  23 )

 Molecular orbitals read from record     2100.2  Type=RHF/CANONICAL (state 1.1)

 Number of N-1 electron functions:               6
 Number of N-2 electron functions:              21
 Number of singly external CSFs:               238
 Number of doubly external CSFs:             41002
 Total number of CSFs:                       41241

 Length of J-op  integral file:               0.00 MB
 Length of K-op  integral file:               0.25 MB
 Length of 3-ext integral record:             0.00 MB

 Memory could be reduced to 1.65 Mwords without degradation in triples

 Integral transformation finished. Total CPU:   0.02 sec, npass=  1  Memory used:   0.55 MW

 Reference energy:                   -129.91529363

 MP2 singlet pair energy:              -0.27524519
 MP2 triplet pair energy:              -0.16356850
 MP2 correlation energy:               -0.43881369
 MP2 total energy:                   -130.35410732

 SCS-MP2 correlation energy:           -0.43207018   (PS=  1.200000  PT=  0.333333)
 SCS-MP2 total energy:               -130.34736381

 ITER.      SQ.NORM     CORR.ENERGY   TOTAL ENERGY   ENERGY CHANGE        DEN1      VAR(S)    VAR(P)  DIIS     TIME  TIME/IT
   1      1.11992798    -0.44331900  -130.35861263    -0.00450532     0.01188288  0.31D-02  0.32D-02  1  1     0.08     0.05
   2      1.13111663    -0.44345231  -130.35874594    -0.00013331    -0.01262947  0.96D-04  0.52D-03  2  2     0.12     0.04
   3      1.13768525    -0.44385756  -130.35915120    -0.00040525    -0.00307029  0.50D-04  0.54D-04  3  3     0.16     0.04
   4      1.14066285    -0.44388606  -130.35917969    -0.00002849    -0.00100444  0.43D-05  0.95D-05  4  4     0.19     0.04
   5      1.14174210    -0.44391800  -130.35921163    -0.00003194    -0.00022362  0.14D-05  0.17D-05  5  5     0.22     0.04
   6      1.14212030    -0.44389962  -130.35919325     0.00001838    -0.00004364  0.94D-07  0.42D-06  6  6     0.25     0.04
   7      1.14220453    -0.44390205  -130.35919568    -0.00000243    -0.00000141  0.10D-07  0.94D-07  6  1     0.29     0.04
   8      1.14223514    -0.44390188  -130.35919551     0.00000017     0.00000204  0.47D-08  0.12D-07  6  2     0.33     0.04
   9      1.14224333    -0.44390167  -130.35919530     0.00000020    -0.00000238  0.27D-08  0.13D-08  6  3     0.36     0.04
  10      1.14224198    -0.44390220  -130.35919583    -0.00000053     0.00000069  0.51D-09  0.23D-09  6  4     0.39     0.04
  11      1.14224026    -0.44390226  -130.35919589    -0.00000006     0.00000014  0.15D-09  0.24D-10  6  5     0.43     0.04
  12      1.14223884    -0.44390245  -130.35919608    -0.00000019     0.00000045  0.15D-10  0.77D-11  6  6     0.46     0.04
  13      1.14223822    -0.44390246  -130.35919609    -0.00000001     0.00000013  0.64D-11  0.13D-11  6  1     0.49     0.04
  14      1.14223782    -0.44390248  -130.35919611    -0.00000002     0.00000008  0.92D-12  0.45D-12  6  2     0.53     0.04
  15      1.14223766    -0.44390248  -130.35919611    -0.00000000     0.00000002  0.24D-12  0.14D-12  6  3     0.56     0.04
  16      1.14223754    -0.44390249  -130.35919612    -0.00000000     0.00000002  0.82D-14  0.36D-13  6  1     0.60     0.04
  17      1.14223752    -0.44390249  -130.35919612     0.00000000    -0.00000000  0.26D-14  0.24D-14  6  4     0.64     0.04
  18      1.14223752    -0.44390249  -130.35919612    -0.00000000     0.00000000  0.69D-15  0.38D-15  6  5     0.68     0.04
  19      1.14223752    -0.44390249  -130.35919612     0.00000000    -0.00000000  0.14D-15  0.76D-16  6  6     0.70     0.04
  20      1.14223752    -0.44390249  -130.35919612    -0.00000000     0.00000000  0.23D-16  0.20D-16  6  2     0.74     0.04
  21      1.14223751    -0.44390249  -130.35919612    -0.00000000     0.00000000  0.66D-18  0.14D-17  6  4     0.78     0.04
  22      1.14223751    -0.44390249  -130.35919612    -0.00000000     0.00000000  0.86D-19  0.15D-18  6  3     0.82     0.04
  23      1.14223751    -0.44390249  -130.35919612    -0.00000000     0.00000000  0.82D-20  0.16D-19  6  1     0.86     0.04
  24      1.14223751    -0.44390249  -130.35919612     0.00000000     0.00000000  0.41D-20  0.22D-20  6  6     0.90     0.04
  25      1.14223751    -0.44390249  -130.35919612     0.00000000     0.00000000  0.47D-21  0.49D-21  6  5     0.92     0.04

 Norm of t1 vector:      0.07720683      S-energy:    -0.00000000      T1 diagnostic:  0.01575978
                                                                       D1 diagnostic:  0.04441347

 Doubles amplitudes (print threshold =  0.500E-01):

         I         J         SYM. A    SYM. B    A         B      T(IJ, AB)

         6         6         2         2         1         1     -0.14799028


 Total CPU time for triples:      0.22 sec


 RESULTS
 =======

  Reference energy                   -129.915293630841
  CCSD singlet pair energy             -0.304693935616
  CCSD triplet pair energy             -0.139208551863
  CCSD correlation energy              -0.443902487479

  Triples (T) contribution             -0.020218212446
  Total correlation energy             -0.464120699925

  CCSD total energy                  -130.359196118320
  CCSD[T] energy                     -130.380493731034
  CCSD-T energy                      -130.379002257385
 !CCSD(T) total energy               -130.379414330766

 Timing summary (sec):

 STEP                 CPU(USER)    SYS     CPU(TOT)    WALL
 Transformation          0.03      0.01      0.04      0.06
 CCSD iterations         0.89      0.10      0.99      0.99
 Triples                 0.22      0.02      0.24      0.23

 Program statistics:

 Available memory in ccsd:               994999756
 Min. memory needed in ccsd:                154850
 Max. memory used in ccsd:                  184802
 Max. memory used in cckext:                238416 (25 integral passes)



 **********************************************************************************************************************************
 DATASETS  * FILE   NREC   LENGTH (MB)   RECORD NAMES
              1      24       40.41       500      610      700      900      950      970     1000      129      960     1700   
                                          VAR    BASINP    GEOM    SYMINP    ZMAT    AOBASIS   BASIS     P2S    ABASIS    OPER   
                                         1101     1401     1411     1412     1650     1100     1400     1410     1200     1210   
                                          SR      EKINR    POTR     PVPR    MOLCAS      S      EKIN      POT      H0       H01  
                                         1300     1080     1600     1380   
                                         ERIS     AOSYM     SMH     JKOP   

              2       4        2.85       700     1000      520     2100   
                                         GEOM     BASIS   MCVARS     RHF  

 PROGRAMS   *        TOTAL   CCSD(T)        HF       INT
 CPU TIMES  *         1.99      1.16      0.19      0.54
 REAL TIME  *         2.69 SEC
 DISK USED  *        75.75 MB      
 **********************************************************************************************************************************

 CCSD(T)/cc-pVTZ-DK energy=   -130.379414330766

        CCSD(T)         HF-SCF  
   -130.37941433   -129.91529363
 **********************************************************************************************************************************
 Molpro calculation terminated
 Variable memory released
