
 Primary working directories    : /tmp/r2666/282724.maple
 Secondary working directories  : /tmp/r2666/282724.maple
 Wavefunction directory         : /ddn/home4/r2666/wfu/
 Main file repository           : /tmp/r2666/282724.maple/

 SHA1      : d5ffa45e93fdbca01ffc919aa182cfdae0147319
 NAME      : 2015.1.35
 ARCHNAME  : linux/x86_64
 FC        : /opt/intel/composer_xe_2015.1.133/bin/intel64/ifort
 BLASLIB   : -Wl,-_start-group /opt/intel/mkl/lib/intel64/libmkl_intel_ilp64.a /opt/intel/mkl/lib/intel64/libmkl_intel_thread.a /opt/intel/mkl/lib/intel64/libmkl_core.a -Wl,-_end-group
 id        : olemiss

 Nodes     nprocs
 cn053        1

 Using customized tuning parameters: mindgm=1; mindgv=20; mindgc=4; mindgr=1; noblas=0; minvec=7
 default implementation of scratch files=df  

 ***,hno CCSD(T)/TZ-F12 QFF
 memory, 995, m;
 gthresh,energy=1.d-12,zero=1.d-22,oneint=1.d-22,twoint=1.d-22;
 gthresh,optgrad=1.d-8,optstep=1.d-8;
 nocompress;
 geomtyp=xyz
 bohr
 geometry={
 3
        105       105
 H        0.0000000000        1.6724194370       -1.9385040111
 N        0.0000000000       -0.1619883275       -1.1479508713
 O        0.0000000000        0.0313366805        1.1358652913
 }
 
 basis=vtz-dk
 dkroll=1
   {hf,maxit=500;accu,20;}
 {ccsd(t),nocheck,maxit=250;orbital,IGNORE_ERROR;}

 Variables initialized (889), CPU time= 0.00 sec
 Commands  initialized (702), CPU time= 0.00 sec, 572 directives.
 Default parameters read. Elapsed time= 0.07 sec

 Checking input...
 Passed
1


                                         ***  PROGRAM SYSTEM MOLPRO  ***
                                       Copyright, TTI GmbH Stuttgart, 2015
                                    Version 2015.1 linked Jul  9 2018 13:16:40


 **********************************************************************************************************************************
 LABEL *   hno CCSD(T)/TZ-F12 QFF                                                        
  64 bit serial version                                                                  DATE: 04-Mar-20          TIME: 13:51:17  
 **********************************************************************************************************************************

 SHA1:             d5ffa45e93fdbca01ffc919aa182cfdae0147319
 **********************************************************************************************************************************

 THRESHOLDS:

 ZERO    =  1.00D-22  ONEINT  =  1.00D-22  TWOINT  =  1.00D-22  PREFAC  =  1.00D-14  LOCALI  =  1.00D-09  EORDER  =  1.00D-04
 ENERGY  =  1.00D-12  ETEST   =  0.00D+00  EDENS   =  0.00D+00  THRDEDEF=  1.00D-06  GRADIENT=  1.00D-02  STEP    =  1.00D-03
 ORBITAL =  1.00D-05  CIVEC   =  1.00D-05  COEFF   =  1.00D-04  PRINTCI =  5.00D-02  PUNCHCI =  9.90D+01  OPTGRAD =  3.00D-04
 OPTENERG=  1.00D-06  OPTSTEP =  3.00D-04  THRGRAD =  1.00D-10  COMPRESS=  1.00D-11  VARMIN  =  1.00D-07  VARMAX  =  1.00D-03
 THRDOUB =  0.00D+00  THRDIV  =  1.00D-05  THRRED  =  1.00D-07  THRPSP  =  1.00D+00  THRDC   =  1.00D-10  THRCS   =  1.00D-10
 THRNRM  =  1.00D-08  THREQ   =  0.00D+00  THRDE   =  1.00D+00  THRREF  =  1.00D-05  SPARFAC =  1.00D+00  THRDLP  =  1.00D-07
 THRDIA  =  1.00D-10  THRDLS  =  1.00D-07  THRGPS  =  0.00D+00  THRKEX  =  0.00D+00  THRDIS  =  2.00D-01  THRVAR  =  1.00D-10
 THRLOC  =  1.00D-06  THRGAP  =  1.00D-06  THRLOCT = -1.00D+00  THRGAPT = -1.00D+00  THRORB  =  1.00D-06  THRMLTP =  0.00D+00
 THRCPQCI=  1.00D-10  KEXTA   =  0.00D+00  THRCOARS=  0.00D+00  SYMTOL  =  1.00D-06  GRADTOL =  1.00D-06  THROVL  =  1.00D-08
 THRORTH =  1.00D-08  GRID    =  1.00D-06  GRIDMAX =  1.00D-03  DTMAX   =  0.00D+00  THROCCDE=  1.00D-01  THROCCDE=  1.00D-01



 THRESHOLDS:

 ZERO    =  1.00D-22  ONEINT  =  1.00D-22  TWOINT  =  1.00D-22  PREFAC  =  1.00D-14  LOCALI  =  1.00D-09  EORDER  =  1.00D-04
 ENERGY  =  1.00D-12  ETEST   =  0.00D+00  EDENS   =  0.00D+00  THRDEDEF=  1.00D-06  GRADIENT=  1.00D-02  STEP    =  1.00D-03
 ORBITAL =  1.00D-05  CIVEC   =  1.00D-05  COEFF   =  1.00D-04  PRINTCI =  5.00D-02  PUNCHCI =  9.90D+01  OPTGRAD =  1.00D-08
 OPTENERG=  1.00D-06  OPTSTEP =  1.00D-08  THRGRAD =  1.00D-10  COMPRESS=  1.00D-11  VARMIN  =  1.00D-07  VARMAX  =  1.00D-03
 THRDOUB =  0.00D+00  THRDIV  =  1.00D-05  THRRED  =  1.00D-07  THRPSP  =  1.00D+00  THRDC   =  1.00D-10  THRCS   =  1.00D-10
 THRNRM  =  1.00D-08  THREQ   =  0.00D+00  THRDE   =  1.00D+00  THRREF  =  1.00D-05  SPARFAC =  1.00D+00  THRDLP  =  1.00D-07
 THRDIA  =  1.00D-10  THRDLS  =  1.00D-07  THRGPS  =  0.00D+00  THRKEX  =  0.00D+00  THRDIS  =  2.00D-01  THRVAR  =  1.00D-10
 THRLOC  =  1.00D-06  THRGAP  =  1.00D-06  THRLOCT = -1.00D+00  THRGAPT = -1.00D+00  THRORB  =  1.00D-06  THRMLTP =  0.00D+00
 THRCPQCI=  1.00D-10  KEXTA   =  0.00D+00  THRCOARS=  0.00D+00  SYMTOL  =  1.00D-06  GRADTOL =  1.00D-06  THROVL  =  1.00D-08
 THRORTH =  1.00D-08  GRID    =  1.00D-06  GRIDMAX =  1.00D-03  DTMAX   =  0.00D+00  THROCCDE=  1.00D-01  THROCCDE=  1.00D-01



 Input parameters for SORTINT:

 COMPRESS =    0.000000
 C_FINAL  =    1.000000
 DEBUG    =   -1.000000
 C_SORT1  =    0.000000
 C_SEWARD =    0.000000
 THRESH   =    0.000000
 IO       =  molpro                                                          
 SPRI     =    0.000000
 SETTING GEOMTYP        =    XYZ
 ZUNIT=BOHR
 

 Variable memory set to  995000000 words,  buffer space   230000 words

 SETTING BASIS          =    VTZ-DK
 SETTING DKROLL         =         1.00000000                                  


 Recomputing integrals since basis changed


 Using spherical harmonics

 Library entry H      S cc-pVTZ-DK           selected for orbital group  1
 Library entry H      P cc-pVTZ-DK           selected for orbital group  1
 Library entry H      D cc-pVTZ-DK           selected for orbital group  1
 Library entry N      S cc-pVTZ-DK           selected for orbital group  2
 Library entry N      P cc-pVTZ-DK           selected for orbital group  2
 Library entry N      D cc-pVTZ-DK           selected for orbital group  2
 Library entry N      F cc-pVTZ-DK           selected for orbital group  2
 Library entry O      S cc-pVTZ-DK           selected for orbital group  3
 Library entry O      P cc-pVTZ-DK           selected for orbital group  3
 Library entry O      D cc-pVTZ-DK           selected for orbital group  3
 Library entry O      F cc-pVTZ-DK           selected for orbital group  3


 PROGRAM * SEWARD (Integral evaluation for generally contracted gaussian basis sets)     Author: Roland Lindh, 1990

 Geometry written to block  1 of record 700


 Point group  Cs  



 ATOMIC COORDINATES

 NR  ATOM    CHARGE       X              Y              Z

   1  H       1.00    0.000000000    1.672419437   -1.938504011
   2  N       7.00    0.000000000   -0.161988328   -1.147950871
   3  O       8.00    0.000000000    0.031336680    1.135865291

 Bond lengths in Bohr (Angstrom)

 1-2  1.997504972  2-3  2.291984036
     ( 1.057034110)     ( 1.212865720)

 Bond angles

  1-2-3  108.47547239

 NUCLEAR CHARGE:                   16
 NUMBER OF PRIMITIVE AOS:         111
 NUMBER OF SYMMETRY AOS:          100
 NUMBER OF CONTRACTIONS:           74   (  50A'  +  24A"  )
 NUMBER OF CORE ORBITALS:           2   (   2A'  +   0A"  )
 NUMBER OF VALENCE ORBITALS:        9   (   7A'  +   2A"  )


 NUCLEAR REPULSION ENERGY   30.23293485

 One-electron integrals computed with SEWARD

 2nd-order Douglas-Kroll-Hess method activated. Optimal DKH parametrization is used.

 Computing Douglas-Kroll / X2C integrals


        1874283. INTEGRALS WRITTEN OUT IN     458 BLOCKS ON RECORD 1290 OF FILE 1


 NUMBER OF SORTED TWO-ELECTRON INTEGRALS:    2006100.     BUFFER LENGTH:  32768
 NUMBER OF SEGMENTS:   1  SEGMENT LENGTH:    2006100      RECORD LENGTH: 524288

 Memory used in sort:       2.56 MW

 SORT1 READ     1874283. AND WROTE     1914195. INTEGRALS IN      6 RECORDS. CPU TIME:     0.07 SEC, REAL TIME:     0.07 SEC
 SORT2 READ     1914195. AND WROTE     2006100. INTEGRALS IN      1 RECORDS. CPU TIME:     0.05 SEC, REAL TIME:     0.07 SEC

 FILE SIZES:   FILE 1:    50.2 MBYTE,  FILE 4:    25.2 MBYTE,   TOTAL:     75.4 MBYTE

 OPERATOR DM      FOR CENTER  0  COORDINATES:    0.000000    0.000000    0.000000

 Eigenvalues of metric

         1 0.248E-02 0.401E-02 0.423E-02 0.849E-02 0.131E-01 0.331E-01 0.429E-01 0.464E-01
         2 0.346E-01 0.466E-01 0.102E+00 0.113E+00 0.237E+00 0.345E+00 0.397E+00 0.452E+00


 **********************************************************************************************************************************
 DATASETS  * FILE   NREC   LENGTH (MB)   RECORD NAMES
              1      23       36.03       500      610      700      900      950      970     1000      129      960     1700   
                                          VAR    BASINP    GEOM    SYMINP    ZMAT    AOBASIS   BASIS     P2S    ABASIS    OPER   
                                         1101     1401     1411     1412     1650     1100     1400     1410     1200     1210   
                                          SR      EKINR    POTR     PVPR    MOLCAS      S      EKIN      POT      H0       H01  
                                         1300     1080     1600   
                                         ERIS     AOSYM     SMH  

 PROGRAMS   *        TOTAL       INT
 CPU TIMES  *         0.69      0.60
 REAL TIME  *         1.45 SEC
 DISK USED  *        75.75 MB      
 **********************************************************************************************************************************


 PROGRAM * RHF-SCF (CLOSED SHELL)       Authors: W. Meyer, H.-J. Werner


 NUMBER OF ELECTRONS:       8+    8-
 CONVERGENCE THRESHOLDS:    1.00E-10 (Density)    1.00E-13 (Energy)
 MAX. NUMBER OF ITERATIONS:      500
 INTERPOLATION TYPE:            DIIS
 INTERPOLATION STEPS:              2 (START)      1 (STEP)
 LEVEL SHIFTS:                  0.00 (CLOSED)  0.00 (OPEN) 



 Orbital guess generated from atomic densities. Full valence occupancy:    9   2

 Molecular orbital dump at record        2100.2

 Initial occupancy:   7   1

 ITERATION    DDIFF          GRAD             ENERGY        2-EL.EN.            DIPOLE MOMENTS         DIIS   ORB.
    1      0.000D+00      0.000D+00      -129.86572831    153.977019    0.00000    0.59214   -1.05740    0    start
    2      0.000D+00      0.137D-01      -129.89227837    155.084623    0.00000    0.61738   -0.21689    1    diag
    3      0.188D-01      0.106D-01      -129.91573674    155.223919    0.00000    0.56483   -0.60819    2    diag
    4      0.918D-02      0.156D-02      -129.91648288    154.954155    0.00000    0.57300   -0.54805    3    diag
    5      0.167D-02      0.519D-03      -129.91659996    155.040662    0.00000    0.57846   -0.54902    4    diag
    6      0.725D-03      0.155D-03      -129.91661944    155.025564    0.00000    0.57897   -0.54473    5    diag
    7      0.282D-03      0.782D-04      -129.91662525    155.027824    0.00000    0.58020   -0.54215    6    diag
    8      0.196D-03      0.256D-04      -129.91662583    155.027111    0.00000    0.58021   -0.54129    7    diag
    9      0.685D-04      0.468D-05      -129.91662586    155.026987    0.00000    0.58016   -0.54113    8    diag
   10      0.134D-04      0.102D-05      -129.91662586    155.026969    0.00000    0.58012   -0.54111    9    orth
   11      0.288D-05      0.200D-06      -129.91662586    155.026965    0.00000    0.58012   -0.54110    9    diag
   12      0.524D-06      0.424D-07      -129.91662586    155.026963    0.00000    0.58011   -0.54110    9    diag
   13      0.115D-06      0.107D-07      -129.91662586    155.026963    0.00000    0.58011   -0.54110    9    diag
   14      0.293D-07      0.193D-08      -129.91662586    155.026963    0.00000    0.58011   -0.54110    9    diag
   15      0.449D-08      0.489D-09      -129.91662586    155.026963    0.00000    0.58011   -0.54110    9    diag
   16      0.108D-08      0.114D-09      -129.91662586    155.026963    0.00000    0.58011   -0.54110    9    diag
   17      0.172D-09      0.309D-10      -129.91662586    155.026963    0.00000    0.58011   -0.54110    9    diag
   18      0.484D-10      0.990D-11      -129.91662586    155.026963    0.00000    0.58011   -0.54110    9    diag
   19      0.197D-10      0.187D-11      -129.91662586    155.026963    0.00000    0.58011   -0.54110    9    fixocc
   20      0.424D-11      0.242D-12      -129.91662586    155.026963    0.00000    0.58011   -0.54110    9    orth
   21      0.585D-12      0.611D-13      -129.91662586    155.026963    0.00000    0.58011   -0.54110    0    orth

 Final occupancy:   7   1

 !RHF STATE 1.1 Energy               -129.916625858433
 Nuclear energy                        30.23293485
 One-electron energy                 -237.66304224
 Two-electron energy                   77.51348152
 Virial quotient                       -0.99776939
 !RHF STATE 1.1 Dipole moment           0.00000000     0.58011351    -0.54110054
 Dipole moment /Debye                   0.00000000     1.47440490    -1.37525030

 Orbital energies:

         1.1          2.1          3.1          4.1          5.1          6.1          7.1          8.1          9.1
    -20.665685   -15.718263    -1.523193    -0.992227    -0.740978    -0.660380    -0.427747     0.143359     0.368938

         1.2          2.2          3.2
     -0.589566     0.084629     0.613611

 HOMO      7.1    -0.427747 =     -11.6396eV
 LUMO      2.2     0.084629 =       2.3029eV
 LUMO-HOMO         0.512376 =      13.9425eV


 **********************************************************************************************************************************
 DATASETS  * FILE   NREC   LENGTH (MB)   RECORD NAMES
              1      23       36.03       500      610      700      900      950      970     1000      129      960     1700   
                                          VAR    BASINP    GEOM    SYMINP    ZMAT    AOBASIS   BASIS     P2S    ABASIS    OPER   
                                         1101     1401     1411     1412     1650     1100     1400     1410     1200     1210   
                                          SR      EKINR    POTR     PVPR    MOLCAS      S      EKIN      POT      H0       H01  
                                         1300     1080     1600   
                                         ERIS     AOSYM     SMH  

              2       4        2.85       700     1000      520     2100   
                                         GEOM     BASIS   MCVARS     RHF  

 PROGRAMS   *        TOTAL        HF       INT
 CPU TIMES  *         0.99      0.30      0.60
 REAL TIME  *         1.81 SEC
 DISK USED  *        75.75 MB      
 **********************************************************************************************************************************


 PROGRAM * CCSD (Closed-shell coupled cluster)     Authors: C. Hampel, H.-J. Werner, 1991, M. Deegan, P.J. Knowles, 1992


 Convergence thresholds:  THRVAR = 1.00D-08  THRDEN = 1.00D-12

 CCSD(T)     terms to be evaluated (factor= 1.000)


 Number of core orbitals:           2 (   2   0 )
 Number of closed-shell orbitals:   6 (   5   1 )
 Number of external orbitals:      66 (  43  23 )

 Molecular orbitals read from record     2100.2  Type=RHF/CANONICAL (state 1.1)

 Number of N-1 electron functions:               6
 Number of N-2 electron functions:              21
 Number of singly external CSFs:               238
 Number of doubly external CSFs:             41002
 Total number of CSFs:                       41241

 Length of J-op  integral file:               0.00 MB
 Length of K-op  integral file:               0.25 MB
 Length of 3-ext integral record:             0.00 MB

 Memory could be reduced to 1.65 Mwords without degradation in triples

 Integral transformation finished. Total CPU:   0.05 sec, npass=  1  Memory used:   0.55 MW

 Reference energy:                   -129.91662586

 MP2 singlet pair energy:              -0.27440621
 MP2 triplet pair energy:              -0.16299692
 MP2 correlation energy:               -0.43740313
 MP2 total energy:                   -130.35402899

 SCS-MP2 correlation energy:           -0.43070776   (PS=  1.200000  PT=  0.333333)
 SCS-MP2 total energy:               -130.34733362

 ITER.      SQ.NORM     CORR.ENERGY   TOTAL ENERGY   ENERGY CHANGE        DEN1      VAR(S)    VAR(P)  DIIS     TIME  TIME/IT
   1      1.11917232    -0.44227733  -130.35890319    -0.00487420     0.01117659  0.30D-02  0.31D-02  1  1     0.10     0.05
   2      1.13017630    -0.44248579  -130.35911165    -0.00020846    -0.01243716  0.91D-04  0.51D-03  2  2     0.15     0.06
   3      1.13659714    -0.44288311  -130.35950897    -0.00039732    -0.00302436  0.49D-04  0.52D-04  3  3     0.20     0.06
   4      1.13947460    -0.44290917  -130.35953503    -0.00002605    -0.00097879  0.42D-05  0.92D-05  4  4     0.25     0.06
   5      1.14051223    -0.44293994  -130.35956580    -0.00003077    -0.00021512  0.14D-05  0.17D-05  5  5     0.30     0.06
   6      1.14088259    -0.44292262  -130.35954847     0.00001732    -0.00004223  0.10D-06  0.41D-06  6  6     0.36     0.06
   7      1.14096946    -0.44292464  -130.35955050    -0.00000202    -0.00000199  0.12D-07  0.89D-07  6  1     0.42     0.06
   8      1.14100063    -0.44292458  -130.35955044     0.00000005     0.00000184  0.44D-08  0.11D-07  6  2     0.47     0.06
   9      1.14100885    -0.44292434  -130.35955020     0.00000024    -0.00000228  0.26D-08  0.13D-08  6  3     0.53     0.06
  10      1.14100761    -0.44292487  -130.35955073    -0.00000053     0.00000061  0.51D-09  0.22D-09  6  4     0.59     0.06
  11      1.14100583    -0.44292493  -130.35955079    -0.00000006     0.00000019  0.16D-09  0.24D-10  6  5     0.64     0.06
  12      1.14100439    -0.44292511  -130.35955097    -0.00000019     0.00000045  0.16D-10  0.80D-11  6  6     0.70     0.06
  13      1.14100375    -0.44292512  -130.35955098    -0.00000001     0.00000013  0.69D-11  0.13D-11  6  1     0.76     0.06
  14      1.14100334    -0.44292514  -130.35955100    -0.00000002     0.00000008  0.99D-12  0.45D-12  6  2     0.81     0.06
  15      1.14100319    -0.44292515  -130.35955100    -0.00000000     0.00000001  0.26D-12  0.14D-12  6  3     0.86     0.06
  16      1.14100307    -0.44292515  -130.35955101    -0.00000000     0.00000002  0.79D-14  0.38D-13  6  1     0.92     0.06
  17      1.14100305    -0.44292515  -130.35955101     0.00000000    -0.00000000  0.30D-14  0.26D-14  6  4     0.97     0.06
  18      1.14100304    -0.44292515  -130.35955101    -0.00000000     0.00000000  0.75D-15  0.45D-15  6  5     1.03     0.06
  19      1.14100304    -0.44292515  -130.35955101     0.00000000    -0.00000000  0.14D-15  0.86D-16  6  6     1.09     0.06
  20      1.14100304    -0.44292515  -130.35955101    -0.00000000     0.00000000  0.22D-16  0.21D-16  6  2     1.14     0.06
  21      1.14100304    -0.44292515  -130.35955101    -0.00000000     0.00000000  0.60D-18  0.15D-17  6  4     1.19     0.06
  22      1.14100304    -0.44292515  -130.35955101    -0.00000000     0.00000000  0.93D-19  0.15D-18  6  3     1.25     0.06
  23      1.14100304    -0.44292515  -130.35955101    -0.00000000     0.00000000  0.84D-20  0.15D-19  6  1     1.31     0.06
  24      1.14100304    -0.44292515  -130.35955101     0.00000000     0.00000000  0.44D-20  0.20D-20  6  6     1.37     0.06
  25      1.14100304    -0.44292515  -130.35955101     0.00000000    -0.00000000  0.27D-21  0.46D-21  6  4     1.42     0.06

 Norm of t1 vector:      0.07619923      S-energy:    -0.00000000      T1 diagnostic:  0.01555410
                                                                       D1 diagnostic:  0.04313660

 Doubles amplitudes (print threshold =  0.500E-01):

         I         J         SYM. A    SYM. B    A         B      T(IJ, AB)

         6         6         2         2         1         1     -0.14506730


 Total CPU time for triples:      0.42 sec


 RESULTS
 =======

  Reference energy                   -129.916625858433
  CCSD singlet pair energy             -0.303837630207
  CCSD triplet pair energy             -0.139087519616
  CCSD correlation energy              -0.442925149824

  Triples (T) contribution             -0.019976284247
  Total correlation energy             -0.462901434071

  CCSD total energy                  -130.359551008257
  CCSD[T] energy                     -130.380574951076
  CCSD-T energy                      -130.379121240546
 !CCSD(T) total energy               -130.379527292504

 Timing summary (sec):

 STEP                 CPU(USER)    SYS     CPU(TOT)    WALL
 Transformation          0.05      0.01      0.06      0.06
 CCSD iterations         1.37      0.16      1.53      1.55
 Triples                 0.42      0.01      0.43      0.42

 Program statistics:

 Available memory in ccsd:               994999756
 Min. memory needed in ccsd:                154850
 Max. memory used in ccsd:                  184802
 Max. memory used in cckext:                238416 (25 integral passes)



 **********************************************************************************************************************************
 DATASETS  * FILE   NREC   LENGTH (MB)   RECORD NAMES
              1      24       40.41       500      610      700      900      950      970     1000      129      960     1700   
                                          VAR    BASINP    GEOM    SYMINP    ZMAT    AOBASIS   BASIS     P2S    ABASIS    OPER   
                                         1101     1401     1411     1412     1650     1100     1400     1410     1200     1210   
                                          SR      EKINR    POTR     PVPR    MOLCAS      S      EKIN      POT      H0       H01  
                                         1300     1080     1600     1380   
                                         ERIS     AOSYM     SMH     JKOP   

              2       4        2.85       700     1000      520     2100   
                                         GEOM     BASIS   MCVARS     RHF  

 PROGRAMS   *        TOTAL   CCSD(T)        HF       INT
 CPU TIMES  *         2.87      1.88      0.30      0.60
 REAL TIME  *         3.88 SEC
 DISK USED  *        75.75 MB      
 **********************************************************************************************************************************

 CCSD(T)/cc-pVTZ-DK energy=   -130.379527292504

        CCSD(T)         HF-SCF  
   -130.37952729   -129.91662586
 **********************************************************************************************************************************
 Molpro calculation terminated
 Variable memory released
