
 Primary working directories    : /tmp/r2666/282696.maple
 Secondary working directories  : /tmp/r2666/282696.maple
 Wavefunction directory         : /ddn/home4/r2666/wfu/
 Main file repository           : /tmp/r2666/282696.maple/

 SHA1      : d5ffa45e93fdbca01ffc919aa182cfdae0147319
 NAME      : 2015.1.35
 ARCHNAME  : linux/x86_64
 FC        : /opt/intel/composer_xe_2015.1.133/bin/intel64/ifort
 BLASLIB   : -Wl,-_start-group /opt/intel/mkl/lib/intel64/libmkl_intel_ilp64.a /opt/intel/mkl/lib/intel64/libmkl_intel_thread.a /opt/intel/mkl/lib/intel64/libmkl_core.a -Wl,-_end-group
 id        : olemiss

 Nodes     nprocs
 cn076        1

 Using customized tuning parameters: mindgm=1; mindgv=20; mindgc=4; mindgr=1; noblas=0; minvec=7
 default implementation of scratch files=df  

 ***,hno CCSD(T)/TZ-F12 QFF
 memory, 995, m;
 gthresh,energy=1.d-12,zero=1.d-22,oneint=1.d-22,twoint=1.d-22;
 gthresh,optgrad=1.d-8,optstep=1.d-8;
 nocompress;
 geomtyp=xyz
 bohr
 geometry={
 3
         77        77
 H        0.0000000000        1.6680117044       -1.9263660374
 N        0.0000000000       -0.1656638527       -1.1582501799
 O        0.0000000000        0.0394199383        1.1340266263
 }
 
 basis=vtz-dk
 dkroll=1
   {hf,maxit=500;accu,20;}
 {ccsd(t),nocheck,maxit=250;orbital,IGNORE_ERROR;}

 Variables initialized (889), CPU time= 0.01 sec
 Commands  initialized (702), CPU time= 0.01 sec, 572 directives.
 Default parameters read. Elapsed time= 0.05 sec

 Checking input...
 Passed
1


                                         ***  PROGRAM SYSTEM MOLPRO  ***
                                       Copyright, TTI GmbH Stuttgart, 2015
                                    Version 2015.1 linked Jul  9 2018 13:16:40


 **********************************************************************************************************************************
 LABEL *   hno CCSD(T)/TZ-F12 QFF                                                        
  64 bit serial version                                                                  DATE: 04-Mar-20          TIME: 13:51:13  
 **********************************************************************************************************************************

 SHA1:             d5ffa45e93fdbca01ffc919aa182cfdae0147319
 **********************************************************************************************************************************

 THRESHOLDS:

 ZERO    =  1.00D-22  ONEINT  =  1.00D-22  TWOINT  =  1.00D-22  PREFAC  =  1.00D-14  LOCALI  =  1.00D-09  EORDER  =  1.00D-04
 ENERGY  =  1.00D-12  ETEST   =  0.00D+00  EDENS   =  0.00D+00  THRDEDEF=  1.00D-06  GRADIENT=  1.00D-02  STEP    =  1.00D-03
 ORBITAL =  1.00D-05  CIVEC   =  1.00D-05  COEFF   =  1.00D-04  PRINTCI =  5.00D-02  PUNCHCI =  9.90D+01  OPTGRAD =  3.00D-04
 OPTENERG=  1.00D-06  OPTSTEP =  3.00D-04  THRGRAD =  1.00D-10  COMPRESS=  1.00D-11  VARMIN  =  1.00D-07  VARMAX  =  1.00D-03
 THRDOUB =  0.00D+00  THRDIV  =  1.00D-05  THRRED  =  1.00D-07  THRPSP  =  1.00D+00  THRDC   =  1.00D-10  THRCS   =  1.00D-10
 THRNRM  =  1.00D-08  THREQ   =  0.00D+00  THRDE   =  1.00D+00  THRREF  =  1.00D-05  SPARFAC =  1.00D+00  THRDLP  =  1.00D-07
 THRDIA  =  1.00D-10  THRDLS  =  1.00D-07  THRGPS  =  0.00D+00  THRKEX  =  0.00D+00  THRDIS  =  2.00D-01  THRVAR  =  1.00D-10
 THRLOC  =  1.00D-06  THRGAP  =  1.00D-06  THRLOCT = -1.00D+00  THRGAPT = -1.00D+00  THRORB  =  1.00D-06  THRMLTP =  0.00D+00
 THRCPQCI=  1.00D-10  KEXTA   =  0.00D+00  THRCOARS=  0.00D+00  SYMTOL  =  1.00D-06  GRADTOL =  1.00D-06  THROVL  =  1.00D-08
 THRORTH =  1.00D-08  GRID    =  1.00D-06  GRIDMAX =  1.00D-03  DTMAX   =  0.00D+00  THROCCDE=  1.00D-01  THROCCDE=  1.00D-01



 THRESHOLDS:

 ZERO    =  1.00D-22  ONEINT  =  1.00D-22  TWOINT  =  1.00D-22  PREFAC  =  1.00D-14  LOCALI  =  1.00D-09  EORDER  =  1.00D-04
 ENERGY  =  1.00D-12  ETEST   =  0.00D+00  EDENS   =  0.00D+00  THRDEDEF=  1.00D-06  GRADIENT=  1.00D-02  STEP    =  1.00D-03
 ORBITAL =  1.00D-05  CIVEC   =  1.00D-05  COEFF   =  1.00D-04  PRINTCI =  5.00D-02  PUNCHCI =  9.90D+01  OPTGRAD =  1.00D-08
 OPTENERG=  1.00D-06  OPTSTEP =  1.00D-08  THRGRAD =  1.00D-10  COMPRESS=  1.00D-11  VARMIN  =  1.00D-07  VARMAX  =  1.00D-03
 THRDOUB =  0.00D+00  THRDIV  =  1.00D-05  THRRED  =  1.00D-07  THRPSP  =  1.00D+00  THRDC   =  1.00D-10  THRCS   =  1.00D-10
 THRNRM  =  1.00D-08  THREQ   =  0.00D+00  THRDE   =  1.00D+00  THRREF  =  1.00D-05  SPARFAC =  1.00D+00  THRDLP  =  1.00D-07
 THRDIA  =  1.00D-10  THRDLS  =  1.00D-07  THRGPS  =  0.00D+00  THRKEX  =  0.00D+00  THRDIS  =  2.00D-01  THRVAR  =  1.00D-10
 THRLOC  =  1.00D-06  THRGAP  =  1.00D-06  THRLOCT = -1.00D+00  THRGAPT = -1.00D+00  THRORB  =  1.00D-06  THRMLTP =  0.00D+00
 THRCPQCI=  1.00D-10  KEXTA   =  0.00D+00  THRCOARS=  0.00D+00  SYMTOL  =  1.00D-06  GRADTOL =  1.00D-06  THROVL  =  1.00D-08
 THRORTH =  1.00D-08  GRID    =  1.00D-06  GRIDMAX =  1.00D-03  DTMAX   =  0.00D+00  THROCCDE=  1.00D-01  THROCCDE=  1.00D-01



 Input parameters for SORTINT:

 COMPRESS =    0.000000
 C_FINAL  =    1.000000
 DEBUG    =   -1.000000
 C_SORT1  =    0.000000
 C_SEWARD =    0.000000
 THRESH   =    0.000000
 IO       =  molpro                                                          
 SPRI     =    0.000000
 SETTING GEOMTYP        =    XYZ
 ZUNIT=BOHR
 

 Variable memory set to  995000000 words,  buffer space   230000 words

 SETTING BASIS          =    VTZ-DK
 SETTING DKROLL         =         1.00000000                                  


 Recomputing integrals since basis changed


 Using spherical harmonics

 Library entry H      S cc-pVTZ-DK           selected for orbital group  1
 Library entry H      P cc-pVTZ-DK           selected for orbital group  1
 Library entry H      D cc-pVTZ-DK           selected for orbital group  1
 Library entry N      S cc-pVTZ-DK           selected for orbital group  2
 Library entry N      P cc-pVTZ-DK           selected for orbital group  2
 Library entry N      D cc-pVTZ-DK           selected for orbital group  2
 Library entry N      F cc-pVTZ-DK           selected for orbital group  2
 Library entry O      S cc-pVTZ-DK           selected for orbital group  3
 Library entry O      P cc-pVTZ-DK           selected for orbital group  3
 Library entry O      D cc-pVTZ-DK           selected for orbital group  3
 Library entry O      F cc-pVTZ-DK           selected for orbital group  3


 PROGRAM * SEWARD (Integral evaluation for generally contracted gaussian basis sets)     Author: Roland Lindh, 1990

 Geometry written to block  1 of record 700


 Point group  Cs  



 ATOMIC COORDINATES

 NR  ATOM    CHARGE       X              Y              Z

   1  H       1.00    0.000000000    1.668011704   -1.926366037
   2  N       7.00    0.000000000   -0.165663853   -1.158250180
   3  O       8.00    0.000000000    0.039419938    1.134026626

 Bond lengths in Bohr (Angstrom)

 1-2  1.988056342  2-3  2.301432666
     ( 1.052034110)     ( 1.217865719)

 Bond angles

  1-2-3  107.61603570

 NUCLEAR CHARGE:                   16
 NUMBER OF PRIMITIVE AOS:         111
 NUMBER OF SYMMETRY AOS:          100
 NUMBER OF CONTRACTIONS:           74   (  50A'  +  24A"  )
 NUMBER OF CORE ORBITALS:           2   (   2A'  +   0A"  )
 NUMBER OF VALENCE ORBITALS:        9   (   7A'  +   2A"  )


 NUCLEAR REPULSION ENERGY   30.16133706

 One-electron integrals computed with SEWARD

 2nd-order Douglas-Kroll-Hess method activated. Optimal DKH parametrization is used.

 Computing Douglas-Kroll / X2C integrals


        1874283. INTEGRALS WRITTEN OUT IN     458 BLOCKS ON RECORD 1290 OF FILE 1


 NUMBER OF SORTED TWO-ELECTRON INTEGRALS:    2006100.     BUFFER LENGTH:  32768
 NUMBER OF SEGMENTS:   1  SEGMENT LENGTH:    2006100      RECORD LENGTH: 524288

 Memory used in sort:       2.56 MW

 SORT1 READ     1874283. AND WROTE     1914195. INTEGRALS IN      6 RECORDS. CPU TIME:     0.03 SEC, REAL TIME:     0.05 SEC
 SORT2 READ     1914195. AND WROTE     2006100. INTEGRALS IN      1 RECORDS. CPU TIME:     0.04 SEC, REAL TIME:     0.05 SEC

 FILE SIZES:   FILE 1:    50.2 MBYTE,  FILE 4:    25.2 MBYTE,   TOTAL:     75.4 MBYTE

 OPERATOR DM      FOR CENTER  0  COORDINATES:    0.000000    0.000000    0.000000

 Eigenvalues of metric

         1 0.248E-02 0.400E-02 0.431E-02 0.840E-02 0.130E-01 0.333E-01 0.431E-01 0.465E-01
         2 0.347E-01 0.466E-01 0.103E+00 0.113E+00 0.237E+00 0.342E+00 0.398E+00 0.452E+00


 **********************************************************************************************************************************
 DATASETS  * FILE   NREC   LENGTH (MB)   RECORD NAMES
              1      23       36.03       500      610      700      900      950      970     1000      129      960     1700   
                                          VAR    BASINP    GEOM    SYMINP    ZMAT    AOBASIS   BASIS     P2S    ABASIS    OPER   
                                         1101     1401     1411     1412     1650     1100     1400     1410     1200     1210   
                                          SR      EKINR    POTR     PVPR    MOLCAS      S      EKIN      POT      H0       H01  
                                         1300     1080     1600   
                                         ERIS     AOSYM     SMH  

 PROGRAMS   *        TOTAL       INT
 CPU TIMES  *         0.63      0.54
 REAL TIME  *         1.18 SEC
 DISK USED  *        75.75 MB      
 **********************************************************************************************************************************


 PROGRAM * RHF-SCF (CLOSED SHELL)       Authors: W. Meyer, H.-J. Werner


 NUMBER OF ELECTRONS:       8+    8-
 CONVERGENCE THRESHOLDS:    1.00E-10 (Density)    1.00E-13 (Energy)
 MAX. NUMBER OF ITERATIONS:      500
 INTERPOLATION TYPE:            DIIS
 INTERPOLATION STEPS:              2 (START)      1 (STEP)
 LEVEL SHIFTS:                  0.00 (CLOSED)  0.00 (OPEN) 



 Orbital guess generated from atomic densities. Full valence occupancy:    9   2

 Molecular orbital dump at record        2100.2

 Initial occupancy:   7   1

 ITERATION    DDIFF          GRAD             ENERGY        2-EL.EN.            DIPOLE MOMENTS         DIIS   ORB.
    1      0.000D+00      0.000D+00      -129.86454750    153.855343    0.00000    0.58976   -1.07060    0    start
    2      0.000D+00      0.137D-01      -129.89093864    154.944337    0.00000    0.62177   -0.21202    1    diag
    3      0.189D-01      0.108D-01      -129.91513075    155.095951    0.00000    0.56570   -0.61217    2    diag
    4      0.929D-02      0.157D-02      -129.91588265    154.823956    0.00000    0.57425   -0.55148    3    diag
    5      0.167D-02      0.523D-03      -129.91600083    154.910259    0.00000    0.57958   -0.55227    4    diag
    6      0.728D-03      0.156D-03      -129.91602053    154.895124    0.00000    0.58005   -0.54789    5    diag
    7      0.283D-03      0.791D-04      -129.91602651    154.897306    0.00000    0.58125   -0.54523    6    diag
    8      0.198D-03      0.262D-04      -129.91602714    154.896566    0.00000    0.58125   -0.54434    7    diag
    9      0.711D-04      0.478D-05      -129.91602716    154.896439    0.00000    0.58120   -0.54417    8    diag
   10      0.138D-04      0.103D-05      -129.91602716    154.896422    0.00000    0.58117   -0.54415    9    orth
   11      0.288D-05      0.201D-06      -129.91602716    154.896418    0.00000    0.58116   -0.54414    9    diag
   12      0.522D-06      0.434D-07      -129.91602716    154.896416    0.00000    0.58116   -0.54414    9    diag
   13      0.116D-06      0.111D-07      -129.91602716    154.896416    0.00000    0.58116   -0.54414    9    diag
   14      0.296D-07      0.200D-08      -129.91602716    154.896416    0.00000    0.58116   -0.54414    9    diag
   15      0.442D-08      0.507D-09      -129.91602716    154.896416    0.00000    0.58116   -0.54414    9    diag
   16      0.110D-08      0.122D-09      -129.91602716    154.896416    0.00000    0.58116   -0.54414    9    diag
   17      0.176D-09      0.347D-10      -129.91602716    154.896416    0.00000    0.58116   -0.54414    9    diag
   18      0.532D-10      0.118D-10      -129.91602716    154.896416    0.00000    0.58116   -0.54414    9    diag
   19      0.233D-10      0.255D-11      -129.91602716    154.896416    0.00000    0.58116   -0.54414    9    fixocc
   20      0.660D-11      0.510D-12      -129.91602716    154.896416    0.00000    0.58116   -0.54414    9    orth
   21      0.138D-11      0.150D-12      -129.91602716    154.896416    0.00000    0.58116   -0.54414    9    diag
   22      0.406D-12      0.311D-13      -129.91602716    154.896416    0.00000    0.58116   -0.54414    0    orth

 Final occupancy:   7   1

 !RHF STATE 1.1 Energy               -129.916027164490
 Nuclear energy                        30.16133706
 One-electron energy                 -237.52557227
 Two-electron energy                   77.44820804
 Virial quotient                       -0.99783140
 !RHF STATE 1.1 Dipole moment           0.00000000     0.58115910    -0.54414085
 Dipole moment /Debye                   0.00000000     1.47706233    -1.38297751

 Orbital energies:

         1.1          2.1          3.1          4.1          5.1          6.1          7.1          8.1          9.1
    -20.665861   -15.718625    -1.519672    -0.994139    -0.740063    -0.658812    -0.430119     0.143591     0.368082

         1.2          2.2          3.2
     -0.587287     0.082873     0.614104

 HOMO      7.1    -0.430119 =     -11.7041eV
 LUMO      2.2     0.082873 =       2.2551eV
 LUMO-HOMO         0.512993 =      13.9592eV


 **********************************************************************************************************************************
 DATASETS  * FILE   NREC   LENGTH (MB)   RECORD NAMES
              1      23       36.03       500      610      700      900      950      970     1000      129      960     1700   
                                          VAR    BASINP    GEOM    SYMINP    ZMAT    AOBASIS   BASIS     P2S    ABASIS    OPER   
                                         1101     1401     1411     1412     1650     1100     1400     1410     1200     1210   
                                          SR      EKINR    POTR     PVPR    MOLCAS      S      EKIN      POT      H0       H01  
                                         1300     1080     1600   
                                         ERIS     AOSYM     SMH  

              2       4        2.85       700     1000      520     2100   
                                         GEOM     BASIS   MCVARS     RHF  

 PROGRAMS   *        TOTAL        HF       INT
 CPU TIMES  *         0.87      0.24      0.54
 REAL TIME  *         1.45 SEC
 DISK USED  *        75.75 MB      
 **********************************************************************************************************************************


 PROGRAM * CCSD (Closed-shell coupled cluster)     Authors: C. Hampel, H.-J. Werner, 1991, M. Deegan, P.J. Knowles, 1992


 Convergence thresholds:  THRVAR = 1.00D-08  THRDEN = 1.00D-12

 CCSD(T)     terms to be evaluated (factor= 1.000)


 Number of core orbitals:           2 (   2   0 )
 Number of closed-shell orbitals:   6 (   5   1 )
 Number of external orbitals:      66 (  43  23 )

 Molecular orbitals read from record     2100.2  Type=RHF/CANONICAL (state 1.1)

 Number of N-1 electron functions:               6
 Number of N-2 electron functions:              21
 Number of singly external CSFs:               238
 Number of doubly external CSFs:             41002
 Total number of CSFs:                       41241

 Length of J-op  integral file:               0.00 MB
 Length of K-op  integral file:               0.25 MB
 Length of 3-ext integral record:             0.00 MB

 Memory could be reduced to 1.65 Mwords without degradation in triples

 Integral transformation finished. Total CPU:   0.03 sec, npass=  1  Memory used:   0.55 MW

 Reference energy:                   -129.91602716

 MP2 singlet pair energy:              -0.27482543
 MP2 triplet pair energy:              -0.16328215
 MP2 correlation energy:               -0.43810758
 MP2 total energy:                   -130.35413475

 SCS-MP2 correlation energy:           -0.43138830   (PS=  1.200000  PT=  0.333333)
 SCS-MP2 total energy:               -130.34741546

 ITER.      SQ.NORM     CORR.ENERGY   TOTAL ENERGY   ENERGY CHANGE        DEN1      VAR(S)    VAR(P)  DIIS     TIME  TIME/IT
   1      1.11952865    -0.44279499  -130.35882216    -0.00468741     0.01151451  0.31D-02  0.31D-02  1  1     0.08     0.04
   2      1.13061136    -0.44296898  -130.35899614    -0.00017399    -0.01252457  0.93D-04  0.52D-03  2  2     0.11     0.04
   3      1.13708909    -0.44336808  -130.35939525    -0.00039910    -0.00304499  0.49D-04  0.53D-04  3  3     0.15     0.04
   4      1.14000513    -0.44339588  -130.35942305    -0.00002780    -0.00098911  0.42D-05  0.92D-05  4  4     0.18     0.04
   5      1.14105197    -0.44342701  -130.35945417    -0.00003112    -0.00021719  0.14D-05  0.17D-05  5  5     0.22     0.04
   6      1.14142127    -0.44340925  -130.35943641     0.00001776    -0.00004251  0.97D-07  0.41D-06  6  6     0.26     0.04
   7      1.14150508    -0.44341148  -130.35943865    -0.00000223    -0.00000159  0.11D-07  0.90D-07  6  1     0.30     0.04
   8      1.14153555    -0.44341133  -130.35943850     0.00000015     0.00000196  0.44D-08  0.11D-07  6  2     0.34     0.04
   9      1.14154353    -0.44341113  -130.35943830     0.00000020    -0.00000232  0.26D-08  0.13D-08  6  3     0.37     0.04
  10      1.14154225    -0.44341165  -130.35943881    -0.00000052     0.00000066  0.49D-09  0.22D-09  6  4     0.42     0.04
  11      1.14154055    -0.44341171  -130.35943887    -0.00000006     0.00000015  0.15D-09  0.23D-10  6  5     0.45     0.04
  12      1.14153915    -0.44341189  -130.35943906    -0.00000018     0.00000044  0.15D-10  0.75D-11  6  6     0.49     0.04
  13      1.14153854    -0.44341190  -130.35943906    -0.00000001     0.00000012  0.64D-11  0.12D-11  6  1     0.54     0.04
  14      1.14153815    -0.44341192  -130.35943908    -0.00000002     0.00000008  0.92D-12  0.43D-12  6  2     0.57     0.04
  15      1.14153800    -0.44341192  -130.35943909    -0.00000000     0.00000002  0.24D-12  0.14D-12  6  3     0.61     0.04
  16      1.14153788    -0.44341193  -130.35943909    -0.00000000     0.00000002  0.76D-14  0.35D-13  6  1     0.65     0.04
  17      1.14153787    -0.44341192  -130.35943909     0.00000000    -0.00000000  0.26D-14  0.23D-14  6  4     0.69     0.04
  18      1.14153786    -0.44341193  -130.35943909    -0.00000000     0.00000000  0.67D-15  0.40D-15  6  5     0.72     0.04
  19      1.14153786    -0.44341192  -130.35943909     0.00000000    -0.00000000  0.13D-15  0.76D-16  6  6     0.76     0.04
  20      1.14153786    -0.44341192  -130.35943909    -0.00000000     0.00000000  0.20D-16  0.19D-16  6  2     0.79     0.04
  21      1.14153786    -0.44341192  -130.35943909    -0.00000000     0.00000000  0.58D-18  0.14D-17  6  4     0.82     0.04
  22      1.14153786    -0.44341192  -130.35943909    -0.00000000     0.00000000  0.82D-19  0.14D-18  6  3     0.86     0.04
  23      1.14153786    -0.44341192  -130.35943909    -0.00000000     0.00000000  0.78D-20  0.15D-19  6  1     0.89     0.04
  24      1.14153786    -0.44341192  -130.35943909     0.00000000     0.00000000  0.40D-20  0.20D-20  6  6     0.92     0.04
  25      1.14153786    -0.44341192  -130.35943909     0.00000000    -0.00000000  0.25D-21  0.46D-21  6  4     0.96     0.04

 Norm of t1 vector:      0.07645708      S-energy:    -0.00000000      T1 diagnostic:  0.01560674
                                                                       D1 diagnostic:  0.04369921

 Doubles amplitudes (print threshold =  0.500E-01):

         I         J         SYM. A    SYM. B    A         B      T(IJ, AB)

         6         6         2         2         1         1     -0.14650303


 Total CPU time for triples:      0.24 sec


 RESULTS
 =======

  Reference energy                   -129.916027164490
  CCSD singlet pair energy             -0.304262416932
  CCSD triplet pair energy             -0.139149508033
  CCSD correlation energy              -0.443411924966

  Triples (T) contribution             -0.020089226529
  Total correlation energy             -0.463501151495

  CCSD total energy                  -130.359439089456
  CCSD[T] energy                     -130.380587131169
  CCSD-T energy                      -130.379120374336
 !CCSD(T) total energy               -130.379528315985

 Timing summary (sec):

 STEP                 CPU(USER)    SYS     CPU(TOT)    WALL
 Transformation          0.03      0.01      0.04      0.04
 CCSD iterations         0.95      0.17      1.12      1.11
 Triples                 0.24      0.02      0.26      0.27

 Program statistics:

 Available memory in ccsd:               994999756
 Min. memory needed in ccsd:                154850
 Max. memory used in ccsd:                  184802
 Max. memory used in cckext:                238416 (25 integral passes)



 **********************************************************************************************************************************
 DATASETS  * FILE   NREC   LENGTH (MB)   RECORD NAMES
              1      24       40.41       500      610      700      900      950      970     1000      129      960     1700   
                                          VAR    BASINP    GEOM    SYMINP    ZMAT    AOBASIS   BASIS     P2S    ABASIS    OPER   
                                         1101     1401     1411     1412     1650     1100     1400     1410     1200     1210   
                                          SR      EKINR    POTR     PVPR    MOLCAS      S      EKIN      POT      H0       H01  
                                         1300     1080     1600     1380   
                                         ERIS     AOSYM     SMH     JKOP   

              2       4        2.85       700     1000      520     2100   
                                         GEOM     BASIS   MCVARS     RHF  

 PROGRAMS   *        TOTAL   CCSD(T)        HF       INT
 CPU TIMES  *         2.10      1.23      0.24      0.54
 REAL TIME  *         2.91 SEC
 DISK USED  *        75.75 MB      
 **********************************************************************************************************************************

 CCSD(T)/cc-pVTZ-DK energy=   -130.379528315985

        CCSD(T)         HF-SCF  
   -130.37952832   -129.91602716
 **********************************************************************************************************************************
 Molpro calculation terminated
 Variable memory released
