
 Primary working directories    : /tmp/r2666/282670.maple
 Secondary working directories  : /tmp/r2666/282670.maple
 Wavefunction directory         : /ddn/home4/r2666/wfu/
 Main file repository           : /tmp/r2666/282670.maple/

 SHA1      : d5ffa45e93fdbca01ffc919aa182cfdae0147319
 NAME      : 2015.1.35
 ARCHNAME  : linux/x86_64
 FC        : /opt/intel/composer_xe_2015.1.133/bin/intel64/ifort
 BLASLIB   : -Wl,-_start-group /opt/intel/mkl/lib/intel64/libmkl_intel_ilp64.a /opt/intel/mkl/lib/intel64/libmkl_intel_thread.a /opt/intel/mkl/lib/intel64/libmkl_core.a -Wl,-_end-group
 id        : olemiss

 Nodes     nprocs
 cn074        1

 Using customized tuning parameters: mindgm=1; mindgv=20; mindgc=4; mindgr=1; noblas=0; minvec=7
 default implementation of scratch files=df  

 ***,hno CCSD(T)/TZ-F12 QFF
 memory, 995, m;
 gthresh,energy=1.d-12,zero=1.d-22,oneint=1.d-22,twoint=1.d-22;
 gthresh,optgrad=1.d-8,optstep=1.d-8;
 nocompress;
 geomtyp=xyz
 bohr
 geometry={
 3
         51        51
 H        0.0000000000        1.6650243097       -1.9213150022
 N        0.0000000000       -0.1638476599       -1.1418309818
 O        0.0000000000        0.0405911403        1.1125563930
 }
 
 basis=vtz-dk
 dkroll=1
   {hf,maxit=500;accu,20;}
 {ccsd(t),nocheck,maxit=250;orbital,IGNORE_ERROR;}

 Variables initialized (889), CPU time= 0.00 sec
 Commands  initialized (702), CPU time= 0.01 sec, 572 directives.
 Default parameters read. Elapsed time= 0.06 sec

 Checking input...
 Passed
1


                                         ***  PROGRAM SYSTEM MOLPRO  ***
                                       Copyright, TTI GmbH Stuttgart, 2015
                                    Version 2015.1 linked Jul  9 2018 13:16:40


 **********************************************************************************************************************************
 LABEL *   hno CCSD(T)/TZ-F12 QFF                                                        
  64 bit serial version                                                                  DATE: 04-Mar-20          TIME: 13:51:11  
 **********************************************************************************************************************************

 SHA1:             d5ffa45e93fdbca01ffc919aa182cfdae0147319
 **********************************************************************************************************************************

 THRESHOLDS:

 ZERO    =  1.00D-22  ONEINT  =  1.00D-22  TWOINT  =  1.00D-22  PREFAC  =  1.00D-14  LOCALI  =  1.00D-09  EORDER  =  1.00D-04
 ENERGY  =  1.00D-12  ETEST   =  0.00D+00  EDENS   =  0.00D+00  THRDEDEF=  1.00D-06  GRADIENT=  1.00D-02  STEP    =  1.00D-03
 ORBITAL =  1.00D-05  CIVEC   =  1.00D-05  COEFF   =  1.00D-04  PRINTCI =  5.00D-02  PUNCHCI =  9.90D+01  OPTGRAD =  3.00D-04
 OPTENERG=  1.00D-06  OPTSTEP =  3.00D-04  THRGRAD =  1.00D-10  COMPRESS=  1.00D-11  VARMIN  =  1.00D-07  VARMAX  =  1.00D-03
 THRDOUB =  0.00D+00  THRDIV  =  1.00D-05  THRRED  =  1.00D-07  THRPSP  =  1.00D+00  THRDC   =  1.00D-10  THRCS   =  1.00D-10
 THRNRM  =  1.00D-08  THREQ   =  0.00D+00  THRDE   =  1.00D+00  THRREF  =  1.00D-05  SPARFAC =  1.00D+00  THRDLP  =  1.00D-07
 THRDIA  =  1.00D-10  THRDLS  =  1.00D-07  THRGPS  =  0.00D+00  THRKEX  =  0.00D+00  THRDIS  =  2.00D-01  THRVAR  =  1.00D-10
 THRLOC  =  1.00D-06  THRGAP  =  1.00D-06  THRLOCT = -1.00D+00  THRGAPT = -1.00D+00  THRORB  =  1.00D-06  THRMLTP =  0.00D+00
 THRCPQCI=  1.00D-10  KEXTA   =  0.00D+00  THRCOARS=  0.00D+00  SYMTOL  =  1.00D-06  GRADTOL =  1.00D-06  THROVL  =  1.00D-08
 THRORTH =  1.00D-08  GRID    =  1.00D-06  GRIDMAX =  1.00D-03  DTMAX   =  0.00D+00  THROCCDE=  1.00D-01  THROCCDE=  1.00D-01



 THRESHOLDS:

 ZERO    =  1.00D-22  ONEINT  =  1.00D-22  TWOINT  =  1.00D-22  PREFAC  =  1.00D-14  LOCALI  =  1.00D-09  EORDER  =  1.00D-04
 ENERGY  =  1.00D-12  ETEST   =  0.00D+00  EDENS   =  0.00D+00  THRDEDEF=  1.00D-06  GRADIENT=  1.00D-02  STEP    =  1.00D-03
 ORBITAL =  1.00D-05  CIVEC   =  1.00D-05  COEFF   =  1.00D-04  PRINTCI =  5.00D-02  PUNCHCI =  9.90D+01  OPTGRAD =  1.00D-08
 OPTENERG=  1.00D-06  OPTSTEP =  1.00D-08  THRGRAD =  1.00D-10  COMPRESS=  1.00D-11  VARMIN  =  1.00D-07  VARMAX  =  1.00D-03
 THRDOUB =  0.00D+00  THRDIV  =  1.00D-05  THRRED  =  1.00D-07  THRPSP  =  1.00D+00  THRDC   =  1.00D-10  THRCS   =  1.00D-10
 THRNRM  =  1.00D-08  THREQ   =  0.00D+00  THRDE   =  1.00D+00  THRREF  =  1.00D-05  SPARFAC =  1.00D+00  THRDLP  =  1.00D-07
 THRDIA  =  1.00D-10  THRDLS  =  1.00D-07  THRGPS  =  0.00D+00  THRKEX  =  0.00D+00  THRDIS  =  2.00D-01  THRVAR  =  1.00D-10
 THRLOC  =  1.00D-06  THRGAP  =  1.00D-06  THRLOCT = -1.00D+00  THRGAPT = -1.00D+00  THRORB  =  1.00D-06  THRMLTP =  0.00D+00
 THRCPQCI=  1.00D-10  KEXTA   =  0.00D+00  THRCOARS=  0.00D+00  SYMTOL  =  1.00D-06  GRADTOL =  1.00D-06  THROVL  =  1.00D-08
 THRORTH =  1.00D-08  GRID    =  1.00D-06  GRIDMAX =  1.00D-03  DTMAX   =  0.00D+00  THROCCDE=  1.00D-01  THROCCDE=  1.00D-01



 Input parameters for SORTINT:

 COMPRESS =    0.000000
 C_FINAL  =    1.000000
 DEBUG    =   -1.000000
 C_SORT1  =    0.000000
 C_SEWARD =    0.000000
 THRESH   =    0.000000
 IO       =  molpro                                                          
 SPRI     =    0.000000
 SETTING GEOMTYP        =    XYZ
 ZUNIT=BOHR
 

 Variable memory set to  995000000 words,  buffer space   230000 words

 SETTING BASIS          =    VTZ-DK
 SETTING DKROLL         =         1.00000000                                  


 Recomputing integrals since basis changed


 Using spherical harmonics

 Library entry H      S cc-pVTZ-DK           selected for orbital group  1
 Library entry H      P cc-pVTZ-DK           selected for orbital group  1
 Library entry H      D cc-pVTZ-DK           selected for orbital group  1
 Library entry N      S cc-pVTZ-DK           selected for orbital group  2
 Library entry N      P cc-pVTZ-DK           selected for orbital group  2
 Library entry N      D cc-pVTZ-DK           selected for orbital group  2
 Library entry N      F cc-pVTZ-DK           selected for orbital group  2
 Library entry O      S cc-pVTZ-DK           selected for orbital group  3
 Library entry O      P cc-pVTZ-DK           selected for orbital group  3
 Library entry O      D cc-pVTZ-DK           selected for orbital group  3
 Library entry O      F cc-pVTZ-DK           selected for orbital group  3


 PROGRAM * SEWARD (Integral evaluation for generally contracted gaussian basis sets)     Author: Roland Lindh, 1990

 Geometry written to block  1 of record 700


 Point group  Cs  



 ATOMIC COORDINATES

 NR  ATOM    CHARGE       X              Y              Z

   1  H       1.00    0.000000000    1.665024310   -1.921315002
   2  N       7.00    0.000000000   -0.163847660   -1.141830982
   3  O       8.00    0.000000000    0.040591140    1.112556393

 Bond lengths in Bohr (Angstrom)

 1-2  1.988056342  2-3  2.263638147
     ( 1.052034110)     ( 1.197865721)

 Bond angles

  1-2-3  107.90251459

 NUCLEAR CHARGE:                   16
 NUMBER OF PRIMITIVE AOS:         111
 NUMBER OF SYMMETRY AOS:          100
 NUMBER OF CONTRACTIONS:           74   (  50A'  +  24A"  )
 NUMBER OF CORE ORBITALS:           2   (   2A'  +   0A"  )
 NUMBER OF VALENCE ORBITALS:        9   (   7A'  +   2A"  )


 NUCLEAR REPULSION ENERGY   30.58460601

 One-electron integrals computed with SEWARD

 2nd-order Douglas-Kroll-Hess method activated. Optimal DKH parametrization is used.

 Computing Douglas-Kroll / X2C integrals


        1874283. INTEGRALS WRITTEN OUT IN     458 BLOCKS ON RECORD 1290 OF FILE 1


 NUMBER OF SORTED TWO-ELECTRON INTEGRALS:    2006100.     BUFFER LENGTH:  32768
 NUMBER OF SEGMENTS:   1  SEGMENT LENGTH:    2006100      RECORD LENGTH: 524288

 Memory used in sort:       2.56 MW

 SORT1 READ     1874283. AND WROTE     1914195. INTEGRALS IN      6 RECORDS. CPU TIME:     0.03 SEC, REAL TIME:     0.05 SEC
 SORT2 READ     1914195. AND WROTE     2006100. INTEGRALS IN      1 RECORDS. CPU TIME:     0.04 SEC, REAL TIME:     0.06 SEC

 FILE SIZES:   FILE 1:    50.2 MBYTE,  FILE 4:    25.2 MBYTE,   TOTAL:     75.4 MBYTE

 OPERATOR DM      FOR CENTER  0  COORDINATES:    0.000000    0.000000    0.000000

 Eigenvalues of metric

         1 0.241E-02 0.391E-02 0.404E-02 0.829E-02 0.130E-01 0.321E-01 0.419E-01 0.463E-01
         2 0.338E-01 0.464E-01 0.100E+00 0.111E+00 0.231E+00 0.341E+00 0.392E+00 0.446E+00


 **********************************************************************************************************************************
 DATASETS  * FILE   NREC   LENGTH (MB)   RECORD NAMES
              1      23       36.03       500      610      700      900      950      970     1000      129      960     1700   
                                          VAR    BASINP    GEOM    SYMINP    ZMAT    AOBASIS   BASIS     P2S    ABASIS    OPER   
                                         1101     1401     1411     1412     1650     1100     1400     1410     1200     1210   
                                          SR      EKINR    POTR     PVPR    MOLCAS      S      EKIN      POT      H0       H01  
                                         1300     1080     1600   
                                         ERIS     AOSYM     SMH  

 PROGRAMS   *        TOTAL       INT
 CPU TIMES  *         0.64      0.54
 REAL TIME  *         1.43 SEC
 DISK USED  *        75.75 MB      
 **********************************************************************************************************************************


 PROGRAM * RHF-SCF (CLOSED SHELL)       Authors: W. Meyer, H.-J. Werner


 NUMBER OF ELECTRONS:       8+    8-
 CONVERGENCE THRESHOLDS:    1.00E-10 (Density)    1.00E-13 (Energy)
 MAX. NUMBER OF ITERATIONS:      500
 INTERPOLATION TYPE:            DIIS
 INTERPOLATION STEPS:              2 (START)      1 (STEP)
 LEVEL SHIFTS:                  0.00 (CLOSED)  0.00 (OPEN) 



 Orbital guess generated from atomic densities. Full valence occupancy:    9   2

 Molecular orbital dump at record        2100.2

 Initial occupancy:   7   1

 ITERATION    DDIFF          GRAD             ENERGY        2-EL.EN.            DIPOLE MOMENTS         DIIS   ORB.
    1      0.000D+00      0.000D+00      -129.87018433    154.613330    0.00000    0.58333   -1.00779    0    start
    2      0.000D+00      0.134D-01      -129.89718189    155.740113    0.00000    0.60808   -0.22406    1    diag
    3      0.182D-01      0.101D-01      -129.91803042    155.850299    0.00000    0.55684   -0.58506    2    diag
    4      0.877D-02      0.153D-02      -129.91874667    155.591744    0.00000    0.56563   -0.52746    3    diag
    5      0.164D-02      0.507D-03      -129.91885762    155.676449    0.00000    0.57097   -0.52866    4    diag
    6      0.707D-03      0.151D-03      -129.91887593    155.661630    0.00000    0.57154   -0.52466    5    diag
    7      0.274D-03      0.750D-04      -129.91888117    155.664028    0.00000    0.57279   -0.52228    6    diag
    8      0.188D-03      0.233D-04      -129.91888163    155.663379    0.00000    0.57281   -0.52153    7    diag
    9      0.605D-04      0.421D-05      -129.91888165    155.663271    0.00000    0.57276   -0.52139    8    diag
   10      0.116D-04      0.946D-06      -129.91888165    155.663254    0.00000    0.57273   -0.52136    9    orth
   11      0.270D-05      0.187D-06      -129.91888165    155.663250    0.00000    0.57272   -0.52136    9    diag
   12      0.499D-06      0.383D-07      -129.91888165    155.663249    0.00000    0.57272   -0.52136    9    diag
   13      0.109D-06      0.935D-08      -129.91888165    155.663248    0.00000    0.57272   -0.52136    9    diag
   14      0.267D-07      0.173D-08      -129.91888165    155.663248    0.00000    0.57272   -0.52136    9    diag
   15      0.450D-08      0.463D-09      -129.91888165    155.663248    0.00000    0.57272   -0.52136    9    diag
   16      0.108D-08      0.123D-09      -129.91888165    155.663248    0.00000    0.57272   -0.52136    9    diag
   17      0.218D-09      0.367D-10      -129.91888165    155.663248    0.00000    0.57272   -0.52136    9    diag
   18      0.726D-10      0.120D-10      -129.91888165    155.663248    0.00000    0.57272   -0.52136    9    diag
   19      0.283D-10      0.262D-11      -129.91888165    155.663248    0.00000    0.57272   -0.52136    9    fixocc
   20      0.653D-11      0.443D-12      -129.91888165    155.663248    0.00000    0.57272   -0.52136    9    orth
   21      0.842D-12      0.131D-12      -129.91888165    155.663248    0.00000    0.57272   -0.52136    9    diag
   22      0.336D-12      0.356D-13      -129.91888165    155.663248    0.00000    0.57272   -0.52136    9    diag
   23      0.116D-12      0.172D-13      -129.91888165    155.663248    0.00000    0.57272   -0.52136    0    orth

 Final occupancy:   7   1

 !RHF STATE 1.1 Energy               -129.918881652677
 Nuclear energy                        30.58460601
 One-electron energy                 -238.33511180
 Two-electron energy                   77.83162414
 Virial quotient                       -0.99723854
 !RHF STATE 1.1 Dipole moment           0.00000000     0.57271651    -0.52135830
 Dipole moment /Debye                   0.00000000     1.45560483    -1.32507383

 Orbital energies:

         1.1          2.1          3.1          4.1          5.1          6.1          7.1          8.1          9.1
    -20.663999   -15.715118    -1.535880    -0.989609    -0.746187    -0.664595    -0.423834     0.144697     0.370888

         1.2          2.2          3.2
     -0.596711     0.090272     0.611914

 HOMO      7.1    -0.423834 =     -11.5331eV
 LUMO      2.2     0.090272 =       2.4564eV
 LUMO-HOMO         0.514106 =      13.9895eV


 **********************************************************************************************************************************
 DATASETS  * FILE   NREC   LENGTH (MB)   RECORD NAMES
              1      23       36.03       500      610      700      900      950      970     1000      129      960     1700   
                                          VAR    BASINP    GEOM    SYMINP    ZMAT    AOBASIS   BASIS     P2S    ABASIS    OPER   
                                         1101     1401     1411     1412     1650     1100     1400     1410     1200     1210   
                                          SR      EKINR    POTR     PVPR    MOLCAS      S      EKIN      POT      H0       H01  
                                         1300     1080     1600   
                                         ERIS     AOSYM     SMH  

              2       4        2.85       700     1000      520     2100   
                                         GEOM     BASIS   MCVARS     RHF  

 PROGRAMS   *        TOTAL        HF       INT
 CPU TIMES  *         0.86      0.22      0.54
 REAL TIME  *         1.75 SEC
 DISK USED  *        75.75 MB      
 **********************************************************************************************************************************


 PROGRAM * CCSD (Closed-shell coupled cluster)     Authors: C. Hampel, H.-J. Werner, 1991, M. Deegan, P.J. Knowles, 1992


 Convergence thresholds:  THRVAR = 1.00D-08  THRDEN = 1.00D-12

 CCSD(T)     terms to be evaluated (factor= 1.000)


 Number of core orbitals:           2 (   2   0 )
 Number of closed-shell orbitals:   6 (   5   1 )
 Number of external orbitals:      66 (  43  23 )

 Molecular orbitals read from record     2100.2  Type=RHF/CANONICAL (state 1.1)

 Number of N-1 electron functions:               6
 Number of N-2 electron functions:              21
 Number of singly external CSFs:               238
 Number of doubly external CSFs:             41002
 Total number of CSFs:                       41241

 Length of J-op  integral file:               0.00 MB
 Length of K-op  integral file:               0.25 MB
 Length of 3-ext integral record:             0.00 MB

 Memory could be reduced to 1.65 Mwords without degradation in triples

 Integral transformation finished. Total CPU:   0.02 sec, npass=  1  Memory used:   0.55 MW

 Reference energy:                   -129.91888165

 MP2 singlet pair energy:              -0.27270862
 MP2 triplet pair energy:              -0.16189638
 MP2 correlation energy:               -0.43460500
 MP2 total energy:                   -130.35348665

 SCS-MP2 correlation energy:           -0.42798587   (PS=  1.200000  PT=  0.333333)
 SCS-MP2 total energy:               -130.34686752

 ITER.      SQ.NORM     CORR.ENERGY   TOTAL ENERGY   ENERGY CHANGE        DEN1      VAR(S)    VAR(P)  DIIS     TIME  TIME/IT
   1      1.11736597    -0.44005269  -130.35893434    -0.00544769     0.00992986  0.28D-02  0.29D-02  1  1     0.07     0.04
   2      1.12795974    -0.44037784  -130.35925949    -0.00032515    -0.01204573  0.83D-04  0.49D-03  2  2     0.10     0.04
   3      1.13402152    -0.44074672  -130.35962838    -0.00036889    -0.00290750  0.44D-04  0.48D-04  3  3     0.14     0.04
   4      1.13670252    -0.44077247  -130.35965413    -0.00002575    -0.00092494  0.37D-05  0.85D-05  4  4     0.18     0.04
   5      1.13763770    -0.44080004  -130.35968169    -0.00002756    -0.00019386  0.13D-05  0.16D-05  5  5     0.21     0.04
   6      1.13798103    -0.44078470  -130.35966635     0.00001534    -0.00003870  0.96D-07  0.40D-06  6  6     0.24     0.04
   7      1.13806601    -0.44078655  -130.35966820    -0.00000185    -0.00000239  0.12D-07  0.82D-07  6  1     0.27     0.04
   8      1.13809600    -0.44078662  -130.35966828    -0.00000007     0.00000189  0.42D-08  0.93D-08  6  2     0.31     0.04
   9      1.13810326    -0.44078645  -130.35966810     0.00000017    -0.00000221  0.23D-08  0.10D-08  6  3     0.34     0.04
  10      1.13810205    -0.44078693  -130.35966858    -0.00000048     0.00000060  0.46D-09  0.18D-09  6  4     0.37     0.04
  11      1.13810039    -0.44078698  -130.35966863    -0.00000006     0.00000018  0.14D-09  0.21D-10  6  5     0.41     0.04
  12      1.13809906    -0.44078715  -130.35966880    -0.00000016     0.00000041  0.15D-10  0.69D-11  6  6     0.44     0.04
  13      1.13809849    -0.44078715  -130.35966880    -0.00000001     0.00000012  0.63D-11  0.11D-11  6  1     0.48     0.04
  14      1.13809813    -0.44078717  -130.35966882    -0.00000002     0.00000007  0.87D-12  0.39D-12  6  2     0.52     0.04
  15      1.13809800    -0.44078717  -130.35966882    -0.00000000     0.00000001  0.22D-12  0.13D-12  6  3     0.55     0.04
  16      1.13809791    -0.44078717  -130.35966882    -0.00000000     0.00000001  0.23D-13  0.15D-13  6  5     0.59     0.04
  17      1.13809788    -0.44078717  -130.35966883    -0.00000000     0.00000000  0.73D-15  0.22D-14  6  4     0.62     0.04
  18      1.13809788    -0.44078717  -130.35966883     0.00000000    -0.00000000  0.48D-15  0.31D-15  6  1     0.66     0.04
  19      1.13809788    -0.44078717  -130.35966883    -0.00000000     0.00000000  0.40D-16  0.54D-16  6  6     0.69     0.04
  20      1.13809788    -0.44078717  -130.35966883    -0.00000000     0.00000000  0.84D-17  0.13D-16  6  2     0.72     0.04
  21      1.13809788    -0.44078717  -130.35966883    -0.00000000     0.00000000  0.17D-17  0.95D-18  6  5     0.75     0.04
  22      1.13809788    -0.44078717  -130.35966883     0.00000000     0.00000000  0.10D-18  0.72D-19  6  3     0.79     0.04
  23      1.13809788    -0.44078717  -130.35966883     0.00000000    -0.00000000  0.30D-19  0.16D-19  6  4     0.82     0.04
  24      1.13809788    -0.44078717  -130.35966883     0.00000000    -0.00000000  0.44D-20  0.43D-20  6  1     0.86     0.04
  25      1.13809788    -0.44078717  -130.35966883     0.00000000    -0.00000000  0.49D-21  0.76D-21  6  6     0.89     0.04

 Norm of t1 vector:      0.07342023      S-energy:     0.00000000      T1 diagnostic:  0.01498684
                                                                       D1 diagnostic:  0.04113481

 Doubles amplitudes (print threshold =  0.500E-01):

         I         J         SYM. A    SYM. B    A         B      T(IJ, AB)

         6         6         2         2         1         1     -0.14091562


 Total CPU time for triples:      0.23 sec


 RESULTS
 =======

  Reference energy                   -129.918881652676
  CCSD singlet pair energy             -0.301975372197
  CCSD triplet pair energy             -0.138811801696
  CCSD correlation energy              -0.440787173893

  Triples (T) contribution             -0.019488993597
  Total correlation energy             -0.460276167490

  CCSD total energy                  -130.359668826569
  CCSD[T] energy                     -130.380133731640
  CCSD-T energy                      -130.378770513644
 !CCSD(T) total energy               -130.379157820167

 Timing summary (sec):

 STEP                 CPU(USER)    SYS     CPU(TOT)    WALL
 Transformation          0.02      0.01      0.03      0.04
 CCSD iterations         0.87      0.15      1.02      1.01
 Triples                 0.23      0.02      0.25      0.25

 Program statistics:

 Available memory in ccsd:               994999756
 Min. memory needed in ccsd:                154850
 Max. memory used in ccsd:                  184802
 Max. memory used in cckext:                238416 (25 integral passes)



 **********************************************************************************************************************************
 DATASETS  * FILE   NREC   LENGTH (MB)   RECORD NAMES
              1      24       40.41       500      610      700      900      950      970     1000      129      960     1700   
                                          VAR    BASINP    GEOM    SYMINP    ZMAT    AOBASIS   BASIS     P2S    ABASIS    OPER   
                                         1101     1401     1411     1412     1650     1100     1400     1410     1200     1210   
                                          SR      EKINR    POTR     PVPR    MOLCAS      S      EKIN      POT      H0       H01  
                                         1300     1080     1600     1380   
                                         ERIS     AOSYM     SMH     JKOP   

              2       4        2.85       700     1000      520     2100   
                                         GEOM     BASIS   MCVARS     RHF  

 PROGRAMS   *        TOTAL   CCSD(T)        HF       INT
 CPU TIMES  *         2.02      1.15      0.22      0.54
 REAL TIME  *         3.32 SEC
 DISK USED  *        75.75 MB      
 **********************************************************************************************************************************

 CCSD(T)/cc-pVTZ-DK energy=   -130.379157820167

        CCSD(T)         HF-SCF  
   -130.37915782   -129.91888165
 **********************************************************************************************************************************
 Molpro calculation terminated
 Variable memory released
