
 Primary working directories    : /tmp/r2666/282707.maple
 Secondary working directories  : /tmp/r2666/282707.maple
 Wavefunction directory         : /ddn/home4/r2666/wfu/
 Main file repository           : /tmp/r2666/282707.maple/

 SHA1      : d5ffa45e93fdbca01ffc919aa182cfdae0147319
 NAME      : 2015.1.35
 ARCHNAME  : linux/x86_64
 FC        : /opt/intel/composer_xe_2015.1.133/bin/intel64/ifort
 BLASLIB   : -Wl,-_start-group /opt/intel/mkl/lib/intel64/libmkl_intel_ilp64.a /opt/intel/mkl/lib/intel64/libmkl_intel_thread.a /opt/intel/mkl/lib/intel64/libmkl_core.a -Wl,-_end-group
 id        : olemiss

 Nodes     nprocs
 cn092        1

 Using customized tuning parameters: mindgm=1; mindgv=20; mindgc=4; mindgr=1; noblas=0; minvec=7
 default implementation of scratch files=df  

 ***,hno CCSD(T)/TZ-F12 QFF
 memory, 995, m;
 gthresh,energy=1.d-12,zero=1.d-22,oneint=1.d-22,twoint=1.d-22;
 gthresh,optgrad=1.d-8,optstep=1.d-8;
 nocompress;
 geomtyp=xyz
 bohr
 geometry={
 3
         88        88
 H        0.0000000000        1.6697882508       -1.9284628273
 N        0.0000000000       -0.1648237124       -1.1383836808
 O        0.0000000000        0.0368032517        1.1162569171
 }
 
 basis=vtz-dk
 dkroll=1
   {hf,maxit=500;accu,20;}
 {ccsd(t),nocheck,maxit=250;orbital,IGNORE_ERROR;}

 Variables initialized (889), CPU time= 0.00 sec
 Commands  initialized (702), CPU time= 0.01 sec, 572 directives.
 Default parameters read. Elapsed time= 0.06 sec

 Checking input...
 Passed
1


                                         ***  PROGRAM SYSTEM MOLPRO  ***
                                       Copyright, TTI GmbH Stuttgart, 2015
                                    Version 2015.1 linked Jul  9 2018 13:16:40


 **********************************************************************************************************************************
 LABEL *   hno CCSD(T)/TZ-F12 QFF                                                        
  64 bit serial version                                                                  DATE: 04-Mar-20          TIME: 13:51:15  
 **********************************************************************************************************************************

 SHA1:             d5ffa45e93fdbca01ffc919aa182cfdae0147319
 **********************************************************************************************************************************

 THRESHOLDS:

 ZERO    =  1.00D-22  ONEINT  =  1.00D-22  TWOINT  =  1.00D-22  PREFAC  =  1.00D-14  LOCALI  =  1.00D-09  EORDER  =  1.00D-04
 ENERGY  =  1.00D-12  ETEST   =  0.00D+00  EDENS   =  0.00D+00  THRDEDEF=  1.00D-06  GRADIENT=  1.00D-02  STEP    =  1.00D-03
 ORBITAL =  1.00D-05  CIVEC   =  1.00D-05  COEFF   =  1.00D-04  PRINTCI =  5.00D-02  PUNCHCI =  9.90D+01  OPTGRAD =  3.00D-04
 OPTENERG=  1.00D-06  OPTSTEP =  3.00D-04  THRGRAD =  1.00D-10  COMPRESS=  1.00D-11  VARMIN  =  1.00D-07  VARMAX  =  1.00D-03
 THRDOUB =  0.00D+00  THRDIV  =  1.00D-05  THRRED  =  1.00D-07  THRPSP  =  1.00D+00  THRDC   =  1.00D-10  THRCS   =  1.00D-10
 THRNRM  =  1.00D-08  THREQ   =  0.00D+00  THRDE   =  1.00D+00  THRREF  =  1.00D-05  SPARFAC =  1.00D+00  THRDLP  =  1.00D-07
 THRDIA  =  1.00D-10  THRDLS  =  1.00D-07  THRGPS  =  0.00D+00  THRKEX  =  0.00D+00  THRDIS  =  2.00D-01  THRVAR  =  1.00D-10
 THRLOC  =  1.00D-06  THRGAP  =  1.00D-06  THRLOCT = -1.00D+00  THRGAPT = -1.00D+00  THRORB  =  1.00D-06  THRMLTP =  0.00D+00
 THRCPQCI=  1.00D-10  KEXTA   =  0.00D+00  THRCOARS=  0.00D+00  SYMTOL  =  1.00D-06  GRADTOL =  1.00D-06  THROVL  =  1.00D-08
 THRORTH =  1.00D-08  GRID    =  1.00D-06  GRIDMAX =  1.00D-03  DTMAX   =  0.00D+00  THROCCDE=  1.00D-01  THROCCDE=  1.00D-01



 THRESHOLDS:

 ZERO    =  1.00D-22  ONEINT  =  1.00D-22  TWOINT  =  1.00D-22  PREFAC  =  1.00D-14  LOCALI  =  1.00D-09  EORDER  =  1.00D-04
 ENERGY  =  1.00D-12  ETEST   =  0.00D+00  EDENS   =  0.00D+00  THRDEDEF=  1.00D-06  GRADIENT=  1.00D-02  STEP    =  1.00D-03
 ORBITAL =  1.00D-05  CIVEC   =  1.00D-05  COEFF   =  1.00D-04  PRINTCI =  5.00D-02  PUNCHCI =  9.90D+01  OPTGRAD =  1.00D-08
 OPTENERG=  1.00D-06  OPTSTEP =  1.00D-08  THRGRAD =  1.00D-10  COMPRESS=  1.00D-11  VARMIN  =  1.00D-07  VARMAX  =  1.00D-03
 THRDOUB =  0.00D+00  THRDIV  =  1.00D-05  THRRED  =  1.00D-07  THRPSP  =  1.00D+00  THRDC   =  1.00D-10  THRCS   =  1.00D-10
 THRNRM  =  1.00D-08  THREQ   =  0.00D+00  THRDE   =  1.00D+00  THRREF  =  1.00D-05  SPARFAC =  1.00D+00  THRDLP  =  1.00D-07
 THRDIA  =  1.00D-10  THRDLS  =  1.00D-07  THRGPS  =  0.00D+00  THRKEX  =  0.00D+00  THRDIS  =  2.00D-01  THRVAR  =  1.00D-10
 THRLOC  =  1.00D-06  THRGAP  =  1.00D-06  THRLOCT = -1.00D+00  THRGAPT = -1.00D+00  THRORB  =  1.00D-06  THRMLTP =  0.00D+00
 THRCPQCI=  1.00D-10  KEXTA   =  0.00D+00  THRCOARS=  0.00D+00  SYMTOL  =  1.00D-06  GRADTOL =  1.00D-06  THROVL  =  1.00D-08
 THRORTH =  1.00D-08  GRID    =  1.00D-06  GRIDMAX =  1.00D-03  DTMAX   =  0.00D+00  THROCCDE=  1.00D-01  THROCCDE=  1.00D-01



 Input parameters for SORTINT:

 COMPRESS =    0.000000
 C_FINAL  =    1.000000
 DEBUG    =   -1.000000
 C_SORT1  =    0.000000
 C_SEWARD =    0.000000
 THRESH   =    0.000000
 IO       =  molpro                                                          
 SPRI     =    0.000000
 SETTING GEOMTYP        =    XYZ
 ZUNIT=BOHR
 

 Variable memory set to  995000000 words,  buffer space   230000 words

 SETTING BASIS          =    VTZ-DK
 SETTING DKROLL         =         1.00000000                                  


 Recomputing integrals since basis changed


 Using spherical harmonics

 Library entry H      S cc-pVTZ-DK           selected for orbital group  1
 Library entry H      P cc-pVTZ-DK           selected for orbital group  1
 Library entry H      D cc-pVTZ-DK           selected for orbital group  1
 Library entry N      S cc-pVTZ-DK           selected for orbital group  2
 Library entry N      P cc-pVTZ-DK           selected for orbital group  2
 Library entry N      D cc-pVTZ-DK           selected for orbital group  2
 Library entry N      F cc-pVTZ-DK           selected for orbital group  2
 Library entry O      S cc-pVTZ-DK           selected for orbital group  3
 Library entry O      P cc-pVTZ-DK           selected for orbital group  3
 Library entry O      D cc-pVTZ-DK           selected for orbital group  3
 Library entry O      F cc-pVTZ-DK           selected for orbital group  3


 PROGRAM * SEWARD (Integral evaluation for generally contracted gaussian basis sets)     Author: Roland Lindh, 1990

 Geometry written to block  1 of record 700


 Point group  Cs  



 ATOMIC COORDINATES

 NR  ATOM    CHARGE       X              Y              Z

   1  H       1.00    0.000000000    1.669788251   -1.928462827
   2  N       7.00    0.000000000   -0.164823712   -1.138383681
   3  O       8.00    0.000000000    0.036803252    1.116256917

 Bond lengths in Bohr (Angstrom)

 1-2  1.997504972  2-3  2.263638147
     ( 1.057034110)     ( 1.197865721)

 Bond angles

  1-2-3  108.18899349

 NUCLEAR CHARGE:                   16
 NUMBER OF PRIMITIVE AOS:         111
 NUMBER OF SYMMETRY AOS:          100
 NUMBER OF CONTRACTIONS:           74   (  50A'  +  24A"  )
 NUMBER OF CORE ORBITALS:           2   (   2A'  +   0A"  )
 NUMBER OF VALENCE ORBITALS:        9   (   7A'  +   2A"  )


 NUCLEAR REPULSION ENERGY   30.55879936

 One-electron integrals computed with SEWARD

 2nd-order Douglas-Kroll-Hess method activated. Optimal DKH parametrization is used.

 Computing Douglas-Kroll / X2C integrals


        1874283. INTEGRALS WRITTEN OUT IN     458 BLOCKS ON RECORD 1290 OF FILE 1


 NUMBER OF SORTED TWO-ELECTRON INTEGRALS:    2006100.     BUFFER LENGTH:  32768
 NUMBER OF SEGMENTS:   1  SEGMENT LENGTH:    2006100      RECORD LENGTH: 524288

 Memory used in sort:       2.56 MW

 SORT1 READ     1874283. AND WROTE     1914195. INTEGRALS IN      6 RECORDS. CPU TIME:     0.03 SEC, REAL TIME:     0.05 SEC
 SORT2 READ     1914195. AND WROTE     2006100. INTEGRALS IN      1 RECORDS. CPU TIME:     0.04 SEC, REAL TIME:     0.07 SEC

 FILE SIZES:   FILE 1:    50.2 MBYTE,  FILE 4:    25.2 MBYTE,   TOTAL:     75.4 MBYTE

 OPERATOR DM      FOR CENTER  0  COORDINATES:    0.000000    0.000000    0.000000

 Eigenvalues of metric

         1 0.243E-02 0.393E-02 0.404E-02 0.839E-02 0.131E-01 0.322E-01 0.420E-01 0.463E-01
         2 0.338E-01 0.464E-01 0.100E+00 0.112E+00 0.232E+00 0.343E+00 0.393E+00 0.447E+00


 **********************************************************************************************************************************
 DATASETS  * FILE   NREC   LENGTH (MB)   RECORD NAMES
              1      23       36.03       500      610      700      900      950      970     1000      129      960     1700   
                                          VAR    BASINP    GEOM    SYMINP    ZMAT    AOBASIS   BASIS     P2S    ABASIS    OPER   
                                         1101     1401     1411     1412     1650     1100     1400     1410     1200     1210   
                                          SR      EKINR    POTR     PVPR    MOLCAS      S      EKIN      POT      H0       H01  
                                         1300     1080     1600   
                                         ERIS     AOSYM     SMH  

 PROGRAMS   *        TOTAL       INT
 CPU TIMES  *         0.70      0.61
 REAL TIME  *         1.23 SEC
 DISK USED  *        75.75 MB      
 **********************************************************************************************************************************


 PROGRAM * RHF-SCF (CLOSED SHELL)       Authors: W. Meyer, H.-J. Werner


 NUMBER OF ELECTRONS:       8+    8-
 CONVERGENCE THRESHOLDS:    1.00E-10 (Density)    1.00E-13 (Energy)
 MAX. NUMBER OF ITERATIONS:      500
 INTERPOLATION TYPE:            DIIS
 INTERPOLATION STEPS:              2 (START)      1 (STEP)
 LEVEL SHIFTS:                  0.00 (CLOSED)  0.00 (OPEN) 



 Orbital guess generated from atomic densities. Full valence occupancy:    9   2

 Molecular orbital dump at record        2100.2

 Initial occupancy:   7   1

 ITERATION    DDIFF          GRAD             ENERGY        2-EL.EN.            DIPOLE MOMENTS         DIIS   ORB.
    1      0.000D+00      0.000D+00      -129.86982907    154.561639    0.00000    0.58248   -1.00890    0    start
    2      0.000D+00      0.134D-01      -129.89681925    155.695423    0.00000    0.60719   -0.22317    1    diag
    3      0.182D-01      0.101D-01      -129.91784746    155.803998    0.00000    0.55595   -0.58551    2    diag
    4      0.879D-02      0.154D-02      -129.91856547    155.544627    0.00000    0.56455   -0.52783    3    diag
    5      0.164D-02      0.508D-03      -129.91867727    155.629789    0.00000    0.56998   -0.52908    4    diag
    6      0.709D-03      0.152D-03      -129.91869577    155.614910    0.00000    0.57055   -0.52506    5    diag
    7      0.275D-03      0.752D-04      -129.91870105    155.617331    0.00000    0.57182   -0.52268    6    diag
    8      0.189D-03      0.235D-04      -129.91870151    155.616680    0.00000    0.57184   -0.52194    7    diag
    9      0.608D-04      0.424D-05      -129.91870153    155.616571    0.00000    0.57179   -0.52179    8    diag
   10      0.117D-04      0.956D-06      -129.91870153    155.616553    0.00000    0.57176   -0.52177    9    orth
   11      0.272D-05      0.189D-06      -129.91870153    155.616549    0.00000    0.57175   -0.52176    9    diag
   12      0.505D-06      0.388D-07      -129.91870153    155.616548    0.00000    0.57175   -0.52176    9    diag
   13      0.110D-06      0.949D-08      -129.91870153    155.616547    0.00000    0.57175   -0.52176    9    diag
   14      0.273D-07      0.176D-08      -129.91870153    155.616547    0.00000    0.57175   -0.52176    9    diag
   15      0.460D-08      0.474D-09      -129.91870153    155.616547    0.00000    0.57175   -0.52176    9    diag
   16      0.111D-08      0.126D-09      -129.91870153    155.616547    0.00000    0.57175   -0.52176    9    diag
   17      0.225D-09      0.380D-10      -129.91870153    155.616547    0.00000    0.57175   -0.52176    9    diag
   18      0.757D-10      0.124D-10      -129.91870153    155.616547    0.00000    0.57175   -0.52176    9    diag
   19      0.292D-10      0.270D-11      -129.91870153    155.616547    0.00000    0.57175   -0.52176    9    fixocc
   20      0.672D-11      0.448D-12      -129.91870153    155.616547    0.00000    0.57175   -0.52176    9    orth
   21      0.807D-12      0.136D-12      -129.91870153    155.616547    0.00000    0.57175   -0.52176    9    diag
   22      0.298D-12      0.395D-13      -129.91870153    155.616547    0.00000    0.57175   -0.52176    9    diag
   23      0.107D-12      0.269D-13      -129.91870153    155.616547    0.00000    0.57175   -0.52176    9    diag
   24      0.454D-13      0.180D-13      -129.91870153    155.616547    0.00000    0.57175   -0.52176    9    diag
   25      0.375D-13      0.183D-13      -129.91870153    155.616547    0.00000    0.57175   -0.52176    0    orth

 Final occupancy:   7   1

 !RHF STATE 1.1 Energy               -129.918701533753
 Nuclear energy                        30.55879936
 One-electron energy                 -238.28577447
 Two-electron energy                   77.80827357
 Virial quotient                       -0.99730581
 !RHF STATE 1.1 Dipole moment           0.00000000     0.57174701    -0.52176140
 Dipole moment /Debye                   0.00000000     1.45314077    -1.32609833

 Orbital energies:

         1.1          2.1          3.1          4.1          5.1          6.1          7.1          8.1          9.1
    -20.664193   -15.715758    -1.535697    -0.988545    -0.745631    -0.664673    -0.423354     0.144321     0.370918

         1.2          2.2          3.2
     -0.596762     0.090230     0.611910

 HOMO      7.1    -0.423354 =     -11.5201eV
 LUMO      2.2     0.090230 =       2.4553eV
 LUMO-HOMO         0.513584 =      13.9753eV


 **********************************************************************************************************************************
 DATASETS  * FILE   NREC   LENGTH (MB)   RECORD NAMES
              1      23       36.03       500      610      700      900      950      970     1000      129      960     1700   
                                          VAR    BASINP    GEOM    SYMINP    ZMAT    AOBASIS   BASIS     P2S    ABASIS    OPER   
                                         1101     1401     1411     1412     1650     1100     1400     1410     1200     1210   
                                          SR      EKINR    POTR     PVPR    MOLCAS      S      EKIN      POT      H0       H01  
                                         1300     1080     1600   
                                         ERIS     AOSYM     SMH  

              2       4        2.85       700     1000      520     2100   
                                         GEOM     BASIS   MCVARS     RHF  

 PROGRAMS   *        TOTAL        HF       INT
 CPU TIMES  *         0.99      0.29      0.61
 REAL TIME  *         1.60 SEC
 DISK USED  *        75.75 MB      
 **********************************************************************************************************************************


 PROGRAM * CCSD (Closed-shell coupled cluster)     Authors: C. Hampel, H.-J. Werner, 1991, M. Deegan, P.J. Knowles, 1992


 Convergence thresholds:  THRVAR = 1.00D-08  THRDEN = 1.00D-12

 CCSD(T)     terms to be evaluated (factor= 1.000)


 Number of core orbitals:           2 (   2   0 )
 Number of closed-shell orbitals:   6 (   5   1 )
 Number of external orbitals:      66 (  43  23 )

 Molecular orbitals read from record     2100.2  Type=RHF/CANONICAL (state 1.1)

 Number of N-1 electron functions:               6
 Number of N-2 electron functions:              21
 Number of singly external CSFs:               238
 Number of doubly external CSFs:             41002
 Total number of CSFs:                       41241

 Length of J-op  integral file:               0.00 MB
 Length of K-op  integral file:               0.25 MB
 Length of 3-ext integral record:             0.00 MB

 Memory could be reduced to 1.65 Mwords without degradation in triples

 Integral transformation finished. Total CPU:   0.03 sec, npass=  1  Memory used:   0.55 MW

 Reference energy:                   -129.91870153

 MP2 singlet pair energy:              -0.27282720
 MP2 triplet pair energy:              -0.16196506
 MP2 correlation energy:               -0.43479226
 MP2 total energy:                   -130.35349379

 SCS-MP2 correlation energy:           -0.42817090   (PS=  1.200000  PT=  0.333333)
 SCS-MP2 total energy:               -130.34687244

 ITER.      SQ.NORM     CORR.ENERGY   TOTAL ENERGY   ENERGY CHANGE        DEN1      VAR(S)    VAR(P)  DIIS     TIME  TIME/IT
   1      1.11754541    -0.44022927  -130.35893080    -0.00543701     0.00999088  0.28D-02  0.29D-02  1  1     0.07     0.04
   2      1.12817829    -0.44055129  -130.35925283    -0.00032203    -0.01207615  0.83D-04  0.49D-03  2  2     0.11     0.04
   3      1.13427929    -0.44092465  -130.35962618    -0.00037335    -0.00292023  0.45D-04  0.49D-04  3  3     0.15     0.04
   4      1.13697562    -0.44094958  -130.35965111    -0.00002493    -0.00092949  0.38D-05  0.85D-05  4  4     0.19     0.04
   5      1.13792379    -0.44097758  -130.35967912    -0.00002801    -0.00019654  0.14D-05  0.16D-05  5  5     0.23     0.04
   6      1.13827207    -0.44096210  -130.35966363     0.00001548    -0.00003917  0.10D-06  0.40D-06  6  6     0.26     0.04
   7      1.13835875    -0.44096385  -130.35966538    -0.00000175    -0.00000252  0.12D-07  0.82D-07  6  1     0.30     0.04
   8      1.13838928    -0.44096393  -130.35966546    -0.00000008     0.00000180  0.41D-08  0.95D-08  6  2     0.34     0.04
   9      1.13839679    -0.44096372  -130.35966526     0.00000021    -0.00000219  0.24D-08  0.11D-08  6  3     0.37     0.04
  10      1.13839560    -0.44096421  -130.35966574    -0.00000049     0.00000058  0.46D-09  0.19D-09  6  4     0.41     0.04
  11      1.13839389    -0.44096427  -130.35966580    -0.00000006     0.00000020  0.14D-09  0.22D-10  6  5     0.44     0.04
  12      1.13839252    -0.44096444  -130.35966597    -0.00000017     0.00000042  0.15D-10  0.73D-11  6  6     0.47     0.04
  13      1.13839193    -0.44096444  -130.35966598    -0.00000001     0.00000012  0.66D-11  0.12D-11  6  1     0.51     0.04
  14      1.13839156    -0.44096446  -130.35966599    -0.00000002     0.00000007  0.92D-12  0.40D-12  6  2     0.55     0.04
  15      1.13839142    -0.44096446  -130.35966600    -0.00000000     0.00000001  0.23D-12  0.13D-12  6  3     0.58     0.04
  16      1.13839133    -0.44096446  -130.35966600    -0.00000000     0.00000001  0.25D-13  0.15D-13  6  5     0.61     0.04
  17      1.13839130    -0.44096447  -130.35966600    -0.00000000     0.00000000  0.74D-15  0.22D-14  6  4     0.65     0.04
  18      1.13839130    -0.44096446  -130.35966600     0.00000000    -0.00000000  0.48D-15  0.32D-15  6  1     0.68     0.04
  19      1.13839130    -0.44096447  -130.35966600    -0.00000000     0.00000000  0.41D-16  0.55D-16  6  6     0.72     0.04
  20      1.13839130    -0.44096447  -130.35966600    -0.00000000     0.00000000  0.84D-17  0.13D-16  6  2     0.77     0.04
  21      1.13839130    -0.44096447  -130.35966600    -0.00000000     0.00000000  0.18D-17  0.99D-18  6  5     0.81     0.04
  22      1.13839129    -0.44096447  -130.35966600     0.00000000     0.00000000  0.11D-18  0.73D-19  6  3     0.84     0.04
  23      1.13839130    -0.44096447  -130.35966600     0.00000000    -0.00000000  0.30D-19  0.16D-19  6  4     0.88     0.04
  24      1.13839130    -0.44096447  -130.35966600     0.00000000    -0.00000000  0.44D-20  0.43D-20  6  1     0.92     0.04
  25      1.13839130    -0.44096447  -130.35966600     0.00000000    -0.00000000  0.51D-21  0.76D-21  6  6     0.96     0.04

 Norm of t1 vector:      0.07379370      S-energy:     0.00000000      T1 diagnostic:  0.01506308
                                                                       D1 diagnostic:  0.04117291

 Doubles amplitudes (print threshold =  0.500E-01):

         I         J         SYM. A    SYM. B    A         B      T(IJ, AB)

         6         6         2         2         1         1     -0.14086736


 Total CPU time for triples:      0.26 sec


 RESULTS
 =======

  Reference energy                   -129.918701533754
  CCSD singlet pair energy             -0.302127696853
  CCSD triplet pair energy             -0.138836768398
  CCSD correlation energy              -0.440964465250

  Triples (T) contribution             -0.019524530923
  Total correlation energy             -0.460488996174

  CCSD total energy                  -130.359665999004
  CCSD[T] energy                     -130.380173667633
  CCSD-T energy                      -130.378800657133
 !CCSD(T) total energy               -130.379190529927

 Timing summary (sec):

 STEP                 CPU(USER)    SYS     CPU(TOT)    WALL
 Transformation          0.03      0.01      0.04      0.04
 CCSD iterations         0.93      0.17      1.10      1.12
 Triples                 0.26      0.00      0.26      0.25

 Program statistics:

 Available memory in ccsd:               994999756
 Min. memory needed in ccsd:                154850
 Max. memory used in ccsd:                  184802
 Max. memory used in cckext:                238416 (25 integral passes)



 **********************************************************************************************************************************
 DATASETS  * FILE   NREC   LENGTH (MB)   RECORD NAMES
              1      24       40.41       500      610      700      900      950      970     1000      129      960     1700   
                                          VAR    BASINP    GEOM    SYMINP    ZMAT    AOBASIS   BASIS     P2S    ABASIS    OPER   
                                         1101     1401     1411     1412     1650     1100     1400     1410     1200     1210   
                                          SR      EKINR    POTR     PVPR    MOLCAS      S      EKIN      POT      H0       H01  
                                         1300     1080     1600     1380   
                                         ERIS     AOSYM     SMH     JKOP   

              2       4        2.85       700     1000      520     2100   
                                         GEOM     BASIS   MCVARS     RHF  

 PROGRAMS   *        TOTAL   CCSD(T)        HF       INT
 CPU TIMES  *         2.22      1.23      0.29      0.61
 REAL TIME  *         3.04 SEC
 DISK USED  *        75.75 MB      
 **********************************************************************************************************************************

 CCSD(T)/cc-pVTZ-DK energy=   -130.379190529927

        CCSD(T)         HF-SCF  
   -130.37919053   -129.91870153
 **********************************************************************************************************************************
 Molpro calculation terminated
 Variable memory released
