
 Primary working directories    : /tmp/r2666/282690.maple
 Secondary working directories  : /tmp/r2666/282690.maple
 Wavefunction directory         : /ddn/home4/r2666/wfu/
 Main file repository           : /tmp/r2666/282690.maple/

 SHA1      : d5ffa45e93fdbca01ffc919aa182cfdae0147319
 NAME      : 2015.1.35
 ARCHNAME  : linux/x86_64
 FC        : /opt/intel/composer_xe_2015.1.133/bin/intel64/ifort
 BLASLIB   : -Wl,-_start-group /opt/intel/mkl/lib/intel64/libmkl_intel_ilp64.a /opt/intel/mkl/lib/intel64/libmkl_intel_thread.a /opt/intel/mkl/lib/intel64/libmkl_core.a -Wl,-_end-group
 id        : olemiss

 Nodes     nprocs
 cn093        1

 Using customized tuning parameters: mindgm=1; mindgv=20; mindgc=4; mindgr=1; noblas=0; minvec=7
 default implementation of scratch files=df  

 ***,hno CCSD(T)/TZ-F12 QFF
 memory, 995, m;
 gthresh,energy=1.d-12,zero=1.d-22,oneint=1.d-22,twoint=1.d-22;
 gthresh,optgrad=1.d-8,optstep=1.d-8;
 nocompress;
 geomtyp=xyz
 bohr
 geometry={
 3
         71        71
 H        0.0000000000        1.6672105031       -1.9242092052
 N        0.0000000000       -0.1658118757       -1.1545359121
 O        0.0000000000        0.0403691626        1.1281555262
 }
 
 basis=vtz-dk
 dkroll=1
   {hf,maxit=500;accu,20;}
 {ccsd(t),nocheck,maxit=250;orbital,IGNORE_ERROR;}

 Variables initialized (889), CPU time= 0.01 sec
 Commands  initialized (702), CPU time= 0.01 sec, 572 directives.
 Default parameters read. Elapsed time= 0.08 sec

 Checking input...
 Passed
1


                                         ***  PROGRAM SYSTEM MOLPRO  ***
                                       Copyright, TTI GmbH Stuttgart, 2015
                                    Version 2015.1 linked Jul  9 2018 13:16:40


 **********************************************************************************************************************************
 LABEL *   hno CCSD(T)/TZ-F12 QFF                                                        
  64 bit serial version                                                                  DATE: 04-Mar-20          TIME: 13:51:13  
 **********************************************************************************************************************************

 SHA1:             d5ffa45e93fdbca01ffc919aa182cfdae0147319
 **********************************************************************************************************************************

 THRESHOLDS:

 ZERO    =  1.00D-22  ONEINT  =  1.00D-22  TWOINT  =  1.00D-22  PREFAC  =  1.00D-14  LOCALI  =  1.00D-09  EORDER  =  1.00D-04
 ENERGY  =  1.00D-12  ETEST   =  0.00D+00  EDENS   =  0.00D+00  THRDEDEF=  1.00D-06  GRADIENT=  1.00D-02  STEP    =  1.00D-03
 ORBITAL =  1.00D-05  CIVEC   =  1.00D-05  COEFF   =  1.00D-04  PRINTCI =  5.00D-02  PUNCHCI =  9.90D+01  OPTGRAD =  3.00D-04
 OPTENERG=  1.00D-06  OPTSTEP =  3.00D-04  THRGRAD =  1.00D-10  COMPRESS=  1.00D-11  VARMIN  =  1.00D-07  VARMAX  =  1.00D-03
 THRDOUB =  0.00D+00  THRDIV  =  1.00D-05  THRRED  =  1.00D-07  THRPSP  =  1.00D+00  THRDC   =  1.00D-10  THRCS   =  1.00D-10
 THRNRM  =  1.00D-08  THREQ   =  0.00D+00  THRDE   =  1.00D+00  THRREF  =  1.00D-05  SPARFAC =  1.00D+00  THRDLP  =  1.00D-07
 THRDIA  =  1.00D-10  THRDLS  =  1.00D-07  THRGPS  =  0.00D+00  THRKEX  =  0.00D+00  THRDIS  =  2.00D-01  THRVAR  =  1.00D-10
 THRLOC  =  1.00D-06  THRGAP  =  1.00D-06  THRLOCT = -1.00D+00  THRGAPT = -1.00D+00  THRORB  =  1.00D-06  THRMLTP =  0.00D+00
 THRCPQCI=  1.00D-10  KEXTA   =  0.00D+00  THRCOARS=  0.00D+00  SYMTOL  =  1.00D-06  GRADTOL =  1.00D-06  THROVL  =  1.00D-08
 THRORTH =  1.00D-08  GRID    =  1.00D-06  GRIDMAX =  1.00D-03  DTMAX   =  0.00D+00  THROCCDE=  1.00D-01  THROCCDE=  1.00D-01



 THRESHOLDS:

 ZERO    =  1.00D-22  ONEINT  =  1.00D-22  TWOINT  =  1.00D-22  PREFAC  =  1.00D-14  LOCALI  =  1.00D-09  EORDER  =  1.00D-04
 ENERGY  =  1.00D-12  ETEST   =  0.00D+00  EDENS   =  0.00D+00  THRDEDEF=  1.00D-06  GRADIENT=  1.00D-02  STEP    =  1.00D-03
 ORBITAL =  1.00D-05  CIVEC   =  1.00D-05  COEFF   =  1.00D-04  PRINTCI =  5.00D-02  PUNCHCI =  9.90D+01  OPTGRAD =  1.00D-08
 OPTENERG=  1.00D-06  OPTSTEP =  1.00D-08  THRGRAD =  1.00D-10  COMPRESS=  1.00D-11  VARMIN  =  1.00D-07  VARMAX  =  1.00D-03
 THRDOUB =  0.00D+00  THRDIV  =  1.00D-05  THRRED  =  1.00D-07  THRPSP  =  1.00D+00  THRDC   =  1.00D-10  THRCS   =  1.00D-10
 THRNRM  =  1.00D-08  THREQ   =  0.00D+00  THRDE   =  1.00D+00  THRREF  =  1.00D-05  SPARFAC =  1.00D+00  THRDLP  =  1.00D-07
 THRDIA  =  1.00D-10  THRDLS  =  1.00D-07  THRGPS  =  0.00D+00  THRKEX  =  0.00D+00  THRDIS  =  2.00D-01  THRVAR  =  1.00D-10
 THRLOC  =  1.00D-06  THRGAP  =  1.00D-06  THRLOCT = -1.00D+00  THRGAPT = -1.00D+00  THRORB  =  1.00D-06  THRMLTP =  0.00D+00
 THRCPQCI=  1.00D-10  KEXTA   =  0.00D+00  THRCOARS=  0.00D+00  SYMTOL  =  1.00D-06  GRADTOL =  1.00D-06  THROVL  =  1.00D-08
 THRORTH =  1.00D-08  GRID    =  1.00D-06  GRIDMAX =  1.00D-03  DTMAX   =  0.00D+00  THROCCDE=  1.00D-01  THROCCDE=  1.00D-01



 Input parameters for SORTINT:

 COMPRESS =    0.000000
 C_FINAL  =    1.000000
 DEBUG    =   -1.000000
 C_SORT1  =    0.000000
 C_SEWARD =    0.000000
 THRESH   =    0.000000
 IO       =  molpro                                                          
 SPRI     =    0.000000
 SETTING GEOMTYP        =    XYZ
 ZUNIT=BOHR
 

 Variable memory set to  995000000 words,  buffer space   230000 words

 SETTING BASIS          =    VTZ-DK
 SETTING DKROLL         =         1.00000000                                  


 Recomputing integrals since basis changed


 Using spherical harmonics

 Library entry H      S cc-pVTZ-DK           selected for orbital group  1
 Library entry H      P cc-pVTZ-DK           selected for orbital group  1
 Library entry H      D cc-pVTZ-DK           selected for orbital group  1
 Library entry N      S cc-pVTZ-DK           selected for orbital group  2
 Library entry N      P cc-pVTZ-DK           selected for orbital group  2
 Library entry N      D cc-pVTZ-DK           selected for orbital group  2
 Library entry N      F cc-pVTZ-DK           selected for orbital group  2
 Library entry O      S cc-pVTZ-DK           selected for orbital group  3
 Library entry O      P cc-pVTZ-DK           selected for orbital group  3
 Library entry O      D cc-pVTZ-DK           selected for orbital group  3
 Library entry O      F cc-pVTZ-DK           selected for orbital group  3


 PROGRAM * SEWARD (Integral evaluation for generally contracted gaussian basis sets)     Author: Roland Lindh, 1990

 Geometry written to block  1 of record 700


 Point group  Cs  



 ATOMIC COORDINATES

 NR  ATOM    CHARGE       X              Y              Z

   1  H       1.00    0.000000000    1.667210503   -1.924209205
   2  N       7.00    0.000000000   -0.165811876   -1.154535912
   3  O       8.00    0.000000000    0.040369163    1.128155526

 Bond lengths in Bohr (Angstrom)

 1-2  1.988056342  2-3  2.291984036
     ( 1.052034110)     ( 1.212865720)

 Bond angles

  1-2-3  107.61603570

 NUCLEAR CHARGE:                   16
 NUMBER OF PRIMITIVE AOS:         111
 NUMBER OF SYMMETRY AOS:          100
 NUMBER OF CONTRACTIONS:           74   (  50A'  +  24A"  )
 NUMBER OF CORE ORBITALS:           2   (   2A'  +   0A"  )
 NUMBER OF VALENCE ORBITALS:        9   (   7A'  +   2A"  )


 NUCLEAR REPULSION ENERGY   30.26692407

 One-electron integrals computed with SEWARD

 2nd-order Douglas-Kroll-Hess method activated. Optimal DKH parametrization is used.

 Computing Douglas-Kroll / X2C integrals


        1874283. INTEGRALS WRITTEN OUT IN     458 BLOCKS ON RECORD 1290 OF FILE 1


 NUMBER OF SORTED TWO-ELECTRON INTEGRALS:    2006100.     BUFFER LENGTH:  32768
 NUMBER OF SEGMENTS:   1  SEGMENT LENGTH:    2006100      RECORD LENGTH: 524288

 Memory used in sort:       2.56 MW

 SORT1 READ     1874283. AND WROTE     1914195. INTEGRALS IN      6 RECORDS. CPU TIME:     0.03 SEC, REAL TIME:     0.04 SEC
 SORT2 READ     1914195. AND WROTE     2006100. INTEGRALS IN      1 RECORDS. CPU TIME:     0.03 SEC, REAL TIME:     0.06 SEC

 FILE SIZES:   FILE 1:    50.2 MBYTE,  FILE 4:    25.2 MBYTE,   TOTAL:     75.4 MBYTE

 OPERATOR DM      FOR CENTER  0  COORDINATES:    0.000000    0.000000    0.000000

 Eigenvalues of metric

         1 0.247E-02 0.398E-02 0.423E-02 0.837E-02 0.130E-01 0.330E-01 0.428E-01 0.465E-01
         2 0.345E-01 0.466E-01 0.102E+00 0.112E+00 0.236E+00 0.342E+00 0.397E+00 0.451E+00


 **********************************************************************************************************************************
 DATASETS  * FILE   NREC   LENGTH (MB)   RECORD NAMES
              1      23       36.03       500      610      700      900      950      970     1000      129      960     1700   
                                          VAR    BASINP    GEOM    SYMINP    ZMAT    AOBASIS   BASIS     P2S    ABASIS    OPER   
                                         1101     1401     1411     1412     1650     1100     1400     1410     1200     1210   
                                          SR      EKINR    POTR     PVPR    MOLCAS      S      EKIN      POT      H0       H01  
                                         1300     1080     1600   
                                         ERIS     AOSYM     SMH  

 PROGRAMS   *        TOTAL       INT
 CPU TIMES  *         0.68      0.56
 REAL TIME  *         1.25 SEC
 DISK USED  *        75.75 MB      
 **********************************************************************************************************************************


 PROGRAM * RHF-SCF (CLOSED SHELL)       Authors: W. Meyer, H.-J. Werner


 NUMBER OF ELECTRONS:       8+    8-
 CONVERGENCE THRESHOLDS:    1.00E-10 (Density)    1.00E-13 (Energy)
 MAX. NUMBER OF ITERATIONS:      500
 INTERPOLATION TYPE:            DIIS
 INTERPOLATION STEPS:              2 (START)      1 (STEP)
 LEVEL SHIFTS:                  0.00 (CLOSED)  0.00 (OPEN) 



 Orbital guess generated from atomic densities. Full valence occupancy:    9   2

 Molecular orbital dump at record        2100.2

 Initial occupancy:   7   1

 ITERATION    DDIFF          GRAD             ENERGY        2-EL.EN.            DIPOLE MOMENTS         DIIS   ORB.
    1      0.000D+00      0.000D+00      -129.86606999    154.044600    0.00000    0.58761   -1.05465    0    start
    2      0.000D+00      0.137D-01      -129.89264827    155.143626    0.00000    0.61845   -0.21524    1    diag
    3      0.188D-01      0.106D-01      -129.91596200    155.284659    0.00000    0.56328   -0.60524    2    diag
    4      0.916D-02      0.156D-02      -129.91670513    155.015977    0.00000    0.57193   -0.54532    3    diag
    5      0.166D-02      0.519D-03      -129.91682155    155.101856    0.00000    0.57726   -0.54620    4    diag
    6      0.723D-03      0.155D-03      -129.91684092    155.086796    0.00000    0.57776   -0.54192    5    diag
    7      0.281D-03      0.781D-04      -129.91684672    155.089031    0.00000    0.57896   -0.53932    6    diag
    8      0.195D-03      0.255D-04      -129.91684730    155.088314    0.00000    0.57897   -0.53847    7    diag
    9      0.683D-04      0.463D-05      -129.91684732    155.088193    0.00000    0.57892   -0.53830    8    diag
   10      0.132D-04      0.100D-05      -129.91684732    155.088176    0.00000    0.57889   -0.53828    9    orth
   11      0.283D-05      0.197D-06      -129.91684732    155.088172    0.00000    0.57888   -0.53828    9    diag
   12      0.515D-06      0.419D-07      -129.91684732    155.088170    0.00000    0.57888   -0.53828    9    diag
   13      0.114D-06      0.106D-07      -129.91684732    155.088170    0.00000    0.57888   -0.53828    9    diag
   14      0.287D-07      0.189D-08      -129.91684732    155.088170    0.00000    0.57888   -0.53828    9    diag
   15      0.438D-08      0.479D-09      -129.91684732    155.088170    0.00000    0.57888   -0.53828    9    diag
   16      0.106D-08      0.112D-09      -129.91684732    155.088170    0.00000    0.57888   -0.53828    9    diag
   17      0.168D-09      0.303D-10      -129.91684732    155.088170    0.00000    0.57888   -0.53828    9    diag
   18      0.470D-10      0.966D-11      -129.91684732    155.088170    0.00000    0.57888   -0.53828    9    diag
   19      0.191D-10      0.182D-11      -129.91684732    155.088170    0.00000    0.57888   -0.53828    9    fixocc
   20      0.412D-11      0.238D-12      -129.91684732    155.088170    0.00000    0.57888   -0.53828    9    orth
   21      0.578D-12      0.674D-13      -129.91684732    155.088170    0.00000    0.57888   -0.53828    0    orth

 Final occupancy:   7   1

 !RHF STATE 1.1 Energy               -129.916847321448
 Nuclear energy                        30.26692407
 One-electron energy                 -237.72785646
 Two-electron energy                   77.54408507
 Virial quotient                       -0.99768679
 !RHF STATE 1.1 Dipole moment           0.00000000     0.57887726    -0.53827621
 Dipole moment /Debye                   0.00000000     1.47126286    -1.36807204

 Orbital energies:

         1.1          2.1          3.1          4.1          5.1          6.1          7.1          8.1          9.1
    -20.665381   -15.717763    -1.523698    -0.992961    -0.741578    -0.660231    -0.428619     0.143878     0.368850

         1.2          2.2          3.2
     -0.589612     0.084713     0.613567

 HOMO      7.1    -0.428619 =     -11.6633eV
 LUMO      2.2     0.084713 =       2.3052eV
 LUMO-HOMO         0.513333 =      13.9685eV


 **********************************************************************************************************************************
 DATASETS  * FILE   NREC   LENGTH (MB)   RECORD NAMES
              1      23       36.03       500      610      700      900      950      970     1000      129      960     1700   
                                          VAR    BASINP    GEOM    SYMINP    ZMAT    AOBASIS   BASIS     P2S    ABASIS    OPER   
                                         1101     1401     1411     1412     1650     1100     1400     1410     1200     1210   
                                          SR      EKINR    POTR     PVPR    MOLCAS      S      EKIN      POT      H0       H01  
                                         1300     1080     1600   
                                         ERIS     AOSYM     SMH  

              2       4        2.85       700     1000      520     2100   
                                         GEOM     BASIS   MCVARS     RHF  

 PROGRAMS   *        TOTAL        HF       INT
 CPU TIMES  *         0.90      0.22      0.56
 REAL TIME  *         1.54 SEC
 DISK USED  *        75.75 MB      
 **********************************************************************************************************************************


 PROGRAM * CCSD (Closed-shell coupled cluster)     Authors: C. Hampel, H.-J. Werner, 1991, M. Deegan, P.J. Knowles, 1992


 Convergence thresholds:  THRVAR = 1.00D-08  THRDEN = 1.00D-12

 CCSD(T)     terms to be evaluated (factor= 1.000)


 Number of core orbitals:           2 (   2   0 )
 Number of closed-shell orbitals:   6 (   5   1 )
 Number of external orbitals:      66 (  43  23 )

 Molecular orbitals read from record     2100.2  Type=RHF/CANONICAL (state 1.1)

 Number of N-1 electron functions:               6
 Number of N-2 electron functions:              21
 Number of singly external CSFs:               238
 Number of doubly external CSFs:             41002
 Total number of CSFs:                       41241

 Length of J-op  integral file:               0.00 MB
 Length of K-op  integral file:               0.25 MB
 Length of 3-ext integral record:             0.00 MB

 Memory could be reduced to 1.65 Mwords without degradation in triples

 Integral transformation finished. Total CPU:   0.02 sec, npass=  1  Memory used:   0.55 MW

 Reference energy:                   -129.91684732

 MP2 singlet pair energy:              -0.27429049
 MP2 triplet pair energy:              -0.16293023
 MP2 correlation energy:               -0.43722072
 MP2 total energy:                   -130.35406804

 SCS-MP2 correlation energy:           -0.43052740   (PS=  1.200000  PT=  0.333333)
 SCS-MP2 total energy:               -130.34737472

 ITER.      SQ.NORM     CORR.ENERGY   TOTAL ENERGY   ENERGY CHANGE        DEN1      VAR(S)    VAR(P)  DIIS     TIME  TIME/IT
   1      1.11898057    -0.44210232  -130.35894964    -0.00488160     0.01110631  0.30D-02  0.31D-02  1  1     0.05     0.04
   2      1.12993642    -0.44231639  -130.35916371    -0.00021407    -0.01240081  0.90D-04  0.51D-03  2  2     0.09     0.04
   3      1.13630556    -0.44270746  -130.35955479    -0.00039107    -0.00300998  0.48D-04  0.52D-04  3  3     0.12     0.04
   4      1.13915938    -0.44273478  -130.35958210    -0.00002732    -0.00097238  0.41D-05  0.90D-05  4  4     0.15     0.04
   5      1.14017502    -0.44276491  -130.35961223    -0.00003013    -0.00021074  0.14D-05  0.17D-05  5  5     0.19     0.04
   6      1.14053664    -0.44274780  -130.35959512     0.00001711    -0.00004144  0.96D-07  0.41D-06  6  6     0.22     0.04
   7      1.14062049    -0.44274994  -130.35959726    -0.00000214    -0.00000178  0.11D-07  0.88D-07  6  1     0.26     0.04
   8      1.14065082    -0.44274985  -130.35959717     0.00000009     0.00000194  0.44D-08  0.11D-07  6  2     0.30     0.04
   9      1.14065860    -0.44274966  -130.35959698     0.00000019    -0.00000230  0.25D-08  0.12D-08  6  3     0.33     0.04
  10      1.14065734    -0.44275016  -130.35959748    -0.00000050     0.00000065  0.48D-09  0.21D-09  6  4     0.36     0.04
  11      1.14065565    -0.44275022  -130.35959754    -0.00000006     0.00000016  0.15D-09  0.23D-10  6  5     0.40     0.04
  12      1.14065427    -0.44275040  -130.35959772    -0.00000018     0.00000043  0.15D-10  0.73D-11  6  6     0.43     0.04
  13      1.14065368    -0.44275040  -130.35959772    -0.00000001     0.00000012  0.64D-11  0.12D-11  6  1     0.47     0.04
  14      1.14065329    -0.44275042  -130.35959774    -0.00000002     0.00000008  0.91D-12  0.42D-12  6  2     0.50     0.04
  15      1.14065315    -0.44275042  -130.35959775    -0.00000000     0.00000001  0.24D-12  0.13D-12  6  3     0.54     0.04
  16      1.14065304    -0.44275043  -130.35959775    -0.00000000     0.00000002  0.73D-14  0.34D-13  6  1     0.57     0.04
  17      1.14065302    -0.44275043  -130.35959775     0.00000000    -0.00000000  0.27D-14  0.24D-14  6  4     0.61     0.04
  18      1.14065302    -0.44275043  -130.35959775    -0.00000000     0.00000000  0.68D-15  0.41D-15  6  5     0.64     0.04
  19      1.14065302    -0.44275043  -130.35959775     0.00000000    -0.00000000  0.13D-15  0.77D-16  6  6     0.68     0.04
  20      1.14065301    -0.44275043  -130.35959775    -0.00000000     0.00000000  0.19D-16  0.18D-16  6  2     0.71     0.04
  21      1.14065301    -0.44275043  -130.35959775    -0.00000000     0.00000000  0.53D-18  0.13D-17  6  4     0.74     0.04
  22      1.14065301    -0.44275043  -130.35959775    -0.00000000     0.00000000  0.80D-19  0.13D-18  6  3     0.78     0.04
  23      1.14065301    -0.44275043  -130.35959775    -0.00000000     0.00000000  0.75D-20  0.14D-19  6  1     0.82     0.04
  24      1.14065301    -0.44275043  -130.35959775     0.00000000     0.00000000  0.38D-20  0.19D-20  6  6     0.85     0.04
  25      1.14065301    -0.44275043  -130.35959775     0.00000000    -0.00000000  0.24D-21  0.41D-21  6  4     0.88     0.04

 Norm of t1 vector:      0.07564786      S-energy:    -0.00000000      T1 diagnostic:  0.01544155
                                                                       D1 diagnostic:  0.04303682

 Doubles amplitudes (print threshold =  0.500E-01):

         I         J         SYM. A    SYM. B    A         B      T(IJ, AB)

         6         6         2         2         1         1     -0.14509785


 Total CPU time for triples:      0.22 sec


 RESULTS
 =======

  Reference energy                   -129.916847321448
  CCSD singlet pair energy             -0.303685538195
  CCSD triplet pair energy             -0.139064889422
  CCSD correlation energy              -0.442750427617

  Triples (T) contribution             -0.019935755169
  Total correlation energy             -0.462686182786

  CCSD total energy                  -130.359597749065
  CCSD[T] energy                     -130.380570311373
  CCSD-T energy                      -130.379130872603
 !CCSD(T) total energy               -130.379533504235

 Timing summary (sec):

 STEP                 CPU(USER)    SYS     CPU(TOT)    WALL
 Transformation          0.02      0.02      0.04      0.04
 CCSD iterations         0.88      0.16      1.04      1.03
 Triples                 0.22      0.01      0.23      0.24

 Program statistics:

 Available memory in ccsd:               994999756
 Min. memory needed in ccsd:                154850
 Max. memory used in ccsd:                  184802
 Max. memory used in cckext:                238416 (25 integral passes)



 **********************************************************************************************************************************
 DATASETS  * FILE   NREC   LENGTH (MB)   RECORD NAMES
              1      24       40.41       500      610      700      900      950      970     1000      129      960     1700   
                                          VAR    BASINP    GEOM    SYMINP    ZMAT    AOBASIS   BASIS     P2S    ABASIS    OPER   
                                         1101     1401     1411     1412     1650     1100     1400     1410     1200     1210   
                                          SR      EKINR    POTR     PVPR    MOLCAS      S      EKIN      POT      H0       H01  
                                         1300     1080     1600     1380   
                                         ERIS     AOSYM     SMH     JKOP   

              2       4        2.85       700     1000      520     2100   
                                         GEOM     BASIS   MCVARS     RHF  

 PROGRAMS   *        TOTAL   CCSD(T)        HF       INT
 CPU TIMES  *         2.04      1.14      0.22      0.56
 REAL TIME  *         2.88 SEC
 DISK USED  *        75.75 MB      
 **********************************************************************************************************************************

 CCSD(T)/cc-pVTZ-DK energy=   -130.379533504235

        CCSD(T)         HF-SCF  
   -130.37953350   -129.91684732
 **********************************************************************************************************************************
 Molpro calculation terminated
 Variable memory released
