
 Primary working directories    : /tmp/r2666/282637.maple
 Secondary working directories  : /tmp/r2666/282637.maple
 Wavefunction directory         : /ddn/home4/r2666/wfu/
 Main file repository           : /tmp/r2666/282637.maple/

 SHA1      : d5ffa45e93fdbca01ffc919aa182cfdae0147319
 NAME      : 2015.1.35
 ARCHNAME  : linux/x86_64
 FC        : /opt/intel/composer_xe_2015.1.133/bin/intel64/ifort
 BLASLIB   : -Wl,-_start-group /opt/intel/mkl/lib/intel64/libmkl_intel_ilp64.a /opt/intel/mkl/lib/intel64/libmkl_intel_thread.a /opt/intel/mkl/lib/intel64/libmkl_core.a -Wl,-_end-group
 id        : olemiss

 Nodes     nprocs
 cn075        1

 Using customized tuning parameters: mindgm=1; mindgv=20; mindgc=4; mindgr=1; noblas=0; minvec=7
 default implementation of scratch files=df  

 ***,hno CCSD(T)/TZ-F12 QFF
 memory, 995, m;
 gthresh,energy=1.d-12,zero=1.d-22,oneint=1.d-22,twoint=1.d-22;
 gthresh,optgrad=1.d-8,optstep=1.d-8;
 nocompress;
 geomtyp=xyz
 bohr
 geometry={
 3
         18        18
 H        0.0000000000        1.6585473352       -1.9241830682
 N        0.0000000000       -0.1542462744       -1.1551792843
 O        0.0000000000        0.0374667292        1.1287727615
 }
 
 basis=vtz-dk
 dkroll=1
   {hf,maxit=500;accu,20;}
 {ccsd(t),nocheck,maxit=250;orbital,IGNORE_ERROR;}

 Variables initialized (889), CPU time= 0.00 sec
 Commands  initialized (702), CPU time= 0.01 sec, 572 directives.
 Default parameters read. Elapsed time= 0.06 sec

 Checking input...
 Passed
1


                                         ***  PROGRAM SYSTEM MOLPRO  ***
                                       Copyright, TTI GmbH Stuttgart, 2015
                                    Version 2015.1 linked Jul  9 2018 13:16:40


 **********************************************************************************************************************************
 LABEL *   hno CCSD(T)/TZ-F12 QFF                                                        
  64 bit serial version                                                                  DATE: 04-Mar-20          TIME: 13:51:07  
 **********************************************************************************************************************************

 SHA1:             d5ffa45e93fdbca01ffc919aa182cfdae0147319
 **********************************************************************************************************************************

 THRESHOLDS:

 ZERO    =  1.00D-22  ONEINT  =  1.00D-22  TWOINT  =  1.00D-22  PREFAC  =  1.00D-14  LOCALI  =  1.00D-09  EORDER  =  1.00D-04
 ENERGY  =  1.00D-12  ETEST   =  0.00D+00  EDENS   =  0.00D+00  THRDEDEF=  1.00D-06  GRADIENT=  1.00D-02  STEP    =  1.00D-03
 ORBITAL =  1.00D-05  CIVEC   =  1.00D-05  COEFF   =  1.00D-04  PRINTCI =  5.00D-02  PUNCHCI =  9.90D+01  OPTGRAD =  3.00D-04
 OPTENERG=  1.00D-06  OPTSTEP =  3.00D-04  THRGRAD =  1.00D-10  COMPRESS=  1.00D-11  VARMIN  =  1.00D-07  VARMAX  =  1.00D-03
 THRDOUB =  0.00D+00  THRDIV  =  1.00D-05  THRRED  =  1.00D-07  THRPSP  =  1.00D+00  THRDC   =  1.00D-10  THRCS   =  1.00D-10
 THRNRM  =  1.00D-08  THREQ   =  0.00D+00  THRDE   =  1.00D+00  THRREF  =  1.00D-05  SPARFAC =  1.00D+00  THRDLP  =  1.00D-07
 THRDIA  =  1.00D-10  THRDLS  =  1.00D-07  THRGPS  =  0.00D+00  THRKEX  =  0.00D+00  THRDIS  =  2.00D-01  THRVAR  =  1.00D-10
 THRLOC  =  1.00D-06  THRGAP  =  1.00D-06  THRLOCT = -1.00D+00  THRGAPT = -1.00D+00  THRORB  =  1.00D-06  THRMLTP =  0.00D+00
 THRCPQCI=  1.00D-10  KEXTA   =  0.00D+00  THRCOARS=  0.00D+00  SYMTOL  =  1.00D-06  GRADTOL =  1.00D-06  THROVL  =  1.00D-08
 THRORTH =  1.00D-08  GRID    =  1.00D-06  GRIDMAX =  1.00D-03  DTMAX   =  0.00D+00  THROCCDE=  1.00D-01  THROCCDE=  1.00D-01



 THRESHOLDS:

 ZERO    =  1.00D-22  ONEINT  =  1.00D-22  TWOINT  =  1.00D-22  PREFAC  =  1.00D-14  LOCALI  =  1.00D-09  EORDER  =  1.00D-04
 ENERGY  =  1.00D-12  ETEST   =  0.00D+00  EDENS   =  0.00D+00  THRDEDEF=  1.00D-06  GRADIENT=  1.00D-02  STEP    =  1.00D-03
 ORBITAL =  1.00D-05  CIVEC   =  1.00D-05  COEFF   =  1.00D-04  PRINTCI =  5.00D-02  PUNCHCI =  9.90D+01  OPTGRAD =  1.00D-08
 OPTENERG=  1.00D-06  OPTSTEP =  1.00D-08  THRGRAD =  1.00D-10  COMPRESS=  1.00D-11  VARMIN  =  1.00D-07  VARMAX  =  1.00D-03
 THRDOUB =  0.00D+00  THRDIV  =  1.00D-05  THRRED  =  1.00D-07  THRPSP  =  1.00D+00  THRDC   =  1.00D-10  THRCS   =  1.00D-10
 THRNRM  =  1.00D-08  THREQ   =  0.00D+00  THRDE   =  1.00D+00  THRREF  =  1.00D-05  SPARFAC =  1.00D+00  THRDLP  =  1.00D-07
 THRDIA  =  1.00D-10  THRDLS  =  1.00D-07  THRGPS  =  0.00D+00  THRKEX  =  0.00D+00  THRDIS  =  2.00D-01  THRVAR  =  1.00D-10
 THRLOC  =  1.00D-06  THRGAP  =  1.00D-06  THRLOCT = -1.00D+00  THRGAPT = -1.00D+00  THRORB  =  1.00D-06  THRMLTP =  0.00D+00
 THRCPQCI=  1.00D-10  KEXTA   =  0.00D+00  THRCOARS=  0.00D+00  SYMTOL  =  1.00D-06  GRADTOL =  1.00D-06  THROVL  =  1.00D-08
 THRORTH =  1.00D-08  GRID    =  1.00D-06  GRIDMAX =  1.00D-03  DTMAX   =  0.00D+00  THROCCDE=  1.00D-01  THROCCDE=  1.00D-01



 Input parameters for SORTINT:

 COMPRESS =    0.000000
 C_FINAL  =    1.000000
 DEBUG    =   -1.000000
 C_SORT1  =    0.000000
 C_SEWARD =    0.000000
 THRESH   =    0.000000
 IO       =  molpro                                                          
 SPRI     =    0.000000
 SETTING GEOMTYP        =    XYZ
 ZUNIT=BOHR
 

 Variable memory set to  995000000 words,  buffer space   230000 words

 SETTING BASIS          =    VTZ-DK
 SETTING DKROLL         =         1.00000000                                  


 Recomputing integrals since basis changed


 Using spherical harmonics

 Library entry H      S cc-pVTZ-DK           selected for orbital group  1
 Library entry H      P cc-pVTZ-DK           selected for orbital group  1
 Library entry H      D cc-pVTZ-DK           selected for orbital group  1
 Library entry N      S cc-pVTZ-DK           selected for orbital group  2
 Library entry N      P cc-pVTZ-DK           selected for orbital group  2
 Library entry N      D cc-pVTZ-DK           selected for orbital group  2
 Library entry N      F cc-pVTZ-DK           selected for orbital group  2
 Library entry O      S cc-pVTZ-DK           selected for orbital group  3
 Library entry O      P cc-pVTZ-DK           selected for orbital group  3
 Library entry O      D cc-pVTZ-DK           selected for orbital group  3
 Library entry O      F cc-pVTZ-DK           selected for orbital group  3


 PROGRAM * SEWARD (Integral evaluation for generally contracted gaussian basis sets)     Author: Roland Lindh, 1990

 Geometry written to block  1 of record 700


 Point group  Cs  



 ATOMIC COORDINATES

 NR  ATOM    CHARGE       X              Y              Z

   1  H       1.00    0.000000000    1.658547335   -1.924183068
   2  N       7.00    0.000000000   -0.154246274   -1.155179284
   3  O       8.00    0.000000000    0.037466729    1.128772762

 Bond lengths in Bohr (Angstrom)

 1-2  1.969159082  2-3  2.291984036
     ( 1.042034111)     ( 1.212865720)

 Bond angles

  1-2-3  108.18899349

 NUCLEAR CHARGE:                   16
 NUMBER OF PRIMITIVE AOS:         111
 NUMBER OF SYMMETRY AOS:          100
 NUMBER OF CONTRACTIONS:           74   (  50A'  +  24A"  )
 NUMBER OF CORE ORBITALS:           2   (   2A'  +   0A"  )
 NUMBER OF VALENCE ORBITALS:        9   (   7A'  +   2A"  )


 NUCLEAR REPULSION ENERGY   30.30217518

 One-electron integrals computed with SEWARD

 2nd-order Douglas-Kroll-Hess method activated. Optimal DKH parametrization is used.

 Computing Douglas-Kroll / X2C integrals


        1874283. INTEGRALS WRITTEN OUT IN     458 BLOCKS ON RECORD 1290 OF FILE 1


 NUMBER OF SORTED TWO-ELECTRON INTEGRALS:    2006100.     BUFFER LENGTH:  32768
 NUMBER OF SEGMENTS:   1  SEGMENT LENGTH:    2006100      RECORD LENGTH: 524288

 Memory used in sort:       2.56 MW

 SORT1 READ     1874283. AND WROTE     1914195. INTEGRALS IN      6 RECORDS. CPU TIME:     0.03 SEC, REAL TIME:     0.06 SEC
 SORT2 READ     1914195. AND WROTE     2006100. INTEGRALS IN      1 RECORDS. CPU TIME:     0.06 SEC, REAL TIME:     0.06 SEC

 FILE SIZES:   FILE 1:    50.2 MBYTE,  FILE 4:    25.2 MBYTE,   TOTAL:     75.4 MBYTE

 OPERATOR DM      FOR CENTER  0  COORDINATES:    0.000000    0.000000    0.000000

 Eigenvalues of metric

         1 0.243E-02 0.394E-02 0.423E-02 0.819E-02 0.128E-01 0.328E-01 0.428E-01 0.463E-01
         2 0.344E-01 0.465E-01 0.102E+00 0.110E+00 0.234E+00 0.338E+00 0.395E+00 0.450E+00


 **********************************************************************************************************************************
 DATASETS  * FILE   NREC   LENGTH (MB)   RECORD NAMES
              1      23       36.03       500      610      700      900      950      970     1000      129      960     1700   
                                          VAR    BASINP    GEOM    SYMINP    ZMAT    AOBASIS   BASIS     P2S    ABASIS    OPER   
                                         1101     1401     1411     1412     1650     1100     1400     1410     1200     1210   
                                          SR      EKINR    POTR     PVPR    MOLCAS      S      EKIN      POT      H0       H01  
                                         1300     1080     1600   
                                         ERIS     AOSYM     SMH  

 PROGRAMS   *        TOTAL       INT
 CPU TIMES  *         0.63      0.55
 REAL TIME  *         1.21 SEC
 DISK USED  *        75.75 MB      
 **********************************************************************************************************************************


 PROGRAM * RHF-SCF (CLOSED SHELL)       Authors: W. Meyer, H.-J. Werner


 NUMBER OF ELECTRONS:       8+    8-
 CONVERGENCE THRESHOLDS:    1.00E-10 (Density)    1.00E-13 (Energy)
 MAX. NUMBER OF ITERATIONS:      500
 INTERPOLATION TYPE:            DIIS
 INTERPOLATION STEPS:              2 (START)      1 (STEP)
 LEVEL SHIFTS:                  0.00 (CLOSED)  0.00 (OPEN) 



 Orbital guess generated from atomic densities. Full valence occupancy:    9   2

 Molecular orbital dump at record        2100.2

 Initial occupancy:   7   1

 ITERATION    DDIFF          GRAD             ENERGY        2-EL.EN.            DIPOLE MOMENTS         DIIS   ORB.
    1      0.000D+00      0.000D+00      -129.86689920    154.111882    0.00000    0.59891   -1.05407    0    start
    2      0.000D+00      0.136D-01      -129.89347993    155.202946    0.00000    0.61903   -0.22166    1    diag
    3      0.187D-01      0.105D-01      -129.91626898    155.346149    0.00000    0.56902   -0.60839    2    diag
    4      0.908D-02      0.156D-02      -129.91701169    155.078489    0.00000    0.57749   -0.54830    3    diag
    5      0.167D-02      0.516D-03      -129.91712600    155.163802    0.00000    0.58275   -0.54921    4    diag
    6      0.718D-03      0.153D-03      -129.91714486    155.148924    0.00000    0.58326   -0.54498    5    diag
    7      0.277D-03      0.773D-04      -129.91715053    155.151124    0.00000    0.58445   -0.54240    6    diag
    8      0.193D-03      0.252D-04      -129.91715110    155.150421    0.00000    0.58445   -0.54155    7    diag
    9      0.675D-04      0.457D-05      -129.91715112    155.150302    0.00000    0.58440   -0.54139    8    diag
   10      0.131D-04      0.996D-06      -129.91715112    155.150285    0.00000    0.58437   -0.54137    9    orth
   11      0.283D-05      0.194D-06      -129.91715112    155.150281    0.00000    0.58436   -0.54137    9    diag
   12      0.509D-06      0.411D-07      -129.91715112    155.150280    0.00000    0.58436   -0.54136    9    diag
   13      0.111D-06      0.103D-07      -129.91715112    155.150280    0.00000    0.58436   -0.54136    9    diag
   14      0.278D-07      0.187D-08      -129.91715112    155.150280    0.00000    0.58436   -0.54136    9    diag
   15      0.422D-08      0.475D-09      -129.91715112    155.150280    0.00000    0.58436   -0.54136    9    diag
   16      0.104D-08      0.114D-09      -129.91715112    155.150280    0.00000    0.58436   -0.54136    9    diag
   17      0.165D-09      0.309D-10      -129.91715112    155.150280    0.00000    0.58436   -0.54136    9    diag
   18      0.472D-10      0.101D-10      -129.91715112    155.150280    0.00000    0.58436   -0.54136    9    diag
   19      0.193D-10      0.213D-11      -129.91715112    155.150280    0.00000    0.58436   -0.54136    9    fixocc
   20      0.515D-11      0.397D-12      -129.91715112    155.150280    0.00000    0.58436   -0.54136    9    orth
   21      0.112D-11      0.132D-12      -129.91715112    155.150280    0.00000    0.58436   -0.54136    0    orth

 Final occupancy:   7   1

 !RHF STATE 1.1 Energy               -129.917151122439
 Nuclear energy                        30.30217518
 One-electron energy                 -237.79446618
 Two-electron energy                   77.57513987
 Virial quotient                       -0.99758250
 !RHF STATE 1.1 Dipole moment           0.00000000     0.58435876    -0.54136384
 Dipole moment /Debye                   0.00000000     1.48519455    -1.37591952

 Orbital energies:

         1.1          2.1          3.1          4.1          5.1          6.1          7.1          8.1          9.1
    -20.665320   -15.716264    -1.523514    -0.995849    -0.742635    -0.660321    -0.428811     0.144392     0.368861

         1.2          2.2          3.2
     -0.589379     0.084661     0.613634

 HOMO      7.1    -0.428811 =     -11.6685eV
 LUMO      2.2     0.084661 =       2.3037eV
 LUMO-HOMO         0.513472 =      13.9723eV


 **********************************************************************************************************************************
 DATASETS  * FILE   NREC   LENGTH (MB)   RECORD NAMES
              1      23       36.03       500      610      700      900      950      970     1000      129      960     1700   
                                          VAR    BASINP    GEOM    SYMINP    ZMAT    AOBASIS   BASIS     P2S    ABASIS    OPER   
                                         1101     1401     1411     1412     1650     1100     1400     1410     1200     1210   
                                          SR      EKINR    POTR     PVPR    MOLCAS      S      EKIN      POT      H0       H01  
                                         1300     1080     1600   
                                         ERIS     AOSYM     SMH  

              2       4        2.85       700     1000      520     2100   
                                         GEOM     BASIS   MCVARS     RHF  

 PROGRAMS   *        TOTAL        HF       INT
 CPU TIMES  *         0.84      0.21      0.55
 REAL TIME  *         1.49 SEC
 DISK USED  *        75.75 MB      
 **********************************************************************************************************************************


 PROGRAM * CCSD (Closed-shell coupled cluster)     Authors: C. Hampel, H.-J. Werner, 1991, M. Deegan, P.J. Knowles, 1992


 Convergence thresholds:  THRVAR = 1.00D-08  THRDEN = 1.00D-12

 CCSD(T)     terms to be evaluated (factor= 1.000)


 Number of core orbitals:           2 (   2   0 )
 Number of closed-shell orbitals:   6 (   5   1 )
 Number of external orbitals:      66 (  43  23 )

 Molecular orbitals read from record     2100.2  Type=RHF/CANONICAL (state 1.1)

 Number of N-1 electron functions:               6
 Number of N-2 electron functions:              21
 Number of singly external CSFs:               238
 Number of doubly external CSFs:             41002
 Total number of CSFs:                       41241

 Length of J-op  integral file:               0.00 MB
 Length of K-op  integral file:               0.25 MB
 Length of 3-ext integral record:             0.00 MB

 Memory could be reduced to 1.65 Mwords without degradation in triples

 Integral transformation finished. Total CPU:   0.02 sec, npass=  1  Memory used:   0.55 MW

 Reference energy:                   -129.91715112

 MP2 singlet pair energy:              -0.27405549
 MP2 triplet pair energy:              -0.16279552
 MP2 correlation energy:               -0.43685101
 MP2 total energy:                   -130.35400214

 SCS-MP2 correlation energy:           -0.43016158   (PS=  1.200000  PT=  0.333333)
 SCS-MP2 total energy:               -130.34731270

 ITER.      SQ.NORM     CORR.ENERGY   TOTAL ENERGY   ENERGY CHANGE        DEN1      VAR(S)    VAR(P)  DIIS     TIME  TIME/IT
   1      1.11866056    -0.44175784  -130.35890896    -0.00490683     0.01100601  0.30D-02  0.30D-02  1  1     0.07     0.04
   2      1.12956003    -0.44197474  -130.35912586    -0.00021690    -0.01235310  0.89D-04  0.51D-03  2  2     0.10     0.04
   3      1.13587695    -0.44236010  -130.35951122    -0.00038535    -0.00298834  0.47D-04  0.52D-04  3  3     0.14     0.04
   4      1.13871742    -0.44238821  -130.35953933    -0.00002811    -0.00096713  0.39D-05  0.90D-05  4  4     0.17     0.04
   5      1.13972371    -0.44241773  -130.35956886    -0.00002953    -0.00020850  0.13D-05  0.17D-05  5  5     0.21     0.04
   6      1.14008297    -0.44240080  -130.35955192     0.00001694    -0.00004111  0.88D-07  0.42D-06  6  6     0.24     0.04
   7      1.14016630    -0.44240312  -130.35955424    -0.00000232    -0.00000171  0.10D-07  0.90D-07  6  1     0.27     0.04
   8      1.14019626    -0.44240307  -130.35955420     0.00000004     0.00000209  0.48D-08  0.11D-07  6  2     0.31     0.04
   9      1.14020388    -0.44240291  -130.35955403     0.00000016    -0.00000235  0.26D-08  0.12D-08  6  3     0.34     0.04
  10      1.14020256    -0.44240341  -130.35955454    -0.00000050     0.00000068  0.49D-09  0.21D-09  6  4     0.38     0.04
  11      1.14020089    -0.44240347  -130.35955459    -0.00000006     0.00000014  0.14D-09  0.22D-10  6  5     0.42     0.04
  12      1.14019954    -0.44240365  -130.35955477    -0.00000018     0.00000043  0.14D-10  0.71D-11  6  6     0.45     0.04
  13      1.14019896    -0.44240365  -130.35955478    -0.00000001     0.00000012  0.61D-11  0.12D-11  6  1     0.49     0.04
  14      1.14019858    -0.44240367  -130.35955480    -0.00000002     0.00000007  0.87D-12  0.42D-12  6  2     0.52     0.04
  15      1.14019844    -0.44240368  -130.35955480    -0.00000000     0.00000001  0.22D-12  0.14D-12  6  3     0.56     0.04
  16      1.14019834    -0.44240368  -130.35955480    -0.00000000     0.00000001  0.23D-13  0.16D-13  6  5     0.60     0.04
  17      1.14019831    -0.44240368  -130.35955480    -0.00000000     0.00000000  0.64D-15  0.19D-14  6  4     0.63     0.04
  18      1.14019831    -0.44240368  -130.35955480     0.00000000    -0.00000000  0.45D-15  0.27D-15  6  1     0.66     0.04
  19      1.14019831    -0.44240368  -130.35955480    -0.00000000     0.00000000  0.47D-16  0.49D-16  6  6     0.69     0.04
  20      1.14019831    -0.44240368  -130.35955480    -0.00000000     0.00000000  0.11D-16  0.13D-16  6  2     0.73     0.04
  21      1.14019831    -0.44240368  -130.35955480    -0.00000000     0.00000000  0.16D-17  0.10D-17  6  5     0.76     0.04
  22      1.14019831    -0.44240368  -130.35955480    -0.00000000     0.00000000  0.93D-19  0.78D-19  6  3     0.80     0.04
  23      1.14019831    -0.44240368  -130.35955480     0.00000000     0.00000000  0.27D-19  0.16D-19  6  4     0.83     0.04
  24      1.14019831    -0.44240368  -130.35955480     0.00000000    -0.00000000  0.40D-20  0.45D-20  6  1     0.86     0.04
  25      1.14019831    -0.44240368  -130.35955480     0.00000000    -0.00000000  0.55D-21  0.75D-21  6  6     0.90     0.04

 Norm of t1 vector:      0.07529456      S-energy:     0.00000000      T1 diagnostic:  0.01536944
                                                                       D1 diagnostic:  0.04305939

 Doubles amplitudes (print threshold =  0.500E-01):

         I         J         SYM. A    SYM. B    A         B      T(IJ, AB)

         6         6         2         2         1         1     -0.14523236


 Total CPU time for triples:      0.24 sec


 RESULTS
 =======

  Reference energy                   -129.917151122440
  CCSD singlet pair energy             -0.303388211218
  CCSD triplet pair energy             -0.139015468202
  CCSD correlation energy              -0.442403679419

  Triples (T) contribution             -0.019877921662
  Total correlation energy             -0.462281601081

  CCSD total energy                  -130.359554801859
  CCSD[T] energy                     -130.380462025428
  CCSD-T energy                      -130.379033333122
 !CCSD(T) total energy               -130.379432723521

 Timing summary (sec):

 STEP                 CPU(USER)    SYS     CPU(TOT)    WALL
 Transformation          0.02      0.02      0.04      0.05
 CCSD iterations         0.89      0.13      1.02      1.03
 Triples                 0.24      0.00      0.24      0.24

 Program statistics:

 Available memory in ccsd:               994999756
 Min. memory needed in ccsd:                154850
 Max. memory used in ccsd:                  184802
 Max. memory used in cckext:                238416 (25 integral passes)



 **********************************************************************************************************************************
 DATASETS  * FILE   NREC   LENGTH (MB)   RECORD NAMES
              1      24       40.41       500      610      700      900      950      970     1000      129      960     1700   
                                          VAR    BASINP    GEOM    SYMINP    ZMAT    AOBASIS   BASIS     P2S    ABASIS    OPER   
                                         1101     1401     1411     1412     1650     1100     1400     1410     1200     1210   
                                          SR      EKINR    POTR     PVPR    MOLCAS      S      EKIN      POT      H0       H01  
                                         1300     1080     1600     1380   
                                         ERIS     AOSYM     SMH     JKOP   

              2       4        2.85       700     1000      520     2100   
                                         GEOM     BASIS   MCVARS     RHF  

 PROGRAMS   *        TOTAL   CCSD(T)        HF       INT
 CPU TIMES  *         2.04      1.18      0.21      0.55
 REAL TIME  *         2.98 SEC
 DISK USED  *        75.75 MB      
 **********************************************************************************************************************************

 CCSD(T)/cc-pVTZ-DK energy=   -130.379432723521

        CCSD(T)         HF-SCF  
   -130.37943272   -129.91715112
 **********************************************************************************************************************************
 Molpro calculation terminated
 Variable memory released
