
 Primary working directories    : /tmp/r2666/282642.maple
 Secondary working directories  : /tmp/r2666/282642.maple
 Wavefunction directory         : /ddn/home4/r2666/wfu/
 Main file repository           : /tmp/r2666/282642.maple/

 SHA1      : d5ffa45e93fdbca01ffc919aa182cfdae0147319
 NAME      : 2015.1.35
 ARCHNAME  : linux/x86_64
 FC        : /opt/intel/composer_xe_2015.1.133/bin/intel64/ifort
 BLASLIB   : -Wl,-_start-group /opt/intel/mkl/lib/intel64/libmkl_intel_ilp64.a /opt/intel/mkl/lib/intel64/libmkl_intel_thread.a /opt/intel/mkl/lib/intel64/libmkl_core.a -Wl,-_end-group
 id        : olemiss

 Nodes     nprocs
 cn086        1

 Using customized tuning parameters: mindgm=1; mindgv=20; mindgc=4; mindgr=1; noblas=0; minvec=7
 default implementation of scratch files=df  

 ***,hno CCSD(T)/TZ-F12 QFF
 memory, 995, m;
 gthresh,energy=1.d-12,zero=1.d-22,oneint=1.d-22,twoint=1.d-22;
 gthresh,optgrad=1.d-8,optstep=1.d-8;
 nocompress;
 geomtyp=xyz
 bohr
 geometry={
 3
         23        23
 H        0.0000000000        1.6606837147       -1.9212590738
 N        0.0000000000       -0.1580857950       -1.1421788795
 O        0.0000000000        0.0391698702        1.1128483623
 }
 
 basis=vtz-dk
 dkroll=1
   {hf,maxit=500;accu,20;}
 {ccsd(t),nocheck,maxit=250;orbital,IGNORE_ERROR;}

 Variables initialized (889), CPU time= 0.01 sec
 Commands  initialized (702), CPU time= 0.01 sec, 572 directives.
 Default parameters read. Elapsed time= 0.05 sec

 Checking input...
 Passed
1


                                         ***  PROGRAM SYSTEM MOLPRO  ***
                                       Copyright, TTI GmbH Stuttgart, 2015
                                    Version 2015.1 linked Jul  9 2018 13:16:40


 **********************************************************************************************************************************
 LABEL *   hno CCSD(T)/TZ-F12 QFF                                                        
  64 bit serial version                                                                  DATE: 04-Mar-20          TIME: 13:51:07  
 **********************************************************************************************************************************

 SHA1:             d5ffa45e93fdbca01ffc919aa182cfdae0147319
 **********************************************************************************************************************************

 THRESHOLDS:

 ZERO    =  1.00D-22  ONEINT  =  1.00D-22  TWOINT  =  1.00D-22  PREFAC  =  1.00D-14  LOCALI  =  1.00D-09  EORDER  =  1.00D-04
 ENERGY  =  1.00D-12  ETEST   =  0.00D+00  EDENS   =  0.00D+00  THRDEDEF=  1.00D-06  GRADIENT=  1.00D-02  STEP    =  1.00D-03
 ORBITAL =  1.00D-05  CIVEC   =  1.00D-05  COEFF   =  1.00D-04  PRINTCI =  5.00D-02  PUNCHCI =  9.90D+01  OPTGRAD =  3.00D-04
 OPTENERG=  1.00D-06  OPTSTEP =  3.00D-04  THRGRAD =  1.00D-10  COMPRESS=  1.00D-11  VARMIN  =  1.00D-07  VARMAX  =  1.00D-03
 THRDOUB =  0.00D+00  THRDIV  =  1.00D-05  THRRED  =  1.00D-07  THRPSP  =  1.00D+00  THRDC   =  1.00D-10  THRCS   =  1.00D-10
 THRNRM  =  1.00D-08  THREQ   =  0.00D+00  THRDE   =  1.00D+00  THRREF  =  1.00D-05  SPARFAC =  1.00D+00  THRDLP  =  1.00D-07
 THRDIA  =  1.00D-10  THRDLS  =  1.00D-07  THRGPS  =  0.00D+00  THRKEX  =  0.00D+00  THRDIS  =  2.00D-01  THRVAR  =  1.00D-10
 THRLOC  =  1.00D-06  THRGAP  =  1.00D-06  THRLOCT = -1.00D+00  THRGAPT = -1.00D+00  THRORB  =  1.00D-06  THRMLTP =  0.00D+00
 THRCPQCI=  1.00D-10  KEXTA   =  0.00D+00  THRCOARS=  0.00D+00  SYMTOL  =  1.00D-06  GRADTOL =  1.00D-06  THROVL  =  1.00D-08
 THRORTH =  1.00D-08  GRID    =  1.00D-06  GRIDMAX =  1.00D-03  DTMAX   =  0.00D+00  THROCCDE=  1.00D-01  THROCCDE=  1.00D-01



 THRESHOLDS:

 ZERO    =  1.00D-22  ONEINT  =  1.00D-22  TWOINT  =  1.00D-22  PREFAC  =  1.00D-14  LOCALI  =  1.00D-09  EORDER  =  1.00D-04
 ENERGY  =  1.00D-12  ETEST   =  0.00D+00  EDENS   =  0.00D+00  THRDEDEF=  1.00D-06  GRADIENT=  1.00D-02  STEP    =  1.00D-03
 ORBITAL =  1.00D-05  CIVEC   =  1.00D-05  COEFF   =  1.00D-04  PRINTCI =  5.00D-02  PUNCHCI =  9.90D+01  OPTGRAD =  1.00D-08
 OPTENERG=  1.00D-06  OPTSTEP =  1.00D-08  THRGRAD =  1.00D-10  COMPRESS=  1.00D-11  VARMIN  =  1.00D-07  VARMAX  =  1.00D-03
 THRDOUB =  0.00D+00  THRDIV  =  1.00D-05  THRRED  =  1.00D-07  THRPSP  =  1.00D+00  THRDC   =  1.00D-10  THRCS   =  1.00D-10
 THRNRM  =  1.00D-08  THREQ   =  0.00D+00  THRDE   =  1.00D+00  THRREF  =  1.00D-05  SPARFAC =  1.00D+00  THRDLP  =  1.00D-07
 THRDIA  =  1.00D-10  THRDLS  =  1.00D-07  THRGPS  =  0.00D+00  THRKEX  =  0.00D+00  THRDIS  =  2.00D-01  THRVAR  =  1.00D-10
 THRLOC  =  1.00D-06  THRGAP  =  1.00D-06  THRLOCT = -1.00D+00  THRGAPT = -1.00D+00  THRORB  =  1.00D-06  THRMLTP =  0.00D+00
 THRCPQCI=  1.00D-10  KEXTA   =  0.00D+00  THRCOARS=  0.00D+00  SYMTOL  =  1.00D-06  GRADTOL =  1.00D-06  THROVL  =  1.00D-08
 THRORTH =  1.00D-08  GRID    =  1.00D-06  GRIDMAX =  1.00D-03  DTMAX   =  0.00D+00  THROCCDE=  1.00D-01  THROCCDE=  1.00D-01



 Input parameters for SORTINT:

 COMPRESS =    0.000000
 C_FINAL  =    1.000000
 DEBUG    =   -1.000000
 C_SORT1  =    0.000000
 C_SEWARD =    0.000000
 THRESH   =    0.000000
 IO       =  molpro                                                          
 SPRI     =    0.000000
 SETTING GEOMTYP        =    XYZ
 ZUNIT=BOHR
 

 Variable memory set to  995000000 words,  buffer space   230000 words

 SETTING BASIS          =    VTZ-DK
 SETTING DKROLL         =         1.00000000                                  


 Recomputing integrals since basis changed


 Using spherical harmonics

 Library entry H      S cc-pVTZ-DK           selected for orbital group  1
 Library entry H      P cc-pVTZ-DK           selected for orbital group  1
 Library entry H      D cc-pVTZ-DK           selected for orbital group  1
 Library entry N      S cc-pVTZ-DK           selected for orbital group  2
 Library entry N      P cc-pVTZ-DK           selected for orbital group  2
 Library entry N      D cc-pVTZ-DK           selected for orbital group  2
 Library entry N      F cc-pVTZ-DK           selected for orbital group  2
 Library entry O      S cc-pVTZ-DK           selected for orbital group  3
 Library entry O      P cc-pVTZ-DK           selected for orbital group  3
 Library entry O      D cc-pVTZ-DK           selected for orbital group  3
 Library entry O      F cc-pVTZ-DK           selected for orbital group  3


 PROGRAM * SEWARD (Integral evaluation for generally contracted gaussian basis sets)     Author: Roland Lindh, 1990

 Geometry written to block  1 of record 700


 Point group  Cs  



 ATOMIC COORDINATES

 NR  ATOM    CHARGE       X              Y              Z

   1  H       1.00    0.000000000    1.660683715   -1.921259074
   2  N       7.00    0.000000000   -0.158085795   -1.142178880
   3  O       8.00    0.000000000    0.039169870    1.112848362

 Bond lengths in Bohr (Angstrom)

 1-2  1.978607712  2-3  2.263638147
     ( 1.047034111)     ( 1.197865721)

 Bond angles

  1-2-3  108.18899349

 NUCLEAR CHARGE:                   16
 NUMBER OF PRIMITIVE AOS:         111
 NUMBER OF SYMMETRY AOS:          100
 NUMBER OF CONTRACTIONS:           74   (  50A'  +  24A"  )
 NUMBER OF CORE ORBITALS:           2   (   2A'  +   0A"  )
 NUMBER OF VALENCE ORBITALS:        9   (   7A'  +   2A"  )


 NUCLEAR REPULSION ENERGY   30.60221013

 One-electron integrals computed with SEWARD

 2nd-order Douglas-Kroll-Hess method activated. Optimal DKH parametrization is used.

 Computing Douglas-Kroll / X2C integrals


        1874283. INTEGRALS WRITTEN OUT IN     458 BLOCKS ON RECORD 1290 OF FILE 1


 NUMBER OF SORTED TWO-ELECTRON INTEGRALS:    2006100.     BUFFER LENGTH:  32768
 NUMBER OF SEGMENTS:   1  SEGMENT LENGTH:    2006100      RECORD LENGTH: 524288

 Memory used in sort:       2.56 MW

 SORT1 READ     1874283. AND WROTE     1914195. INTEGRALS IN      6 RECORDS. CPU TIME:     0.03 SEC, REAL TIME:     0.04 SEC
 SORT2 READ     1914195. AND WROTE     2006100. INTEGRALS IN      1 RECORDS. CPU TIME:     0.04 SEC, REAL TIME:     0.06 SEC

 FILE SIZES:   FILE 1:    50.2 MBYTE,  FILE 4:    25.2 MBYTE,   TOTAL:     75.4 MBYTE

 OPERATOR DM      FOR CENTER  0  COORDINATES:    0.000000    0.000000    0.000000

 Eigenvalues of metric

         1 0.240E-02 0.390E-02 0.402E-02 0.821E-02 0.129E-01 0.320E-01 0.419E-01 0.462E-01
         2 0.337E-01 0.463E-01 0.100E+00 0.110E+00 0.230E+00 0.339E+00 0.391E+00 0.446E+00


 **********************************************************************************************************************************
 DATASETS  * FILE   NREC   LENGTH (MB)   RECORD NAMES
              1      23       36.03       500      610      700      900      950      970     1000      129      960     1700   
                                          VAR    BASINP    GEOM    SYMINP    ZMAT    AOBASIS   BASIS     P2S    ABASIS    OPER   
                                         1101     1401     1411     1412     1650     1100     1400     1410     1200     1210   
                                          SR      EKINR    POTR     PVPR    MOLCAS      S      EKIN      POT      H0       H01  
                                         1300     1080     1600   
                                         ERIS     AOSYM     SMH  

 PROGRAMS   *        TOTAL       INT
 CPU TIMES  *         0.64      0.54
 REAL TIME  *         1.19 SEC
 DISK USED  *        75.75 MB      
 **********************************************************************************************************************************


 PROGRAM * RHF-SCF (CLOSED SHELL)       Authors: W. Meyer, H.-J. Werner


 NUMBER OF ELECTRONS:       8+    8-
 CONVERGENCE THRESHOLDS:    1.00E-10 (Density)    1.00E-13 (Energy)
 MAX. NUMBER OF ITERATIONS:      500
 INTERPOLATION TYPE:            DIIS
 INTERPOLATION STEPS:              2 (START)      1 (STEP)
 LEVEL SHIFTS:                  0.00 (CLOSED)  0.00 (OPEN) 



 Orbital guess generated from atomic densities. Full valence occupancy:    9   2

 Molecular orbital dump at record        2100.2

 Initial occupancy:   7   1

 ITERATION    DDIFF          GRAD             ENERGY        2-EL.EN.            DIPOLE MOMENTS         DIIS   ORB.
    1      0.000D+00      0.000D+00      -129.87059207    154.647917    0.00000    0.58907   -1.00788    0    start
    2      0.000D+00      0.134D-01      -129.89758047    155.770065    0.00000    0.60867   -0.22732    1    diag
    3      0.182D-01      0.100D-01      -129.91819513    155.881480    0.00000    0.55987   -0.58681    2    diag
    4      0.873D-02      0.154D-02      -129.91891097    155.623468    0.00000    0.56857   -0.52914    3    diag
    5      0.164D-02      0.505D-03      -129.91902092    155.707885    0.00000    0.57388   -0.53036    4    diag
    6      0.704D-03      0.150D-03      -129.91903899    155.693151    0.00000    0.57445   -0.52638    5    diag
    7      0.272D-03      0.746D-04      -129.91904417    155.695529    0.00000    0.57569   -0.52400    6    diag
    8      0.187D-03      0.232D-04      -129.91904463    155.694885    0.00000    0.57570   -0.52325    7    diag
    9      0.602D-04      0.418D-05      -129.91904465    155.694779    0.00000    0.57566   -0.52311    8    diag
   10      0.115D-04      0.942D-06      -129.91904465    155.694762    0.00000    0.57562   -0.52309    9    orth
   11      0.269D-05      0.185D-06      -129.91904465    155.694758    0.00000    0.57562   -0.52308    9    diag
   12      0.497D-06      0.379D-07      -129.91904465    155.694757    0.00000    0.57561   -0.52308    9    diag
   13      0.107D-06      0.920D-08      -129.91904465    155.694756    0.00000    0.57561   -0.52308    9    diag
   14      0.262D-07      0.170D-08      -129.91904465    155.694756    0.00000    0.57561   -0.52308    9    diag
   15      0.439D-08      0.452D-09      -129.91904465    155.694756    0.00000    0.57561   -0.52308    9    diag
   16      0.105D-08      0.119D-09      -129.91904465    155.694756    0.00000    0.57561   -0.52308    9    diag
   17      0.209D-09      0.348D-10      -129.91904465    155.694756    0.00000    0.57561   -0.52308    9    diag
   18      0.683D-10      0.115D-10      -129.91904465    155.694756    0.00000    0.57561   -0.52308    9    diag
   19      0.273D-10      0.253D-11      -129.91904465    155.694756    0.00000    0.57561   -0.52308    9    fixocc
   20      0.640D-11      0.439D-12      -129.91904465    155.694756    0.00000    0.57561   -0.52308    9    orth
   21      0.819D-12      0.130D-12      -129.91904465    155.694756    0.00000    0.57561   -0.52308    9    diag
   22      0.388D-12      0.355D-13      -129.91904465    155.694756    0.00000    0.57561   -0.52308    9    diag
   23      0.112D-12      0.238D-13      -129.91904465    155.694756    0.00000    0.57561   -0.52308    0    orth

 Final occupancy:   7   1

 !RHF STATE 1.1 Energy               -129.919044645903
 Nuclear energy                        30.60221013
 One-electron energy                 -238.36863294
 Two-electron energy                   77.84737816
 Virial quotient                       -0.99718683
 !RHF STATE 1.1 Dipole moment           0.00000000     0.57561406    -0.52308256
 Dipole moment /Debye                   0.00000000     1.46296918    -1.32945617

 Orbital energies:

         1.1          2.1          3.1          4.1          5.1          6.1          7.1          8.1          9.1
    -20.663948   -15.714353    -1.535766    -0.991040    -0.746689    -0.664637    -0.423925     0.144948     0.370888

         1.2          2.2          3.2
     -0.596579     0.090255     0.611955

 HOMO      7.1    -0.423925 =     -11.5356eV
 LUMO      2.2     0.090255 =       2.4560eV
 LUMO-HOMO         0.514181 =      13.9916eV


 **********************************************************************************************************************************
 DATASETS  * FILE   NREC   LENGTH (MB)   RECORD NAMES
              1      23       36.03       500      610      700      900      950      970     1000      129      960     1700   
                                          VAR    BASINP    GEOM    SYMINP    ZMAT    AOBASIS   BASIS     P2S    ABASIS    OPER   
                                         1101     1401     1411     1412     1650     1100     1400     1410     1200     1210   
                                          SR      EKINR    POTR     PVPR    MOLCAS      S      EKIN      POT      H0       H01  
                                         1300     1080     1600   
                                         ERIS     AOSYM     SMH  

              2       4        2.85       700     1000      520     2100   
                                         GEOM     BASIS   MCVARS     RHF  

 PROGRAMS   *        TOTAL        HF       INT
 CPU TIMES  *         0.90      0.26      0.54
 REAL TIME  *         1.50 SEC
 DISK USED  *        75.75 MB      
 **********************************************************************************************************************************


 PROGRAM * CCSD (Closed-shell coupled cluster)     Authors: C. Hampel, H.-J. Werner, 1991, M. Deegan, P.J. Knowles, 1992


 Convergence thresholds:  THRVAR = 1.00D-08  THRDEN = 1.00D-12

 CCSD(T)     terms to be evaluated (factor= 1.000)


 Number of core orbitals:           2 (   2   0 )
 Number of closed-shell orbitals:   6 (   5   1 )
 Number of external orbitals:      66 (  43  23 )

 Molecular orbitals read from record     2100.2  Type=RHF/CANONICAL (state 1.1)

 Number of N-1 electron functions:               6
 Number of N-2 electron functions:              21
 Number of singly external CSFs:               238
 Number of doubly external CSFs:             41002
 Total number of CSFs:                       41241

 Length of J-op  integral file:               0.00 MB
 Length of K-op  integral file:               0.25 MB
 Length of 3-ext integral record:             0.00 MB

 Memory could be reduced to 1.65 Mwords without degradation in triples

 Integral transformation finished. Total CPU:   0.03 sec, npass=  1  Memory used:   0.55 MW

 Reference energy:                   -129.91904465

 MP2 singlet pair energy:              -0.27259016
 MP2 triplet pair energy:              -0.16182916
 MP2 correlation energy:               -0.43441933
 MP2 total energy:                   -130.35346397

 SCS-MP2 correlation energy:           -0.42780190   (PS=  1.200000  PT=  0.333333)
 SCS-MP2 total energy:               -130.34684655

 ITER.      SQ.NORM     CORR.ENERGY   TOTAL ENERGY   ENERGY CHANGE        DEN1      VAR(S)    VAR(P)  DIIS     TIME  TIME/IT
   1      1.11720280    -0.43987892  -130.35892357    -0.00545960     0.00988044  0.28D-02  0.29D-02  1  1     0.08     0.04
   2      1.12776731    -0.44020498  -130.35924963    -0.00032606    -0.01202168  0.82D-04  0.48D-03  2  2     0.12     0.04
   3      1.13380217    -0.44057101  -130.35961565    -0.00036602    -0.00289649  0.44D-04  0.48D-04  3  3     0.14     0.04
   4      1.13647593    -0.44059715  -130.35964180    -0.00002615    -0.00092222  0.37D-05  0.85D-05  4  4     0.18     0.04
   5      1.13740636    -0.44062444  -130.35966908    -0.00002728    -0.00019275  0.13D-05  0.16D-05  5  5     0.21     0.04
   6      1.13774845    -0.44060918  -130.35965383     0.00001525    -0.00003854  0.92D-07  0.41D-06  6  6     0.24     0.04
   7      1.13783313    -0.44061113  -130.35965577    -0.00000195    -0.00000236  0.11D-07  0.83D-07  6  1     0.27     0.04
   8      1.13786288    -0.44061123  -130.35965587    -0.00000010     0.00000196  0.44D-08  0.93D-08  6  2     0.31     0.04
   9      1.13787006    -0.44061107  -130.35965571     0.00000016    -0.00000223  0.24D-08  0.10D-08  6  3     0.35     0.04
  10      1.13786883    -0.44061154  -130.35965619    -0.00000047     0.00000062  0.46D-09  0.18D-09  6  4     0.39     0.04
  11      1.13786717    -0.44061160  -130.35965624    -0.00000006     0.00000017  0.14D-09  0.21D-10  6  5     0.42     0.04
  12      1.13786585    -0.44061176  -130.35965641    -0.00000016     0.00000041  0.14D-10  0.69D-11  6  6     0.46     0.04
  13      1.13786528    -0.44061177  -130.35965641    -0.00000001     0.00000011  0.62D-11  0.11D-11  6  1     0.49     0.04
  14      1.13786493    -0.44061179  -130.35965643    -0.00000002     0.00000007  0.86D-12  0.39D-12  6  2     0.53     0.04
  15      1.13786480    -0.44061179  -130.35965643    -0.00000000     0.00000001  0.21D-12  0.13D-12  6  3     0.56     0.04
  16      1.13786472    -0.44061179  -130.35965643    -0.00000000     0.00000001  0.23D-13  0.15D-13  6  5     0.59     0.04
  17      1.13786469    -0.44061179  -130.35965643    -0.00000000     0.00000000  0.78D-15  0.22D-14  6  4     0.63     0.04
  18      1.13786469    -0.44061179  -130.35965643     0.00000000    -0.00000000  0.50D-15  0.32D-15  6  1     0.67     0.04
  19      1.13786468    -0.44061179  -130.35965643    -0.00000000     0.00000000  0.42D-16  0.55D-16  6  6     0.70     0.04
  20      1.13786468    -0.44061179  -130.35965643    -0.00000000     0.00000000  0.88D-17  0.13D-16  6  2     0.73     0.04
  21      1.13786468    -0.44061179  -130.35965643    -0.00000000     0.00000000  0.17D-17  0.96D-18  6  5     0.77     0.04
  22      1.13786468    -0.44061179  -130.35965643     0.00000000     0.00000000  0.11D-18  0.74D-19  6  3     0.81     0.04
  23      1.13786468    -0.44061179  -130.35965643     0.00000000    -0.00000000  0.31D-19  0.16D-19  6  4     0.85     0.04
  24      1.13786468    -0.44061179  -130.35965643     0.00000000    -0.00000000  0.45D-20  0.45D-20  6  1     0.88     0.04
  25      1.13786468    -0.44061179  -130.35965643     0.00000000    -0.00000000  0.48D-21  0.78D-21  6  6     0.92     0.04

 Norm of t1 vector:      0.07322992      S-energy:     0.00000000      T1 diagnostic:  0.01494799
                                                                       D1 diagnostic:  0.04114649

 Doubles amplitudes (print threshold =  0.500E-01):

         I         J         SYM. A    SYM. B    A         B      T(IJ, AB)

         6         6         2         2         1         1     -0.14098108


 Total CPU time for triples:      0.23 sec


 RESULTS
 =======

  Reference energy                   -129.919044645903
  CCSD singlet pair energy             -0.301825076137
  CCSD triplet pair energy             -0.138786712935
  CCSD correlation energy              -0.440611789072

  Triples (T) contribution             -0.019459525840
  Total correlation energy             -0.460071314912

  CCSD total energy                  -130.359656434975
  CCSD[T] energy                     -130.380088070464
  CCSD-T energy                      -130.378730310086
 !CCSD(T) total energy               -130.379115960815

 Timing summary (sec):

 STEP                 CPU(USER)    SYS     CPU(TOT)    WALL
 Transformation          0.03      0.01      0.04      0.08
 CCSD iterations         0.89      0.11      1.00      1.01
 Triples                 0.23      0.00      0.23      0.23

 Program statistics:

 Available memory in ccsd:               994999756
 Min. memory needed in ccsd:                154850
 Max. memory used in ccsd:                  184802
 Max. memory used in cckext:                238416 (25 integral passes)



 **********************************************************************************************************************************
 DATASETS  * FILE   NREC   LENGTH (MB)   RECORD NAMES
              1      24       40.41       500      610      700      900      950      970     1000      129      960     1700   
                                          VAR    BASINP    GEOM    SYMINP    ZMAT    AOBASIS   BASIS     P2S    ABASIS    OPER   
                                         1101     1401     1411     1412     1650     1100     1400     1410     1200     1210   
                                          SR      EKINR    POTR     PVPR    MOLCAS      S      EKIN      POT      H0       H01  
                                         1300     1080     1600     1380   
                                         ERIS     AOSYM     SMH     JKOP   

              2       4        2.85       700     1000      520     2100   
                                         GEOM     BASIS   MCVARS     RHF  

 PROGRAMS   *        TOTAL   CCSD(T)        HF       INT
 CPU TIMES  *         2.08      1.18      0.26      0.54
 REAL TIME  *         2.87 SEC
 DISK USED  *        75.75 MB      
 **********************************************************************************************************************************

 CCSD(T)/cc-pVTZ-DK energy=   -130.379115960815

        CCSD(T)         HF-SCF  
   -130.37911596   -129.91904465
 **********************************************************************************************************************************
 Molpro calculation terminated
 Variable memory released
