
 Primary working directories    : /tmp/r2666/282695.maple
 Secondary working directories  : /tmp/r2666/282695.maple
 Wavefunction directory         : /ddn/home4/r2666/wfu/
 Main file repository           : /tmp/r2666/282695.maple/

 SHA1      : d5ffa45e93fdbca01ffc919aa182cfdae0147319
 NAME      : 2015.1.35
 ARCHNAME  : linux/x86_64
 FC        : /opt/intel/composer_xe_2015.1.133/bin/intel64/ifort
 BLASLIB   : -Wl,-_start-group /opt/intel/mkl/lib/intel64/libmkl_intel_ilp64.a /opt/intel/mkl/lib/intel64/libmkl_intel_thread.a /opt/intel/mkl/lib/intel64/libmkl_core.a -Wl,-_end-group
 id        : olemiss

 Nodes     nprocs
 cn095        1

 Using customized tuning parameters: mindgm=1; mindgv=20; mindgc=4; mindgr=1; noblas=0; minvec=7
 default implementation of scratch files=df  

 ***,hno CCSD(T)/TZ-F12 QFF
 memory, 995, m;
 gthresh,energy=1.d-12,zero=1.d-22,oneint=1.d-22,twoint=1.d-22;
 gthresh,optgrad=1.d-8,optstep=1.d-8;
 nocompress;
 geomtyp=xyz
 bohr
 geometry={
 3
         76        76
 H        0.0000000000        1.6682628629       -1.9419929251
 N        0.0000000000       -0.1537935056       -1.1467076875
 O        0.0000000000        0.0272984327        1.1381110215
 }
 
 basis=vtz-dk
 dkroll=1
   {hf,maxit=500;accu,20;}
 {ccsd(t),nocheck,maxit=250;orbital,IGNORE_ERROR;}

 Variables initialized (889), CPU time= 0.00 sec
 Commands  initialized (702), CPU time= 0.01 sec, 572 directives.
 Default parameters read. Elapsed time= 0.05 sec

 Checking input...
 Passed
1


                                         ***  PROGRAM SYSTEM MOLPRO  ***
                                       Copyright, TTI GmbH Stuttgart, 2015
                                    Version 2015.1 linked Jul  9 2018 13:16:40


 **********************************************************************************************************************************
 LABEL *   hno CCSD(T)/TZ-F12 QFF                                                        
  64 bit serial version                                                                  DATE: 04-Mar-20          TIME: 13:51:13  
 **********************************************************************************************************************************

 SHA1:             d5ffa45e93fdbca01ffc919aa182cfdae0147319
 **********************************************************************************************************************************

 THRESHOLDS:

 ZERO    =  1.00D-22  ONEINT  =  1.00D-22  TWOINT  =  1.00D-22  PREFAC  =  1.00D-14  LOCALI  =  1.00D-09  EORDER  =  1.00D-04
 ENERGY  =  1.00D-12  ETEST   =  0.00D+00  EDENS   =  0.00D+00  THRDEDEF=  1.00D-06  GRADIENT=  1.00D-02  STEP    =  1.00D-03
 ORBITAL =  1.00D-05  CIVEC   =  1.00D-05  COEFF   =  1.00D-04  PRINTCI =  5.00D-02  PUNCHCI =  9.90D+01  OPTGRAD =  3.00D-04
 OPTENERG=  1.00D-06  OPTSTEP =  3.00D-04  THRGRAD =  1.00D-10  COMPRESS=  1.00D-11  VARMIN  =  1.00D-07  VARMAX  =  1.00D-03
 THRDOUB =  0.00D+00  THRDIV  =  1.00D-05  THRRED  =  1.00D-07  THRPSP  =  1.00D+00  THRDC   =  1.00D-10  THRCS   =  1.00D-10
 THRNRM  =  1.00D-08  THREQ   =  0.00D+00  THRDE   =  1.00D+00  THRREF  =  1.00D-05  SPARFAC =  1.00D+00  THRDLP  =  1.00D-07
 THRDIA  =  1.00D-10  THRDLS  =  1.00D-07  THRGPS  =  0.00D+00  THRKEX  =  0.00D+00  THRDIS  =  2.00D-01  THRVAR  =  1.00D-10
 THRLOC  =  1.00D-06  THRGAP  =  1.00D-06  THRLOCT = -1.00D+00  THRGAPT = -1.00D+00  THRORB  =  1.00D-06  THRMLTP =  0.00D+00
 THRCPQCI=  1.00D-10  KEXTA   =  0.00D+00  THRCOARS=  0.00D+00  SYMTOL  =  1.00D-06  GRADTOL =  1.00D-06  THROVL  =  1.00D-08
 THRORTH =  1.00D-08  GRID    =  1.00D-06  GRIDMAX =  1.00D-03  DTMAX   =  0.00D+00  THROCCDE=  1.00D-01  THROCCDE=  1.00D-01



 THRESHOLDS:

 ZERO    =  1.00D-22  ONEINT  =  1.00D-22  TWOINT  =  1.00D-22  PREFAC  =  1.00D-14  LOCALI  =  1.00D-09  EORDER  =  1.00D-04
 ENERGY  =  1.00D-12  ETEST   =  0.00D+00  EDENS   =  0.00D+00  THRDEDEF=  1.00D-06  GRADIENT=  1.00D-02  STEP    =  1.00D-03
 ORBITAL =  1.00D-05  CIVEC   =  1.00D-05  COEFF   =  1.00D-04  PRINTCI =  5.00D-02  PUNCHCI =  9.90D+01  OPTGRAD =  1.00D-08
 OPTENERG=  1.00D-06  OPTSTEP =  1.00D-08  THRGRAD =  1.00D-10  COMPRESS=  1.00D-11  VARMIN  =  1.00D-07  VARMAX  =  1.00D-03
 THRDOUB =  0.00D+00  THRDIV  =  1.00D-05  THRRED  =  1.00D-07  THRPSP  =  1.00D+00  THRDC   =  1.00D-10  THRCS   =  1.00D-10
 THRNRM  =  1.00D-08  THREQ   =  0.00D+00  THRDE   =  1.00D+00  THRREF  =  1.00D-05  SPARFAC =  1.00D+00  THRDLP  =  1.00D-07
 THRDIA  =  1.00D-10  THRDLS  =  1.00D-07  THRGPS  =  0.00D+00  THRKEX  =  0.00D+00  THRDIS  =  2.00D-01  THRVAR  =  1.00D-10
 THRLOC  =  1.00D-06  THRGAP  =  1.00D-06  THRLOCT = -1.00D+00  THRGAPT = -1.00D+00  THRORB  =  1.00D-06  THRMLTP =  0.00D+00
 THRCPQCI=  1.00D-10  KEXTA   =  0.00D+00  THRCOARS=  0.00D+00  SYMTOL  =  1.00D-06  GRADTOL =  1.00D-06  THROVL  =  1.00D-08
 THRORTH =  1.00D-08  GRID    =  1.00D-06  GRIDMAX =  1.00D-03  DTMAX   =  0.00D+00  THROCCDE=  1.00D-01  THROCCDE=  1.00D-01



 Input parameters for SORTINT:

 COMPRESS =    0.000000
 C_FINAL  =    1.000000
 DEBUG    =   -1.000000
 C_SORT1  =    0.000000
 C_SEWARD =    0.000000
 THRESH   =    0.000000
 IO       =  molpro                                                          
 SPRI     =    0.000000
 SETTING GEOMTYP        =    XYZ
 ZUNIT=BOHR
 

 Variable memory set to  995000000 words,  buffer space   230000 words

 SETTING BASIS          =    VTZ-DK
 SETTING DKROLL         =         1.00000000                                  


 Recomputing integrals since basis changed


 Using spherical harmonics

 Library entry H      S cc-pVTZ-DK           selected for orbital group  1
 Library entry H      P cc-pVTZ-DK           selected for orbital group  1
 Library entry H      D cc-pVTZ-DK           selected for orbital group  1
 Library entry N      S cc-pVTZ-DK           selected for orbital group  2
 Library entry N      P cc-pVTZ-DK           selected for orbital group  2
 Library entry N      D cc-pVTZ-DK           selected for orbital group  2
 Library entry N      F cc-pVTZ-DK           selected for orbital group  2
 Library entry O      S cc-pVTZ-DK           selected for orbital group  3
 Library entry O      P cc-pVTZ-DK           selected for orbital group  3
 Library entry O      D cc-pVTZ-DK           selected for orbital group  3
 Library entry O      F cc-pVTZ-DK           selected for orbital group  3


 PROGRAM * SEWARD (Integral evaluation for generally contracted gaussian basis sets)     Author: Roland Lindh, 1990

 Geometry written to block  1 of record 700


 Point group  Cs  



 ATOMIC COORDINATES

 NR  ATOM    CHARGE       X              Y              Z

   1  H       1.00    0.000000000    1.668262863   -1.941992925
   2  N       7.00    0.000000000   -0.153793506   -1.146707687
   3  O       8.00    0.000000000    0.027298433    1.138111022

 Bond lengths in Bohr (Angstrom)

 1-2  1.988056342  2-3  2.291984036
     ( 1.052034110)     ( 1.212865720)

 Bond angles

  1-2-3  109.04843018

 NUCLEAR CHARGE:                   16
 NUMBER OF PRIMITIVE AOS:         111
 NUMBER OF SYMMETRY AOS:          100
 NUMBER OF CONTRACTIONS:           74   (  50A'  +  24A"  )
 NUMBER OF CORE ORBITALS:           2   (   2A'  +   0A"  )
 NUMBER OF VALENCE ORBITALS:        9   (   7A'  +   2A"  )


 NUCLEAR REPULSION ENERGY   30.24629833

 One-electron integrals computed with SEWARD

 2nd-order Douglas-Kroll-Hess method activated. Optimal DKH parametrization is used.

 Computing Douglas-Kroll / X2C integrals


        1874283. INTEGRALS WRITTEN OUT IN     458 BLOCKS ON RECORD 1290 OF FILE 1


 NUMBER OF SORTED TWO-ELECTRON INTEGRALS:    2006100.     BUFFER LENGTH:  32768
 NUMBER OF SEGMENTS:   1  SEGMENT LENGTH:    2006100      RECORD LENGTH: 524288

 Memory used in sort:       2.56 MW

 SORT1 READ     1874283. AND WROTE     1914195. INTEGRALS IN      6 RECORDS. CPU TIME:     0.03 SEC, REAL TIME:     0.04 SEC
 SORT2 READ     1914195. AND WROTE     2006100. INTEGRALS IN      1 RECORDS. CPU TIME:     0.05 SEC, REAL TIME:     0.07 SEC

 FILE SIZES:   FILE 1:    50.2 MBYTE,  FILE 4:    25.2 MBYTE,   TOTAL:     75.4 MBYTE

 OPERATOR DM      FOR CENTER  0  COORDINATES:    0.000000    0.000000    0.000000

 Eigenvalues of metric

         1 0.246E-02 0.399E-02 0.422E-02 0.841E-02 0.130E-01 0.330E-01 0.429E-01 0.463E-01
         2 0.346E-01 0.465E-01 0.102E+00 0.112E+00 0.236E+00 0.343E+00 0.396E+00 0.451E+00


 **********************************************************************************************************************************
 DATASETS  * FILE   NREC   LENGTH (MB)   RECORD NAMES
              1      23       36.03       500      610      700      900      950      970     1000      129      960     1700   
                                          VAR    BASINP    GEOM    SYMINP    ZMAT    AOBASIS   BASIS     P2S    ABASIS    OPER   
                                         1101     1401     1411     1412     1650     1100     1400     1410     1200     1210   
                                          SR      EKINR    POTR     PVPR    MOLCAS      S      EKIN      POT      H0       H01  
                                         1300     1080     1600   
                                         ERIS     AOSYM     SMH  

 PROGRAMS   *        TOTAL       INT
 CPU TIMES  *         0.66      0.57
 REAL TIME  *         1.16 SEC
 DISK USED  *        75.75 MB      
 **********************************************************************************************************************************


 PROGRAM * RHF-SCF (CLOSED SHELL)       Authors: W. Meyer, H.-J. Werner


 NUMBER OF ELECTRONS:       8+    8-
 CONVERGENCE THRESHOLDS:    1.00E-10 (Density)    1.00E-13 (Energy)
 MAX. NUMBER OF ITERATIONS:      500
 INTERPOLATION TYPE:            DIIS
 INTERPOLATION STEPS:              2 (START)      1 (STEP)
 LEVEL SHIFTS:                  0.00 (CLOSED)  0.00 (OPEN) 



 Orbital guess generated from atomic densities. Full valence occupancy:    9   2

 Molecular orbital dump at record        2100.2

 Initial occupancy:   7   1

 ITERATION    DDIFF          GRAD             ENERGY        2-EL.EN.            DIPOLE MOMENTS         DIIS   ORB.
    1      0.000D+00      0.000D+00      -129.86616487    154.002551    0.00000    0.60048   -1.05791    0    start
    2      0.000D+00      0.136D-01      -129.89271317    155.106925    0.00000    0.61756   -0.22137    1    diag
    3      0.187D-01      0.106D-01      -129.91588315    155.247268    0.00000    0.56888   -0.61097    2    diag
    4      0.914D-02      0.156D-02      -129.91662961    154.977908    0.00000    0.57683   -0.55068    3    diag
    5      0.167D-02      0.517D-03      -129.91674549    155.064207    0.00000    0.58227   -0.55169    4    diag
    6      0.722D-03      0.154D-03      -129.91676467    155.049211    0.00000    0.58279   -0.54743    5    diag
    7      0.280D-03      0.777D-04      -129.91677040    155.051455    0.00000    0.58401   -0.54486    6    diag
    8      0.195D-03      0.254D-04      -129.91677098    155.050752    0.00000    0.58402   -0.54401    7    diag
    9      0.680D-04      0.465D-05      -129.91677100    155.050629    0.00000    0.58397   -0.54384    8    diag
   10      0.133D-04      0.102D-05      -129.91677100    155.050611    0.00000    0.58394   -0.54382    9    orth
   11      0.289D-05      0.199D-06      -129.91677100    155.050606    0.00000    0.58393   -0.54382    9    diag
   12      0.522D-06      0.420D-07      -129.91677100    155.050605    0.00000    0.58393   -0.54381    9    diag
   13      0.114D-06      0.106D-07      -129.91677100    155.050605    0.00000    0.58393   -0.54381    9    diag
   14      0.289D-07      0.192D-08      -129.91677100    155.050605    0.00000    0.58393   -0.54381    9    diag
   15      0.441D-08      0.489D-09      -129.91677100    155.050605    0.00000    0.58393   -0.54381    9    diag
   16      0.108D-08      0.116D-09      -129.91677100    155.050605    0.00000    0.58393   -0.54381    9    diag
   17      0.170D-09      0.313D-10      -129.91677100    155.050605    0.00000    0.58393   -0.54381    9    diag
   18      0.481D-10      0.101D-10      -129.91677100    155.050605    0.00000    0.58393   -0.54381    9    diag
   19      0.196D-10      0.205D-11      -129.91677100    155.050605    0.00000    0.58393   -0.54381    9    fixocc
   20      0.475D-11      0.340D-12      -129.91677100    155.050605    0.00000    0.58393   -0.54381    9    orth
   21      0.894D-12      0.121D-12      -129.91677100    155.050605    0.00000    0.58393   -0.54381    9    diag
   22      0.327D-12      0.327D-13      -129.91677100    155.050605    0.00000    0.58393   -0.54381    9    diag
   23      0.102D-12      0.223D-13      -129.91677100    155.050605    0.00000    0.58393   -0.54381    9    diag
   24      0.371D-13      0.203D-13      -129.91677100    155.050605    0.00000    0.58393   -0.54381    0    orth

 Final occupancy:   7   1

 !RHF STATE 1.1 Energy               -129.916771003258
 Nuclear energy                        30.24629833
 One-electron energy                 -237.68837169
 Two-electron energy                   77.52530236
 Virial quotient                       -0.99772613
 !RHF STATE 1.1 Dipole moment           0.00000000     0.58392734    -0.54381326
 Dipole moment /Debye                   0.00000000     1.48409805    -1.38214491

 Orbital energies:

         1.1          2.1          3.1          4.1          5.1          6.1          7.1          8.1          9.1
    -20.665710   -15.717443    -1.522940    -0.993804    -0.741498    -0.660461    -0.427625     0.143559     0.368948

         1.2          2.2          3.2
     -0.589402     0.084583     0.613679

 HOMO      7.1    -0.427625 =     -11.6363eV
 LUMO      2.2     0.084583 =       2.3016eV
 LUMO-HOMO         0.512208 =      13.9379eV


 **********************************************************************************************************************************
 DATASETS  * FILE   NREC   LENGTH (MB)   RECORD NAMES
              1      23       36.03       500      610      700      900      950      970     1000      129      960     1700   
                                          VAR    BASINP    GEOM    SYMINP    ZMAT    AOBASIS   BASIS     P2S    ABASIS    OPER   
                                         1101     1401     1411     1412     1650     1100     1400     1410     1200     1210   
                                          SR      EKINR    POTR     PVPR    MOLCAS      S      EKIN      POT      H0       H01  
                                         1300     1080     1600   
                                         ERIS     AOSYM     SMH  

              2       4        2.85       700     1000      520     2100   
                                         GEOM     BASIS   MCVARS     RHF  

 PROGRAMS   *        TOTAL        HF       INT
 CPU TIMES  *         0.92      0.26      0.57
 REAL TIME  *         1.48 SEC
 DISK USED  *        75.75 MB      
 **********************************************************************************************************************************


 PROGRAM * CCSD (Closed-shell coupled cluster)     Authors: C. Hampel, H.-J. Werner, 1991, M. Deegan, P.J. Knowles, 1992


 Convergence thresholds:  THRVAR = 1.00D-08  THRDEN = 1.00D-12

 CCSD(T)     terms to be evaluated (factor= 1.000)


 Number of core orbitals:           2 (   2   0 )
 Number of closed-shell orbitals:   6 (   5   1 )
 Number of external orbitals:      66 (  43  23 )

 Molecular orbitals read from record     2100.2  Type=RHF/CANONICAL (state 1.1)

 Number of N-1 electron functions:               6
 Number of N-2 electron functions:              21
 Number of singly external CSFs:               238
 Number of doubly external CSFs:             41002
 Total number of CSFs:                       41241

 Length of J-op  integral file:               0.00 MB
 Length of K-op  integral file:               0.25 MB
 Length of 3-ext integral record:             0.00 MB

 Memory could be reduced to 1.65 Mwords without degradation in triples

 Integral transformation finished. Total CPU:   0.02 sec, npass=  1  Memory used:   0.55 MW

 Reference energy:                   -129.91677100

 MP2 singlet pair energy:              -0.27428690
 MP2 triplet pair energy:              -0.16292944
 MP2 correlation energy:               -0.43721634
 MP2 total energy:                   -130.35398734

 SCS-MP2 correlation energy:           -0.43052260   (PS=  1.200000  PT=  0.333333)
 SCS-MP2 total energy:               -130.34729360

 ITER.      SQ.NORM     CORR.ENERGY   TOTAL ENERGY   ENERGY CHANGE        DEN1      VAR(S)    VAR(P)  DIIS     TIME  TIME/IT
   1      1.11901715    -0.44210415  -130.35887515    -0.00488781     0.01113048  0.30D-02  0.31D-02  1  1     0.08     0.05
   2      1.12999672    -0.44231307  -130.35908407    -0.00020892    -0.01241569  0.91D-04  0.51D-03  2  2     0.13     0.05
   3      1.13639650    -0.44270825  -130.35947926    -0.00039518    -0.00301411  0.49D-04  0.52D-04  3  3     0.18     0.05
   4      1.13927089    -0.44273452  -130.35950553    -0.00002627    -0.00097694  0.42D-05  0.92D-05  4  4     0.22     0.05
   5      1.14030787    -0.44276508  -130.35953608    -0.00003055    -0.00021476  0.14D-05  0.17D-05  5  5     0.26     0.05
   6      1.14067890    -0.44274781  -130.35951881     0.00001727    -0.00004222  0.98D-07  0.42D-06  6  6     0.30     0.05
   7      1.14076618    -0.44274993  -130.35952093    -0.00000212    -0.00000201  0.12D-07  0.91D-07  6  1     0.34     0.05
   8      1.14079731    -0.44274991  -130.35952092     0.00000001     0.00000191  0.46D-08  0.11D-07  6  2     0.39     0.05
   9      1.14080554    -0.44274968  -130.35952068     0.00000024    -0.00000232  0.27D-08  0.13D-08  6  3     0.43     0.05
  10      1.14080425    -0.44275021  -130.35952121    -0.00000053     0.00000062  0.52D-09  0.22D-09  6  4     0.47     0.05
  11      1.14080246    -0.44275027  -130.35952127    -0.00000006     0.00000019  0.16D-09  0.25D-10  6  5     0.51     0.05
  12      1.14080102    -0.44275046  -130.35952146    -0.00000019     0.00000045  0.16D-10  0.80D-11  6  6     0.56     0.05
  13      1.14080038    -0.44275047  -130.35952147    -0.00000001     0.00000013  0.70D-11  0.13D-11  6  1     0.60     0.05
  14      1.14079997    -0.44275049  -130.35952149    -0.00000002     0.00000008  0.98D-12  0.46D-12  6  2     0.63     0.05
  15      1.14079981    -0.44275049  -130.35952149    -0.00000000     0.00000001  0.25D-12  0.15D-12  6  3     0.68     0.05
  16      1.14079970    -0.44275049  -130.35952149    -0.00000000     0.00000001  0.27D-13  0.17D-13  6  5     0.73     0.05
  17      1.14079967    -0.44275049  -130.35952150    -0.00000000     0.00000000  0.69D-15  0.21D-14  6  4     0.77     0.05
  18      1.14079967    -0.44275049  -130.35952150     0.00000000    -0.00000000  0.48D-15  0.28D-15  6  1     0.81     0.05
  19      1.14079967    -0.44275049  -130.35952150    -0.00000000     0.00000000  0.51D-16  0.53D-16  6  6     0.85     0.05
  20      1.14079967    -0.44275049  -130.35952150    -0.00000000     0.00000000  0.12D-16  0.14D-16  6  2     0.89     0.05
  21      1.14079967    -0.44275049  -130.35952150    -0.00000000     0.00000000  0.19D-17  0.11D-17  6  5     0.94     0.05
  22      1.14079967    -0.44275049  -130.35952150    -0.00000000     0.00000000  0.10D-18  0.85D-19  6  3     0.98     0.05
  23      1.14079967    -0.44275049  -130.35952150     0.00000000     0.00000000  0.28D-19  0.18D-19  6  4     1.02     0.05
  24      1.14079967    -0.44275049  -130.35952150     0.00000000    -0.00000000  0.42D-20  0.48D-20  6  1     1.06     0.05
  25      1.14079967    -0.44275049  -130.35952150     0.00000000    -0.00000000  0.60D-21  0.82D-21  6  6     1.11     0.05

 Norm of t1 vector:      0.07610678      S-energy:     0.00000000      T1 diagnostic:  0.01553523
                                                                       D1 diagnostic:  0.04317806

 Doubles amplitudes (print threshold =  0.500E-01):

         I         J         SYM. A    SYM. B    A         B      T(IJ, AB)

         6         6         2         2         1         1     -0.14514163


 Total CPU time for triples:      0.26 sec


 RESULTS
 =======

  Reference energy                   -129.916771003258
  CCSD singlet pair energy             -0.303687721268
  CCSD triplet pair energy             -0.139062771628
  CCSD correlation energy              -0.442750492896

  Triples (T) contribution             -0.019949638249
  Total correlation energy             -0.462700131144

  CCSD total energy                  -130.359521496154
  CCSD[T] energy                     -130.380516607883
  CCSD-T energy                      -130.379066351644
 !CCSD(T) total energy               -130.379471134403

 Timing summary (sec):

 STEP                 CPU(USER)    SYS     CPU(TOT)    WALL
 Transformation          0.02      0.02      0.04      0.09
 CCSD iterations         1.09      0.11      1.20      1.20
 Triples                 0.26      0.01      0.27      0.27

 Program statistics:

 Available memory in ccsd:               994999756
 Min. memory needed in ccsd:                154850
 Max. memory used in ccsd:                  184802
 Max. memory used in cckext:                238416 (25 integral passes)



 **********************************************************************************************************************************
 DATASETS  * FILE   NREC   LENGTH (MB)   RECORD NAMES
              1      24       40.41       500      610      700      900      950      970     1000      129      960     1700   
                                          VAR    BASINP    GEOM    SYMINP    ZMAT    AOBASIS   BASIS     P2S    ABASIS    OPER   
                                         1101     1401     1411     1412     1650     1100     1400     1410     1200     1210   
                                          SR      EKINR    POTR     PVPR    MOLCAS      S      EKIN      POT      H0       H01  
                                         1300     1080     1600     1380   
                                         ERIS     AOSYM     SMH     JKOP   

              2       4        2.85       700     1000      520     2100   
                                         GEOM     BASIS   MCVARS     RHF  

 PROGRAMS   *        TOTAL   CCSD(T)        HF       INT
 CPU TIMES  *         2.32      1.39      0.26      0.57
 REAL TIME  *         3.08 SEC
 DISK USED  *        75.75 MB      
 **********************************************************************************************************************************

 CCSD(T)/cc-pVTZ-DK energy=   -130.379471134403

        CCSD(T)         HF-SCF  
   -130.37947113   -129.91677100
 **********************************************************************************************************************************
 Molpro calculation terminated
 Variable memory released
