
 Primary working directories    : /tmp/r2666/282667.maple
 Secondary working directories  : /tmp/r2666/282667.maple
 Wavefunction directory         : /ddn/home4/r2666/wfu/
 Main file repository           : /tmp/r2666/282667.maple/

 SHA1      : d5ffa45e93fdbca01ffc919aa182cfdae0147319
 NAME      : 2015.1.35
 ARCHNAME  : linux/x86_64
 FC        : /opt/intel/composer_xe_2015.1.133/bin/intel64/ifort
 BLASLIB   : -Wl,-_start-group /opt/intel/mkl/lib/intel64/libmkl_intel_ilp64.a /opt/intel/mkl/lib/intel64/libmkl_intel_thread.a /opt/intel/mkl/lib/intel64/libmkl_core.a -Wl,-_end-group
 id        : olemiss

 Nodes     nprocs
 cn081        1

 Using customized tuning parameters: mindgm=1; mindgv=20; mindgc=4; mindgr=1; noblas=0; minvec=7
 default implementation of scratch files=df  

 ***,hno CCSD(T)/TZ-F12 QFF
 memory, 995, m;
 gthresh,energy=1.d-12,zero=1.d-22,oneint=1.d-22,twoint=1.d-22;
 gthresh,optgrad=1.d-8,optstep=1.d-8;
 nocompress;
 geomtyp=xyz
 bohr
 geometry={
 3
         48        48
 H        0.0000000000        1.6644284307       -1.9227031770
 N        0.0000000000       -0.1615950389       -1.1365694050
 O        0.0000000000        0.0389343982        1.1086829910
 }
 
 basis=vtz-dk
 dkroll=1
   {hf,maxit=500;accu,20;}
 {ccsd(t),nocheck,maxit=250;orbital,IGNORE_ERROR;}

 Variables initialized (889), CPU time= 0.01 sec
 Commands  initialized (702), CPU time= 0.01 sec, 572 directives.
 Default parameters read. Elapsed time= 0.05 sec

 Checking input...
 Passed
1


                                         ***  PROGRAM SYSTEM MOLPRO  ***
                                       Copyright, TTI GmbH Stuttgart, 2015
                                    Version 2015.1 linked Jul  9 2018 13:16:40


 **********************************************************************************************************************************
 LABEL *   hno CCSD(T)/TZ-F12 QFF                                                        
  64 bit serial version                                                                  DATE: 04-Mar-20          TIME: 13:51:10  
 **********************************************************************************************************************************

 SHA1:             d5ffa45e93fdbca01ffc919aa182cfdae0147319
 **********************************************************************************************************************************

 THRESHOLDS:

 ZERO    =  1.00D-22  ONEINT  =  1.00D-22  TWOINT  =  1.00D-22  PREFAC  =  1.00D-14  LOCALI  =  1.00D-09  EORDER  =  1.00D-04
 ENERGY  =  1.00D-12  ETEST   =  0.00D+00  EDENS   =  0.00D+00  THRDEDEF=  1.00D-06  GRADIENT=  1.00D-02  STEP    =  1.00D-03
 ORBITAL =  1.00D-05  CIVEC   =  1.00D-05  COEFF   =  1.00D-04  PRINTCI =  5.00D-02  PUNCHCI =  9.90D+01  OPTGRAD =  3.00D-04
 OPTENERG=  1.00D-06  OPTSTEP =  3.00D-04  THRGRAD =  1.00D-10  COMPRESS=  1.00D-11  VARMIN  =  1.00D-07  VARMAX  =  1.00D-03
 THRDOUB =  0.00D+00  THRDIV  =  1.00D-05  THRRED  =  1.00D-07  THRPSP  =  1.00D+00  THRDC   =  1.00D-10  THRCS   =  1.00D-10
 THRNRM  =  1.00D-08  THREQ   =  0.00D+00  THRDE   =  1.00D+00  THRREF  =  1.00D-05  SPARFAC =  1.00D+00  THRDLP  =  1.00D-07
 THRDIA  =  1.00D-10  THRDLS  =  1.00D-07  THRGPS  =  0.00D+00  THRKEX  =  0.00D+00  THRDIS  =  2.00D-01  THRVAR  =  1.00D-10
 THRLOC  =  1.00D-06  THRGAP  =  1.00D-06  THRLOCT = -1.00D+00  THRGAPT = -1.00D+00  THRORB  =  1.00D-06  THRMLTP =  0.00D+00
 THRCPQCI=  1.00D-10  KEXTA   =  0.00D+00  THRCOARS=  0.00D+00  SYMTOL  =  1.00D-06  GRADTOL =  1.00D-06  THROVL  =  1.00D-08
 THRORTH =  1.00D-08  GRID    =  1.00D-06  GRIDMAX =  1.00D-03  DTMAX   =  0.00D+00  THROCCDE=  1.00D-01  THROCCDE=  1.00D-01



 THRESHOLDS:

 ZERO    =  1.00D-22  ONEINT  =  1.00D-22  TWOINT  =  1.00D-22  PREFAC  =  1.00D-14  LOCALI  =  1.00D-09  EORDER  =  1.00D-04
 ENERGY  =  1.00D-12  ETEST   =  0.00D+00  EDENS   =  0.00D+00  THRDEDEF=  1.00D-06  GRADIENT=  1.00D-02  STEP    =  1.00D-03
 ORBITAL =  1.00D-05  CIVEC   =  1.00D-05  COEFF   =  1.00D-04  PRINTCI =  5.00D-02  PUNCHCI =  9.90D+01  OPTGRAD =  1.00D-08
 OPTENERG=  1.00D-06  OPTSTEP =  1.00D-08  THRGRAD =  1.00D-10  COMPRESS=  1.00D-11  VARMIN  =  1.00D-07  VARMAX  =  1.00D-03
 THRDOUB =  0.00D+00  THRDIV  =  1.00D-05  THRRED  =  1.00D-07  THRPSP  =  1.00D+00  THRDC   =  1.00D-10  THRCS   =  1.00D-10
 THRNRM  =  1.00D-08  THREQ   =  0.00D+00  THRDE   =  1.00D+00  THRREF  =  1.00D-05  SPARFAC =  1.00D+00  THRDLP  =  1.00D-07
 THRDIA  =  1.00D-10  THRDLS  =  1.00D-07  THRGPS  =  0.00D+00  THRKEX  =  0.00D+00  THRDIS  =  2.00D-01  THRVAR  =  1.00D-10
 THRLOC  =  1.00D-06  THRGAP  =  1.00D-06  THRLOCT = -1.00D+00  THRGAPT = -1.00D+00  THRORB  =  1.00D-06  THRMLTP =  0.00D+00
 THRCPQCI=  1.00D-10  KEXTA   =  0.00D+00  THRCOARS=  0.00D+00  SYMTOL  =  1.00D-06  GRADTOL =  1.00D-06  THROVL  =  1.00D-08
 THRORTH =  1.00D-08  GRID    =  1.00D-06  GRIDMAX =  1.00D-03  DTMAX   =  0.00D+00  THROCCDE=  1.00D-01  THROCCDE=  1.00D-01



 Input parameters for SORTINT:

 COMPRESS =    0.000000
 C_FINAL  =    1.000000
 DEBUG    =   -1.000000
 C_SORT1  =    0.000000
 C_SEWARD =    0.000000
 THRESH   =    0.000000
 IO       =  molpro                                                          
 SPRI     =    0.000000
 SETTING GEOMTYP        =    XYZ
 ZUNIT=BOHR
 

 Variable memory set to  995000000 words,  buffer space   230000 words

 SETTING BASIS          =    VTZ-DK
 SETTING DKROLL         =         1.00000000                                  


 Recomputing integrals since basis changed


 Using spherical harmonics

 Library entry H      S cc-pVTZ-DK           selected for orbital group  1
 Library entry H      P cc-pVTZ-DK           selected for orbital group  1
 Library entry H      D cc-pVTZ-DK           selected for orbital group  1
 Library entry N      S cc-pVTZ-DK           selected for orbital group  2
 Library entry N      P cc-pVTZ-DK           selected for orbital group  2
 Library entry N      D cc-pVTZ-DK           selected for orbital group  2
 Library entry N      F cc-pVTZ-DK           selected for orbital group  2
 Library entry O      S cc-pVTZ-DK           selected for orbital group  3
 Library entry O      P cc-pVTZ-DK           selected for orbital group  3
 Library entry O      D cc-pVTZ-DK           selected for orbital group  3
 Library entry O      F cc-pVTZ-DK           selected for orbital group  3


 PROGRAM * SEWARD (Integral evaluation for generally contracted gaussian basis sets)     Author: Roland Lindh, 1990

 Geometry written to block  1 of record 700


 Point group  Cs  



 ATOMIC COORDINATES

 NR  ATOM    CHARGE       X              Y              Z

   1  H       1.00    0.000000000    1.664428431   -1.922703177
   2  N       7.00    0.000000000   -0.161595039   -1.136569405
   3  O       8.00    0.000000000    0.038934398    1.108682991

 Bond lengths in Bohr (Angstrom)

 1-2  1.988056342  2-3  2.254189517
     ( 1.052034110)     ( 1.192865721)

 Bond angles

  1-2-3  108.18899349

 NUCLEAR CHARGE:                   16
 NUMBER OF PRIMITIVE AOS:         111
 NUMBER OF SYMMETRY AOS:          100
 NUMBER OF CONTRACTIONS:           74   (  50A'  +  24A"  )
 NUMBER OF CORE ORBITALS:           2   (   2A'  +   0A"  )
 NUMBER OF VALENCE ORBITALS:        9   (   7A'  +   2A"  )


 NUCLEAR REPULSION ENERGY   30.68944323

 One-electron integrals computed with SEWARD

 2nd-order Douglas-Kroll-Hess method activated. Optimal DKH parametrization is used.

 Computing Douglas-Kroll / X2C integrals


        1874283. INTEGRALS WRITTEN OUT IN     458 BLOCKS ON RECORD 1290 OF FILE 1


 NUMBER OF SORTED TWO-ELECTRON INTEGRALS:    2006100.     BUFFER LENGTH:  32768
 NUMBER OF SEGMENTS:   1  SEGMENT LENGTH:    2006100      RECORD LENGTH: 524288

 Memory used in sort:       2.56 MW

 SORT1 READ     1874283. AND WROTE     1914195. INTEGRALS IN      6 RECORDS. CPU TIME:     0.03 SEC, REAL TIME:     0.04 SEC
 SORT2 READ     1914195. AND WROTE     2006100. INTEGRALS IN      1 RECORDS. CPU TIME:     0.06 SEC, REAL TIME:     0.06 SEC

 FILE SIZES:   FILE 1:    50.2 MBYTE,  FILE 4:    25.2 MBYTE,   TOTAL:     75.4 MBYTE

 OPERATOR DM      FOR CENTER  0  COORDINATES:    0.000000    0.000000    0.000000

 Eigenvalues of metric

         1 0.239E-02 0.386E-02 0.400E-02 0.827E-02 0.130E-01 0.317E-01 0.416E-01 0.462E-01
         2 0.335E-01 0.463E-01 0.997E-01 0.111E+00 0.229E+00 0.341E+00 0.391E+00 0.445E+00


 **********************************************************************************************************************************
 DATASETS  * FILE   NREC   LENGTH (MB)   RECORD NAMES
              1      23       36.03       500      610      700      900      950      970     1000      129      960     1700   
                                          VAR    BASINP    GEOM    SYMINP    ZMAT    AOBASIS   BASIS     P2S    ABASIS    OPER   
                                         1101     1401     1411     1412     1650     1100     1400     1410     1200     1210   
                                          SR      EKINR    POTR     PVPR    MOLCAS      S      EKIN      POT      H0       H01  
                                         1300     1080     1600   
                                         ERIS     AOSYM     SMH  

 PROGRAMS   *        TOTAL       INT
 CPU TIMES  *         0.67      0.58
 REAL TIME  *         1.30 SEC
 DISK USED  *        75.75 MB      
 **********************************************************************************************************************************


 PROGRAM * RHF-SCF (CLOSED SHELL)       Authors: W. Meyer, H.-J. Werner


 NUMBER OF ELECTRONS:       8+    8-
 CONVERGENCE THRESHOLDS:    1.00E-10 (Density)    1.00E-13 (Energy)
 MAX. NUMBER OF ITERATIONS:      500
 INTERPOLATION TYPE:            DIIS
 INTERPOLATION STEPS:              2 (START)      1 (STEP)
 LEVEL SHIFTS:                  0.00 (CLOSED)  0.00 (OPEN) 



 Orbital guess generated from atomic densities. Full valence occupancy:    9   2

 Molecular orbital dump at record        2100.2

 Initial occupancy:   7   1

 ITERATION    DDIFF          GRAD             ENERGY        2-EL.EN.            DIPOLE MOMENTS         DIIS   ORB.
    1      0.000D+00      0.000D+00      -129.87141326    154.800412    0.00000    0.58339   -0.99271    0    start
    2      0.000D+00      0.133D-01      -129.89850319    155.936014    0.00000    0.60446   -0.22712    1    diag
    3      0.180D-01      0.988D-02      -129.91857512    156.036173    0.00000    0.55530   -0.57889    2    diag
    4      0.864D-02      0.153D-02      -129.91928247    155.781007    0.00000    0.56404   -0.52204    3    diag
    5      0.164D-02      0.502D-03      -129.91939151    155.865377    0.00000    0.56940   -0.52338    4    diag
    6      0.701D-03      0.150D-03      -129.91940945    155.850648    0.00000    0.57000   -0.51947    5    diag
    7      0.272D-03      0.739D-04      -129.91941451    155.853101    0.00000    0.57126   -0.51717    6    diag
    8      0.185D-03      0.227D-04      -129.91941493    155.852474    0.00000    0.57128   -0.51645    7    diag
    9      0.581D-04      0.407D-05      -129.91941495    155.852371    0.00000    0.57124   -0.51631    8    diag
   10      0.111D-04      0.929D-06      -129.91941495    155.852354    0.00000    0.57121   -0.51629    9    orth
   11      0.265D-05      0.184D-06      -129.91941495    155.852349    0.00000    0.57120   -0.51629    9    diag
   12      0.496D-06      0.374D-07      -129.91941495    155.852348    0.00000    0.57120   -0.51629    9    diag
   13      0.107D-06      0.906D-08      -129.91941495    155.852348    0.00000    0.57120   -0.51628    9    diag
   14      0.263D-07      0.171D-08      -129.91941495    155.852348    0.00000    0.57120   -0.51628    9    diag
   15      0.456D-08      0.468D-09      -129.91941495    155.852348    0.00000    0.57120   -0.51628    9    diag
   16      0.110D-08      0.130D-09      -129.91941495    155.852348    0.00000    0.57120   -0.51628    9    diag
   17      0.236D-09      0.387D-10      -129.91941495    155.852348    0.00000    0.57120   -0.51628    9    diag
   18      0.797D-10      0.122D-10      -129.91941495    155.852348    0.00000    0.57120   -0.51628    9    diag
   19      0.283D-10      0.267D-11      -129.91941495    155.852348    0.00000    0.57120   -0.51628    9    fixocc
   20      0.650D-11      0.420D-12      -129.91941495    155.852348    0.00000    0.57120   -0.51628    9    orth
   21      0.782D-12      0.127D-12      -129.91941495    155.852348    0.00000    0.57120   -0.51628    9    diag
   22      0.378D-12      0.384D-13      -129.91941495    155.852348    0.00000    0.57120   -0.51628    0    orth

 Final occupancy:   7   1

 !RHF STATE 1.1 Energy               -129.919414951217
 Nuclear energy                        30.68944323
 One-electron energy                 -238.53503196
 Two-electron energy                   77.92617378
 Virial quotient                       -0.99708693
 !RHF STATE 1.1 Dipole moment           0.00000000     0.57119657    -0.51628456
 Dipole moment /Debye                   0.00000000     1.45174177    -1.31217851

 Orbital energies:

         1.1          2.1          3.1          4.1          5.1          6.1          7.1          8.1          9.1
    -20.663582   -15.714196    -1.539926    -0.988611    -0.747732    -0.666112    -0.422077     0.144939     0.371482

         1.2          2.2          3.2
     -0.599106     0.092127     0.611357

 HOMO      7.1    -0.422077 =     -11.4853eV
 LUMO      2.2     0.092127 =       2.5069eV
 LUMO-HOMO         0.514204 =      13.9922eV


 **********************************************************************************************************************************
 DATASETS  * FILE   NREC   LENGTH (MB)   RECORD NAMES
              1      23       36.03       500      610      700      900      950      970     1000      129      960     1700   
                                          VAR    BASINP    GEOM    SYMINP    ZMAT    AOBASIS   BASIS     P2S    ABASIS    OPER   
                                         1101     1401     1411     1412     1650     1100     1400     1410     1200     1210   
                                          SR      EKINR    POTR     PVPR    MOLCAS      S      EKIN      POT      H0       H01  
                                         1300     1080     1600   
                                         ERIS     AOSYM     SMH  

              2       4        2.85       700     1000      520     2100   
                                         GEOM     BASIS   MCVARS     RHF  

 PROGRAMS   *        TOTAL        HF       INT
 CPU TIMES  *         0.90      0.23      0.58
 REAL TIME  *         1.58 SEC
 DISK USED  *        75.75 MB      
 **********************************************************************************************************************************


 PROGRAM * CCSD (Closed-shell coupled cluster)     Authors: C. Hampel, H.-J. Werner, 1991, M. Deegan, P.J. Knowles, 1992


 Convergence thresholds:  THRVAR = 1.00D-08  THRDEN = 1.00D-12

 CCSD(T)     terms to be evaluated (factor= 1.000)


 Number of core orbitals:           2 (   2   0 )
 Number of closed-shell orbitals:   6 (   5   1 )
 Number of external orbitals:      66 (  43  23 )

 Molecular orbitals read from record     2100.2  Type=RHF/CANONICAL (state 1.1)

 Number of N-1 electron functions:               6
 Number of N-2 electron functions:              21
 Number of singly external CSFs:               238
 Number of doubly external CSFs:             41002
 Total number of CSFs:                       41241

 Length of J-op  integral file:               0.00 MB
 Length of K-op  integral file:               0.25 MB
 Length of 3-ext integral record:             0.00 MB

 Memory could be reduced to 1.65 Mwords without degradation in triples

 Integral transformation finished. Total CPU:   0.03 sec, npass=  1  Memory used:   0.55 MW

 Reference energy:                   -129.91941495

 MP2 singlet pair energy:              -0.27218916
 MP2 triplet pair energy:              -0.16155999
 MP2 correlation energy:               -0.43374916
 MP2 total energy:                   -130.35316411

 SCS-MP2 correlation energy:           -0.42715321   (PS=  1.200000  PT=  0.333333)
 SCS-MP2 total energy:               -130.34656816

 ITER.      SQ.NORM     CORR.ENERGY   TOTAL ENERGY   ENERGY CHANGE        DEN1      VAR(S)    VAR(P)  DIIS     TIME  TIME/IT
   1      1.11684019    -0.43937971  -130.35879466    -0.00563055     0.00955588  0.28D-02  0.28D-02  1  1     0.07     0.04
   2      1.12732075    -0.43973853  -130.35915348    -0.00035882    -0.01193367  0.80D-04  0.48D-03  2  2     0.11     0.04
   3      1.13328783    -0.44010086  -130.35951581    -0.00036233    -0.00287442  0.43D-04  0.47D-04  3  3     0.14     0.04
   4      1.13591685    -0.44012598  -130.35954093    -0.00002512    -0.00091030  0.36D-05  0.83D-05  4  4     0.17     0.04
   5      1.13683057    -0.44015284  -130.35956779    -0.00002686    -0.00018926  0.13D-05  0.16D-05  5  5     0.21     0.04
   6      1.13716990    -0.44013803  -130.35955298     0.00001481    -0.00003799  0.97D-07  0.40D-06  6  6     0.23     0.04
   7      1.13725581    -0.44013979  -130.35955474    -0.00000176    -0.00000262  0.12D-07  0.81D-07  6  1     0.27     0.04
   8      1.13728576    -0.44013992  -130.35955487    -0.00000013     0.00000187  0.42D-08  0.89D-08  6  2     0.31     0.04
   9      1.13729289    -0.44013974  -130.35955470     0.00000018    -0.00000218  0.23D-08  0.98D-09  6  3     0.34     0.04
  10      1.13729169    -0.44014021  -130.35955517    -0.00000047     0.00000059  0.45D-09  0.18D-09  6  4     0.38     0.04
  11      1.13729002    -0.44014027  -130.35955522    -0.00000006     0.00000019  0.14D-09  0.21D-10  6  5     0.41     0.04
  12      1.13728870    -0.44014043  -130.35955538    -0.00000016     0.00000041  0.15D-10  0.69D-11  6  6     0.45     0.04
  13      1.13728813    -0.44014044  -130.35955539    -0.00000001     0.00000011  0.63D-11  0.11D-11  6  1     0.48     0.04
  14      1.13728778    -0.44014045  -130.35955541    -0.00000002     0.00000007  0.86D-12  0.38D-12  6  2     0.51     0.04
  15      1.13728766    -0.44014046  -130.35955541    -0.00000000     0.00000001  0.21D-12  0.13D-12  6  3     0.55     0.04
  16      1.13728757    -0.44014046  -130.35955541    -0.00000000     0.00000001  0.23D-13  0.14D-13  6  5     0.59     0.04
  17      1.13728754    -0.44014046  -130.35955541    -0.00000000     0.00000000  0.80D-15  0.23D-14  6  4     0.62     0.04
  18      1.13728754    -0.44014046  -130.35955541     0.00000000    -0.00000000  0.50D-15  0.33D-15  6  1     0.66     0.04
  19      1.13728754    -0.44014046  -130.35955541    -0.00000000     0.00000000  0.39D-16  0.56D-16  6  6     0.69     0.04
  20      1.13728754    -0.44014046  -130.35955541    -0.00000000     0.00000000  0.79D-17  0.13D-16  6  2     0.73     0.04
  21      1.13728753    -0.44014046  -130.35955541    -0.00000000     0.00000000  0.17D-17  0.93D-18  6  5     0.77     0.04
  22      1.13728753    -0.44014046  -130.35955541     0.00000000     0.00000000  0.11D-18  0.71D-19  6  3     0.80     0.04
  23      1.13728753    -0.44014046  -130.35955541     0.00000000    -0.00000000  0.31D-19  0.16D-19  6  4     0.84     0.04
  24      1.13728753    -0.44014046  -130.35955541     0.00000000    -0.00000000  0.46D-20  0.44D-20  6  1     0.87     0.04
  25      1.13728753    -0.44014046  -130.35955541     0.00000000    -0.00000000  0.46D-21  0.77D-21  6  6     0.90     0.04

 Norm of t1 vector:      0.07277146      S-energy:     0.00000000      T1 diagnostic:  0.01485441
                                                                       D1 diagnostic:  0.04053505

 Doubles amplitudes (print threshold =  0.500E-01):

         I         J         SYM. A    SYM. B    A         B      T(IJ, AB)

         6         6         2         2         1         1     -0.13953483


 Total CPU time for triples:      0.22 sec


 RESULTS
 =======

  Reference energy                   -129.919414951217
  CCSD singlet pair energy             -0.301412276247
  CCSD triplet pair energy             -0.138728181755
  CCSD correlation energy              -0.440140458001

  Triples (T) contribution             -0.019345619700
  Total correlation energy             -0.459486077701

  CCSD total energy                  -130.359555409218
  CCSD[T] energy                     -130.379858814181
  CCSD-T energy                      -130.378518472222
 !CCSD(T) total energy               -130.378901028918

 Timing summary (sec):

 STEP                 CPU(USER)    SYS     CPU(TOT)    WALL
 Transformation          0.03      0.00      0.03      0.04
 CCSD iterations         0.87      0.10      0.97      0.96
 Triples                 0.22      0.01      0.23      0.23

 Program statistics:

 Available memory in ccsd:               994999756
 Min. memory needed in ccsd:                154850
 Max. memory used in ccsd:                  184802
 Max. memory used in cckext:                238416 (25 integral passes)



 **********************************************************************************************************************************
 DATASETS  * FILE   NREC   LENGTH (MB)   RECORD NAMES
              1      24       40.41       500      610      700      900      950      970     1000      129      960     1700   
                                          VAR    BASINP    GEOM    SYMINP    ZMAT    AOBASIS   BASIS     P2S    ABASIS    OPER   
                                         1101     1401     1411     1412     1650     1100     1400     1410     1200     1210   
                                          SR      EKINR    POTR     PVPR    MOLCAS      S      EKIN      POT      H0       H01  
                                         1300     1080     1600     1380   
                                         ERIS     AOSYM     SMH     JKOP   

              2       4        2.85       700     1000      520     2100   
                                         GEOM     BASIS   MCVARS     RHF  

 PROGRAMS   *        TOTAL   CCSD(T)        HF       INT
 CPU TIMES  *         2.05      1.14      0.23      0.58
 REAL TIME  *         2.88 SEC
 DISK USED  *        75.75 MB      
 **********************************************************************************************************************************

 CCSD(T)/cc-pVTZ-DK energy=   -130.378901028918

        CCSD(T)         HF-SCF  
   -130.37890103   -129.91941495
 **********************************************************************************************************************************
 Molpro calculation terminated
 Variable memory released
