
 Primary working directories    : /tmp/r2666/282730.maple
 Secondary working directories  : /tmp/r2666/282730.maple
 Wavefunction directory         : /ddn/home4/r2666/wfu/
 Main file repository           : /tmp/r2666/282730.maple/

 SHA1      : d5ffa45e93fdbca01ffc919aa182cfdae0147319
 NAME      : 2015.1.35
 ARCHNAME  : linux/x86_64
 FC        : /opt/intel/composer_xe_2015.1.133/bin/intel64/ifort
 BLASLIB   : -Wl,-_start-group /opt/intel/mkl/lib/intel64/libmkl_intel_ilp64.a /opt/intel/mkl/lib/intel64/libmkl_intel_thread.a /opt/intel/mkl/lib/intel64/libmkl_core.a -Wl,-_end-group
 id        : olemiss

 Nodes     nprocs
 cn086        1

 Using customized tuning parameters: mindgm=1; mindgv=20; mindgc=4; mindgr=1; noblas=0; minvec=7
 default implementation of scratch files=df  

 ***,hno CCSD(T)/TZ-F12 QFF
 memory, 995, m;
 gthresh,energy=1.d-12,zero=1.d-22,oneint=1.d-22,twoint=1.d-22;
 gthresh,optgrad=1.d-8,optstep=1.d-8;
 nocompress;
 geomtyp=xyz
 bohr
 geometry={
 3
        111       111
 H        0.0000000000        1.6743395527       -1.9320725783
 N        0.0000000000       -0.1681850993       -1.1364811835
 O        0.0000000000        0.0356133366        1.1179641709
 }
 
 basis=vtz-dk
 dkroll=1
   {hf,maxit=500;accu,20;}
 {ccsd(t),nocheck,maxit=250;orbital,IGNORE_ERROR;}

 Variables initialized (889), CPU time= 0.01 sec
 Commands  initialized (702), CPU time= 0.01 sec, 572 directives.
 Default parameters read. Elapsed time= 0.10 sec

 Checking input...
 Passed
1


                                         ***  PROGRAM SYSTEM MOLPRO  ***
                                       Copyright, TTI GmbH Stuttgart, 2015
                                    Version 2015.1 linked Jul  9 2018 13:16:40


 **********************************************************************************************************************************
 LABEL *   hno CCSD(T)/TZ-F12 QFF                                                        
  64 bit serial version                                                                  DATE: 04-Mar-20          TIME: 13:51:17  
 **********************************************************************************************************************************

 SHA1:             d5ffa45e93fdbca01ffc919aa182cfdae0147319
 **********************************************************************************************************************************

 THRESHOLDS:

 ZERO    =  1.00D-22  ONEINT  =  1.00D-22  TWOINT  =  1.00D-22  PREFAC  =  1.00D-14  LOCALI  =  1.00D-09  EORDER  =  1.00D-04
 ENERGY  =  1.00D-12  ETEST   =  0.00D+00  EDENS   =  0.00D+00  THRDEDEF=  1.00D-06  GRADIENT=  1.00D-02  STEP    =  1.00D-03
 ORBITAL =  1.00D-05  CIVEC   =  1.00D-05  COEFF   =  1.00D-04  PRINTCI =  5.00D-02  PUNCHCI =  9.90D+01  OPTGRAD =  3.00D-04
 OPTENERG=  1.00D-06  OPTSTEP =  3.00D-04  THRGRAD =  1.00D-10  COMPRESS=  1.00D-11  VARMIN  =  1.00D-07  VARMAX  =  1.00D-03
 THRDOUB =  0.00D+00  THRDIV  =  1.00D-05  THRRED  =  1.00D-07  THRPSP  =  1.00D+00  THRDC   =  1.00D-10  THRCS   =  1.00D-10
 THRNRM  =  1.00D-08  THREQ   =  0.00D+00  THRDE   =  1.00D+00  THRREF  =  1.00D-05  SPARFAC =  1.00D+00  THRDLP  =  1.00D-07
 THRDIA  =  1.00D-10  THRDLS  =  1.00D-07  THRGPS  =  0.00D+00  THRKEX  =  0.00D+00  THRDIS  =  2.00D-01  THRVAR  =  1.00D-10
 THRLOC  =  1.00D-06  THRGAP  =  1.00D-06  THRLOCT = -1.00D+00  THRGAPT = -1.00D+00  THRORB  =  1.00D-06  THRMLTP =  0.00D+00
 THRCPQCI=  1.00D-10  KEXTA   =  0.00D+00  THRCOARS=  0.00D+00  SYMTOL  =  1.00D-06  GRADTOL =  1.00D-06  THROVL  =  1.00D-08
 THRORTH =  1.00D-08  GRID    =  1.00D-06  GRIDMAX =  1.00D-03  DTMAX   =  0.00D+00  THROCCDE=  1.00D-01  THROCCDE=  1.00D-01



 THRESHOLDS:

 ZERO    =  1.00D-22  ONEINT  =  1.00D-22  TWOINT  =  1.00D-22  PREFAC  =  1.00D-14  LOCALI  =  1.00D-09  EORDER  =  1.00D-04
 ENERGY  =  1.00D-12  ETEST   =  0.00D+00  EDENS   =  0.00D+00  THRDEDEF=  1.00D-06  GRADIENT=  1.00D-02  STEP    =  1.00D-03
 ORBITAL =  1.00D-05  CIVEC   =  1.00D-05  COEFF   =  1.00D-04  PRINTCI =  5.00D-02  PUNCHCI =  9.90D+01  OPTGRAD =  1.00D-08
 OPTENERG=  1.00D-06  OPTSTEP =  1.00D-08  THRGRAD =  1.00D-10  COMPRESS=  1.00D-11  VARMIN  =  1.00D-07  VARMAX  =  1.00D-03
 THRDOUB =  0.00D+00  THRDIV  =  1.00D-05  THRRED  =  1.00D-07  THRPSP  =  1.00D+00  THRDC   =  1.00D-10  THRCS   =  1.00D-10
 THRNRM  =  1.00D-08  THREQ   =  0.00D+00  THRDE   =  1.00D+00  THRREF  =  1.00D-05  SPARFAC =  1.00D+00  THRDLP  =  1.00D-07
 THRDIA  =  1.00D-10  THRDLS  =  1.00D-07  THRGPS  =  0.00D+00  THRKEX  =  0.00D+00  THRDIS  =  2.00D-01  THRVAR  =  1.00D-10
 THRLOC  =  1.00D-06  THRGAP  =  1.00D-06  THRLOCT = -1.00D+00  THRGAPT = -1.00D+00  THRORB  =  1.00D-06  THRMLTP =  0.00D+00
 THRCPQCI=  1.00D-10  KEXTA   =  0.00D+00  THRCOARS=  0.00D+00  SYMTOL  =  1.00D-06  GRADTOL =  1.00D-06  THROVL  =  1.00D-08
 THRORTH =  1.00D-08  GRID    =  1.00D-06  GRIDMAX =  1.00D-03  DTMAX   =  0.00D+00  THROCCDE=  1.00D-01  THROCCDE=  1.00D-01



 Input parameters for SORTINT:

 COMPRESS =    0.000000
 C_FINAL  =    1.000000
 DEBUG    =   -1.000000
 C_SORT1  =    0.000000
 C_SEWARD =    0.000000
 THRESH   =    0.000000
 IO       =  molpro                                                          
 SPRI     =    0.000000
 SETTING GEOMTYP        =    XYZ
 ZUNIT=BOHR
 

 Variable memory set to  995000000 words,  buffer space   230000 words

 SETTING BASIS          =    VTZ-DK
 SETTING DKROLL         =         1.00000000                                  


 Recomputing integrals since basis changed


 Using spherical harmonics

 Library entry H      S cc-pVTZ-DK           selected for orbital group  1
 Library entry H      P cc-pVTZ-DK           selected for orbital group  1
 Library entry H      D cc-pVTZ-DK           selected for orbital group  1
 Library entry N      S cc-pVTZ-DK           selected for orbital group  2
 Library entry N      P cc-pVTZ-DK           selected for orbital group  2
 Library entry N      D cc-pVTZ-DK           selected for orbital group  2
 Library entry N      F cc-pVTZ-DK           selected for orbital group  2
 Library entry O      S cc-pVTZ-DK           selected for orbital group  3
 Library entry O      P cc-pVTZ-DK           selected for orbital group  3
 Library entry O      D cc-pVTZ-DK           selected for orbital group  3
 Library entry O      F cc-pVTZ-DK           selected for orbital group  3


 PROGRAM * SEWARD (Integral evaluation for generally contracted gaussian basis sets)     Author: Roland Lindh, 1990

 Geometry written to block  1 of record 700


 Point group  Cs  



 ATOMIC COORDINATES

 NR  ATOM    CHARGE       X              Y              Z

   1  H       1.00    0.000000000    1.674339553   -1.932072578
   2  N       7.00    0.000000000   -0.168185099   -1.136481183
   3  O       8.00    0.000000000    0.035613337    1.117964171

 Bond lengths in Bohr (Angstrom)

 1-2  2.006953602  2-3  2.263638147
     ( 1.062034110)     ( 1.197865721)

 Bond angles

  1-2-3  108.18899349

 NUCLEAR CHARGE:                   16
 NUMBER OF PRIMITIVE AOS:         111
 NUMBER OF SYMMETRY AOS:          100
 NUMBER OF CONTRACTIONS:           74   (  50A'  +  24A"  )
 NUMBER OF CORE ORBITALS:           2   (   2A'  +   0A"  )
 NUMBER OF VALENCE ORBITALS:        9   (   7A'  +   2A"  )


 NUCLEAR REPULSION ENERGY   30.53735210

 One-electron integrals computed with SEWARD

 2nd-order Douglas-Kroll-Hess method activated. Optimal DKH parametrization is used.

 Computing Douglas-Kroll / X2C integrals


        1874283. INTEGRALS WRITTEN OUT IN     458 BLOCKS ON RECORD 1290 OF FILE 1


 NUMBER OF SORTED TWO-ELECTRON INTEGRALS:    2006100.     BUFFER LENGTH:  32768
 NUMBER OF SEGMENTS:   1  SEGMENT LENGTH:    2006100      RECORD LENGTH: 524288

 Memory used in sort:       2.56 MW

 SORT1 READ     1874283. AND WROTE     1914195. INTEGRALS IN      6 RECORDS. CPU TIME:     0.03 SEC, REAL TIME:     0.04 SEC
 SORT2 READ     1914195. AND WROTE     2006100. INTEGRALS IN      1 RECORDS. CPU TIME:     0.06 SEC, REAL TIME:     0.07 SEC

 FILE SIZES:   FILE 1:    50.2 MBYTE,  FILE 4:    25.2 MBYTE,   TOTAL:     75.4 MBYTE

 OPERATOR DM      FOR CENTER  0  COORDINATES:    0.000000    0.000000    0.000000

 Eigenvalues of metric

         1 0.244E-02 0.394E-02 0.406E-02 0.848E-02 0.132E-01 0.322E-01 0.420E-01 0.463E-01
         2 0.339E-01 0.465E-01 0.101E+00 0.113E+00 0.232E+00 0.345E+00 0.394E+00 0.448E+00


 **********************************************************************************************************************************
 DATASETS  * FILE   NREC   LENGTH (MB)   RECORD NAMES
              1      23       36.03       500      610      700      900      950      970     1000      129      960     1700   
                                          VAR    BASINP    GEOM    SYMINP    ZMAT    AOBASIS   BASIS     P2S    ABASIS    OPER   
                                         1101     1401     1411     1412     1650     1100     1400     1410     1200     1210   
                                          SR      EKINR    POTR     PVPR    MOLCAS      S      EKIN      POT      H0       H01  
                                         1300     1080     1600   
                                         ERIS     AOSYM     SMH  

 PROGRAMS   *        TOTAL       INT
 CPU TIMES  *         0.70      0.58
 REAL TIME  *         1.23 SEC
 DISK USED  *        75.75 MB      
 **********************************************************************************************************************************


 PROGRAM * RHF-SCF (CLOSED SHELL)       Authors: W. Meyer, H.-J. Werner


 NUMBER OF ELECTRONS:       8+    8-
 CONVERGENCE THRESHOLDS:    1.00E-10 (Density)    1.00E-13 (Energy)
 MAX. NUMBER OF ITERATIONS:      500
 INTERPOLATION TYPE:            DIIS
 INTERPOLATION STEPS:              2 (START)      1 (STEP)
 LEVEL SHIFTS:                  0.00 (CLOSED)  0.00 (OPEN) 



 Orbital guess generated from atomic densities. Full valence occupancy:    9   2

 Molecular orbital dump at record        2100.2

 Initial occupancy:   7   1

 ITERATION    DDIFF          GRAD             ENERGY        2-EL.EN.            DIPOLE MOMENTS         DIIS   ORB.
    1      0.000D+00      0.000D+00      -129.86940817    154.518542    0.00000    0.57908   -1.00925    0    start
    2      0.000D+00      0.135D-01      -129.89639628    155.658407    0.00000    0.60640   -0.22105    1    diag
    3      0.183D-01      0.101D-01      -129.91762891    155.765445    0.00000    0.55393   -0.58480    2    diag
    4      0.883D-02      0.153D-02      -129.91834811    155.505377    0.00000    0.56248   -0.52711    3    diag
    5      0.164D-02      0.509D-03      -129.91846085    155.590917    0.00000    0.56797   -0.52838    4    diag
    6      0.711D-03      0.153D-03      -129.91847957    155.575966    0.00000    0.56854   -0.52434    5    diag
    7      0.277D-03      0.755D-04      -129.91848490    155.578408    0.00000    0.56982   -0.52196    6    diag
    8      0.190D-03      0.236D-04      -129.91848537    155.577754    0.00000    0.56984   -0.52121    7    diag
    9      0.611D-04      0.428D-05      -129.91848539    155.577644    0.00000    0.56979   -0.52106    8    diag
   10      0.117D-04      0.963D-06      -129.91848539    155.577626    0.00000    0.56976   -0.52104    9    orth
   11      0.273D-05      0.191D-06      -129.91848539    155.577621    0.00000    0.56975   -0.52104    9    diag
   12      0.509D-06      0.393D-07      -129.91848539    155.577620    0.00000    0.56975   -0.52103    9    diag
   13      0.112D-06      0.964D-08      -129.91848539    155.577619    0.00000    0.56975   -0.52103    9    diag
   14      0.278D-07      0.180D-08      -129.91848539    155.577619    0.00000    0.56975   -0.52103    9    diag
   15      0.470D-08      0.485D-09      -129.91848539    155.577619    0.00000    0.56975   -0.52103    9    diag
   16      0.113D-08      0.130D-09      -129.91848539    155.577619    0.00000    0.56975   -0.52103    9    diag
   17      0.233D-09      0.396D-10      -129.91848539    155.577619    0.00000    0.56975   -0.52103    9    diag
   18      0.794D-10      0.128D-10      -129.91848539    155.577619    0.00000    0.56975   -0.52103    9    diag
   19      0.300D-10      0.277D-11      -129.91848539    155.577619    0.00000    0.56975   -0.52103    0    orth

 Final occupancy:   7   1

 !RHF STATE 1.1 Energy               -129.918485386787
 Nuclear energy                        30.53735210
 One-electron energy                 -238.24464715
 Two-electron energy                   77.78880967
 Virial quotient                       -0.99736373
 !RHF STATE 1.1 Dipole moment           0.00000000     0.56975011    -0.52103424
 Dipole moment /Debye                   0.00000000     1.44806550    -1.32425020

 Orbital energies:

         1.1          2.1          3.1          4.1          5.1          6.1          7.1          8.1          9.1
    -20.664324   -15.716461    -1.535673    -0.987331    -0.745101    -0.664696    -0.423068     0.143997     0.370932

         1.2          2.2          3.2
     -0.596860     0.090212     0.611877

 HOMO      7.1    -0.423068 =     -11.5123eV
 LUMO      2.2     0.090212 =       2.4548eV
 LUMO-HOMO         0.513280 =      13.9671eV


 **********************************************************************************************************************************
 DATASETS  * FILE   NREC   LENGTH (MB)   RECORD NAMES
              1      23       36.03       500      610      700      900      950      970     1000      129      960     1700   
                                          VAR    BASINP    GEOM    SYMINP    ZMAT    AOBASIS   BASIS     P2S    ABASIS    OPER   
                                         1101     1401     1411     1412     1650     1100     1400     1410     1200     1210   
                                          SR      EKINR    POTR     PVPR    MOLCAS      S      EKIN      POT      H0       H01  
                                         1300     1080     1600   
                                         ERIS     AOSYM     SMH  

              2       4        2.85       700     1000      520     2100   
                                         GEOM     BASIS   MCVARS     RHF  

 PROGRAMS   *        TOTAL        HF       INT
 CPU TIMES  *         0.92      0.22      0.58
 REAL TIME  *         1.48 SEC
 DISK USED  *        75.75 MB      
 **********************************************************************************************************************************


 PROGRAM * CCSD (Closed-shell coupled cluster)     Authors: C. Hampel, H.-J. Werner, 1991, M. Deegan, P.J. Knowles, 1992


 Convergence thresholds:  THRVAR = 1.00D-08  THRDEN = 1.00D-12

 CCSD(T)     terms to be evaluated (factor= 1.000)


 Number of core orbitals:           2 (   2   0 )
 Number of closed-shell orbitals:   6 (   5   1 )
 Number of external orbitals:      66 (  43  23 )

 Molecular orbitals read from record     2100.2  Type=RHF/CANONICAL (state 1.1)

 Number of N-1 electron functions:               6
 Number of N-2 electron functions:              21
 Number of singly external CSFs:               238
 Number of doubly external CSFs:             41002
 Total number of CSFs:                       41241

 Length of J-op  integral file:               0.00 MB
 Length of K-op  integral file:               0.25 MB
 Length of 3-ext integral record:             0.00 MB

 Memory could be reduced to 1.65 Mwords without degradation in triples

 Integral transformation finished. Total CPU:   0.03 sec, npass=  1  Memory used:   0.55 MW

 Reference energy:                   -129.91848539

 MP2 singlet pair energy:              -0.27294759
 MP2 triplet pair energy:              -0.16203411
 MP2 correlation energy:               -0.43498170
 MP2 total energy:                   -130.35346708

 SCS-MP2 correlation energy:           -0.42835833   (PS=  1.200000  PT=  0.333333)
 SCS-MP2 total energy:               -130.34684371

 ITER.      SQ.NORM     CORR.ENERGY   TOTAL ENERGY   ENERGY CHANGE        DEN1      VAR(S)    VAR(P)  DIIS     TIME  TIME/IT
   1      1.11771990    -0.44040740  -130.35889279    -0.00542570     0.01004716  0.28D-02  0.29D-02  1  1     0.06     0.04
   2      1.12838804    -0.44072740  -130.35921278    -0.00032000    -0.01210400  0.84D-04  0.49D-03  2  2     0.10     0.04
   3      1.13452337    -0.44110456  -130.35958994    -0.00037716    -0.00293240  0.46D-04  0.49D-04  3  3     0.13     0.04
   4      1.13723166    -0.44112886  -130.35961425    -0.00002431    -0.00093330  0.39D-05  0.86D-05  4  4     0.17     0.04
   5      1.13818908    -0.44115724  -130.35964263    -0.00002838    -0.00019851  0.14D-05  0.16D-05  5  5     0.20     0.04
   6      1.13854059    -0.44114164  -130.35962703     0.00001560    -0.00003950  0.11D-06  0.40D-06  6  6     0.24     0.04
   7      1.13862834    -0.44114329  -130.35962868    -0.00000165    -0.00000260  0.13D-07  0.82D-07  6  1     0.28     0.04
   8      1.13865927    -0.44114336  -130.35962875    -0.00000007     0.00000172  0.40D-08  0.96D-08  6  2     0.32     0.04
   9      1.13866696    -0.44114313  -130.35962852     0.00000023    -0.00000217  0.24D-08  0.11D-08  6  3     0.35     0.04
  10      1.13866580    -0.44114362  -130.35962901    -0.00000049     0.00000056  0.47D-09  0.19D-09  6  4     0.38     0.04
  11      1.13866407    -0.44114368  -130.35962907    -0.00000006     0.00000021  0.15D-09  0.22D-10  6  5     0.41     0.04
  12      1.13866269    -0.44114385  -130.35962924    -0.00000017     0.00000042  0.16D-10  0.75D-11  6  6     0.44     0.04
  13      1.13866207    -0.44114386  -130.35962925    -0.00000001     0.00000012  0.68D-11  0.12D-11  6  1     0.47     0.04
  14      1.13866169    -0.44114388  -130.35962926    -0.00000002     0.00000007  0.95D-12  0.41D-12  6  2     0.51     0.04
  15      1.13866156    -0.44114388  -130.35962927    -0.00000000     0.00000001  0.24D-12  0.13D-12  6  3     0.54     0.04
  16      1.13866145    -0.44114388  -130.35962927    -0.00000000     0.00000002  0.68D-14  0.35D-13  6  1     0.58     0.04
  17      1.13866144    -0.44114388  -130.35962927     0.00000000    -0.00000000  0.32D-14  0.27D-14  6  4     0.61     0.04
  18      1.13866143    -0.44114388  -130.35962927    -0.00000000     0.00000000  0.72D-15  0.48D-15  6  5     0.65     0.04
  19      1.13866143    -0.44114388  -130.35962927     0.00000000    -0.00000000  0.12D-15  0.82D-16  6  6     0.69     0.04
  20      1.13866143    -0.44114388  -130.35962927    -0.00000000     0.00000000  0.16D-16  0.18D-16  6  2     0.72     0.04
  21      1.13866143    -0.44114388  -130.35962927    -0.00000000     0.00000000  0.25D-17  0.22D-17  6  3     0.76     0.04
  22      1.13866143    -0.44114388  -130.35962927    -0.00000000     0.00000000  0.29D-18  0.34D-18  6  4     0.79     0.04
  23      1.13866143    -0.44114388  -130.35962927    -0.00000000     0.00000000  0.11D-18  0.28D-19  6  1     0.83     0.04
  24      1.13866143    -0.44114388  -130.35962927     0.00000000    -0.00000000  0.18D-19  0.11D-19  6  6     0.86     0.04
  25      1.13866143    -0.44114388  -130.35962927     0.00000000    -0.00000000  0.39D-20  0.73D-21  6  5     0.89     0.04
  26      1.13866143    -0.44114388  -130.35962927     0.00000000    -0.00000000  0.79D-21  0.30D-21  6  2     0.93     0.04
  27      1.13866143    -0.44114388  -130.35962927     0.00000000    -0.00000000  0.27D-22  0.16D-22  6  3     0.97     0.04

 Norm of t1 vector:      0.07408348      S-energy:     0.00000000      T1 diagnostic:  0.01512223
                                                                       D1 diagnostic:  0.04118587

 Doubles amplitudes (print threshold =  0.500E-01):

         I         J         SYM. A    SYM. B    A         B      T(IJ, AB)

         6         6         2         2         1         1     -0.14081058


 Total CPU time for triples:      0.22 sec


 RESULTS
 =======

  Reference energy                   -129.918485386787
  CCSD singlet pair energy             -0.302281598158
  CCSD triplet pair energy             -0.138862284016
  CCSD correlation energy              -0.441143882174

  Triples (T) contribution             -0.019557786051
  Total correlation energy             -0.460701668224

  CCSD total energy                  -130.359629268961
  CCSD[T] energy                     -130.380175859114
  CCSD-T energy                      -130.378795013707
 !CCSD(T) total energy               -130.379187055011

 Timing summary (sec):

 STEP                 CPU(USER)    SYS     CPU(TOT)    WALL
 Transformation          0.03      0.01      0.04      0.03
 CCSD iterations         0.95      0.12      1.07      1.08
 Triples                 0.22      0.01      0.23      0.23

 Program statistics:

 Available memory in ccsd:               994999756
 Min. memory needed in ccsd:                154850
 Max. memory used in ccsd:                  184802
 Max. memory used in cckext:                238416 (27 integral passes)



 **********************************************************************************************************************************
 DATASETS  * FILE   NREC   LENGTH (MB)   RECORD NAMES
              1      24       40.41       500      610      700      900      950      970     1000      129      960     1700   
                                          VAR    BASINP    GEOM    SYMINP    ZMAT    AOBASIS   BASIS     P2S    ABASIS    OPER   
                                         1101     1401     1411     1412     1650     1100     1400     1410     1200     1210   
                                          SR      EKINR    POTR     PVPR    MOLCAS      S      EKIN      POT      H0       H01  
                                         1300     1080     1600     1380   
                                         ERIS     AOSYM     SMH     JKOP   

              2       4        2.85       700     1000      520     2100   
                                         GEOM     BASIS   MCVARS     RHF  

 PROGRAMS   *        TOTAL   CCSD(T)        HF       INT
 CPU TIMES  *         2.16      1.24      0.22      0.58
 REAL TIME  *         2.87 SEC
 DISK USED  *        75.75 MB      
 **********************************************************************************************************************************

 CCSD(T)/cc-pVTZ-DK energy=   -130.379187055011

        CCSD(T)         HF-SCF  
   -130.37918706   -129.91848539
 **********************************************************************************************************************************
 Molpro calculation terminated
 Variable memory released
