
 Primary working directories    : /tmp/r2666/282681.maple
 Secondary working directories  : /tmp/r2666/282681.maple
 Wavefunction directory         : /ddn/home4/r2666/wfu/
 Main file repository           : /tmp/r2666/282681.maple/

 SHA1      : d5ffa45e93fdbca01ffc919aa182cfdae0147319
 NAME      : 2015.1.35
 ARCHNAME  : linux/x86_64
 FC        : /opt/intel/composer_xe_2015.1.133/bin/intel64/ifort
 BLASLIB   : -Wl,-_start-group /opt/intel/mkl/lib/intel64/libmkl_intel_ilp64.a /opt/intel/mkl/lib/intel64/libmkl_intel_thread.a /opt/intel/mkl/lib/intel64/libmkl_core.a -Wl,-_end-group
 id        : olemiss

 Nodes     nprocs
 cn095        1

 Using customized tuning parameters: mindgm=1; mindgv=20; mindgc=4; mindgr=1; noblas=0; minvec=7
 default implementation of scratch files=df  

 ***,hno CCSD(T)/TZ-F12 QFF
 memory, 995, m;
 gthresh,energy=1.d-12,zero=1.d-22,oneint=1.d-22,twoint=1.d-22;
 gthresh,optgrad=1.d-8,optstep=1.d-8;
 nocompress;
 geomtyp=xyz
 bohr
 geometry={
 3
         62        62
 H        0.0000000000        1.6659332095       -1.9148985554
 N        0.0000000000       -0.1707203083       -1.1539308327
 O        0.0000000000        0.0465548888        1.1182397970
 }
 
 basis=vtz-dk
 dkroll=1
   {hf,maxit=500;accu,20;}
 {ccsd(t),nocheck,maxit=250;orbital,IGNORE_ERROR;}

 Variables initialized (889), CPU time= 0.01 sec
 Commands  initialized (702), CPU time= 0.01 sec, 572 directives.
 Default parameters read. Elapsed time= 0.04 sec

 Checking input...
 Passed
1


                                         ***  PROGRAM SYSTEM MOLPRO  ***
                                       Copyright, TTI GmbH Stuttgart, 2015
                                    Version 2015.1 linked Jul  9 2018 13:16:40


 **********************************************************************************************************************************
 LABEL *   hno CCSD(T)/TZ-F12 QFF                                                        
  64 bit serial version                                                                  DATE: 04-Mar-20          TIME: 13:51:12  
 **********************************************************************************************************************************

 SHA1:             d5ffa45e93fdbca01ffc919aa182cfdae0147319
 **********************************************************************************************************************************

 THRESHOLDS:

 ZERO    =  1.00D-22  ONEINT  =  1.00D-22  TWOINT  =  1.00D-22  PREFAC  =  1.00D-14  LOCALI  =  1.00D-09  EORDER  =  1.00D-04
 ENERGY  =  1.00D-12  ETEST   =  0.00D+00  EDENS   =  0.00D+00  THRDEDEF=  1.00D-06  GRADIENT=  1.00D-02  STEP    =  1.00D-03
 ORBITAL =  1.00D-05  CIVEC   =  1.00D-05  COEFF   =  1.00D-04  PRINTCI =  5.00D-02  PUNCHCI =  9.90D+01  OPTGRAD =  3.00D-04
 OPTENERG=  1.00D-06  OPTSTEP =  3.00D-04  THRGRAD =  1.00D-10  COMPRESS=  1.00D-11  VARMIN  =  1.00D-07  VARMAX  =  1.00D-03
 THRDOUB =  0.00D+00  THRDIV  =  1.00D-05  THRRED  =  1.00D-07  THRPSP  =  1.00D+00  THRDC   =  1.00D-10  THRCS   =  1.00D-10
 THRNRM  =  1.00D-08  THREQ   =  0.00D+00  THRDE   =  1.00D+00  THRREF  =  1.00D-05  SPARFAC =  1.00D+00  THRDLP  =  1.00D-07
 THRDIA  =  1.00D-10  THRDLS  =  1.00D-07  THRGPS  =  0.00D+00  THRKEX  =  0.00D+00  THRDIS  =  2.00D-01  THRVAR  =  1.00D-10
 THRLOC  =  1.00D-06  THRGAP  =  1.00D-06  THRLOCT = -1.00D+00  THRGAPT = -1.00D+00  THRORB  =  1.00D-06  THRMLTP =  0.00D+00
 THRCPQCI=  1.00D-10  KEXTA   =  0.00D+00  THRCOARS=  0.00D+00  SYMTOL  =  1.00D-06  GRADTOL =  1.00D-06  THROVL  =  1.00D-08
 THRORTH =  1.00D-08  GRID    =  1.00D-06  GRIDMAX =  1.00D-03  DTMAX   =  0.00D+00  THROCCDE=  1.00D-01  THROCCDE=  1.00D-01



 THRESHOLDS:

 ZERO    =  1.00D-22  ONEINT  =  1.00D-22  TWOINT  =  1.00D-22  PREFAC  =  1.00D-14  LOCALI  =  1.00D-09  EORDER  =  1.00D-04
 ENERGY  =  1.00D-12  ETEST   =  0.00D+00  EDENS   =  0.00D+00  THRDEDEF=  1.00D-06  GRADIENT=  1.00D-02  STEP    =  1.00D-03
 ORBITAL =  1.00D-05  CIVEC   =  1.00D-05  COEFF   =  1.00D-04  PRINTCI =  5.00D-02  PUNCHCI =  9.90D+01  OPTGRAD =  1.00D-08
 OPTENERG=  1.00D-06  OPTSTEP =  1.00D-08  THRGRAD =  1.00D-10  COMPRESS=  1.00D-11  VARMIN  =  1.00D-07  VARMAX  =  1.00D-03
 THRDOUB =  0.00D+00  THRDIV  =  1.00D-05  THRRED  =  1.00D-07  THRPSP  =  1.00D+00  THRDC   =  1.00D-10  THRCS   =  1.00D-10
 THRNRM  =  1.00D-08  THREQ   =  0.00D+00  THRDE   =  1.00D+00  THRREF  =  1.00D-05  SPARFAC =  1.00D+00  THRDLP  =  1.00D-07
 THRDIA  =  1.00D-10  THRDLS  =  1.00D-07  THRGPS  =  0.00D+00  THRKEX  =  0.00D+00  THRDIS  =  2.00D-01  THRVAR  =  1.00D-10
 THRLOC  =  1.00D-06  THRGAP  =  1.00D-06  THRLOCT = -1.00D+00  THRGAPT = -1.00D+00  THRORB  =  1.00D-06  THRMLTP =  0.00D+00
 THRCPQCI=  1.00D-10  KEXTA   =  0.00D+00  THRCOARS=  0.00D+00  SYMTOL  =  1.00D-06  GRADTOL =  1.00D-06  THROVL  =  1.00D-08
 THRORTH =  1.00D-08  GRID    =  1.00D-06  GRIDMAX =  1.00D-03  DTMAX   =  0.00D+00  THROCCDE=  1.00D-01  THROCCDE=  1.00D-01



 Input parameters for SORTINT:

 COMPRESS =    0.000000
 C_FINAL  =    1.000000
 DEBUG    =   -1.000000
 C_SORT1  =    0.000000
 C_SEWARD =    0.000000
 THRESH   =    0.000000
 IO       =  molpro                                                          
 SPRI     =    0.000000
 SETTING GEOMTYP        =    XYZ
 ZUNIT=BOHR
 

 Variable memory set to  995000000 words,  buffer space   230000 words

 SETTING BASIS          =    VTZ-DK
 SETTING DKROLL         =         1.00000000                                  


 Recomputing integrals since basis changed


 Using spherical harmonics

 Library entry H      S cc-pVTZ-DK           selected for orbital group  1
 Library entry H      P cc-pVTZ-DK           selected for orbital group  1
 Library entry H      D cc-pVTZ-DK           selected for orbital group  1
 Library entry N      S cc-pVTZ-DK           selected for orbital group  2
 Library entry N      P cc-pVTZ-DK           selected for orbital group  2
 Library entry N      D cc-pVTZ-DK           selected for orbital group  2
 Library entry N      F cc-pVTZ-DK           selected for orbital group  2
 Library entry O      S cc-pVTZ-DK           selected for orbital group  3
 Library entry O      P cc-pVTZ-DK           selected for orbital group  3
 Library entry O      D cc-pVTZ-DK           selected for orbital group  3
 Library entry O      F cc-pVTZ-DK           selected for orbital group  3


 PROGRAM * SEWARD (Integral evaluation for generally contracted gaussian basis sets)     Author: Roland Lindh, 1990

 Geometry written to block  1 of record 700


 Point group  Cs  



 ATOMIC COORDINATES

 NR  ATOM    CHARGE       X              Y              Z

   1  H       1.00    0.000000000    1.665933209   -1.914898555
   2  N       7.00    0.000000000   -0.170720308   -1.153930833
   3  O       8.00    0.000000000    0.046554889    1.118239797

 Bond lengths in Bohr (Angstrom)

 1-2  1.988056342  2-3  2.282535406
     ( 1.052034110)     ( 1.207865720)

 Bond angles

  1-2-3  107.04307790

 NUCLEAR CHARGE:                   16
 NUMBER OF PRIMITIVE AOS:         111
 NUMBER OF SYMMETRY AOS:          100
 NUMBER OF CONTRACTIONS:           74   (  50A'  +  24A"  )
 NUMBER OF CORE ORBITALS:           2   (   2A'  +   0A"  )
 NUMBER OF VALENCE ORBITALS:        9   (   7A'  +   2A"  )


 NUCLEAR REPULSION ENERGY   30.38183917

 One-electron integrals computed with SEWARD

 2nd-order Douglas-Kroll-Hess method activated. Optimal DKH parametrization is used.

 Computing Douglas-Kroll / X2C integrals


        1874283. INTEGRALS WRITTEN OUT IN     458 BLOCKS ON RECORD 1290 OF FILE 1


 NUMBER OF SORTED TWO-ELECTRON INTEGRALS:    2006100.     BUFFER LENGTH:  32768
 NUMBER OF SEGMENTS:   1  SEGMENT LENGTH:    2006100      RECORD LENGTH: 524288

 Memory used in sort:       2.56 MW

 SORT1 READ     1874283. AND WROTE     1914195. INTEGRALS IN      6 RECORDS. CPU TIME:     0.03 SEC, REAL TIME:     0.04 SEC
 SORT2 READ     1914195. AND WROTE     2006100. INTEGRALS IN      1 RECORDS. CPU TIME:     0.02 SEC, REAL TIME:     0.07 SEC

 FILE SIZES:   FILE 1:    50.2 MBYTE,  FILE 4:    25.2 MBYTE,   TOTAL:     75.4 MBYTE

 OPERATOR DM      FOR CENTER  0  COORDINATES:    0.000000    0.000000    0.000000

 Eigenvalues of metric

         1 0.245E-02 0.396E-02 0.416E-02 0.833E-02 0.130E-01 0.327E-01 0.425E-01 0.465E-01
         2 0.342E-01 0.465E-01 0.101E+00 0.112E+00 0.234E+00 0.341E+00 0.396E+00 0.449E+00


 **********************************************************************************************************************************
 DATASETS  * FILE   NREC   LENGTH (MB)   RECORD NAMES
              1      23       36.03       500      610      700      900      950      970     1000      129      960     1700   
                                          VAR    BASINP    GEOM    SYMINP    ZMAT    AOBASIS   BASIS     P2S    ABASIS    OPER   
                                         1101     1401     1411     1412     1650     1100     1400     1410     1200     1210   
                                          SR      EKINR    POTR     PVPR    MOLCAS      S      EKIN      POT      H0       H01  
                                         1300     1080     1600   
                                         ERIS     AOSYM     SMH  

 PROGRAMS   *        TOTAL       INT
 CPU TIMES  *         0.66      0.57
 REAL TIME  *         1.36 SEC
 DISK USED  *        75.75 MB      
 **********************************************************************************************************************************


 PROGRAM * RHF-SCF (CLOSED SHELL)       Authors: W. Meyer, H.-J. Werner


 NUMBER OF ELECTRONS:       8+    8-
 CONVERGENCE THRESHOLDS:    1.00E-10 (Density)    1.00E-13 (Energy)
 MAX. NUMBER OF ITERATIONS:      500
 INTERPOLATION TYPE:            DIIS
 INTERPOLATION STEPS:              2 (START)      1 (STEP)
 LEVEL SHIFTS:                  0.00 (CLOSED)  0.00 (OPEN) 



 Orbital guess generated from atomic densities. Full valence occupancy:    9   2

 Molecular orbital dump at record        2100.2

 Initial occupancy:   7   1

 ITERATION    DDIFF          GRAD             ENERGY        2-EL.EN.            DIPOLE MOMENTS         DIIS   ORB.
    1      0.000D+00      0.000D+00      -129.86740568    154.252878    0.00000    0.58034   -1.03743    0    start
    2      0.000D+00      0.136D-01      -129.89416067    155.359122    0.00000    0.61543   -0.21571    1    diag
    3      0.186D-01      0.104D-01      -129.91668456    155.490018    0.00000    0.55861   -0.59595    2    diag
    4      0.904D-02      0.155D-02      -129.91741736    155.224983    0.00000    0.56763   -0.53696    3    diag
    5      0.165D-02      0.515D-03      -129.91753219    155.310273    0.00000    0.57291   -0.53789    4    diag
    6      0.718D-03      0.154D-03      -129.91755128    155.295261    0.00000    0.57341   -0.53369    5    diag
    7      0.279D-03      0.773D-04      -129.91755692    155.297546    0.00000    0.57463   -0.53115    6    diag
    8      0.193D-03      0.248D-04      -129.91755745    155.296846    0.00000    0.57463   -0.53033    7    diag
    9      0.657D-04      0.448D-05      -129.91755748    155.296731    0.00000    0.57458   -0.53018    8    diag
   10      0.126D-04      0.978D-06      -129.91755748    155.296714    0.00000    0.57455   -0.53015    9    orth
   11      0.276D-05      0.193D-06      -129.91755748    155.296710    0.00000    0.57454   -0.53015    9    diag
   12      0.507D-06      0.405D-07      -129.91755748    155.296709    0.00000    0.57454   -0.53015    9    diag
   13      0.112D-06      0.101D-07      -129.91755748    155.296708    0.00000    0.57454   -0.53015    9    diag
   14      0.279D-07      0.181D-08      -129.91755748    155.296708    0.00000    0.57454   -0.53015    9    diag
   15      0.438D-08      0.463D-09      -129.91755748    155.296708    0.00000    0.57454   -0.53015    9    diag
   16      0.104D-08      0.111D-09      -129.91755748    155.296708    0.00000    0.57454   -0.53015    9    diag
   17      0.179D-09      0.310D-10      -129.91755748    155.296708    0.00000    0.57454   -0.53015    9    diag
   18      0.531D-10      0.102D-10      -129.91755748    155.296708    0.00000    0.57454   -0.53015    9    diag
   19      0.230D-10      0.213D-11      -129.91755748    155.296708    0.00000    0.57454   -0.53015    9    fixocc
   20      0.549D-11      0.425D-12      -129.91755748    155.296708    0.00000    0.57454   -0.53015    0    orth

 Final occupancy:   7   1

 !RHF STATE 1.1 Energy               -129.917557477619
 Nuclear energy                        30.38183917
 One-electron energy                 -237.94775079
 Two-electron energy                   77.64835414
 Virial quotient                       -0.99752150
 !RHF STATE 1.1 Dipole moment           0.00000000     0.57454204    -0.53014881
 Dipole moment /Debye                   0.00000000     1.46024455    -1.34741562

 Orbital energies:

         1.1          2.1          3.1          4.1          5.1          6.1          7.1          8.1          9.1
    -20.664762   -15.717020    -1.528076    -0.991436    -0.743155    -0.661552    -0.427471     0.144288     0.369511

         1.2          2.2          3.2
     -0.592049     0.086620     0.612974

 HOMO      7.1    -0.427471 =     -11.6321eV
 LUMO      2.2     0.086620 =       2.3571eV
 LUMO-HOMO         0.514091 =      13.9891eV


 **********************************************************************************************************************************
 DATASETS  * FILE   NREC   LENGTH (MB)   RECORD NAMES
              1      23       36.03       500      610      700      900      950      970     1000      129      960     1700   
                                          VAR    BASINP    GEOM    SYMINP    ZMAT    AOBASIS   BASIS     P2S    ABASIS    OPER   
                                         1101     1401     1411     1412     1650     1100     1400     1410     1200     1210   
                                          SR      EKINR    POTR     PVPR    MOLCAS      S      EKIN      POT      H0       H01  
                                         1300     1080     1600   
                                         ERIS     AOSYM     SMH  

              2       4        2.85       700     1000      520     2100   
                                         GEOM     BASIS   MCVARS     RHF  

 PROGRAMS   *        TOTAL        HF       INT
 CPU TIMES  *         0.88      0.22      0.57
 REAL TIME  *         1.65 SEC
 DISK USED  *        75.75 MB      
 **********************************************************************************************************************************


 PROGRAM * CCSD (Closed-shell coupled cluster)     Authors: C. Hampel, H.-J. Werner, 1991, M. Deegan, P.J. Knowles, 1992


 Convergence thresholds:  THRVAR = 1.00D-08  THRDEN = 1.00D-12

 CCSD(T)     terms to be evaluated (factor= 1.000)


 Number of core orbitals:           2 (   2   0 )
 Number of closed-shell orbitals:   6 (   5   1 )
 Number of external orbitals:      66 (  43  23 )

 Molecular orbitals read from record     2100.2  Type=RHF/CANONICAL (state 1.1)

 Number of N-1 electron functions:               6
 Number of N-2 electron functions:              21
 Number of singly external CSFs:               238
 Number of doubly external CSFs:             41002
 Total number of CSFs:                       41241

 Length of J-op  integral file:               0.00 MB
 Length of K-op  integral file:               0.25 MB
 Length of 3-ext integral record:             0.00 MB

 Memory could be reduced to 1.65 Mwords without degradation in triples

 Integral transformation finished. Total CPU:   0.03 sec, npass=  1  Memory used:   0.55 MW

 Reference energy:                   -129.91755748

 MP2 singlet pair energy:              -0.27376199
 MP2 triplet pair energy:              -0.16258383
 MP2 correlation energy:               -0.43634582
 MP2 total energy:                   -130.35390330

 SCS-MP2 correlation energy:           -0.42967766   (PS=  1.200000  PT=  0.333333)
 SCS-MP2 total energy:               -130.34723514

 ITER.      SQ.NORM     CORR.ENERGY   TOTAL ENERGY   ENERGY CHANGE        DEN1      VAR(S)    VAR(P)  DIIS     TIME  TIME/IT
   1      1.11842277    -0.44141622  -130.35897370    -0.00507040     0.01069588  0.29D-02  0.30D-02  1  1     0.09     0.05
   2      1.12924491    -0.44167111  -130.35922859    -0.00025489    -0.01227343  0.87D-04  0.50D-03  2  2     0.13     0.05
   3      1.13549588    -0.44205282  -130.35961030    -0.00038171    -0.00297372  0.46D-04  0.50D-04  3  3     0.18     0.05
   4      1.13828140    -0.44208010  -130.35963758    -0.00002728    -0.00095423  0.39D-05  0.87D-05  4  4     0.22     0.05
   5      1.13925935    -0.44210914  -130.35966662    -0.00002904    -0.00020304  0.13D-05  0.16D-05  5  5     0.25     0.05
   6      1.13961022    -0.44209271  -130.35965019     0.00001643    -0.00004012  0.95D-07  0.40D-06  6  6     0.30     0.05
   7      1.13969289    -0.44209476  -130.35965224    -0.00000205    -0.00000188  0.11D-07  0.85D-07  6  1     0.33     0.05
   8      1.13972277    -0.44209470  -130.35965217     0.00000007     0.00000194  0.43D-08  0.99D-08  6  2     0.38     0.05
   9      1.13973018    -0.44209453  -130.35965201     0.00000017    -0.00000226  0.24D-08  0.11D-08  6  3     0.42     0.05
  10      1.13972896    -0.44209501  -130.35965249    -0.00000048     0.00000064  0.45D-09  0.19D-09  6  4     0.46     0.04
  11      1.13972732    -0.44209507  -130.35965255    -0.00000006     0.00000015  0.14D-09  0.21D-10  6  5     0.50     0.04
  12      1.13972599    -0.44209524  -130.35965272    -0.00000017     0.00000041  0.14D-10  0.69D-11  6  6     0.53     0.04
  13      1.13972542    -0.44209525  -130.35965272    -0.00000001     0.00000012  0.61D-11  0.11D-11  6  1     0.56     0.04
  14      1.13972506    -0.44209526  -130.35965274    -0.00000002     0.00000007  0.87D-12  0.39D-12  6  2     0.60     0.04
  15      1.13972493    -0.44209527  -130.35965274    -0.00000000     0.00000001  0.23D-12  0.13D-12  6  3     0.63     0.04
  16      1.13972482    -0.44209527  -130.35965275    -0.00000000     0.00000002  0.66D-14  0.33D-13  6  1     0.67     0.04
  17      1.13972481    -0.44209527  -130.35965275     0.00000000    -0.00000000  0.27D-14  0.24D-14  6  4     0.71     0.04
  18      1.13972480    -0.44209527  -130.35965275    -0.00000000     0.00000000  0.65D-15  0.41D-15  6  5     0.74     0.04
  19      1.13972480    -0.44209527  -130.35965275     0.00000000    -0.00000000  0.11D-15  0.73D-16  6  6     0.78     0.04
  20      1.13972480    -0.44209527  -130.35965275    -0.00000000     0.00000000  0.15D-16  0.17D-16  6  2     0.82     0.04
  21      1.13972480    -0.44209527  -130.35965275    -0.00000000     0.00000000  0.22D-17  0.19D-17  6  3     0.84     0.04
  22      1.13972480    -0.44209527  -130.35965275    -0.00000000     0.00000000  0.23D-18  0.31D-18  6  4     0.87     0.04
  23      1.13972480    -0.44209527  -130.35965275    -0.00000000     0.00000000  0.91D-19  0.27D-19  6  1     0.91     0.04
  24      1.13972480    -0.44209527  -130.35965275     0.00000000    -0.00000000  0.16D-19  0.99D-20  6  6     0.94     0.04
  25      1.13972480    -0.44209527  -130.35965275     0.00000000    -0.00000000  0.31D-20  0.62D-21  6  5     0.98     0.04
  26      1.13972480    -0.44209527  -130.35965275     0.00000000    -0.00000000  0.63D-21  0.25D-21  6  2     1.02     0.04
  27      1.13972480    -0.44209527  -130.35965275     0.00000000    -0.00000000  0.16D-22  0.92D-23  6  5     1.05     0.04

 Norm of t1 vector:      0.07467825      S-energy:    -0.00000000      T1 diagnostic:  0.01524363
                                                                       D1 diagnostic:  0.04233286

 Doubles amplitudes (print threshold =  0.500E-01):

         I         J         SYM. A    SYM. B    A         B      T(IJ, AB)

         6         6         2         2         1         1     -0.14367624


 Total CPU time for triples:      0.25 sec


 RESULTS
 =======

  Reference energy                   -129.917557477619
  CCSD singlet pair energy             -0.303112634761
  CCSD triplet pair energy             -0.138982634089
  CCSD correlation energy              -0.442095268850

  Triples (T) contribution             -0.019778946441
  Total correlation energy             -0.461874215291

  CCSD total energy                  -130.359652746468
  CCSD[T] energy                     -130.380443696391
  CCSD-T energy                      -130.379035224841
 !CCSD(T) total energy               -130.379431692910

 Timing summary (sec):

 STEP                 CPU(USER)    SYS     CPU(TOT)    WALL
 Transformation          0.04      0.00      0.04      0.05
 CCSD iterations         1.01      0.11      1.12      1.12
 Triples                 0.25      0.02      0.27      0.26

 Program statistics:

 Available memory in ccsd:               994999756
 Min. memory needed in ccsd:                154850
 Max. memory used in ccsd:                  184802
 Max. memory used in cckext:                238416 (27 integral passes)



 **********************************************************************************************************************************
 DATASETS  * FILE   NREC   LENGTH (MB)   RECORD NAMES
              1      24       40.41       500      610      700      900      950      970     1000      129      960     1700   
                                          VAR    BASINP    GEOM    SYMINP    ZMAT    AOBASIS   BASIS     P2S    ABASIS    OPER   
                                         1101     1401     1411     1412     1650     1100     1400     1410     1200     1210   
                                          SR      EKINR    POTR     PVPR    MOLCAS      S      EKIN      POT      H0       H01  
                                         1300     1080     1600     1380   
                                         ERIS     AOSYM     SMH     JKOP   

              2       4        2.85       700     1000      520     2100   
                                         GEOM     BASIS   MCVARS     RHF  

 PROGRAMS   *        TOTAL   CCSD(T)        HF       INT
 CPU TIMES  *         2.21      1.32      0.22      0.57
 REAL TIME  *         3.12 SEC
 DISK USED  *        75.75 MB      
 **********************************************************************************************************************************

 CCSD(T)/cc-pVTZ-DK energy=   -130.379431692910

        CCSD(T)         HF-SCF  
   -130.37943169   -129.91755748
 **********************************************************************************************************************************
 Molpro calculation terminated
 Variable memory released
