
 Primary working directories    : /tmp/r2666/282687.maple
 Secondary working directories  : /tmp/r2666/282687.maple
 Wavefunction directory         : /ddn/home4/r2666/wfu/
 Main file repository           : /tmp/r2666/282687.maple/

 SHA1      : d5ffa45e93fdbca01ffc919aa182cfdae0147319
 NAME      : 2015.1.35
 ARCHNAME  : linux/x86_64
 FC        : /opt/intel/composer_xe_2015.1.133/bin/intel64/ifort
 BLASLIB   : -Wl,-_start-group /opt/intel/mkl/lib/intel64/libmkl_intel_ilp64.a /opt/intel/mkl/lib/intel64/libmkl_intel_thread.a /opt/intel/mkl/lib/intel64/libmkl_core.a -Wl,-_end-group
 id        : olemiss

 Nodes     nprocs
 cn075        1

 Using customized tuning parameters: mindgm=1; mindgv=20; mindgc=4; mindgr=1; noblas=0; minvec=7
 default implementation of scratch files=df  

 ***,hno CCSD(T)/TZ-F12 QFF
 memory, 995, m;
 gthresh,energy=1.d-12,zero=1.d-22,oneint=1.d-22,twoint=1.d-22;
 gthresh,optgrad=1.d-8,optstep=1.d-8;
 nocompress;
 geomtyp=xyz
 bohr
 geometry={
 3
         68        68
 H        0.0000000000        1.6674498676       -1.9398038131
 N        0.0000000000       -0.1539508152       -1.1430180377
 O        0.0000000000        0.0282687377        1.1322322598
 }
 
 basis=vtz-dk
 dkroll=1
   {hf,maxit=500;accu,20;}
 {ccsd(t),nocheck,maxit=250;orbital,IGNORE_ERROR;}

 Variables initialized (889), CPU time= 0.00 sec
 Commands  initialized (702), CPU time= 0.01 sec, 572 directives.
 Default parameters read. Elapsed time= 0.05 sec

 Checking input...
 Passed
1


                                         ***  PROGRAM SYSTEM MOLPRO  ***
                                       Copyright, TTI GmbH Stuttgart, 2015
                                    Version 2015.1 linked Jul  9 2018 13:16:40


 **********************************************************************************************************************************
 LABEL *   hno CCSD(T)/TZ-F12 QFF                                                        
  64 bit serial version                                                                  DATE: 04-Mar-20          TIME: 13:51:12  
 **********************************************************************************************************************************

 SHA1:             d5ffa45e93fdbca01ffc919aa182cfdae0147319
 **********************************************************************************************************************************

 THRESHOLDS:

 ZERO    =  1.00D-22  ONEINT  =  1.00D-22  TWOINT  =  1.00D-22  PREFAC  =  1.00D-14  LOCALI  =  1.00D-09  EORDER  =  1.00D-04
 ENERGY  =  1.00D-12  ETEST   =  0.00D+00  EDENS   =  0.00D+00  THRDEDEF=  1.00D-06  GRADIENT=  1.00D-02  STEP    =  1.00D-03
 ORBITAL =  1.00D-05  CIVEC   =  1.00D-05  COEFF   =  1.00D-04  PRINTCI =  5.00D-02  PUNCHCI =  9.90D+01  OPTGRAD =  3.00D-04
 OPTENERG=  1.00D-06  OPTSTEP =  3.00D-04  THRGRAD =  1.00D-10  COMPRESS=  1.00D-11  VARMIN  =  1.00D-07  VARMAX  =  1.00D-03
 THRDOUB =  0.00D+00  THRDIV  =  1.00D-05  THRRED  =  1.00D-07  THRPSP  =  1.00D+00  THRDC   =  1.00D-10  THRCS   =  1.00D-10
 THRNRM  =  1.00D-08  THREQ   =  0.00D+00  THRDE   =  1.00D+00  THRREF  =  1.00D-05  SPARFAC =  1.00D+00  THRDLP  =  1.00D-07
 THRDIA  =  1.00D-10  THRDLS  =  1.00D-07  THRGPS  =  0.00D+00  THRKEX  =  0.00D+00  THRDIS  =  2.00D-01  THRVAR  =  1.00D-10
 THRLOC  =  1.00D-06  THRGAP  =  1.00D-06  THRLOCT = -1.00D+00  THRGAPT = -1.00D+00  THRORB  =  1.00D-06  THRMLTP =  0.00D+00
 THRCPQCI=  1.00D-10  KEXTA   =  0.00D+00  THRCOARS=  0.00D+00  SYMTOL  =  1.00D-06  GRADTOL =  1.00D-06  THROVL  =  1.00D-08
 THRORTH =  1.00D-08  GRID    =  1.00D-06  GRIDMAX =  1.00D-03  DTMAX   =  0.00D+00  THROCCDE=  1.00D-01  THROCCDE=  1.00D-01



 THRESHOLDS:

 ZERO    =  1.00D-22  ONEINT  =  1.00D-22  TWOINT  =  1.00D-22  PREFAC  =  1.00D-14  LOCALI  =  1.00D-09  EORDER  =  1.00D-04
 ENERGY  =  1.00D-12  ETEST   =  0.00D+00  EDENS   =  0.00D+00  THRDEDEF=  1.00D-06  GRADIENT=  1.00D-02  STEP    =  1.00D-03
 ORBITAL =  1.00D-05  CIVEC   =  1.00D-05  COEFF   =  1.00D-04  PRINTCI =  5.00D-02  PUNCHCI =  9.90D+01  OPTGRAD =  1.00D-08
 OPTENERG=  1.00D-06  OPTSTEP =  1.00D-08  THRGRAD =  1.00D-10  COMPRESS=  1.00D-11  VARMIN  =  1.00D-07  VARMAX  =  1.00D-03
 THRDOUB =  0.00D+00  THRDIV  =  1.00D-05  THRRED  =  1.00D-07  THRPSP  =  1.00D+00  THRDC   =  1.00D-10  THRCS   =  1.00D-10
 THRNRM  =  1.00D-08  THREQ   =  0.00D+00  THRDE   =  1.00D+00  THRREF  =  1.00D-05  SPARFAC =  1.00D+00  THRDLP  =  1.00D-07
 THRDIA  =  1.00D-10  THRDLS  =  1.00D-07  THRGPS  =  0.00D+00  THRKEX  =  0.00D+00  THRDIS  =  2.00D-01  THRVAR  =  1.00D-10
 THRLOC  =  1.00D-06  THRGAP  =  1.00D-06  THRLOCT = -1.00D+00  THRGAPT = -1.00D+00  THRORB  =  1.00D-06  THRMLTP =  0.00D+00
 THRCPQCI=  1.00D-10  KEXTA   =  0.00D+00  THRCOARS=  0.00D+00  SYMTOL  =  1.00D-06  GRADTOL =  1.00D-06  THROVL  =  1.00D-08
 THRORTH =  1.00D-08  GRID    =  1.00D-06  GRIDMAX =  1.00D-03  DTMAX   =  0.00D+00  THROCCDE=  1.00D-01  THROCCDE=  1.00D-01



 Input parameters for SORTINT:

 COMPRESS =    0.000000
 C_FINAL  =    1.000000
 DEBUG    =   -1.000000
 C_SORT1  =    0.000000
 C_SEWARD =    0.000000
 THRESH   =    0.000000
 IO       =  molpro                                                          
 SPRI     =    0.000000
 SETTING GEOMTYP        =    XYZ
 ZUNIT=BOHR
 

 Variable memory set to  995000000 words,  buffer space   230000 words

 SETTING BASIS          =    VTZ-DK
 SETTING DKROLL         =         1.00000000                                  


 Recomputing integrals since basis changed


 Using spherical harmonics

 Library entry H      S cc-pVTZ-DK           selected for orbital group  1
 Library entry H      P cc-pVTZ-DK           selected for orbital group  1
 Library entry H      D cc-pVTZ-DK           selected for orbital group  1
 Library entry N      S cc-pVTZ-DK           selected for orbital group  2
 Library entry N      P cc-pVTZ-DK           selected for orbital group  2
 Library entry N      D cc-pVTZ-DK           selected for orbital group  2
 Library entry N      F cc-pVTZ-DK           selected for orbital group  2
 Library entry O      S cc-pVTZ-DK           selected for orbital group  3
 Library entry O      P cc-pVTZ-DK           selected for orbital group  3
 Library entry O      D cc-pVTZ-DK           selected for orbital group  3
 Library entry O      F cc-pVTZ-DK           selected for orbital group  3


 PROGRAM * SEWARD (Integral evaluation for generally contracted gaussian basis sets)     Author: Roland Lindh, 1990

 Geometry written to block  1 of record 700


 Point group  Cs  



 ATOMIC COORDINATES

 NR  ATOM    CHARGE       X              Y              Z

   1  H       1.00    0.000000000    1.667449868   -1.939803813
   2  N       7.00    0.000000000   -0.153950815   -1.143018038
   3  O       8.00    0.000000000    0.028268738    1.132232260

 Bond lengths in Bohr (Angstrom)

 1-2  1.988056342  2-3  2.282535406
     ( 1.052034110)     ( 1.207865720)

 Bond angles

  1-2-3  109.04843018

 NUCLEAR CHARGE:                   16
 NUMBER OF PRIMITIVE AOS:         111
 NUMBER OF SYMMETRY AOS:          100
 NUMBER OF CONTRACTIONS:           74   (  50A'  +  24A"  )
 NUMBER OF CORE ORBITALS:           2   (   2A'  +   0A"  )
 NUMBER OF VALENCE ORBITALS:        9   (   7A'  +   2A"  )


 NUCLEAR REPULSION ENERGY   30.35267853

 One-electron integrals computed with SEWARD

 2nd-order Douglas-Kroll-Hess method activated. Optimal DKH parametrization is used.

 Computing Douglas-Kroll / X2C integrals


        1874283. INTEGRALS WRITTEN OUT IN     458 BLOCKS ON RECORD 1290 OF FILE 1


 NUMBER OF SORTED TWO-ELECTRON INTEGRALS:    2006100.     BUFFER LENGTH:  32768
 NUMBER OF SEGMENTS:   1  SEGMENT LENGTH:    2006100      RECORD LENGTH: 524288

 Memory used in sort:       2.56 MW

 SORT1 READ     1874283. AND WROTE     1914195. INTEGRALS IN      6 RECORDS. CPU TIME:     0.03 SEC, REAL TIME:     0.04 SEC
 SORT2 READ     1914195. AND WROTE     2006100. INTEGRALS IN      1 RECORDS. CPU TIME:     0.05 SEC, REAL TIME:     0.05 SEC

 FILE SIZES:   FILE 1:    50.2 MBYTE,  FILE 4:    25.2 MBYTE,   TOTAL:     75.4 MBYTE

 OPERATOR DM      FOR CENTER  0  COORDINATES:    0.000000    0.000000    0.000000

 Eigenvalues of metric

         1 0.244E-02 0.397E-02 0.414E-02 0.838E-02 0.130E-01 0.327E-01 0.426E-01 0.463E-01
         2 0.343E-01 0.465E-01 0.102E+00 0.111E+00 0.234E+00 0.342E+00 0.395E+00 0.450E+00


 **********************************************************************************************************************************
 DATASETS  * FILE   NREC   LENGTH (MB)   RECORD NAMES
              1      23       36.03       500      610      700      900      950      970     1000      129      960     1700   
                                          VAR    BASINP    GEOM    SYMINP    ZMAT    AOBASIS   BASIS     P2S    ABASIS    OPER   
                                         1101     1401     1411     1412     1650     1100     1400     1410     1200     1210   
                                          SR      EKINR    POTR     PVPR    MOLCAS      S      EKIN      POT      H0       H01  
                                         1300     1080     1600   
                                         ERIS     AOSYM     SMH  

 PROGRAMS   *        TOTAL       INT
 CPU TIMES  *         0.66      0.57
 REAL TIME  *         1.24 SEC
 DISK USED  *        75.75 MB      
 **********************************************************************************************************************************


 PROGRAM * RHF-SCF (CLOSED SHELL)       Authors: W. Meyer, H.-J. Werner


 NUMBER OF ELECTRONS:       8+    8-
 CONVERGENCE THRESHOLDS:    1.00E-10 (Density)    1.00E-13 (Energy)
 MAX. NUMBER OF ITERATIONS:      500
 INTERPOLATION TYPE:            DIIS
 INTERPOLATION STEPS:              2 (START)      1 (STEP)
 LEVEL SHIFTS:                  0.00 (CLOSED)  0.00 (OPEN) 



 Orbital guess generated from atomic densities. Full valence occupancy:    9   2

 Molecular orbital dump at record        2100.2

 Initial occupancy:   7   1

 ITERATION    DDIFF          GRAD             ENERGY        2-EL.EN.            DIPOLE MOMENTS         DIIS   ORB.
    1      0.000D+00      0.000D+00      -129.86762532    154.193275    0.00000    0.59813   -1.04200    0    start
    2      0.000D+00      0.136D-01      -129.89433531    155.307126    0.00000    0.61427   -0.22421    1    diag
    3      0.185D-01      0.104D-01      -129.91666452    155.437034    0.00000    0.56637   -0.60392    2    diag
    4      0.901D-02      0.156D-02      -129.91740196    155.171052    0.00000    0.57442   -0.54441    3    diag
    5      0.166D-02      0.513D-03      -129.91751609    155.256926    0.00000    0.57986   -0.54552    4    diag
    6      0.717D-03      0.153D-03      -129.91753495    155.242005    0.00000    0.58040   -0.54135    5    diag
    7      0.278D-03      0.767D-04      -129.91754050    155.244302    0.00000    0.58163   -0.53885    6    diag
    8      0.192D-03      0.247D-04      -129.91754104    155.243621    0.00000    0.58165   -0.53803    7    diag
    9      0.654D-04      0.450D-05      -129.91754106    155.243503    0.00000    0.58160   -0.53788    8    diag
   10      0.127D-04      0.100D-05      -129.91754106    155.243485    0.00000    0.58157   -0.53785    9    orth
   11      0.284D-05      0.195D-06      -129.91754106    155.243481    0.00000    0.58156   -0.53785    9    diag
   12      0.516D-06      0.406D-07      -129.91754106    155.243479    0.00000    0.58156   -0.53785    9    diag
   13      0.112D-06      0.101D-07      -129.91754106    155.243479    0.00000    0.58156   -0.53785    9    diag
   14      0.280D-07      0.184D-08      -129.91754106    155.243479    0.00000    0.58156   -0.53785    9    diag
   15      0.441D-08      0.469D-09      -129.91754106    155.243479    0.00000    0.58156   -0.53785    9    diag
   16      0.106D-08      0.111D-09      -129.91754106    155.243479    0.00000    0.58156   -0.53785    9    diag
   17      0.176D-09      0.299D-10      -129.91754106    155.243479    0.00000    0.58156   -0.53785    9    diag
   18      0.502D-10      0.965D-11      -129.91754106    155.243479    0.00000    0.58156   -0.53785    9    diag
   19      0.209D-10      0.189D-11      -129.91754106    155.243479    0.00000    0.58156   -0.53785    9    fixocc
   20      0.464D-11      0.312D-12      -129.91754106    155.243479    0.00000    0.58156   -0.53785    9    orth
   21      0.754D-12      0.114D-12      -129.91754106    155.243479    0.00000    0.58156   -0.53785    9    diag
   22      0.219D-12      0.368D-13      -129.91754106    155.243479    0.00000    0.58156   -0.53785    0    orth

 Final occupancy:   7   1

 !RHF STATE 1.1 Energy               -129.917541059738
 Nuclear energy                        30.35267853
 One-electron energy                 -237.89195898
 Two-electron energy                   77.62173939
 Virial quotient                       -0.99757826
 !RHF STATE 1.1 Dipole moment           0.00000000     0.58155583    -0.53784799
 Dipole moment /Debye                   0.00000000     1.47807066    -1.36698369

 Orbital energies:

         1.1          2.1          3.1          4.1          5.1          6.1          7.1          8.1          9.1
    -20.665232   -15.716582    -1.527009    -0.992633    -0.743014    -0.661905    -0.426111     0.143855     0.369655

         1.2          2.2          3.2
     -0.591754     0.086432     0.613132

 HOMO      7.1    -0.426111 =     -11.5951eV
 LUMO      2.2     0.086432 =       2.3519eV
 LUMO-HOMO         0.512543 =      13.9470eV


 **********************************************************************************************************************************
 DATASETS  * FILE   NREC   LENGTH (MB)   RECORD NAMES
              1      23       36.03       500      610      700      900      950      970     1000      129      960     1700   
                                          VAR    BASINP    GEOM    SYMINP    ZMAT    AOBASIS   BASIS     P2S    ABASIS    OPER   
                                         1101     1401     1411     1412     1650     1100     1400     1410     1200     1210   
                                          SR      EKINR    POTR     PVPR    MOLCAS      S      EKIN      POT      H0       H01  
                                         1300     1080     1600   
                                         ERIS     AOSYM     SMH  

              2       4        2.85       700     1000      520     2100   
                                         GEOM     BASIS   MCVARS     RHF  

 PROGRAMS   *        TOTAL        HF       INT
 CPU TIMES  *         0.90      0.24      0.57
 REAL TIME  *         1.54 SEC
 DISK USED  *        75.75 MB      
 **********************************************************************************************************************************


 PROGRAM * CCSD (Closed-shell coupled cluster)     Authors: C. Hampel, H.-J. Werner, 1991, M. Deegan, P.J. Knowles, 1992


 Convergence thresholds:  THRVAR = 1.00D-08  THRDEN = 1.00D-12

 CCSD(T)     terms to be evaluated (factor= 1.000)


 Number of core orbitals:           2 (   2   0 )
 Number of closed-shell orbitals:   6 (   5   1 )
 Number of external orbitals:      66 (  43  23 )

 Molecular orbitals read from record     2100.2  Type=RHF/CANONICAL (state 1.1)

 Number of N-1 electron functions:               6
 Number of N-2 electron functions:              21
 Number of singly external CSFs:               238
 Number of doubly external CSFs:             41002
 Total number of CSFs:                       41241

 Length of J-op  integral file:               0.00 MB
 Length of K-op  integral file:               0.25 MB
 Length of 3-ext integral record:             0.00 MB

 Memory could be reduced to 1.65 Mwords without degradation in triples

 Integral transformation finished. Total CPU:   0.02 sec, npass=  1  Memory used:   0.55 MW

 Reference energy:                   -129.91754106

 MP2 singlet pair energy:              -0.27375651
 MP2 triplet pair energy:              -0.16258252
 MP2 correlation energy:               -0.43633902
 MP2 total energy:                   -130.35388008

 SCS-MP2 correlation energy:           -0.42967026   (PS=  1.200000  PT=  0.333333)
 SCS-MP2 total energy:               -130.34721132

 ITER.      SQ.NORM     CORR.ENERGY   TOTAL ENERGY   ENERGY CHANGE        DEN1      VAR(S)    VAR(P)  DIIS     TIME  TIME/IT
   1      1.11847270    -0.44141699  -130.35895805    -0.00507797     0.01073065  0.30D-02  0.30D-02  1  1     0.07     0.05
   2      1.12932752    -0.44166450  -130.35920556    -0.00024751    -0.01229420  0.88D-04  0.50D-03  2  2     0.11     0.05
   3      1.13562023    -0.44205176  -130.35959282    -0.00038725    -0.00297930  0.48D-04  0.51D-04  3  3     0.15     0.04
   4      1.13843366    -0.44207757  -130.35961863    -0.00002581    -0.00096045  0.40D-05  0.90D-05  4  4     0.18     0.04
   5      1.13944062    -0.44210718  -130.35964824    -0.00002961    -0.00020855  0.14D-05  0.17D-05  5  5     0.21     0.04
   6      1.13980439    -0.44209054  -130.35963160     0.00001664    -0.00004119  0.98D-07  0.42D-06  6  6     0.24     0.04
   7      1.13989179    -0.44209256  -130.35963362    -0.00000202    -0.00000220  0.12D-07  0.89D-07  6  1     0.28     0.04
   8      1.13992275    -0.44209260  -130.35963366    -0.00000004     0.00000189  0.46D-08  0.11D-07  6  2     0.31     0.04
   9      1.13993076    -0.44209238  -130.35963344     0.00000023    -0.00000229  0.26D-08  0.12D-08  6  3     0.35     0.04
  10      1.13992949    -0.44209290  -130.35963396    -0.00000052     0.00000061  0.51D-09  0.21D-09  6  4     0.38     0.04
  11      1.13992772    -0.44209296  -130.35963402    -0.00000006     0.00000020  0.15D-09  0.24D-10  6  5     0.42     0.04
  12      1.13992629    -0.44209314  -130.35963420    -0.00000018     0.00000044  0.16D-10  0.79D-11  6  6     0.46     0.04
  13      1.13992566    -0.44209315  -130.35963420    -0.00000001     0.00000013  0.69D-11  0.13D-11  6  1     0.50     0.04
  14      1.13992526    -0.44209317  -130.35963423    -0.00000002     0.00000008  0.96D-12  0.45D-12  6  2     0.54     0.04
  15      1.13992511    -0.44209317  -130.35963423    -0.00000000     0.00000001  0.25D-12  0.15D-12  6  3     0.57     0.04
  16      1.13992501    -0.44209317  -130.35963423    -0.00000000     0.00000001  0.27D-13  0.17D-13  6  5     0.60     0.04
  17      1.13992498    -0.44209317  -130.35963423    -0.00000000     0.00000000  0.75D-15  0.22D-14  6  4     0.64     0.04
  18      1.13992498    -0.44209317  -130.35963423     0.00000000    -0.00000000  0.50D-15  0.30D-15  6  1     0.67     0.04
  19      1.13992498    -0.44209317  -130.35963423    -0.00000000     0.00000000  0.50D-16  0.56D-16  6  6     0.70     0.04
  20      1.13992498    -0.44209317  -130.35963423    -0.00000000     0.00000000  0.11D-16  0.14D-16  6  2     0.74     0.04
  21      1.13992498    -0.44209317  -130.35963423    -0.00000000     0.00000000  0.19D-17  0.11D-17  6  5     0.78     0.04
  22      1.13992498    -0.44209317  -130.35963423    -0.00000000     0.00000000  0.11D-18  0.83D-19  6  3     0.81     0.04
  23      1.13992498    -0.44209317  -130.35963423     0.00000000    -0.00000000  0.29D-19  0.17D-19  6  4     0.85     0.04
  24      1.13992498    -0.44209317  -130.35963423     0.00000000    -0.00000000  0.44D-20  0.48D-20  6  1     0.88     0.04
  25      1.13992498    -0.44209317  -130.35963423     0.00000000    -0.00000000  0.57D-21  0.83D-21  6  6     0.91     0.04

 Norm of t1 vector:      0.07531190      S-energy:     0.00000000      T1 diagnostic:  0.01537298
                                                                       D1 diagnostic:  0.04252078

 Doubles amplitudes (print threshold =  0.500E-01):

         I         J         SYM. A    SYM. B    A         B      T(IJ, AB)

         6         6         2         2         1         1     -0.14373945


 Total CPU time for triples:      0.26 sec


 RESULTS
 =======

  Reference energy                   -129.917541059738
  CCSD singlet pair energy             -0.303114135680
  CCSD triplet pair energy             -0.138979035243
  CCSD correlation energy              -0.442093170923

  Triples (T) contribution             -0.019798110286
  Total correlation energy             -0.461891281209

  CCSD total energy                  -130.359634230661
  CCSD[T] energy                     -130.380456277932
  CCSD-T energy                      -130.379032834851
 !CCSD(T) total energy               -130.379432340947

 Timing summary (sec):

 STEP                 CPU(USER)    SYS     CPU(TOT)    WALL
 Transformation          0.03      0.01      0.04      0.09
 CCSD iterations         0.88      0.15      1.03      1.03
 Triples                 0.26      0.00      0.26      0.26

 Program statistics:

 Available memory in ccsd:               994999756
 Min. memory needed in ccsd:                154850
 Max. memory used in ccsd:                  184802
 Max. memory used in cckext:                238416 (25 integral passes)



 **********************************************************************************************************************************
 DATASETS  * FILE   NREC   LENGTH (MB)   RECORD NAMES
              1      24       40.41       500      610      700      900      950      970     1000      129      960     1700   
                                          VAR    BASINP    GEOM    SYMINP    ZMAT    AOBASIS   BASIS     P2S    ABASIS    OPER   
                                         1101     1401     1411     1412     1650     1100     1400     1410     1200     1210   
                                          SR      EKINR    POTR     PVPR    MOLCAS      S      EKIN      POT      H0       H01  
                                         1300     1080     1600     1380   
                                         ERIS     AOSYM     SMH     JKOP   

              2       4        2.85       700     1000      520     2100   
                                         GEOM     BASIS   MCVARS     RHF  

 PROGRAMS   *        TOTAL   CCSD(T)        HF       INT
 CPU TIMES  *         2.11      1.21      0.24      0.57
 REAL TIME  *         2.98 SEC
 DISK USED  *        75.75 MB      
 **********************************************************************************************************************************

 CCSD(T)/cc-pVTZ-DK energy=   -130.379432340947

        CCSD(T)         HF-SCF  
   -130.37943234   -129.91754106
 **********************************************************************************************************************************
 Molpro calculation terminated
 Variable memory released
