
 Primary working directories    : /tmp/r2666/282626.maple
 Secondary working directories  : /tmp/r2666/282626.maple
 Wavefunction directory         : /ddn/home4/r2666/wfu/
 Main file repository           : /tmp/r2666/282626.maple/

 SHA1      : d5ffa45e93fdbca01ffc919aa182cfdae0147319
 NAME      : 2015.1.35
 ARCHNAME  : linux/x86_64
 FC        : /opt/intel/composer_xe_2015.1.133/bin/intel64/ifort
 BLASLIB   : -Wl,-_start-group /opt/intel/mkl/lib/intel64/libmkl_intel_ilp64.a /opt/intel/mkl/lib/intel64/libmkl_intel_thread.a /opt/intel/mkl/lib/intel64/libmkl_core.a -Wl,-_end-group
 id        : olemiss

 Nodes     nprocs
 cn006        1

 Using customized tuning parameters: mindgm=1; mindgv=20; mindgc=4; mindgr=1; noblas=0; minvec=7
 default implementation of scratch files=df  

 ***,hno CCSD(T)/TZ-F12 QFF
 memory, 995, m;
 gthresh,energy=1.d-12,zero=1.d-22,oneint=1.d-22,twoint=1.d-22;
 gthresh,optgrad=1.d-8,optstep=1.d-8;
 nocompress;
 geomtyp=xyz
 bohr
 geometry={
 3
          7         7
 H        0.0000000000        1.6539914510       -1.9206087434
 N        0.0000000000       -0.1508514330       -1.1570596483
 O        0.0000000000        0.0386277721        1.1270788007
 }
 
 basis=vtz-dk
 dkroll=1
   {hf,maxit=500;accu,20;}
 {ccsd(t),nocheck,maxit=250;orbital,IGNORE_ERROR;}

 Variables initialized (889), CPU time= 0.01 sec
 Commands  initialized (702), CPU time= 0.01 sec, 572 directives.
 Default parameters read. Elapsed time= 0.07 sec

 Checking input...
 Passed
1


                                         ***  PROGRAM SYSTEM MOLPRO  ***
                                       Copyright, TTI GmbH Stuttgart, 2015
                                    Version 2015.1 linked Jul  9 2018 13:16:40


 **********************************************************************************************************************************
 LABEL *   hno CCSD(T)/TZ-F12 QFF                                                        
  64 bit serial version                                                                  DATE: 04-Mar-20          TIME: 13:51:05  
 **********************************************************************************************************************************

 SHA1:             d5ffa45e93fdbca01ffc919aa182cfdae0147319
 **********************************************************************************************************************************

 THRESHOLDS:

 ZERO    =  1.00D-22  ONEINT  =  1.00D-22  TWOINT  =  1.00D-22  PREFAC  =  1.00D-14  LOCALI  =  1.00D-09  EORDER  =  1.00D-04
 ENERGY  =  1.00D-12  ETEST   =  0.00D+00  EDENS   =  0.00D+00  THRDEDEF=  1.00D-06  GRADIENT=  1.00D-02  STEP    =  1.00D-03
 ORBITAL =  1.00D-05  CIVEC   =  1.00D-05  COEFF   =  1.00D-04  PRINTCI =  5.00D-02  PUNCHCI =  9.90D+01  OPTGRAD =  3.00D-04
 OPTENERG=  1.00D-06  OPTSTEP =  3.00D-04  THRGRAD =  1.00D-10  COMPRESS=  1.00D-11  VARMIN  =  1.00D-07  VARMAX  =  1.00D-03
 THRDOUB =  0.00D+00  THRDIV  =  1.00D-05  THRRED  =  1.00D-07  THRPSP  =  1.00D+00  THRDC   =  1.00D-10  THRCS   =  1.00D-10
 THRNRM  =  1.00D-08  THREQ   =  0.00D+00  THRDE   =  1.00D+00  THRREF  =  1.00D-05  SPARFAC =  1.00D+00  THRDLP  =  1.00D-07
 THRDIA  =  1.00D-10  THRDLS  =  1.00D-07  THRGPS  =  0.00D+00  THRKEX  =  0.00D+00  THRDIS  =  2.00D-01  THRVAR  =  1.00D-10
 THRLOC  =  1.00D-06  THRGAP  =  1.00D-06  THRLOCT = -1.00D+00  THRGAPT = -1.00D+00  THRORB  =  1.00D-06  THRMLTP =  0.00D+00
 THRCPQCI=  1.00D-10  KEXTA   =  0.00D+00  THRCOARS=  0.00D+00  SYMTOL  =  1.00D-06  GRADTOL =  1.00D-06  THROVL  =  1.00D-08
 THRORTH =  1.00D-08  GRID    =  1.00D-06  GRIDMAX =  1.00D-03  DTMAX   =  0.00D+00  THROCCDE=  1.00D-01  THROCCDE=  1.00D-01



 THRESHOLDS:

 ZERO    =  1.00D-22  ONEINT  =  1.00D-22  TWOINT  =  1.00D-22  PREFAC  =  1.00D-14  LOCALI  =  1.00D-09  EORDER  =  1.00D-04
 ENERGY  =  1.00D-12  ETEST   =  0.00D+00  EDENS   =  0.00D+00  THRDEDEF=  1.00D-06  GRADIENT=  1.00D-02  STEP    =  1.00D-03
 ORBITAL =  1.00D-05  CIVEC   =  1.00D-05  COEFF   =  1.00D-04  PRINTCI =  5.00D-02  PUNCHCI =  9.90D+01  OPTGRAD =  1.00D-08
 OPTENERG=  1.00D-06  OPTSTEP =  1.00D-08  THRGRAD =  1.00D-10  COMPRESS=  1.00D-11  VARMIN  =  1.00D-07  VARMAX  =  1.00D-03
 THRDOUB =  0.00D+00  THRDIV  =  1.00D-05  THRRED  =  1.00D-07  THRPSP  =  1.00D+00  THRDC   =  1.00D-10  THRCS   =  1.00D-10
 THRNRM  =  1.00D-08  THREQ   =  0.00D+00  THRDE   =  1.00D+00  THRREF  =  1.00D-05  SPARFAC =  1.00D+00  THRDLP  =  1.00D-07
 THRDIA  =  1.00D-10  THRDLS  =  1.00D-07  THRGPS  =  0.00D+00  THRKEX  =  0.00D+00  THRDIS  =  2.00D-01  THRVAR  =  1.00D-10
 THRLOC  =  1.00D-06  THRGAP  =  1.00D-06  THRLOCT = -1.00D+00  THRGAPT = -1.00D+00  THRORB  =  1.00D-06  THRMLTP =  0.00D+00
 THRCPQCI=  1.00D-10  KEXTA   =  0.00D+00  THRCOARS=  0.00D+00  SYMTOL  =  1.00D-06  GRADTOL =  1.00D-06  THROVL  =  1.00D-08
 THRORTH =  1.00D-08  GRID    =  1.00D-06  GRIDMAX =  1.00D-03  DTMAX   =  0.00D+00  THROCCDE=  1.00D-01  THROCCDE=  1.00D-01



 Input parameters for SORTINT:

 COMPRESS =    0.000000
 C_FINAL  =    1.000000
 DEBUG    =   -1.000000
 C_SORT1  =    0.000000
 C_SEWARD =    0.000000
 THRESH   =    0.000000
 IO       =  molpro                                                          
 SPRI     =    0.000000
 SETTING GEOMTYP        =    XYZ
 ZUNIT=BOHR
 

 Variable memory set to  995000000 words,  buffer space   230000 words

 SETTING BASIS          =    VTZ-DK
 SETTING DKROLL         =         1.00000000                                  


 Recomputing integrals since basis changed


 Using spherical harmonics

 Library entry H      S cc-pVTZ-DK           selected for orbital group  1
 Library entry H      P cc-pVTZ-DK           selected for orbital group  1
 Library entry H      D cc-pVTZ-DK           selected for orbital group  1
 Library entry N      S cc-pVTZ-DK           selected for orbital group  2
 Library entry N      P cc-pVTZ-DK           selected for orbital group  2
 Library entry N      D cc-pVTZ-DK           selected for orbital group  2
 Library entry N      F cc-pVTZ-DK           selected for orbital group  2
 Library entry O      S cc-pVTZ-DK           selected for orbital group  3
 Library entry O      P cc-pVTZ-DK           selected for orbital group  3
 Library entry O      D cc-pVTZ-DK           selected for orbital group  3
 Library entry O      F cc-pVTZ-DK           selected for orbital group  3


 PROGRAM * SEWARD (Integral evaluation for generally contracted gaussian basis sets)     Author: Roland Lindh, 1990

 Geometry written to block  1 of record 700


 Point group  Cs  



 ATOMIC COORDINATES

 NR  ATOM    CHARGE       X              Y              Z

   1  H       1.00    0.000000000    1.653991451   -1.920608743
   2  N       7.00    0.000000000   -0.150851433   -1.157059648
   3  O       8.00    0.000000000    0.038627772    1.127078801

 Bond lengths in Bohr (Angstrom)

 1-2  1.959710452  2-3  2.291984036
     ( 1.037034111)     ( 1.212865720)

 Bond angles

  1-2-3  108.18899349

 NUCLEAR CHARGE:                   16
 NUMBER OF PRIMITIVE AOS:         111
 NUMBER OF SYMMETRY AOS:          100
 NUMBER OF CONTRACTIONS:           74   (  50A'  +  24A"  )
 NUMBER OF CORE ORBITALS:           2   (   2A'  +   0A"  )
 NUMBER OF VALENCE ORBITALS:        9   (   7A'  +   2A"  )


 NUCLEAR REPULSION ENERGY   30.32423482

 One-electron integrals computed with SEWARD

 2nd-order Douglas-Kroll-Hess method activated. Optimal DKH parametrization is used.

 Computing Douglas-Kroll / X2C integrals


        1874254. INTEGRALS WRITTEN OUT IN     458 BLOCKS ON RECORD 1290 OF FILE 1


 NUMBER OF SORTED TWO-ELECTRON INTEGRALS:    2006100.     BUFFER LENGTH:  32768
 NUMBER OF SEGMENTS:   1  SEGMENT LENGTH:    2006100      RECORD LENGTH: 524288

 Memory used in sort:       2.56 MW

 SORT1 READ     1874254. AND WROTE     1914161. INTEGRALS IN      6 RECORDS. CPU TIME:     0.04 SEC, REAL TIME:     0.05 SEC
 SORT2 READ     1914161. AND WROTE     2006100. INTEGRALS IN      1 RECORDS. CPU TIME:     0.05 SEC, REAL TIME:     0.07 SEC

 FILE SIZES:   FILE 1:    50.2 MBYTE,  FILE 4:    25.2 MBYTE,   TOTAL:     75.4 MBYTE

 OPERATOR DM      FOR CENTER  0  COORDINATES:    0.000000    0.000000    0.000000

 Eigenvalues of metric

         1 0.241E-02 0.392E-02 0.423E-02 0.810E-02 0.127E-01 0.327E-01 0.427E-01 0.463E-01
         2 0.343E-01 0.464E-01 0.102E+00 0.109E+00 0.233E+00 0.336E+00 0.394E+00 0.449E+00


 **********************************************************************************************************************************
 DATASETS  * FILE   NREC   LENGTH (MB)   RECORD NAMES
              1      23       36.03       500      610      700      900      950      970     1000      129      960     1700   
                                          VAR    BASINP    GEOM    SYMINP    ZMAT    AOBASIS   BASIS     P2S    ABASIS    OPER   
                                         1101     1401     1411     1412     1650     1100     1400     1410     1200     1210   
                                          SR      EKINR    POTR     PVPR    MOLCAS      S      EKIN      POT      H0       H01  
                                         1300     1080     1600   
                                         ERIS     AOSYM     SMH  

 PROGRAMS   *        TOTAL       INT
 CPU TIMES  *         0.75      0.62
 REAL TIME  *         1.42 SEC
 DISK USED  *        75.75 MB      
 **********************************************************************************************************************************


 PROGRAM * RHF-SCF (CLOSED SHELL)       Authors: W. Meyer, H.-J. Werner


 NUMBER OF ELECTRONS:       8+    8-
 CONVERGENCE THRESHOLDS:    1.00E-10 (Density)    1.00E-13 (Energy)
 MAX. NUMBER OF ITERATIONS:      500
 INTERPOLATION TYPE:            DIIS
 INTERPOLATION STEPS:              2 (START)      1 (STEP)
 LEVEL SHIFTS:                  0.00 (CLOSED)  0.00 (OPEN) 



 Orbital guess generated from atomic densities. Full valence occupancy:    9   2

 Molecular orbital dump at record        2100.2

 Initial occupancy:   7   1

 ITERATION    DDIFF          GRAD             ENERGY        2-EL.EN.            DIPOLE MOMENTS         DIIS   ORB.
    1      0.000D+00      0.000D+00      -129.86723940    154.154118    0.00000    0.60189   -1.05297    0    start
    2      0.000D+00      0.135D-01      -129.89382426    155.240364    0.00000    0.61945   -0.22362    1    diag
    3      0.186D-01      0.104D-01      -129.91637693    155.384668    0.00000    0.57071   -0.60877    2    diag
    4      0.904D-02      0.156D-02      -129.91711888    155.117642    0.00000    0.57923   -0.54865    3    diag
    5      0.167D-02      0.514D-03      -129.91723225    155.202594    0.00000    0.58443   -0.54956    4    diag
    6      0.716D-03      0.152D-03      -129.91725090    155.187793    0.00000    0.58494   -0.54535    5    diag
    7      0.276D-03      0.770D-04      -129.91725652    155.189973    0.00000    0.58612   -0.54277    6    diag
    8      0.193D-03      0.251D-04      -129.91725708    155.189275    0.00000    0.58612   -0.54192    7    diag
    9      0.672D-04      0.453D-05      -129.91725710    155.189157    0.00000    0.58607   -0.54176    8    diag
   10      0.130D-04      0.988D-06      -129.91725710    155.189141    0.00000    0.58604   -0.54174    9    orth
   11      0.282D-05      0.193D-06      -129.91725710    155.189137    0.00000    0.58603   -0.54174    9    diag
   12      0.505D-06      0.407D-07      -129.91725710    155.189136    0.00000    0.58603   -0.54174    9    diag
   13      0.109D-06      0.102D-07      -129.91725710    155.189136    0.00000    0.58603   -0.54174    9    diag
   14      0.273D-07      0.185D-08      -129.91725710    155.189136    0.00000    0.58603   -0.54174    9    diag
   15      0.415D-08      0.472D-09      -129.91725710    155.189136    0.00000    0.58603   -0.54174    9    diag
   16      0.103D-08      0.114D-09      -129.91725710    155.189136    0.00000    0.58603   -0.54174    9    diag
   17      0.165D-09      0.314D-10      -129.91725710    155.189136    0.00000    0.58603   -0.54174    9    diag
   18      0.480D-10      0.104D-10      -129.91725710    155.189136    0.00000    0.58603   -0.54174    0    orth

 Final occupancy:   7   1

 !RHF STATE 1.1 Energy               -129.917257102161
 Nuclear energy                        30.32423482
 One-electron energy                 -237.83605976
 Two-electron energy                   77.59456784
 Virial quotient                       -0.99752063
 !RHF STATE 1.1 Dipole moment           0.00000000     0.58602966    -0.54173834
 Dipole moment /Debye                   0.00000000     1.48944126    -1.37687132

 Orbital energies:

         1.1          2.1          3.1          4.1          5.1          6.1          7.1          8.1          9.1
    -20.665231   -15.715577    -1.523585    -0.997156    -0.743179    -0.660324    -0.429099     0.144702     0.368841

         1.2          2.2          3.2
     -0.589311     0.084657     0.613634

 HOMO      7.1    -0.429099 =     -11.6764eV
 LUMO      2.2     0.084657 =       2.3036eV
 LUMO-HOMO         0.513756 =      13.9800eV


 **********************************************************************************************************************************
 DATASETS  * FILE   NREC   LENGTH (MB)   RECORD NAMES
              1      23       36.03       500      610      700      900      950      970     1000      129      960     1700   
                                          VAR    BASINP    GEOM    SYMINP    ZMAT    AOBASIS   BASIS     P2S    ABASIS    OPER   
                                         1101     1401     1411     1412     1650     1100     1400     1410     1200     1210   
                                          SR      EKINR    POTR     PVPR    MOLCAS      S      EKIN      POT      H0       H01  
                                         1300     1080     1600   
                                         ERIS     AOSYM     SMH  

              2       4        2.85       700     1000      520     2100   
                                         GEOM     BASIS   MCVARS     RHF  

 PROGRAMS   *        TOTAL        HF       INT
 CPU TIMES  *         0.98      0.23      0.62
 REAL TIME  *         1.70 SEC
 DISK USED  *        75.75 MB      
 **********************************************************************************************************************************


 PROGRAM * CCSD (Closed-shell coupled cluster)     Authors: C. Hampel, H.-J. Werner, 1991, M. Deegan, P.J. Knowles, 1992


 Convergence thresholds:  THRVAR = 1.00D-08  THRDEN = 1.00D-12

 CCSD(T)     terms to be evaluated (factor= 1.000)


 Number of core orbitals:           2 (   2   0 )
 Number of closed-shell orbitals:   6 (   5   1 )
 Number of external orbitals:      66 (  43  23 )

 Molecular orbitals read from record     2100.2  Type=RHF/CANONICAL (state 1.1)

 Number of N-1 electron functions:               6
 Number of N-2 electron functions:              21
 Number of singly external CSFs:               238
 Number of doubly external CSFs:             41002
 Total number of CSFs:                       41241

 Length of J-op  integral file:               0.00 MB
 Length of K-op  integral file:               0.25 MB
 Length of 3-ext integral record:             0.00 MB

 Memory could be reduced to 1.65 Mwords without degradation in triples

 Integral transformation finished. Total CPU:   0.05 sec, npass=  1  Memory used:   0.55 MW

 Reference energy:                   -129.91725710

 MP2 singlet pair energy:              -0.27394084
 MP2 triplet pair energy:              -0.16272989
 MP2 correlation energy:               -0.43667072
 MP2 total energy:                   -130.35392782

 SCS-MP2 correlation energy:           -0.42998315   (PS=  1.200000  PT=  0.333333)
 SCS-MP2 total energy:               -130.34724026

 ITER.      SQ.NORM     CORR.ENERGY   TOTAL ENERGY   ENERGY CHANGE        DEN1      VAR(S)    VAR(P)  DIIS     TIME  TIME/IT
   1      1.11849657    -0.44158880  -130.35884591    -0.00491808     0.01095225  0.30D-02  0.30D-02  1  1     0.11     0.07
   2      1.12936418    -0.44180813  -130.35906523    -0.00021933    -0.01232690  0.89D-04  0.50D-03  2  2     0.16     0.07
   3      1.13565014    -0.44218996  -130.35944706    -0.00038183    -0.00297700  0.46D-04  0.52D-04  3  3     0.22     0.06
   4      1.13848054    -0.44221867  -130.35947577    -0.00002871    -0.00096378  0.38D-05  0.90D-05  4  4     0.28     0.06
   5      1.13947833    -0.44224782  -130.35950492    -0.00002915    -0.00020666  0.13D-05  0.17D-05  5  5     0.33     0.06
   6      1.13983470    -0.44223100  -130.35948810     0.00001682    -0.00004080  0.84D-07  0.42D-06  6  6     0.38     0.06
   7      1.13991716    -0.44223342  -130.35949052    -0.00000242    -0.00000164  0.97D-08  0.91D-07  6  1     0.43     0.06
   8      1.13994680    -0.44223338  -130.35949048     0.00000004     0.00000217  0.49D-08  0.11D-07  6  2     0.49     0.06
   9      1.13995427    -0.44223324  -130.35949034     0.00000014    -0.00000238  0.25D-08  0.12D-08  6  3     0.55     0.06
  10      1.13995292    -0.44223374  -130.35949084    -0.00000049     0.00000070  0.48D-09  0.20D-09  6  4     0.60     0.06
  11      1.13995129    -0.44223379  -130.35949089    -0.00000006     0.00000013  0.14D-09  0.22D-10  6  5     0.65     0.06
  12      1.13994996    -0.44223397  -130.35949107    -0.00000017     0.00000042  0.14D-10  0.68D-11  6  6     0.70     0.06
  13      1.13994940    -0.44223397  -130.35949108    -0.00000001     0.00000012  0.59D-11  0.11D-11  6  1     0.76     0.06
  14      1.13994904    -0.44223399  -130.35949110    -0.00000002     0.00000007  0.83D-12  0.41D-12  6  2     0.82     0.06
  15      1.13994890    -0.44223399  -130.35949110    -0.00000000     0.00000001  0.21D-12  0.13D-12  6  3     0.87     0.06
  16      1.13994880    -0.44223400  -130.35949110    -0.00000000     0.00000001  0.22D-13  0.16D-13  6  5     0.93     0.06
  17      1.13994877    -0.44223400  -130.35949110    -0.00000000     0.00000000  0.65D-15  0.19D-14  6  4     1.01     0.06
  18      1.13994877    -0.44223400  -130.35949110     0.00000000    -0.00000000  0.45D-15  0.26D-15  6  1     1.08     0.06
  19      1.13994877    -0.44223400  -130.35949110    -0.00000000     0.00000000  0.48D-16  0.49D-16  6  6     1.16     0.06
  20      1.13994877    -0.44223400  -130.35949110    -0.00000000     0.00000000  0.11D-16  0.13D-16  6  2     1.22     0.06
  21      1.13994877    -0.44223400  -130.35949110    -0.00000000     0.00000000  0.16D-17  0.99D-18  6  5     1.27     0.06
  22      1.13994877    -0.44223400  -130.35949110    -0.00000000     0.00000000  0.93D-19  0.78D-19  6  3     1.32     0.06
  23      1.13994877    -0.44223400  -130.35949110     0.00000000     0.00000000  0.27D-19  0.16D-19  6  4     1.38     0.06
  24      1.13994877    -0.44223400  -130.35949110     0.00000000    -0.00000000  0.40D-20  0.45D-20  6  1     1.44     0.06
  25      1.13994877    -0.44223400  -130.35949110     0.00000000    -0.00000000  0.54D-21  0.75D-21  6  6     1.49     0.06

 Norm of t1 vector:      0.07503470      S-energy:     0.00000000      T1 diagnostic:  0.01531639
                                                                       D1 diagnostic:  0.04304276

 Doubles amplitudes (print threshold =  0.500E-01):

         I         J         SYM. A    SYM. B    A         B      T(IJ, AB)

         6         6         2         2         1         1     -0.14529026


 Total CPU time for triples:      0.37 sec


 RESULTS
 =======

  Reference energy                   -129.917257102161
  CCSD singlet pair energy             -0.303241990019
  CCSD triplet pair energy             -0.138992007829
  CCSD correlation energy              -0.442233997847

  Triples (T) contribution             -0.019847033934
  Total correlation energy             -0.462081031780

  CCSD total energy                  -130.359491100008
  CCSD[T] energy                     -130.380362109042
  CCSD-T energy                      -130.378940740438
 !CCSD(T) total energy               -130.379338133942

 Timing summary (sec):

 STEP                 CPU(USER)    SYS     CPU(TOT)    WALL
 Transformation          0.06      0.01      0.07      0.07
 CCSD iterations         1.43      0.18      1.61      1.63
 Triples                 0.37      0.01      0.38      0.37

 Program statistics:

 Available memory in ccsd:               994999756
 Min. memory needed in ccsd:                154850
 Max. memory used in ccsd:                  184802
 Max. memory used in cckext:                238416 (25 integral passes)



 **********************************************************************************************************************************
 DATASETS  * FILE   NREC   LENGTH (MB)   RECORD NAMES
              1      24       40.41       500      610      700      900      950      970     1000      129      960     1700   
                                          VAR    BASINP    GEOM    SYMINP    ZMAT    AOBASIS   BASIS     P2S    ABASIS    OPER   
                                         1101     1401     1411     1412     1650     1100     1400     1410     1200     1210   
                                          SR      EKINR    POTR     PVPR    MOLCAS      S      EKIN      POT      H0       H01  
                                         1300     1080     1600     1380   
                                         ERIS     AOSYM     SMH     JKOP   

              2       4        2.85       700     1000      520     2100   
                                         GEOM     BASIS   MCVARS     RHF  

 PROGRAMS   *        TOTAL   CCSD(T)        HF       INT
 CPU TIMES  *         2.87      1.89      0.23      0.62
 REAL TIME  *         3.80 SEC
 DISK USED  *        75.75 MB      
 **********************************************************************************************************************************

 CCSD(T)/cc-pVTZ-DK energy=   -130.379338133942

        CCSD(T)         HF-SCF  
   -130.37933813   -129.91725710
 **********************************************************************************************************************************
 Molpro calculation terminated
 Variable memory released
