
 Primary working directories    : /tmp/r2666/282719.maple
 Secondary working directories  : /tmp/r2666/282719.maple
 Wavefunction directory         : /ddn/home4/r2666/wfu/
 Main file repository           : /tmp/r2666/282719.maple/

 SHA1      : d5ffa45e93fdbca01ffc919aa182cfdae0147319
 NAME      : 2015.1.35
 ARCHNAME  : linux/x86_64
 FC        : /opt/intel/composer_xe_2015.1.133/bin/intel64/ifort
 BLASLIB   : -Wl,-_start-group /opt/intel/mkl/lib/intel64/libmkl_intel_ilp64.a /opt/intel/mkl/lib/intel64/libmkl_intel_thread.a /opt/intel/mkl/lib/intel64/libmkl_core.a -Wl,-_end-group
 id        : olemiss

 Nodes     nprocs
 cn083        1

 Using customized tuning parameters: mindgm=1; mindgv=20; mindgc=4; mindgr=1; noblas=0; minvec=7
 default implementation of scratch files=df  

 ***,hno CCSD(T)/TZ-F12 QFF
 memory, 995, m;
 gthresh,energy=1.d-12,zero=1.d-22,oneint=1.d-22,twoint=1.d-22;
 gthresh,optgrad=1.d-8,optstep=1.d-8;
 nocompress;
 geomtyp=xyz
 bohr
 geometry={
 3
        100       100
 H        0.0000000000        1.6718084168       -1.9398834701
 N        0.0000000000       -0.1597211513       -1.1426849037
 O        0.0000000000        0.0296805245        1.1319787828
 }
 
 basis=vtz-dk
 dkroll=1
   {hf,maxit=500;accu,20;}
 {ccsd(t),nocheck,maxit=250;orbital,IGNORE_ERROR;}

 Variables initialized (889), CPU time= 0.01 sec
 Commands  initialized (702), CPU time= 0.01 sec, 572 directives.
 Default parameters read. Elapsed time= 0.05 sec

 Checking input...
 Passed
1


                                         ***  PROGRAM SYSTEM MOLPRO  ***
                                       Copyright, TTI GmbH Stuttgart, 2015
                                    Version 2015.1 linked Jul  9 2018 13:16:40


 **********************************************************************************************************************************
 LABEL *   hno CCSD(T)/TZ-F12 QFF                                                        
  64 bit serial version                                                                  DATE: 04-Mar-20          TIME: 13:51:16  
 **********************************************************************************************************************************

 SHA1:             d5ffa45e93fdbca01ffc919aa182cfdae0147319
 **********************************************************************************************************************************

 THRESHOLDS:

 ZERO    =  1.00D-22  ONEINT  =  1.00D-22  TWOINT  =  1.00D-22  PREFAC  =  1.00D-14  LOCALI  =  1.00D-09  EORDER  =  1.00D-04
 ENERGY  =  1.00D-12  ETEST   =  0.00D+00  EDENS   =  0.00D+00  THRDEDEF=  1.00D-06  GRADIENT=  1.00D-02  STEP    =  1.00D-03
 ORBITAL =  1.00D-05  CIVEC   =  1.00D-05  COEFF   =  1.00D-04  PRINTCI =  5.00D-02  PUNCHCI =  9.90D+01  OPTGRAD =  3.00D-04
 OPTENERG=  1.00D-06  OPTSTEP =  3.00D-04  THRGRAD =  1.00D-10  COMPRESS=  1.00D-11  VARMIN  =  1.00D-07  VARMAX  =  1.00D-03
 THRDOUB =  0.00D+00  THRDIV  =  1.00D-05  THRRED  =  1.00D-07  THRPSP  =  1.00D+00  THRDC   =  1.00D-10  THRCS   =  1.00D-10
 THRNRM  =  1.00D-08  THREQ   =  0.00D+00  THRDE   =  1.00D+00  THRREF  =  1.00D-05  SPARFAC =  1.00D+00  THRDLP  =  1.00D-07
 THRDIA  =  1.00D-10  THRDLS  =  1.00D-07  THRGPS  =  0.00D+00  THRKEX  =  0.00D+00  THRDIS  =  2.00D-01  THRVAR  =  1.00D-10
 THRLOC  =  1.00D-06  THRGAP  =  1.00D-06  THRLOCT = -1.00D+00  THRGAPT = -1.00D+00  THRORB  =  1.00D-06  THRMLTP =  0.00D+00
 THRCPQCI=  1.00D-10  KEXTA   =  0.00D+00  THRCOARS=  0.00D+00  SYMTOL  =  1.00D-06  GRADTOL =  1.00D-06  THROVL  =  1.00D-08
 THRORTH =  1.00D-08  GRID    =  1.00D-06  GRIDMAX =  1.00D-03  DTMAX   =  0.00D+00  THROCCDE=  1.00D-01  THROCCDE=  1.00D-01



 THRESHOLDS:

 ZERO    =  1.00D-22  ONEINT  =  1.00D-22  TWOINT  =  1.00D-22  PREFAC  =  1.00D-14  LOCALI  =  1.00D-09  EORDER  =  1.00D-04
 ENERGY  =  1.00D-12  ETEST   =  0.00D+00  EDENS   =  0.00D+00  THRDEDEF=  1.00D-06  GRADIENT=  1.00D-02  STEP    =  1.00D-03
 ORBITAL =  1.00D-05  CIVEC   =  1.00D-05  COEFF   =  1.00D-04  PRINTCI =  5.00D-02  PUNCHCI =  9.90D+01  OPTGRAD =  1.00D-08
 OPTENERG=  1.00D-06  OPTSTEP =  1.00D-08  THRGRAD =  1.00D-10  COMPRESS=  1.00D-11  VARMIN  =  1.00D-07  VARMAX  =  1.00D-03
 THRDOUB =  0.00D+00  THRDIV  =  1.00D-05  THRRED  =  1.00D-07  THRPSP  =  1.00D+00  THRDC   =  1.00D-10  THRCS   =  1.00D-10
 THRNRM  =  1.00D-08  THREQ   =  0.00D+00  THRDE   =  1.00D+00  THRREF  =  1.00D-05  SPARFAC =  1.00D+00  THRDLP  =  1.00D-07
 THRDIA  =  1.00D-10  THRDLS  =  1.00D-07  THRGPS  =  0.00D+00  THRKEX  =  0.00D+00  THRDIS  =  2.00D-01  THRVAR  =  1.00D-10
 THRLOC  =  1.00D-06  THRGAP  =  1.00D-06  THRLOCT = -1.00D+00  THRGAPT = -1.00D+00  THRORB  =  1.00D-06  THRMLTP =  0.00D+00
 THRCPQCI=  1.00D-10  KEXTA   =  0.00D+00  THRCOARS=  0.00D+00  SYMTOL  =  1.00D-06  GRADTOL =  1.00D-06  THROVL  =  1.00D-08
 THRORTH =  1.00D-08  GRID    =  1.00D-06  GRIDMAX =  1.00D-03  DTMAX   =  0.00D+00  THROCCDE=  1.00D-01  THROCCDE=  1.00D-01



 Input parameters for SORTINT:

 COMPRESS =    0.000000
 C_FINAL  =    1.000000
 DEBUG    =   -1.000000
 C_SORT1  =    0.000000
 C_SEWARD =    0.000000
 THRESH   =    0.000000
 IO       =  molpro                                                          
 SPRI     =    0.000000
 SETTING GEOMTYP        =    XYZ
 ZUNIT=BOHR
 

 Variable memory set to  995000000 words,  buffer space   230000 words

 SETTING BASIS          =    VTZ-DK
 SETTING DKROLL         =         1.00000000                                  


 Recomputing integrals since basis changed


 Using spherical harmonics

 Library entry H      S cc-pVTZ-DK           selected for orbital group  1
 Library entry H      P cc-pVTZ-DK           selected for orbital group  1
 Library entry H      D cc-pVTZ-DK           selected for orbital group  1
 Library entry N      S cc-pVTZ-DK           selected for orbital group  2
 Library entry N      P cc-pVTZ-DK           selected for orbital group  2
 Library entry N      D cc-pVTZ-DK           selected for orbital group  2
 Library entry N      F cc-pVTZ-DK           selected for orbital group  2
 Library entry O      S cc-pVTZ-DK           selected for orbital group  3
 Library entry O      P cc-pVTZ-DK           selected for orbital group  3
 Library entry O      D cc-pVTZ-DK           selected for orbital group  3
 Library entry O      F cc-pVTZ-DK           selected for orbital group  3


 PROGRAM * SEWARD (Integral evaluation for generally contracted gaussian basis sets)     Author: Roland Lindh, 1990

 Geometry written to block  1 of record 700


 Point group  Cs  



 ATOMIC COORDINATES

 NR  ATOM    CHARGE       X              Y              Z

   1  H       1.00    0.000000000    1.671808417   -1.939883470
   2  N       7.00    0.000000000   -0.159721151   -1.142684904
   3  O       8.00    0.000000000    0.029680524    1.131978783

 Bond lengths in Bohr (Angstrom)

 1-2  1.997504972  2-3  2.282535406
     ( 1.057034110)     ( 1.207865720)

 Bond angles

  1-2-3  108.76195129

 NUCLEAR CHARGE:                   16
 NUMBER OF PRIMITIVE AOS:         111
 NUMBER OF SYMMETRY AOS:          100
 NUMBER OF CONTRACTIONS:           74   (  50A'  +  24A"  )
 NUMBER OF CORE ORBITALS:           2   (   2A'  +   0A"  )
 NUMBER OF VALENCE ORBITALS:        9   (   7A'  +   2A"  )


 NUCLEAR REPULSION ENERGY   30.33520878

 One-electron integrals computed with SEWARD

 2nd-order Douglas-Kroll-Hess method activated. Optimal DKH parametrization is used.

 Computing Douglas-Kroll / X2C integrals


        1874283. INTEGRALS WRITTEN OUT IN     458 BLOCKS ON RECORD 1290 OF FILE 1


 NUMBER OF SORTED TWO-ELECTRON INTEGRALS:    2006100.     BUFFER LENGTH:  32768
 NUMBER OF SEGMENTS:   1  SEGMENT LENGTH:    2006100      RECORD LENGTH: 524288

 Memory used in sort:       2.56 MW

 SORT1 READ     1874283. AND WROTE     1914195. INTEGRALS IN      6 RECORDS. CPU TIME:     0.03 SEC, REAL TIME:     0.05 SEC
 SORT2 READ     1914195. AND WROTE     2006100. INTEGRALS IN      1 RECORDS. CPU TIME:     0.05 SEC, REAL TIME:     0.06 SEC

 FILE SIZES:   FILE 1:    50.2 MBYTE,  FILE 4:    25.2 MBYTE,   TOTAL:     75.4 MBYTE

 OPERATOR DM      FOR CENTER  0  COORDINATES:    0.000000    0.000000    0.000000

 Eigenvalues of metric

         1 0.246E-02 0.399E-02 0.415E-02 0.846E-02 0.131E-01 0.328E-01 0.426E-01 0.463E-01
         2 0.344E-01 0.465E-01 0.102E+00 0.113E+00 0.235E+00 0.344E+00 0.395E+00 0.450E+00


 **********************************************************************************************************************************
 DATASETS  * FILE   NREC   LENGTH (MB)   RECORD NAMES
              1      23       36.03       500      610      700      900      950      970     1000      129      960     1700   
                                          VAR    BASINP    GEOM    SYMINP    ZMAT    AOBASIS   BASIS     P2S    ABASIS    OPER   
                                         1101     1401     1411     1412     1650     1100     1400     1410     1200     1210   
                                          SR      EKINR    POTR     PVPR    MOLCAS      S      EKIN      POT      H0       H01  
                                         1300     1080     1600   
                                         ERIS     AOSYM     SMH  

 PROGRAMS   *        TOTAL       INT
 CPU TIMES  *         0.63      0.55
 REAL TIME  *         1.21 SEC
 DISK USED  *        75.75 MB      
 **********************************************************************************************************************************


 PROGRAM * RHF-SCF (CLOSED SHELL)       Authors: W. Meyer, H.-J. Werner


 NUMBER OF ELECTRONS:       8+    8-
 CONVERGENCE THRESHOLDS:    1.00E-10 (Density)    1.00E-13 (Energy)
 MAX. NUMBER OF ITERATIONS:      500
 INTERPOLATION TYPE:            DIIS
 INTERPOLATION STEPS:              2 (START)      1 (STEP)
 LEVEL SHIFTS:                  0.00 (CLOSED)  0.00 (OPEN) 



 Orbital guess generated from atomic densities. Full valence occupancy:    9   2

 Molecular orbital dump at record        2100.2

 Initial occupancy:   7   1

 ITERATION    DDIFF          GRAD             ENERGY        2-EL.EN.            DIPOLE MOMENTS         DIIS   ORB.
    1      0.000D+00      0.000D+00      -129.86720605    154.159102    0.00000    0.59236   -1.04203    0    start
    2      0.000D+00      0.136D-01      -129.89391569    155.277427    0.00000    0.61380   -0.22095    1    diag
    3      0.186D-01      0.104D-01      -129.91649425    155.406124    0.00000    0.56339   -0.60225    2    diag
    4      0.904D-02      0.155D-02      -129.91723209    155.139590    0.00000    0.57152   -0.54281    3    diag
    5      0.166D-02      0.515D-03      -129.91734730    155.225758    0.00000    0.57700   -0.54391    4    diag
    6      0.719D-03      0.154D-03      -129.91736641    155.210749    0.00000    0.57754   -0.53971    5    diag
    7      0.279D-03      0.771D-04      -129.91737203    155.213066    0.00000    0.57878   -0.53720    6    diag
    8      0.193D-03      0.248D-04      -129.91737257    155.212378    0.00000    0.57880   -0.53638    7    diag
    9      0.657D-04      0.454D-05      -129.91737259    155.212259    0.00000    0.57875   -0.53622    8    diag
   10      0.128D-04      0.100D-05      -129.91737259    155.212240    0.00000    0.57871   -0.53620    9    orth
   11      0.284D-05      0.197D-06      -129.91737259    155.212236    0.00000    0.57870   -0.53620    9    diag
   12      0.519D-06      0.410D-07      -129.91737259    155.212235    0.00000    0.57870   -0.53620    9    diag
   13      0.113D-06      0.102D-07      -129.91737259    155.212234    0.00000    0.57870   -0.53620    9    diag
   14      0.285D-07      0.186D-08      -129.91737259    155.212234    0.00000    0.57870   -0.53620    9    diag
   15      0.450D-08      0.475D-09      -129.91737259    155.212234    0.00000    0.57870   -0.53620    9    diag
   16      0.108D-08      0.113D-09      -129.91737259    155.212234    0.00000    0.57870   -0.53620    9    diag
   17      0.182D-09      0.311D-10      -129.91737259    155.212234    0.00000    0.57870   -0.53620    9    diag
   18      0.534D-10      0.102D-10      -129.91737259    155.212234    0.00000    0.57870   -0.53620    9    diag
   19      0.229D-10      0.208D-11      -129.91737259    155.212234    0.00000    0.57870   -0.53620    9    fixocc
   20      0.537D-11      0.397D-12      -129.91737259    155.212234    0.00000    0.57870   -0.53620    9    orth
   21      0.889D-12      0.137D-12      -129.91737259    155.212234    0.00000    0.57870   -0.53620    9    diag
   22      0.279D-12      0.360D-13      -129.91737259    155.212234    0.00000    0.57870   -0.53620    0    orth

 Final occupancy:   7   1

 !RHF STATE 1.1 Energy               -129.917372590599
 Nuclear energy                        30.33520878
 One-electron energy                 -237.85869847
 Two-electron energy                   77.60611709
 Virial quotient                       -0.99762924
 !RHF STATE 1.1 Dipole moment           0.00000000     0.57870143    -0.53619574
 Dipole moment /Debye                   0.00000000     1.47081597    -1.36278437

 Orbital energies:

         1.1          2.1          3.1          4.1          5.1          6.1          7.1          8.1          9.1
    -20.665279   -15.717341    -1.527119    -0.991221    -0.742488    -0.661870    -0.426033     0.143595     0.369663

         1.2          2.2          3.2
     -0.591881     0.086450     0.613084

 HOMO      7.1    -0.426033 =     -11.5929eV
 LUMO      2.2     0.086450 =       2.3524eV
 LUMO-HOMO         0.512482 =      13.9454eV


 **********************************************************************************************************************************
 DATASETS  * FILE   NREC   LENGTH (MB)   RECORD NAMES
              1      23       36.03       500      610      700      900      950      970     1000      129      960     1700   
                                          VAR    BASINP    GEOM    SYMINP    ZMAT    AOBASIS   BASIS     P2S    ABASIS    OPER   
                                         1101     1401     1411     1412     1650     1100     1400     1410     1200     1210   
                                          SR      EKINR    POTR     PVPR    MOLCAS      S      EKIN      POT      H0       H01  
                                         1300     1080     1600   
                                         ERIS     AOSYM     SMH  

              2       4        2.85       700     1000      520     2100   
                                         GEOM     BASIS   MCVARS     RHF  

 PROGRAMS   *        TOTAL        HF       INT
 CPU TIMES  *         0.88      0.25      0.55
 REAL TIME  *         1.53 SEC
 DISK USED  *        75.75 MB      
 **********************************************************************************************************************************


 PROGRAM * CCSD (Closed-shell coupled cluster)     Authors: C. Hampel, H.-J. Werner, 1991, M. Deegan, P.J. Knowles, 1992


 Convergence thresholds:  THRVAR = 1.00D-08  THRDEN = 1.00D-12

 CCSD(T)     terms to be evaluated (factor= 1.000)


 Number of core orbitals:           2 (   2   0 )
 Number of closed-shell orbitals:   6 (   5   1 )
 Number of external orbitals:      66 (  43  23 )

 Molecular orbitals read from record     2100.2  Type=RHF/CANONICAL (state 1.1)

 Number of N-1 electron functions:               6
 Number of N-2 electron functions:              21
 Number of singly external CSFs:               238
 Number of doubly external CSFs:             41002
 Total number of CSFs:                       41241

 Length of J-op  integral file:               0.00 MB
 Length of K-op  integral file:               0.25 MB
 Length of 3-ext integral record:             0.00 MB

 Memory could be reduced to 1.65 Mwords without degradation in triples

 Integral transformation finished. Total CPU:   0.03 sec, npass=  1  Memory used:   0.55 MW

 Reference energy:                   -129.91737259

 MP2 singlet pair energy:              -0.27387548
 MP2 triplet pair energy:              -0.16265020
 MP2 correlation energy:               -0.43652568
 MP2 total energy:                   -130.35389827

 SCS-MP2 correlation energy:           -0.42985515   (PS=  1.200000  PT=  0.333333)
 SCS-MP2 total energy:               -130.34722774

 ITER.      SQ.NORM     CORR.ENERGY   TOTAL ENERGY   ENERGY CHANGE        DEN1      VAR(S)    VAR(P)  DIIS     TIME  TIME/IT
   1      1.11863613    -0.44159136  -130.35896396    -0.00506568     0.01078156  0.30D-02  0.30D-02  1  1     0.07     0.04
   2      1.12952039    -0.44183751  -130.35921010    -0.00024614    -0.01231871  0.89D-04  0.51D-03  2  2     0.11     0.04
   3      1.13584052    -0.44222772  -130.35960031    -0.00039022    -0.00299041  0.48D-04  0.51D-04  3  3     0.14     0.04
   4      1.13866128    -0.44225310  -130.35962569    -0.00002538    -0.00096324  0.41D-05  0.90D-05  4  4     0.18     0.04
   5      1.13967326    -0.44228300  -130.35965559    -0.00002990    -0.00020972  0.14D-05  0.17D-05  5  5     0.22     0.04
   6      1.14003830    -0.44226628  -130.35963887     0.00001672    -0.00004136  0.10D-06  0.41D-06  6  6     0.26     0.04
   7      1.14012599    -0.44226820  -130.35964079    -0.00000192    -0.00000223  0.12D-07  0.88D-07  6  1     0.31     0.04
   8      1.14015716    -0.44226822  -130.35964081    -0.00000001     0.00000182  0.44D-08  0.11D-07  6  2     0.34     0.04
   9      1.14016525    -0.44226797  -130.35964056     0.00000024    -0.00000226  0.26D-08  0.12D-08  6  3     0.38     0.04
  10      1.14016402    -0.44226850  -130.35964109    -0.00000052     0.00000059  0.50D-09  0.21D-09  6  4     0.42     0.04
  11      1.14016224    -0.44226856  -130.35964115    -0.00000006     0.00000020  0.15D-09  0.24D-10  6  5     0.45     0.04
  12      1.14016081    -0.44226874  -130.35964133    -0.00000018     0.00000044  0.16D-10  0.80D-11  6  6     0.48     0.04
  13      1.14016017    -0.44226875  -130.35964134    -0.00000001     0.00000013  0.70D-11  0.13D-11  6  1     0.52     0.04
  14      1.14015977    -0.44226877  -130.35964136    -0.00000002     0.00000008  0.98D-12  0.45D-12  6  2     0.55     0.04
  15      1.14015962    -0.44226877  -130.35964136    -0.00000000     0.00000001  0.25D-12  0.15D-12  6  3     0.59     0.04
  16      1.14015950    -0.44226877  -130.35964136    -0.00000000     0.00000002  0.77D-14  0.38D-13  6  1     0.63     0.04
  17      1.14015949    -0.44226877  -130.35964136     0.00000000    -0.00000000  0.32D-14  0.27D-14  6  4     0.67     0.04
  18      1.14015948    -0.44226877  -130.35964136    -0.00000000     0.00000000  0.78D-15  0.47D-15  6  5     0.71     0.04
  19      1.14015948    -0.44226877  -130.35964136     0.00000000    -0.00000000  0.14D-15  0.88D-16  6  6     0.75     0.04
  20      1.14015948    -0.44226877  -130.35964136    -0.00000000     0.00000000  0.21D-16  0.20D-16  6  2     0.79     0.04
  21      1.14015948    -0.44226877  -130.35964136    -0.00000000     0.00000000  0.31D-17  0.25D-17  6  3     0.82     0.04
  22      1.14015948    -0.44226877  -130.35964136    -0.00000000     0.00000000  0.33D-18  0.40D-18  6  4     0.86     0.04
  23      1.14015948    -0.44226877  -130.35964136    -0.00000000     0.00000000  0.12D-18  0.32D-19  6  1     0.90     0.04
  24      1.14015948    -0.44226877  -130.35964136     0.00000000    -0.00000000  0.18D-19  0.12D-19  6  6     0.94     0.04
  25      1.14015948    -0.44226877  -130.35964136     0.00000000    -0.00000000  0.39D-20  0.78D-21  6  5     0.97     0.04
  26      1.14015948    -0.44226877  -130.35964136     0.00000000    -0.00000000  0.77D-21  0.31D-21  6  2     1.00     0.04
  27      1.14015948    -0.44226877  -130.35964136     0.00000000    -0.00000000  0.26D-22  0.18D-22  6  3     1.04     0.04

 Norm of t1 vector:      0.07550167      S-energy:    -0.00000000      T1 diagnostic:  0.01541171
                                                                       D1 diagnostic:  0.04250801

 Doubles amplitudes (print threshold =  0.500E-01):

         I         J         SYM. A    SYM. B    A         B      T(IJ, AB)

         6         6         2         2         1         1     -0.14367328


 Total CPU time for triples:      0.24 sec


 RESULTS
 =======

  Reference energy                   -129.917372590599
  CCSD singlet pair energy             -0.303264913902
  CCSD triplet pair energy             -0.139003857466
  CCSD correlation energy              -0.442268771368

  Triples (T) contribution             -0.019827768918
  Total correlation energy             -0.462096540286

  CCSD total energy                  -130.359641361967
  CCSD[T] energy                     -130.380497027121
  CCSD-T energy                      -130.379067912171
 !CCSD(T) total energy               -130.379469130885

 Timing summary (sec):

 STEP                 CPU(USER)    SYS     CPU(TOT)    WALL
 Transformation          0.03      0.01      0.04      0.04
 CCSD iterations         1.01      0.14      1.15      1.16
 Triples                 0.24      0.02      0.26      0.26

 Program statistics:

 Available memory in ccsd:               994999756
 Min. memory needed in ccsd:                154850
 Max. memory used in ccsd:                  184802
 Max. memory used in cckext:                238416 (27 integral passes)



 **********************************************************************************************************************************
 DATASETS  * FILE   NREC   LENGTH (MB)   RECORD NAMES
              1      24       40.41       500      610      700      900      950      970     1000      129      960     1700   
                                          VAR    BASINP    GEOM    SYMINP    ZMAT    AOBASIS   BASIS     P2S    ABASIS    OPER   
                                         1101     1401     1411     1412     1650     1100     1400     1410     1200     1210   
                                          SR      EKINR    POTR     PVPR    MOLCAS      S      EKIN      POT      H0       H01  
                                         1300     1080     1600     1380   
                                         ERIS     AOSYM     SMH     JKOP   

              2       4        2.85       700     1000      520     2100   
                                         GEOM     BASIS   MCVARS     RHF  

 PROGRAMS   *        TOTAL   CCSD(T)        HF       INT
 CPU TIMES  *         2.21      1.33      0.25      0.55
 REAL TIME  *         3.36 SEC
 DISK USED  *        75.75 MB      
 **********************************************************************************************************************************

 CCSD(T)/cc-pVTZ-DK energy=   -130.379469130885

        CCSD(T)         HF-SCF  
   -130.37946913   -129.91737259
 **********************************************************************************************************************************
 Molpro calculation terminated
 Variable memory released
