
 Primary working directories    : /tmp/r2666/282658.maple
 Secondary working directories  : /tmp/r2666/282658.maple
 Wavefunction directory         : /ddn/home4/r2666/wfu/
 Main file repository           : /tmp/r2666/282658.maple/

 SHA1      : d5ffa45e93fdbca01ffc919aa182cfdae0147319
 NAME      : 2015.1.35
 ARCHNAME  : linux/x86_64
 FC        : /opt/intel/composer_xe_2015.1.133/bin/intel64/ifort
 BLASLIB   : -Wl,-_start-group /opt/intel/mkl/lib/intel64/libmkl_intel_ilp64.a /opt/intel/mkl/lib/intel64/libmkl_intel_thread.a /opt/intel/mkl/lib/intel64/libmkl_core.a -Wl,-_end-group
 id        : olemiss

 Nodes     nprocs
 cn080        1

 Using customized tuning parameters: mindgm=1; mindgv=20; mindgc=4; mindgr=1; noblas=0; minvec=7
 default implementation of scratch files=df  

 ***,hno CCSD(T)/TZ-F12 QFF
 memory, 995, m;
 gthresh,energy=1.d-12,zero=1.d-22,oneint=1.d-22,twoint=1.d-22;
 gthresh,optgrad=1.d-8,optstep=1.d-8;
 nocompress;
 geomtyp=xyz
 bohr
 geometry={
 3
         39        39
 H        0.0000000000        1.6631024700       -1.9277628784
 N        0.0000000000       -0.1576360401       -1.1532954767
 O        0.0000000000        0.0363013601        1.1304687642
 }
 
 basis=vtz-dk
 dkroll=1
   {hf,maxit=500;accu,20;}
 {ccsd(t),nocheck,maxit=250;orbital,IGNORE_ERROR;}

 Variables initialized (889), CPU time= 0.01 sec
 Commands  initialized (702), CPU time= 0.01 sec, 572 directives.
 Default parameters read. Elapsed time= 0.08 sec

 Checking input...
 Passed
1


                                         ***  PROGRAM SYSTEM MOLPRO  ***
                                       Copyright, TTI GmbH Stuttgart, 2015
                                    Version 2015.1 linked Jul  9 2018 13:16:40


 **********************************************************************************************************************************
 LABEL *   hno CCSD(T)/TZ-F12 QFF                                                        
  64 bit serial version                                                                  DATE: 04-Mar-20          TIME: 13:51:09  
 **********************************************************************************************************************************

 SHA1:             d5ffa45e93fdbca01ffc919aa182cfdae0147319
 **********************************************************************************************************************************

 THRESHOLDS:

 ZERO    =  1.00D-22  ONEINT  =  1.00D-22  TWOINT  =  1.00D-22  PREFAC  =  1.00D-14  LOCALI  =  1.00D-09  EORDER  =  1.00D-04
 ENERGY  =  1.00D-12  ETEST   =  0.00D+00  EDENS   =  0.00D+00  THRDEDEF=  1.00D-06  GRADIENT=  1.00D-02  STEP    =  1.00D-03
 ORBITAL =  1.00D-05  CIVEC   =  1.00D-05  COEFF   =  1.00D-04  PRINTCI =  5.00D-02  PUNCHCI =  9.90D+01  OPTGRAD =  3.00D-04
 OPTENERG=  1.00D-06  OPTSTEP =  3.00D-04  THRGRAD =  1.00D-10  COMPRESS=  1.00D-11  VARMIN  =  1.00D-07  VARMAX  =  1.00D-03
 THRDOUB =  0.00D+00  THRDIV  =  1.00D-05  THRRED  =  1.00D-07  THRPSP  =  1.00D+00  THRDC   =  1.00D-10  THRCS   =  1.00D-10
 THRNRM  =  1.00D-08  THREQ   =  0.00D+00  THRDE   =  1.00D+00  THRREF  =  1.00D-05  SPARFAC =  1.00D+00  THRDLP  =  1.00D-07
 THRDIA  =  1.00D-10  THRDLS  =  1.00D-07  THRGPS  =  0.00D+00  THRKEX  =  0.00D+00  THRDIS  =  2.00D-01  THRVAR  =  1.00D-10
 THRLOC  =  1.00D-06  THRGAP  =  1.00D-06  THRLOCT = -1.00D+00  THRGAPT = -1.00D+00  THRORB  =  1.00D-06  THRMLTP =  0.00D+00
 THRCPQCI=  1.00D-10  KEXTA   =  0.00D+00  THRCOARS=  0.00D+00  SYMTOL  =  1.00D-06  GRADTOL =  1.00D-06  THROVL  =  1.00D-08
 THRORTH =  1.00D-08  GRID    =  1.00D-06  GRIDMAX =  1.00D-03  DTMAX   =  0.00D+00  THROCCDE=  1.00D-01  THROCCDE=  1.00D-01



 THRESHOLDS:

 ZERO    =  1.00D-22  ONEINT  =  1.00D-22  TWOINT  =  1.00D-22  PREFAC  =  1.00D-14  LOCALI  =  1.00D-09  EORDER  =  1.00D-04
 ENERGY  =  1.00D-12  ETEST   =  0.00D+00  EDENS   =  0.00D+00  THRDEDEF=  1.00D-06  GRADIENT=  1.00D-02  STEP    =  1.00D-03
 ORBITAL =  1.00D-05  CIVEC   =  1.00D-05  COEFF   =  1.00D-04  PRINTCI =  5.00D-02  PUNCHCI =  9.90D+01  OPTGRAD =  1.00D-08
 OPTENERG=  1.00D-06  OPTSTEP =  1.00D-08  THRGRAD =  1.00D-10  COMPRESS=  1.00D-11  VARMIN  =  1.00D-07  VARMAX  =  1.00D-03
 THRDOUB =  0.00D+00  THRDIV  =  1.00D-05  THRRED  =  1.00D-07  THRPSP  =  1.00D+00  THRDC   =  1.00D-10  THRCS   =  1.00D-10
 THRNRM  =  1.00D-08  THREQ   =  0.00D+00  THRDE   =  1.00D+00  THRREF  =  1.00D-05  SPARFAC =  1.00D+00  THRDLP  =  1.00D-07
 THRDIA  =  1.00D-10  THRDLS  =  1.00D-07  THRGPS  =  0.00D+00  THRKEX  =  0.00D+00  THRDIS  =  2.00D-01  THRVAR  =  1.00D-10
 THRLOC  =  1.00D-06  THRGAP  =  1.00D-06  THRLOCT = -1.00D+00  THRGAPT = -1.00D+00  THRORB  =  1.00D-06  THRMLTP =  0.00D+00
 THRCPQCI=  1.00D-10  KEXTA   =  0.00D+00  THRCOARS=  0.00D+00  SYMTOL  =  1.00D-06  GRADTOL =  1.00D-06  THROVL  =  1.00D-08
 THRORTH =  1.00D-08  GRID    =  1.00D-06  GRIDMAX =  1.00D-03  DTMAX   =  0.00D+00  THROCCDE=  1.00D-01  THROCCDE=  1.00D-01



 Input parameters for SORTINT:

 COMPRESS =    0.000000
 C_FINAL  =    1.000000
 DEBUG    =   -1.000000
 C_SORT1  =    0.000000
 C_SEWARD =    0.000000
 THRESH   =    0.000000
 IO       =  molpro                                                          
 SPRI     =    0.000000
 SETTING GEOMTYP        =    XYZ
 ZUNIT=BOHR
 

 Variable memory set to  995000000 words,  buffer space   230000 words

 SETTING BASIS          =    VTZ-DK
 SETTING DKROLL         =         1.00000000                                  


 Recomputing integrals since basis changed


 Using spherical harmonics

 Library entry H      S cc-pVTZ-DK           selected for orbital group  1
 Library entry H      P cc-pVTZ-DK           selected for orbital group  1
 Library entry H      D cc-pVTZ-DK           selected for orbital group  1
 Library entry N      S cc-pVTZ-DK           selected for orbital group  2
 Library entry N      P cc-pVTZ-DK           selected for orbital group  2
 Library entry N      D cc-pVTZ-DK           selected for orbital group  2
 Library entry N      F cc-pVTZ-DK           selected for orbital group  2
 Library entry O      S cc-pVTZ-DK           selected for orbital group  3
 Library entry O      P cc-pVTZ-DK           selected for orbital group  3
 Library entry O      D cc-pVTZ-DK           selected for orbital group  3
 Library entry O      F cc-pVTZ-DK           selected for orbital group  3


 PROGRAM * SEWARD (Integral evaluation for generally contracted gaussian basis sets)     Author: Roland Lindh, 1990

 Geometry written to block  1 of record 700


 Point group  Cs  



 ATOMIC COORDINATES

 NR  ATOM    CHARGE       X              Y              Z

   1  H       1.00    0.000000000    1.663102470   -1.927762878
   2  N       7.00    0.000000000   -0.157636040   -1.153295477
   3  O       8.00    0.000000000    0.036301360    1.130468764

 Bond lengths in Bohr (Angstrom)

 1-2  1.978607712  2-3  2.291984036
     ( 1.047034111)     ( 1.212865720)

 Bond angles

  1-2-3  108.18899349

 NUCLEAR CHARGE:                   16
 NUMBER OF PRIMITIVE AOS:         111
 NUMBER OF SYMMETRY AOS:          100
 NUMBER OF CONTRACTIONS:           74   (  50A'  +  24A"  )
 NUMBER OF CORE ORBITALS:           2   (   2A'  +   0A"  )
 NUMBER OF VALENCE ORBITALS:        9   (   7A'  +   2A"  )


 NUCLEAR REPULSION ENERGY   30.28029324

 One-electron integrals computed with SEWARD

 2nd-order Douglas-Kroll-Hess method activated. Optimal DKH parametrization is used.

 Computing Douglas-Kroll / X2C integrals


        1874283. INTEGRALS WRITTEN OUT IN     458 BLOCKS ON RECORD 1290 OF FILE 1


 NUMBER OF SORTED TWO-ELECTRON INTEGRALS:    2006100.     BUFFER LENGTH:  32768
 NUMBER OF SEGMENTS:   1  SEGMENT LENGTH:    2006100      RECORD LENGTH: 524288

 Memory used in sort:       2.56 MW

 SORT1 READ     1874283. AND WROTE     1914195. INTEGRALS IN      6 RECORDS. CPU TIME:     0.02 SEC, REAL TIME:     0.04 SEC
 SORT2 READ     1914195. AND WROTE     2006100. INTEGRALS IN      1 RECORDS. CPU TIME:     0.05 SEC, REAL TIME:     0.07 SEC

 FILE SIZES:   FILE 1:    50.2 MBYTE,  FILE 4:    25.2 MBYTE,   TOTAL:     75.4 MBYTE

 OPERATOR DM      FOR CENTER  0  COORDINATES:    0.000000    0.000000    0.000000

 Eigenvalues of metric

         1 0.245E-02 0.396E-02 0.423E-02 0.829E-02 0.129E-01 0.329E-01 0.428E-01 0.464E-01
         2 0.345E-01 0.465E-01 0.102E+00 0.111E+00 0.235E+00 0.340E+00 0.396E+00 0.450E+00


 **********************************************************************************************************************************
 DATASETS  * FILE   NREC   LENGTH (MB)   RECORD NAMES
              1      23       36.03       500      610      700      900      950      970     1000      129      960     1700   
                                          VAR    BASINP    GEOM    SYMINP    ZMAT    AOBASIS   BASIS     P2S    ABASIS    OPER   
                                         1101     1401     1411     1412     1650     1100     1400     1410     1200     1210   
                                          SR      EKINR    POTR     PVPR    MOLCAS      S      EKIN      POT      H0       H01  
                                         1300     1080     1600   
                                         ERIS     AOSYM     SMH  

 PROGRAMS   *        TOTAL       INT
 CPU TIMES  *         0.67      0.57
 REAL TIME  *         1.25 SEC
 DISK USED  *        75.75 MB      
 **********************************************************************************************************************************


 PROGRAM * RHF-SCF (CLOSED SHELL)       Authors: W. Meyer, H.-J. Werner


 NUMBER OF ELECTRONS:       8+    8-
 CONVERGENCE THRESHOLDS:    1.00E-10 (Density)    1.00E-13 (Energy)
 MAX. NUMBER OF ITERATIONS:      500
 INTERPOLATION TYPE:            DIIS
 INTERPOLATION STEPS:              2 (START)      1 (STEP)
 LEVEL SHIFTS:                  0.00 (CLOSED)  0.00 (OPEN) 



 Orbital guess generated from atomic densities. Full valence occupancy:    9   2

 Molecular orbital dump at record        2100.2

 Initial occupancy:   7   1

 ITERATION    DDIFF          GRAD             ENERGY        2-EL.EN.            DIPOLE MOMENTS         DIIS   ORB.
    1      0.000D+00      0.000D+00      -129.86652995    154.069692    0.00000    0.59586   -1.05507    0    start
    2      0.000D+00      0.136D-01      -129.89310453    155.165742    0.00000    0.61858   -0.21968    1    diag
    3      0.187D-01      0.105D-01      -129.91612822    155.307764    0.00000    0.56729   -0.60798    2    diag
    4      0.912D-02      0.156D-02      -129.91687176    155.039460    0.00000    0.57571   -0.54790    3    diag
    5      0.167D-02      0.517D-03      -129.91698702    155.125139    0.00000    0.58103   -0.54883    4    diag
    6      0.720D-03      0.154D-03      -129.91700610    155.110183    0.00000    0.58154   -0.54457    5    diag
    7      0.279D-03      0.777D-04      -129.91701182    155.112403    0.00000    0.58273   -0.54199    6    diag
    8      0.194D-03      0.253D-04      -129.91701239    155.111695    0.00000    0.58274   -0.54114    7    diag
    9      0.679D-04      0.460D-05      -129.91701241    155.111575    0.00000    0.58269   -0.54098    8    diag
   10      0.132D-04      0.100D-05      -129.91701241    155.111558    0.00000    0.58266   -0.54095    9    orth
   11      0.284D-05      0.196D-06      -129.91701241    155.111554    0.00000    0.58265   -0.54095    9    diag
   12      0.513D-06      0.415D-07      -129.91701241    155.111552    0.00000    0.58265   -0.54095    9    diag
   13      0.112D-06      0.105D-07      -129.91701241    155.111552    0.00000    0.58265   -0.54095    9    diag
   14      0.283D-07      0.188D-08      -129.91701241    155.111552    0.00000    0.58265   -0.54095    9    diag
   15      0.431D-08      0.478D-09      -129.91701241    155.111552    0.00000    0.58265   -0.54095    9    diag
   16      0.105D-08      0.113D-09      -129.91701241    155.111552    0.00000    0.58265   -0.54095    9    diag
   17      0.167D-09      0.306D-10      -129.91701241    155.111552    0.00000    0.58265   -0.54095    9    diag
   18      0.469D-10      0.993D-11      -129.91701241    155.111552    0.00000    0.58265   -0.54095    0    orth

 Final occupancy:   7   1

 !RHF STATE 1.1 Energy               -129.917012414459
 Nuclear energy                        30.28029324
 One-electron energy                 -237.75308163
 Two-electron energy                   77.55577598
 Virial quotient                       -0.99764327
 !RHF STATE 1.1 Dipole moment           0.00000000     0.58264832    -0.54094740
 Dipole moment /Debye                   0.00000000     1.48084733    -1.37486109

 Orbital energies:

         1.1          2.1          3.1          4.1          5.1          6.1          7.1          8.1          9.1
    -20.665415   -15.716951    -1.523450    -0.994564    -0.742089    -0.660322    -0.428523     0.144076     0.368880

         1.2          2.2          3.2
     -0.589451     0.084662     0.613627

 HOMO      7.1    -0.428523 =     -11.6607eV
 LUMO      2.2     0.084662 =       2.3038eV
 LUMO-HOMO         0.513185 =      13.9645eV


 **********************************************************************************************************************************
 DATASETS  * FILE   NREC   LENGTH (MB)   RECORD NAMES
              1      23       36.03       500      610      700      900      950      970     1000      129      960     1700   
                                          VAR    BASINP    GEOM    SYMINP    ZMAT    AOBASIS   BASIS     P2S    ABASIS    OPER   
                                         1101     1401     1411     1412     1650     1100     1400     1410     1200     1210   
                                          SR      EKINR    POTR     PVPR    MOLCAS      S      EKIN      POT      H0       H01  
                                         1300     1080     1600   
                                         ERIS     AOSYM     SMH  

              2       4        2.85       700     1000      520     2100   
                                         GEOM     BASIS   MCVARS     RHF  

 PROGRAMS   *        TOTAL        HF       INT
 CPU TIMES  *         0.85      0.18      0.57
 REAL TIME  *         1.50 SEC
 DISK USED  *        75.75 MB      
 **********************************************************************************************************************************


 PROGRAM * CCSD (Closed-shell coupled cluster)     Authors: C. Hampel, H.-J. Werner, 1991, M. Deegan, P.J. Knowles, 1992


 Convergence thresholds:  THRVAR = 1.00D-08  THRDEN = 1.00D-12

 CCSD(T)     terms to be evaluated (factor= 1.000)


 Number of core orbitals:           2 (   2   0 )
 Number of closed-shell orbitals:   6 (   5   1 )
 Number of external orbitals:      66 (  43  23 )

 Molecular orbitals read from record     2100.2  Type=RHF/CANONICAL (state 1.1)

 Number of N-1 electron functions:               6
 Number of N-2 electron functions:              21
 Number of singly external CSFs:               238
 Number of doubly external CSFs:             41002
 Total number of CSFs:                       41241

 Length of J-op  integral file:               0.00 MB
 Length of K-op  integral file:               0.25 MB
 Length of 3-ext integral record:             0.00 MB

 Memory could be reduced to 1.65 Mwords without degradation in triples

 Integral transformation finished. Total CPU:   0.03 sec, npass=  1  Memory used:   0.55 MW

 Reference energy:                   -129.91701241

 MP2 singlet pair energy:              -0.27417138
 MP2 triplet pair energy:              -0.16286191
 MP2 correlation energy:               -0.43703328
 MP2 total energy:                   -130.35404570

 SCS-MP2 correlation energy:           -0.43034195   (PS=  1.200000  PT=  0.333333)
 SCS-MP2 total energy:               -130.34735437

 ITER.      SQ.NORM     CORR.ENERGY   TOTAL ENERGY   ENERGY CHANGE        DEN1      VAR(S)    VAR(P)  DIIS     TIME  TIME/IT
   1      1.11882661    -0.44192885  -130.35894127    -0.00489557     0.01106049  0.30D-02  0.30D-02  1  1     0.06     0.04
   2      1.12975862    -0.44214331  -130.35915573    -0.00021446    -0.01237970  0.90D-04  0.51D-03  2  2     0.09     0.04
   3      1.13610731    -0.44253229  -130.35954470    -0.00038897    -0.00299987  0.47D-04  0.52D-04  3  3     0.13     0.04
   4      1.13895829    -0.44255979  -130.35957220    -0.00002750    -0.00097060  0.40D-05  0.90D-05  4  4     0.15     0.04
   5      1.13997333    -0.44258970  -130.35960211    -0.00002991    -0.00021039  0.13D-05  0.17D-05  5  5     0.19     0.04
   6      1.14033557    -0.44257264  -130.35958506     0.00001706    -0.00004142  0.93D-07  0.42D-06  6  6     0.22     0.04
   7      1.14041981    -0.44257487  -130.35958728    -0.00000223    -0.00000179  0.11D-07  0.90D-07  6  1     0.26     0.04
   8      1.14045010    -0.44257482  -130.35958723     0.00000005     0.00000201  0.46D-08  0.11D-07  6  2     0.29     0.04
   9      1.14045788    -0.44257463  -130.35958705     0.00000018    -0.00000233  0.26D-08  0.12D-08  6  3     0.33     0.04
  10      1.14045659    -0.44257514  -130.35958756    -0.00000051     0.00000066  0.49D-09  0.21D-09  6  4     0.37     0.04
  11      1.14045489    -0.44257520  -130.35958761    -0.00000006     0.00000016  0.15D-09  0.23D-10  6  5     0.40     0.04
  12      1.14045351    -0.44257538  -130.35958779    -0.00000018     0.00000043  0.15D-10  0.73D-11  6  6     0.44     0.04
  13      1.14045291    -0.44257538  -130.35958780    -0.00000001     0.00000012  0.64D-11  0.12D-11  6  1     0.48     0.04
  14      1.14045253    -0.44257541  -130.35958782    -0.00000002     0.00000008  0.90D-12  0.43D-12  6  2     0.52     0.04
  15      1.14045238    -0.44257541  -130.35958782    -0.00000000     0.00000001  0.23D-12  0.14D-12  6  3     0.55     0.04
  16      1.14045228    -0.44257541  -130.35958782    -0.00000000     0.00000001  0.24D-13  0.16D-13  6  5     0.58     0.04
  17      1.14045225    -0.44257541  -130.35958782    -0.00000000     0.00000000  0.63D-15  0.19D-14  6  4     0.62     0.04
  18      1.14045225    -0.44257541  -130.35958782     0.00000000    -0.00000000  0.44D-15  0.27D-15  6  1     0.65     0.04
  19      1.14045225    -0.44257541  -130.35958782    -0.00000000     0.00000000  0.47D-16  0.49D-16  6  6     0.70     0.04
  20      1.14045225    -0.44257541  -130.35958782    -0.00000000     0.00000000  0.11D-16  0.13D-16  6  2     0.73     0.04
  21      1.14045225    -0.44257541  -130.35958782    -0.00000000     0.00000000  0.17D-17  0.10D-17  6  5     0.77     0.04
  22      1.14045225    -0.44257541  -130.35958782    -0.00000000     0.00000000  0.94D-19  0.79D-19  6  3     0.81     0.04
  23      1.14045225    -0.44257541  -130.35958782     0.00000000     0.00000000  0.27D-19  0.16D-19  6  4     0.86     0.04
  24      1.14045225    -0.44257541  -130.35958782     0.00000000    -0.00000000  0.40D-20  0.45D-20  6  1     0.90     0.04
  25      1.14045225    -0.44257541  -130.35958782     0.00000000    -0.00000000  0.57D-21  0.75D-21  6  6     0.94     0.04

 Norm of t1 vector:      0.07555975      S-energy:     0.00000000      T1 diagnostic:  0.01542357
                                                                       D1 diagnostic:  0.04307587

 Doubles amplitudes (print threshold =  0.500E-01):

         I         J         SYM. A    SYM. B    A         B      T(IJ, AB)

         6         6         2         2         1         1     -0.14517454


 Total CPU time for triples:      0.23 sec


 RESULTS
 =======

  Reference energy                   -129.917012414459
  CCSD singlet pair energy             -0.303536157691
  CCSD triplet pair energy             -0.139039252636
  CCSD correlation energy              -0.442575410326

  Triples (T) contribution             -0.019909282279
  Total correlation energy             -0.462484692605

  CCSD total energy                  -130.359587824785
  CCSD[T] energy                     -130.380531836426
  CCSD-T energy                      -130.379095681664
 !CCSD(T) total energy               -130.379497107064

 Timing summary (sec):

 STEP                 CPU(USER)    SYS     CPU(TOT)    WALL
 Transformation          0.03      0.01      0.04      0.04
 CCSD iterations         0.91      0.14      1.05      1.05
 Triples                 0.23      0.01      0.24      0.25

 Program statistics:

 Available memory in ccsd:               994999756
 Min. memory needed in ccsd:                154850
 Max. memory used in ccsd:                  184802
 Max. memory used in cckext:                238416 (25 integral passes)



 **********************************************************************************************************************************
 DATASETS  * FILE   NREC   LENGTH (MB)   RECORD NAMES
              1      24       40.41       500      610      700      900      950      970     1000      129      960     1700   
                                          VAR    BASINP    GEOM    SYMINP    ZMAT    AOBASIS   BASIS     P2S    ABASIS    OPER   
                                         1101     1401     1411     1412     1650     1100     1400     1410     1200     1210   
                                          SR      EKINR    POTR     PVPR    MOLCAS      S      EKIN      POT      H0       H01  
                                         1300     1080     1600     1380   
                                         ERIS     AOSYM     SMH     JKOP   

              2       4        2.85       700     1000      520     2100   
                                         GEOM     BASIS   MCVARS     RHF  

 PROGRAMS   *        TOTAL   CCSD(T)        HF       INT
 CPU TIMES  *         2.05      1.19      0.18      0.57
 REAL TIME  *         2.86 SEC
 DISK USED  *        75.75 MB      
 **********************************************************************************************************************************

 CCSD(T)/cc-pVTZ-DK energy=   -130.379497107064

        CCSD(T)         HF-SCF  
   -130.37949711   -129.91701241
 **********************************************************************************************************************************
 Molpro calculation terminated
 Variable memory released
