
 Primary working directories    : /tmp/r2666/282629.maple
 Secondary working directories  : /tmp/r2666/282629.maple
 Wavefunction directory         : /ddn/home4/r2666/wfu/
 Main file repository           : /tmp/r2666/282629.maple/

 SHA1      : d5ffa45e93fdbca01ffc919aa182cfdae0147319
 NAME      : 2015.1.35
 ARCHNAME  : linux/x86_64
 FC        : /opt/intel/composer_xe_2015.1.133/bin/intel64/ifort
 BLASLIB   : -Wl,-_start-group /opt/intel/mkl/lib/intel64/libmkl_intel_ilp64.a /opt/intel/mkl/lib/intel64/libmkl_intel_thread.a /opt/intel/mkl/lib/intel64/libmkl_core.a -Wl,-_end-group
 id        : olemiss

 Nodes     nprocs
 cn095        1

 Using customized tuning parameters: mindgm=1; mindgv=20; mindgc=4; mindgr=1; noblas=0; minvec=7
 default implementation of scratch files=df  

 ***,hno CCSD(T)/TZ-F12 QFF
 memory, 995, m;
 gthresh,energy=1.d-12,zero=1.d-22,oneint=1.d-22,twoint=1.d-22;
 gthresh,optgrad=1.d-8,optstep=1.d-8;
 nocompress;
 geomtyp=xyz
 bohr
 geometry={
 3
         10        10
 H        0.0000000000        1.6569366113       -1.9198337422
 N        0.0000000000       -0.1545587175       -1.1477766427
 O        0.0000000000        0.0393898962        1.1170207939
 }
 
 basis=vtz-dk
 dkroll=1
   {hf,maxit=500;accu,20;}
 {ccsd(t),nocheck,maxit=250;orbital,IGNORE_ERROR;}

 Variables initialized (889), CPU time= 0.01 sec
 Commands  initialized (702), CPU time= 0.01 sec, 572 directives.
 Default parameters read. Elapsed time= 0.05 sec

 Checking input...
 Passed
1


                                         ***  PROGRAM SYSTEM MOLPRO  ***
                                       Copyright, TTI GmbH Stuttgart, 2015
                                    Version 2015.1 linked Jul  9 2018 13:16:40


 **********************************************************************************************************************************
 LABEL *   hno CCSD(T)/TZ-F12 QFF                                                        
  64 bit serial version                                                                  DATE: 04-Mar-20          TIME: 13:51:06  
 **********************************************************************************************************************************

 SHA1:             d5ffa45e93fdbca01ffc919aa182cfdae0147319
 **********************************************************************************************************************************

 THRESHOLDS:

 ZERO    =  1.00D-22  ONEINT  =  1.00D-22  TWOINT  =  1.00D-22  PREFAC  =  1.00D-14  LOCALI  =  1.00D-09  EORDER  =  1.00D-04
 ENERGY  =  1.00D-12  ETEST   =  0.00D+00  EDENS   =  0.00D+00  THRDEDEF=  1.00D-06  GRADIENT=  1.00D-02  STEP    =  1.00D-03
 ORBITAL =  1.00D-05  CIVEC   =  1.00D-05  COEFF   =  1.00D-04  PRINTCI =  5.00D-02  PUNCHCI =  9.90D+01  OPTGRAD =  3.00D-04
 OPTENERG=  1.00D-06  OPTSTEP =  3.00D-04  THRGRAD =  1.00D-10  COMPRESS=  1.00D-11  VARMIN  =  1.00D-07  VARMAX  =  1.00D-03
 THRDOUB =  0.00D+00  THRDIV  =  1.00D-05  THRRED  =  1.00D-07  THRPSP  =  1.00D+00  THRDC   =  1.00D-10  THRCS   =  1.00D-10
 THRNRM  =  1.00D-08  THREQ   =  0.00D+00  THRDE   =  1.00D+00  THRREF  =  1.00D-05  SPARFAC =  1.00D+00  THRDLP  =  1.00D-07
 THRDIA  =  1.00D-10  THRDLS  =  1.00D-07  THRGPS  =  0.00D+00  THRKEX  =  0.00D+00  THRDIS  =  2.00D-01  THRVAR  =  1.00D-10
 THRLOC  =  1.00D-06  THRGAP  =  1.00D-06  THRLOCT = -1.00D+00  THRGAPT = -1.00D+00  THRORB  =  1.00D-06  THRMLTP =  0.00D+00
 THRCPQCI=  1.00D-10  KEXTA   =  0.00D+00  THRCOARS=  0.00D+00  SYMTOL  =  1.00D-06  GRADTOL =  1.00D-06  THROVL  =  1.00D-08
 THRORTH =  1.00D-08  GRID    =  1.00D-06  GRIDMAX =  1.00D-03  DTMAX   =  0.00D+00  THROCCDE=  1.00D-01  THROCCDE=  1.00D-01



 THRESHOLDS:

 ZERO    =  1.00D-22  ONEINT  =  1.00D-22  TWOINT  =  1.00D-22  PREFAC  =  1.00D-14  LOCALI  =  1.00D-09  EORDER  =  1.00D-04
 ENERGY  =  1.00D-12  ETEST   =  0.00D+00  EDENS   =  0.00D+00  THRDEDEF=  1.00D-06  GRADIENT=  1.00D-02  STEP    =  1.00D-03
 ORBITAL =  1.00D-05  CIVEC   =  1.00D-05  COEFF   =  1.00D-04  PRINTCI =  5.00D-02  PUNCHCI =  9.90D+01  OPTGRAD =  1.00D-08
 OPTENERG=  1.00D-06  OPTSTEP =  1.00D-08  THRGRAD =  1.00D-10  COMPRESS=  1.00D-11  VARMIN  =  1.00D-07  VARMAX  =  1.00D-03
 THRDOUB =  0.00D+00  THRDIV  =  1.00D-05  THRRED  =  1.00D-07  THRPSP  =  1.00D+00  THRDC   =  1.00D-10  THRCS   =  1.00D-10
 THRNRM  =  1.00D-08  THREQ   =  0.00D+00  THRDE   =  1.00D+00  THRREF  =  1.00D-05  SPARFAC =  1.00D+00  THRDLP  =  1.00D-07
 THRDIA  =  1.00D-10  THRDLS  =  1.00D-07  THRGPS  =  0.00D+00  THRKEX  =  0.00D+00  THRDIS  =  2.00D-01  THRVAR  =  1.00D-10
 THRLOC  =  1.00D-06  THRGAP  =  1.00D-06  THRLOCT = -1.00D+00  THRGAPT = -1.00D+00  THRORB  =  1.00D-06  THRMLTP =  0.00D+00
 THRCPQCI=  1.00D-10  KEXTA   =  0.00D+00  THRCOARS=  0.00D+00  SYMTOL  =  1.00D-06  GRADTOL =  1.00D-06  THROVL  =  1.00D-08
 THRORTH =  1.00D-08  GRID    =  1.00D-06  GRIDMAX =  1.00D-03  DTMAX   =  0.00D+00  THROCCDE=  1.00D-01  THROCCDE=  1.00D-01



 Input parameters for SORTINT:

 COMPRESS =    0.000000
 C_FINAL  =    1.000000
 DEBUG    =   -1.000000
 C_SORT1  =    0.000000
 C_SEWARD =    0.000000
 THRESH   =    0.000000
 IO       =  molpro                                                          
 SPRI     =    0.000000
 SETTING GEOMTYP        =    XYZ
 ZUNIT=BOHR
 

 Variable memory set to  995000000 words,  buffer space   230000 words

 SETTING BASIS          =    VTZ-DK
 SETTING DKROLL         =         1.00000000                                  


 Recomputing integrals since basis changed


 Using spherical harmonics

 Library entry H      S cc-pVTZ-DK           selected for orbital group  1
 Library entry H      P cc-pVTZ-DK           selected for orbital group  1
 Library entry H      D cc-pVTZ-DK           selected for orbital group  1
 Library entry N      S cc-pVTZ-DK           selected for orbital group  2
 Library entry N      P cc-pVTZ-DK           selected for orbital group  2
 Library entry N      D cc-pVTZ-DK           selected for orbital group  2
 Library entry N      F cc-pVTZ-DK           selected for orbital group  2
 Library entry O      S cc-pVTZ-DK           selected for orbital group  3
 Library entry O      P cc-pVTZ-DK           selected for orbital group  3
 Library entry O      D cc-pVTZ-DK           selected for orbital group  3
 Library entry O      F cc-pVTZ-DK           selected for orbital group  3


 PROGRAM * SEWARD (Integral evaluation for generally contracted gaussian basis sets)     Author: Roland Lindh, 1990

 Geometry written to block  1 of record 700


 Point group  Cs  



 ATOMIC COORDINATES

 NR  ATOM    CHARGE       X              Y              Z

   1  H       1.00    0.000000000    1.656936611   -1.919833742
   2  N       7.00    0.000000000   -0.154558717   -1.147776643
   3  O       8.00    0.000000000    0.039389896    1.117020794

 Bond lengths in Bohr (Angstrom)

 1-2  1.969159082  2-3  2.273086777
     ( 1.042034111)     ( 1.202865721)

 Bond angles

  1-2-3  108.18899349

 NUCLEAR CHARGE:                   16
 NUMBER OF PRIMITIVE AOS:         111
 NUMBER OF SYMMETRY AOS:          100
 NUMBER OF CONTRACTIONS:           74   (  50A'  +  24A"  )
 NUMBER OF CORE ORBITALS:           2   (   2A'  +   0A"  )
 NUMBER OF VALENCE ORBITALS:        9   (   7A'  +   2A"  )


 NUCLEAR REPULSION ENERGY   30.51597650

 One-electron integrals computed with SEWARD

 2nd-order Douglas-Kroll-Hess method activated. Optimal DKH parametrization is used.

 Computing Douglas-Kroll / X2C integrals


        1874283. INTEGRALS WRITTEN OUT IN     458 BLOCKS ON RECORD 1290 OF FILE 1


 NUMBER OF SORTED TWO-ELECTRON INTEGRALS:    2006100.     BUFFER LENGTH:  32768
 NUMBER OF SEGMENTS:   1  SEGMENT LENGTH:    2006100      RECORD LENGTH: 524288

 Memory used in sort:       2.56 MW

 SORT1 READ     1874283. AND WROTE     1914195. INTEGRALS IN      6 RECORDS. CPU TIME:     0.03 SEC, REAL TIME:     0.05 SEC
 SORT2 READ     1914195. AND WROTE     2006100. INTEGRALS IN      1 RECORDS. CPU TIME:     0.04 SEC, REAL TIME:     0.06 SEC

 FILE SIZES:   FILE 1:    50.2 MBYTE,  FILE 4:    25.2 MBYTE,   TOTAL:     75.4 MBYTE

 OPERATOR DM      FOR CENTER  0  COORDINATES:    0.000000    0.000000    0.000000

 Eigenvalues of metric

         1 0.240E-02 0.391E-02 0.408E-02 0.814E-02 0.128E-01 0.322E-01 0.422E-01 0.463E-01
         2 0.339E-01 0.463E-01 0.101E+00 0.109E+00 0.231E+00 0.337E+00 0.392E+00 0.447E+00


 **********************************************************************************************************************************
 DATASETS  * FILE   NREC   LENGTH (MB)   RECORD NAMES
              1      23       36.03       500      610      700      900      950      970     1000      129      960     1700   
                                          VAR    BASINP    GEOM    SYMINP    ZMAT    AOBASIS   BASIS     P2S    ABASIS    OPER   
                                         1101     1401     1411     1412     1650     1100     1400     1410     1200     1210   
                                          SR      EKINR    POTR     PVPR    MOLCAS      S      EKIN      POT      H0       H01  
                                         1300     1080     1600   
                                         ERIS     AOSYM     SMH  

 PROGRAMS   *        TOTAL       INT
 CPU TIMES  *         0.73      0.63
 REAL TIME  *         1.48 SEC
 DISK USED  *        75.75 MB      
 **********************************************************************************************************************************


 PROGRAM * RHF-SCF (CLOSED SHELL)       Authors: W. Meyer, H.-J. Werner


 NUMBER OF ELECTRONS:       8+    8-
 CONVERGENCE THRESHOLDS:    1.00E-10 (Density)    1.00E-13 (Energy)
 MAX. NUMBER OF ITERATIONS:      500
 INTERPOLATION TYPE:            DIIS
 INTERPOLATION STEPS:              2 (START)      1 (STEP)
 LEVEL SHIFTS:                  0.00 (CLOSED)  0.00 (OPEN) 



 Orbital guess generated from atomic densities. Full valence occupancy:    9   2

 Molecular orbital dump at record        2100.2

 Initial occupancy:   7   1

 ITERATION    DDIFF          GRAD             ENERGY        2-EL.EN.            DIPOLE MOMENTS         DIIS   ORB.
    1      0.000D+00      0.000D+00      -129.86967369    154.496408    0.00000    0.59452   -1.02277    0    start
    2      0.000D+00      0.134D-01      -129.89654462    155.605074    0.00000    0.61262   -0.22713    1    diag
    3      0.183D-01      0.101D-01      -129.91771386    155.727770    0.00000    0.56424   -0.59448    2    diag
    4      0.882D-02      0.155D-02      -129.91843820    155.466935    0.00000    0.57289   -0.53599    3    diag
    5      0.165D-02      0.508D-03      -129.91854901    155.551405    0.00000    0.57814   -0.53709    4    diag
    6      0.708D-03      0.151D-03      -129.91856721    155.536670    0.00000    0.57869   -0.53304    5    diag
    7      0.273D-03      0.753D-04      -129.91857252    155.538975    0.00000    0.57990   -0.53059    6    diag
    8      0.189D-03      0.238D-04      -129.91857301    155.538315    0.00000    0.57992   -0.52982    7    diag
    9      0.623D-04      0.428D-05      -129.91857303    155.538205    0.00000    0.57987   -0.52967    8    diag
   10      0.120D-04      0.955D-06      -129.91857303    155.538189    0.00000    0.57983   -0.52965    9    orth
   11      0.273D-05      0.187D-06      -129.91857303    155.538185    0.00000    0.57983   -0.52964    9    diag
   12      0.498D-06      0.385D-07      -129.91857303    155.538184    0.00000    0.57983   -0.52964    9    diag
   13      0.107D-06      0.942D-08      -129.91857303    155.538183    0.00000    0.57983   -0.52964    9    diag
   14      0.263D-07      0.171D-08      -129.91857303    155.538183    0.00000    0.57983   -0.52964    9    diag
   15      0.424D-08      0.443D-09      -129.91857303    155.538183    0.00000    0.57983   -0.52964    9    diag
   16      0.101D-08      0.109D-09      -129.91857303    155.538183    0.00000    0.57983   -0.52964    9    diag
   17      0.181D-09      0.302D-10      -129.91857303    155.538183    0.00000    0.57983   -0.52964    9    diag
   18      0.542D-10      0.997D-11      -129.91857303    155.538183    0.00000    0.57983   -0.52964    9    diag
   19      0.231D-10      0.216D-11      -129.91857303    155.538183    0.00000    0.57983   -0.52964    9    fixocc
   20      0.563D-11      0.430D-12      -129.91857303    155.538183    0.00000    0.57983   -0.52964    9    orth
   21      0.878D-12      0.132D-12      -129.91857303    155.538183    0.00000    0.57983   -0.52964    9    diag
   22      0.281D-12      0.283D-13      -129.91857303    155.538183    0.00000    0.57983   -0.52964    0    orth

 Final occupancy:   7   1

 !RHF STATE 1.1 Energy               -129.918573028189
 Nuclear energy                        30.51597650
 One-electron energy                 -238.20364117
 Two-electron energy                   77.76909164
 Virial quotient                       -0.99728189
 !RHF STATE 1.1 Dipole moment           0.00000000     0.57982505    -0.52964057
 Dipole moment /Debye                   0.00000000     1.47367175    -1.34612388

 Orbital energies:

         1.1          2.1          3.1          4.1          5.1          6.1          7.1          8.1          9.1
    -20.664331   -15.714522    -1.531670    -0.993496    -0.745674    -0.663182    -0.425760     0.144963     0.370247

         1.2          2.2          3.2
     -0.594094     0.088385     0.612533

 HOMO      7.1    -0.425760 =     -11.5855eV
 LUMO      2.2     0.088385 =       2.4051eV
 LUMO-HOMO         0.514145 =      13.9906eV


 **********************************************************************************************************************************
 DATASETS  * FILE   NREC   LENGTH (MB)   RECORD NAMES
              1      23       36.03       500      610      700      900      950      970     1000      129      960     1700   
                                          VAR    BASINP    GEOM    SYMINP    ZMAT    AOBASIS   BASIS     P2S    ABASIS    OPER   
                                         1101     1401     1411     1412     1650     1100     1400     1410     1200     1210   
                                          SR      EKINR    POTR     PVPR    MOLCAS      S      EKIN      POT      H0       H01  
                                         1300     1080     1600   
                                         ERIS     AOSYM     SMH  

              2       4        2.85       700     1000      520     2100   
                                         GEOM     BASIS   MCVARS     RHF  

 PROGRAMS   *        TOTAL        HF       INT
 CPU TIMES  *         0.99      0.26      0.63
 REAL TIME  *         1.82 SEC
 DISK USED  *        75.75 MB      
 **********************************************************************************************************************************


 PROGRAM * CCSD (Closed-shell coupled cluster)     Authors: C. Hampel, H.-J. Werner, 1991, M. Deegan, P.J. Knowles, 1992


 Convergence thresholds:  THRVAR = 1.00D-08  THRDEN = 1.00D-12

 CCSD(T)     terms to be evaluated (factor= 1.000)


 Number of core orbitals:           2 (   2   0 )
 Number of closed-shell orbitals:   6 (   5   1 )
 Number of external orbitals:      66 (  43  23 )

 Molecular orbitals read from record     2100.2  Type=RHF/CANONICAL (state 1.1)

 Number of N-1 electron functions:               6
 Number of N-2 electron functions:              21
 Number of singly external CSFs:               238
 Number of doubly external CSFs:             41002
 Total number of CSFs:                       41241

 Length of J-op  integral file:               0.00 MB
 Length of K-op  integral file:               0.25 MB
 Length of 3-ext integral record:             0.00 MB

 Memory could be reduced to 1.65 Mwords without degradation in triples

 Integral transformation finished. Total CPU:   0.02 sec, npass=  1  Memory used:   0.55 MW

 Reference energy:                   -129.91857303

 MP2 singlet pair energy:              -0.27299689
 MP2 triplet pair energy:              -0.16210308
 MP2 correlation energy:               -0.43509996
 MP2 total energy:                   -130.35367299

 SCS-MP2 correlation energy:           -0.42846040   (PS=  1.200000  PT=  0.333333)
 SCS-MP2 total energy:               -130.34703343

 ITER.      SQ.NORM     CORR.ENERGY   TOTAL ENERGY   ENERGY CHANGE        DEN1      VAR(S)    VAR(P)  DIIS     TIME  TIME/IT
   1      1.11757281    -0.44038569  -130.35895872    -0.00528573     0.01021248  0.28D-02  0.29D-02  1  1     0.08     0.04
   2      1.12822461    -0.44067801  -130.35925103    -0.00029231    -0.01211223  0.84D-04  0.49D-03  2  2     0.12     0.05
   3      1.13433017    -0.44104793  -130.35962096    -0.00036993    -0.00291909  0.44D-04  0.49D-04  3  3     0.17     0.05
   4      1.13705077    -0.44107512  -130.35964815    -0.00002719    -0.00093457  0.37D-05  0.86D-05  4  4     0.21     0.05
   5      1.13799938    -0.44110286  -130.35967589    -0.00002774    -0.00019651  0.13D-05  0.17D-05  5  5     0.25     0.05
   6      1.13834474    -0.44108714  -130.35966017     0.00001572    -0.00003913  0.87D-07  0.41D-06  6  6     0.29     0.05
   7      1.13842829    -0.44108928  -130.35966231    -0.00000213    -0.00000209  0.10D-07  0.86D-07  6  1     0.34     0.05
   8      1.13845789    -0.44108934  -130.35966237    -0.00000006     0.00000206  0.46D-08  0.96D-08  6  2     0.39     0.05
   9      1.13846511    -0.44108919  -130.35966222     0.00000015    -0.00000229  0.24D-08  0.11D-08  6  3     0.43     0.05
  10      1.13846383    -0.44108967  -130.35966270    -0.00000048     0.00000065  0.47D-09  0.19D-09  6  4     0.47     0.05
  11      1.13846219    -0.44108973  -130.35966276    -0.00000006     0.00000015  0.14D-09  0.21D-10  6  5     0.51     0.05
  12      1.13846087    -0.44108989  -130.35966292    -0.00000017     0.00000041  0.14D-10  0.68D-11  6  6     0.55     0.05
  13      1.13846032    -0.44108990  -130.35966293    -0.00000001     0.00000011  0.60D-11  0.11D-11  6  1     0.60     0.05
  14      1.13845996    -0.44108992  -130.35966295    -0.00000002     0.00000007  0.84D-12  0.39D-12  6  2     0.64     0.05
  15      1.13845983    -0.44108992  -130.35966295    -0.00000000     0.00000001  0.21D-12  0.13D-12  6  3     0.68     0.05
  16      1.13845974    -0.44108992  -130.35966295    -0.00000000     0.00000001  0.23D-13  0.15D-13  6  5     0.72     0.05
  17      1.13845972    -0.44108992  -130.35966295    -0.00000000     0.00000000  0.75D-15  0.21D-14  6  4     0.76     0.05
  18      1.13845971    -0.44108992  -130.35966295     0.00000000    -0.00000000  0.49D-15  0.30D-15  6  1     0.80     0.05
  19      1.13845971    -0.44108992  -130.35966295    -0.00000000     0.00000000  0.45D-16  0.54D-16  6  6     0.84     0.05
  20      1.13845971    -0.44108992  -130.35966295    -0.00000000     0.00000000  0.97D-17  0.13D-16  6  2     0.89     0.05
  21      1.13845971    -0.44108992  -130.35966295    -0.00000000     0.00000000  0.17D-17  0.97D-18  6  5     0.93     0.05
  22      1.13845971    -0.44108992  -130.35966295     0.00000000     0.00000000  0.10D-18  0.76D-19  6  3     0.98     0.05
  23      1.13845971    -0.44108992  -130.35966295     0.00000000    -0.00000000  0.30D-19  0.16D-19  6  4     1.02     0.05
  24      1.13845971    -0.44108992  -130.35966295     0.00000000    -0.00000000  0.44D-20  0.46D-20  6  1     1.07     0.05
  25      1.13845971    -0.44108992  -130.35966295     0.00000000    -0.00000000  0.49D-21  0.78D-21  6  6     1.11     0.05

 Norm of t1 vector:      0.07371734      S-energy:     0.00000000      T1 diagnostic:  0.01504749
                                                                       D1 diagnostic:  0.04176533

 Doubles amplitudes (print threshold =  0.500E-01):

         I         J         SYM. A    SYM. B    A         B      T(IJ, AB)

         6         6         2         2         1         1     -0.14243207


 Total CPU time for triples:      0.27 sec


 RESULTS
 =======

  Reference energy                   -129.918573028189
  CCSD singlet pair energy             -0.302243549773
  CCSD triplet pair energy             -0.138846373478
  CCSD correlation energy              -0.441089923251

  Triples (T) contribution             -0.019576010164
  Total correlation energy             -0.460665933414

  CCSD total energy                  -130.359662951439
  CCSD[T] energy                     -130.380225997700
  CCSD-T energy                      -130.378850132479
 !CCSD(T) total energy               -130.379238961603

 Timing summary (sec):

 STEP                 CPU(USER)    SYS     CPU(TOT)    WALL
 Transformation          0.03      0.02      0.05      0.05
 CCSD iterations         1.09      0.13      1.22      1.22
 Triples                 0.27      0.01      0.28      0.28

 Program statistics:

 Available memory in ccsd:               994999756
 Min. memory needed in ccsd:                154850
 Max. memory used in ccsd:                  184802
 Max. memory used in cckext:                238416 (25 integral passes)



 **********************************************************************************************************************************
 DATASETS  * FILE   NREC   LENGTH (MB)   RECORD NAMES
              1      24       40.41       500      610      700      900      950      970     1000      129      960     1700   
                                          VAR    BASINP    GEOM    SYMINP    ZMAT    AOBASIS   BASIS     P2S    ABASIS    OPER   
                                         1101     1401     1411     1412     1650     1100     1400     1410     1200     1210   
                                          SR      EKINR    POTR     PVPR    MOLCAS      S      EKIN      POT      H0       H01  
                                         1300     1080     1600     1380   
                                         ERIS     AOSYM     SMH     JKOP   

              2       4        2.85       700     1000      520     2100   
                                         GEOM     BASIS   MCVARS     RHF  

 PROGRAMS   *        TOTAL   CCSD(T)        HF       INT
 CPU TIMES  *         2.41      1.42      0.26      0.63
 REAL TIME  *         3.45 SEC
 DISK USED  *        75.75 MB      
 **********************************************************************************************************************************

 CCSD(T)/cc-pVTZ-DK energy=   -130.379238961603

        CCSD(T)         HF-SCF  
   -130.37923896   -129.91857303
 **********************************************************************************************************************************
 Molpro calculation terminated
 Variable memory released
