
 Primary working directories    : /tmp/r2666/282676.maple
 Secondary working directories  : /tmp/r2666/282676.maple
 Wavefunction directory         : /ddn/home4/r2666/wfu/
 Main file repository           : /tmp/r2666/282676.maple/

 SHA1      : d5ffa45e93fdbca01ffc919aa182cfdae0147319
 NAME      : 2015.1.35
 ARCHNAME  : linux/x86_64
 FC        : /opt/intel/composer_xe_2015.1.133/bin/intel64/ifort
 BLASLIB   : -Wl,-_start-group /opt/intel/mkl/lib/intel64/libmkl_intel_ilp64.a /opt/intel/mkl/lib/intel64/libmkl_intel_thread.a /opt/intel/mkl/lib/intel64/libmkl_core.a -Wl,-_end-group
 id        : olemiss

 Nodes     nprocs
 cn063        1

 Using customized tuning parameters: mindgm=1; mindgv=20; mindgc=4; mindgr=1; noblas=0; minvec=7
 default implementation of scratch files=df  

 ***,hno CCSD(T)/TZ-F12 QFF
 memory, 995, m;
 gthresh,energy=1.d-12,zero=1.d-22,oneint=1.d-22,twoint=1.d-22;
 gthresh,optgrad=1.d-8,optstep=1.d-8;
 nocompress;
 geomtyp=xyz
 bohr
 geometry={
 3
         57        57
 H        0.0000000000        1.6658293541       -1.9234668749
 N        0.0000000000       -0.1637086659       -1.1455474363
 O        0.0000000000        0.0396471018        1.1184247202
 }
 
 basis=vtz-dk
 dkroll=1
   {hf,maxit=500;accu,20;}
 {ccsd(t),nocheck,maxit=250;orbital,IGNORE_ERROR;}

 Variables initialized (889), CPU time= 0.01 sec
 Commands  initialized (702), CPU time= 0.00 sec, 572 directives.
 Default parameters read. Elapsed time= 0.05 sec

 Checking input...
 Passed
1


                                         ***  PROGRAM SYSTEM MOLPRO  ***
                                       Copyright, TTI GmbH Stuttgart, 2015
                                    Version 2015.1 linked Jul  9 2018 13:16:40


 **********************************************************************************************************************************
 LABEL *   hno CCSD(T)/TZ-F12 QFF                                                        
  64 bit serial version                                                                  DATE: 04-Mar-20          TIME: 13:51:11  
 **********************************************************************************************************************************

 SHA1:             d5ffa45e93fdbca01ffc919aa182cfdae0147319
 **********************************************************************************************************************************

 THRESHOLDS:

 ZERO    =  1.00D-22  ONEINT  =  1.00D-22  TWOINT  =  1.00D-22  PREFAC  =  1.00D-14  LOCALI  =  1.00D-09  EORDER  =  1.00D-04
 ENERGY  =  1.00D-12  ETEST   =  0.00D+00  EDENS   =  0.00D+00  THRDEDEF=  1.00D-06  GRADIENT=  1.00D-02  STEP    =  1.00D-03
 ORBITAL =  1.00D-05  CIVEC   =  1.00D-05  COEFF   =  1.00D-04  PRINTCI =  5.00D-02  PUNCHCI =  9.90D+01  OPTGRAD =  3.00D-04
 OPTENERG=  1.00D-06  OPTSTEP =  3.00D-04  THRGRAD =  1.00D-10  COMPRESS=  1.00D-11  VARMIN  =  1.00D-07  VARMAX  =  1.00D-03
 THRDOUB =  0.00D+00  THRDIV  =  1.00D-05  THRRED  =  1.00D-07  THRPSP  =  1.00D+00  THRDC   =  1.00D-10  THRCS   =  1.00D-10
 THRNRM  =  1.00D-08  THREQ   =  0.00D+00  THRDE   =  1.00D+00  THRREF  =  1.00D-05  SPARFAC =  1.00D+00  THRDLP  =  1.00D-07
 THRDIA  =  1.00D-10  THRDLS  =  1.00D-07  THRGPS  =  0.00D+00  THRKEX  =  0.00D+00  THRDIS  =  2.00D-01  THRVAR  =  1.00D-10
 THRLOC  =  1.00D-06  THRGAP  =  1.00D-06  THRLOCT = -1.00D+00  THRGAPT = -1.00D+00  THRORB  =  1.00D-06  THRMLTP =  0.00D+00
 THRCPQCI=  1.00D-10  KEXTA   =  0.00D+00  THRCOARS=  0.00D+00  SYMTOL  =  1.00D-06  GRADTOL =  1.00D-06  THROVL  =  1.00D-08
 THRORTH =  1.00D-08  GRID    =  1.00D-06  GRIDMAX =  1.00D-03  DTMAX   =  0.00D+00  THROCCDE=  1.00D-01  THROCCDE=  1.00D-01



 THRESHOLDS:

 ZERO    =  1.00D-22  ONEINT  =  1.00D-22  TWOINT  =  1.00D-22  PREFAC  =  1.00D-14  LOCALI  =  1.00D-09  EORDER  =  1.00D-04
 ENERGY  =  1.00D-12  ETEST   =  0.00D+00  EDENS   =  0.00D+00  THRDEDEF=  1.00D-06  GRADIENT=  1.00D-02  STEP    =  1.00D-03
 ORBITAL =  1.00D-05  CIVEC   =  1.00D-05  COEFF   =  1.00D-04  PRINTCI =  5.00D-02  PUNCHCI =  9.90D+01  OPTGRAD =  1.00D-08
 OPTENERG=  1.00D-06  OPTSTEP =  1.00D-08  THRGRAD =  1.00D-10  COMPRESS=  1.00D-11  VARMIN  =  1.00D-07  VARMAX  =  1.00D-03
 THRDOUB =  0.00D+00  THRDIV  =  1.00D-05  THRRED  =  1.00D-07  THRPSP  =  1.00D+00  THRDC   =  1.00D-10  THRCS   =  1.00D-10
 THRNRM  =  1.00D-08  THREQ   =  0.00D+00  THRDE   =  1.00D+00  THRREF  =  1.00D-05  SPARFAC =  1.00D+00  THRDLP  =  1.00D-07
 THRDIA  =  1.00D-10  THRDLS  =  1.00D-07  THRGPS  =  0.00D+00  THRKEX  =  0.00D+00  THRDIS  =  2.00D-01  THRVAR  =  1.00D-10
 THRLOC  =  1.00D-06  THRGAP  =  1.00D-06  THRLOCT = -1.00D+00  THRGAPT = -1.00D+00  THRORB  =  1.00D-06  THRMLTP =  0.00D+00
 THRCPQCI=  1.00D-10  KEXTA   =  0.00D+00  THRCOARS=  0.00D+00  SYMTOL  =  1.00D-06  GRADTOL =  1.00D-06  THROVL  =  1.00D-08
 THRORTH =  1.00D-08  GRID    =  1.00D-06  GRIDMAX =  1.00D-03  DTMAX   =  0.00D+00  THROCCDE=  1.00D-01  THROCCDE=  1.00D-01



 Input parameters for SORTINT:

 COMPRESS =    0.000000
 C_FINAL  =    1.000000
 DEBUG    =   -1.000000
 C_SORT1  =    0.000000
 C_SEWARD =    0.000000
 THRESH   =    0.000000
 IO       =  molpro                                                          
 SPRI     =    0.000000
 SETTING GEOMTYP        =    XYZ
 ZUNIT=BOHR
 

 Variable memory set to  995000000 words,  buffer space   230000 words

 SETTING BASIS          =    VTZ-DK
 SETTING DKROLL         =         1.00000000                                  


 Recomputing integrals since basis changed


 Using spherical harmonics

 Library entry H      S cc-pVTZ-DK           selected for orbital group  1
 Library entry H      P cc-pVTZ-DK           selected for orbital group  1
 Library entry H      D cc-pVTZ-DK           selected for orbital group  1
 Library entry N      S cc-pVTZ-DK           selected for orbital group  2
 Library entry N      P cc-pVTZ-DK           selected for orbital group  2
 Library entry N      D cc-pVTZ-DK           selected for orbital group  2
 Library entry N      F cc-pVTZ-DK           selected for orbital group  2
 Library entry O      S cc-pVTZ-DK           selected for orbital group  3
 Library entry O      P cc-pVTZ-DK           selected for orbital group  3
 Library entry O      D cc-pVTZ-DK           selected for orbital group  3
 Library entry O      F cc-pVTZ-DK           selected for orbital group  3


 PROGRAM * SEWARD (Integral evaluation for generally contracted gaussian basis sets)     Author: Roland Lindh, 1990

 Geometry written to block  1 of record 700


 Point group  Cs  



 ATOMIC COORDINATES

 NR  ATOM    CHARGE       X              Y              Z

   1  H       1.00    0.000000000    1.665829354   -1.923466875
   2  N       7.00    0.000000000   -0.163708666   -1.145547436
   3  O       8.00    0.000000000    0.039647102    1.118424720

 Bond lengths in Bohr (Angstrom)

 1-2  1.988056342  2-3  2.273086777
     ( 1.052034110)     ( 1.202865721)

 Bond angles

  1-2-3  107.90251459

 NUCLEAR CHARGE:                   16
 NUMBER OF PRIMITIVE AOS:         111
 NUMBER OF SYMMETRY AOS:          100
 NUMBER OF CONTRACTIONS:           74   (  50A'  +  24A"  )
 NUMBER OF CORE ORBITALS:           2   (   2A'  +   0A"  )
 NUMBER OF VALENCE ORBITALS:        9   (   7A'  +   2A"  )


 NUCLEAR REPULSION ENERGY   30.47645064

 One-electron integrals computed with SEWARD

 2nd-order Douglas-Kroll-Hess method activated. Optimal DKH parametrization is used.

 Computing Douglas-Kroll / X2C integrals


        1874283. INTEGRALS WRITTEN OUT IN     458 BLOCKS ON RECORD 1290 OF FILE 1


 NUMBER OF SORTED TWO-ELECTRON INTEGRALS:    2006100.     BUFFER LENGTH:  32768
 NUMBER OF SEGMENTS:   1  SEGMENT LENGTH:    2006100      RECORD LENGTH: 524288

 Memory used in sort:       2.56 MW

 SORT1 READ     1874283. AND WROTE     1914195. INTEGRALS IN      6 RECORDS. CPU TIME:     0.04 SEC, REAL TIME:     0.06 SEC
 SORT2 READ     1914195. AND WROTE     2006100. INTEGRALS IN      1 RECORDS. CPU TIME:     0.03 SEC, REAL TIME:     0.06 SEC

 FILE SIZES:   FILE 1:    50.2 MBYTE,  FILE 4:    25.2 MBYTE,   TOTAL:     75.4 MBYTE

 OPERATOR DM      FOR CENTER  0  COORDINATES:    0.000000    0.000000    0.000000

 Eigenvalues of metric

         1 0.243E-02 0.395E-02 0.409E-02 0.832E-02 0.130E-01 0.324E-01 0.423E-01 0.463E-01
         2 0.340E-01 0.464E-01 0.101E+00 0.111E+00 0.232E+00 0.341E+00 0.394E+00 0.448E+00


 **********************************************************************************************************************************
 DATASETS  * FILE   NREC   LENGTH (MB)   RECORD NAMES
              1      23       36.03       500      610      700      900      950      970     1000      129      960     1700   
                                          VAR    BASINP    GEOM    SYMINP    ZMAT    AOBASIS   BASIS     P2S    ABASIS    OPER   
                                         1101     1401     1411     1412     1650     1100     1400     1410     1200     1210   
                                          SR      EKINR    POTR     PVPR    MOLCAS      S      EKIN      POT      H0       H01  
                                         1300     1080     1600   
                                         ERIS     AOSYM     SMH  

 PROGRAMS   *        TOTAL       INT
 CPU TIMES  *         0.62      0.53
 REAL TIME  *         1.27 SEC
 DISK USED  *        75.75 MB      
 **********************************************************************************************************************************


 PROGRAM * RHF-SCF (CLOSED SHELL)       Authors: W. Meyer, H.-J. Werner


 NUMBER OF ELECTRONS:       8+    8-
 CONVERGENCE THRESHOLDS:    1.00E-10 (Density)    1.00E-13 (Energy)
 MAX. NUMBER OF ITERATIONS:      500
 INTERPOLATION TYPE:            DIIS
 INTERPOLATION STEPS:              2 (START)      1 (STEP)
 LEVEL SHIFTS:                  0.00 (CLOSED)  0.00 (OPEN) 



 Orbital guess generated from atomic densities. Full valence occupancy:    9   2

 Molecular orbital dump at record        2100.2

 Initial occupancy:   7   1

 ITERATION    DDIFF          GRAD             ENERGY        2-EL.EN.            DIPOLE MOMENTS         DIIS   ORB.
    1      0.000D+00      0.000D+00      -129.86891050    154.419284    0.00000    0.58567   -1.02357    0    start
    2      0.000D+00      0.135D-01      -129.89578779    155.537761    0.00000    0.61153   -0.22186    1    diag
    3      0.184D-01      0.102D-01      -129.91741714    155.658004    0.00000    0.55941   -0.59225    2    diag
    4      0.889D-02      0.154D-02      -129.91814276    155.395977    0.00000    0.56811   -0.53384    3    diag
    5      0.165D-02      0.511D-03      -129.91825552    155.481100    0.00000    0.57346   -0.53495    4    diag
    6      0.712D-03      0.153D-03      -129.91827418    155.466204    0.00000    0.57400   -0.53085    5    diag
    7      0.276D-03      0.760D-04      -129.91827960    155.468549    0.00000    0.57524   -0.52840    6    diag
    8      0.190D-03      0.240D-04      -129.91828009    155.467878    0.00000    0.57525   -0.52761    7    diag
    9      0.630D-04      0.435D-05      -129.91828011    155.467766    0.00000    0.57520   -0.52747    8    diag
   10      0.121D-04      0.967D-06      -129.91828011    155.467749    0.00000    0.57517   -0.52744    9    orth
   11      0.275D-05      0.190D-06      -129.91828011    155.467745    0.00000    0.57516   -0.52744    9    diag
   12      0.505D-06      0.394D-07      -129.91828011    155.467743    0.00000    0.57516   -0.52744    9    diag
   13      0.110D-06      0.968D-08      -129.91828011    155.467743    0.00000    0.57516   -0.52744    9    diag
   14      0.273D-07      0.176D-08      -129.91828011    155.467743    0.00000    0.57516   -0.52744    9    diag
   15      0.444D-08      0.461D-09      -129.91828011    155.467743    0.00000    0.57516   -0.52744    9    diag
   16      0.106D-08      0.115D-09      -129.91828011    155.467743    0.00000    0.57516   -0.52744    9    diag
   17      0.197D-09      0.334D-10      -129.91828011    155.467743    0.00000    0.57516   -0.52744    9    diag
   18      0.621D-10      0.112D-10      -129.91828011    155.467743    0.00000    0.57516   -0.52744    9    diag
   19      0.264D-10      0.246D-11      -129.91828011    155.467743    0.00000    0.57516   -0.52744    0    orth

 Final occupancy:   7   1

 !RHF STATE 1.1 Energy               -129.918280114530
 Nuclear energy                        30.47645064
 One-electron energy                 -238.12860231
 Two-electron energy                   77.73387156
 Virial quotient                       -0.99739456
 !RHF STATE 1.1 Dipole moment           0.00000000     0.57515875    -0.52743688
 Dipole moment /Debye                   0.00000000     1.46181199    -1.34052303

 Orbital energies:

         1.1          2.1          3.1          4.1          5.1          6.1          7.1          8.1          9.1
    -20.664484   -15.715978    -1.531725    -0.990782    -0.744629    -0.663149    -0.425381     0.144401     0.370263

         1.2          2.2          3.2
     -0.594302     0.088399     0.612483

 HOMO      7.1    -0.425381 =     -11.5752eV
 LUMO      2.2     0.088399 =       2.4055eV
 LUMO-HOMO         0.513780 =      13.9807eV


 **********************************************************************************************************************************
 DATASETS  * FILE   NREC   LENGTH (MB)   RECORD NAMES
              1      23       36.03       500      610      700      900      950      970     1000      129      960     1700   
                                          VAR    BASINP    GEOM    SYMINP    ZMAT    AOBASIS   BASIS     P2S    ABASIS    OPER   
                                         1101     1401     1411     1412     1650     1100     1400     1410     1200     1210   
                                          SR      EKINR    POTR     PVPR    MOLCAS      S      EKIN      POT      H0       H01  
                                         1300     1080     1600   
                                         ERIS     AOSYM     SMH  

              2       4        2.85       700     1000      520     2100   
                                         GEOM     BASIS   MCVARS     RHF  

 PROGRAMS   *        TOTAL        HF       INT
 CPU TIMES  *         0.84      0.22      0.53
 REAL TIME  *         1.53 SEC
 DISK USED  *        75.75 MB      
 **********************************************************************************************************************************


 PROGRAM * CCSD (Closed-shell coupled cluster)     Authors: C. Hampel, H.-J. Werner, 1991, M. Deegan, P.J. Knowles, 1992


 Convergence thresholds:  THRVAR = 1.00D-08  THRDEN = 1.00D-12

 CCSD(T)     terms to be evaluated (factor= 1.000)


 Number of core orbitals:           2 (   2   0 )
 Number of closed-shell orbitals:   6 (   5   1 )
 Number of external orbitals:      66 (  43  23 )

 Molecular orbitals read from record     2100.2  Type=RHF/CANONICAL (state 1.1)

 Number of N-1 electron functions:               6
 Number of N-2 electron functions:              21
 Number of singly external CSFs:               238
 Number of doubly external CSFs:             41002
 Total number of CSFs:                       41241

 Length of J-op  integral file:               0.00 MB
 Length of K-op  integral file:               0.25 MB
 Length of 3-ext integral record:             0.00 MB

 Memory could be reduced to 1.65 Mwords without degradation in triples

 Integral transformation finished. Total CPU:   0.02 sec, npass=  1  Memory used:   0.55 MW

 Reference energy:                   -129.91828011

 MP2 singlet pair energy:              -0.27323159
 MP2 triplet pair energy:              -0.16223708
 MP2 correlation energy:               -0.43546868
 MP2 total energy:                   -130.35374879

 SCS-MP2 correlation energy:           -0.42882543   (PS=  1.200000  PT=  0.333333)
 SCS-MP2 total energy:               -130.34710554

 ITER.      SQ.NORM     CORR.ENERGY   TOTAL ENERGY   ENERGY CHANGE        DEN1      VAR(S)    VAR(P)  DIIS     TIME  TIME/IT
   1      1.11790268    -0.44073101  -130.35901112    -0.00526233     0.01031649  0.29D-02  0.29D-02  1  1     0.07     0.05
   2      1.12861641    -0.44102009  -130.35930021    -0.00028909    -0.01216290  0.85D-04  0.49D-03  2  2     0.12     0.05
   3      1.13478057    -0.44139645  -130.35967657    -0.00037636    -0.00294163  0.45D-04  0.49D-04  3  3     0.17     0.05
   4      1.13751889    -0.44142264  -130.35970275    -0.00002618    -0.00094074  0.38D-05  0.86D-05  4  4     0.21     0.05
   5      1.13848082    -0.44145103  -130.35973115    -0.00002839    -0.00019947  0.13D-05  0.16D-05  5  5     0.26     0.05
   6      1.13883038    -0.44143512  -130.35971523     0.00001592    -0.00003961  0.96D-07  0.40D-06  6  6     0.31     0.05
   7      1.13891516    -0.44143706  -130.35971717    -0.00000194    -0.00000220  0.12D-07  0.84D-07  6  1     0.36     0.05
   8      1.13894532    -0.44143709  -130.35971720    -0.00000003     0.00000190  0.43D-08  0.98D-08  6  2     0.41     0.05
   9      1.13895278    -0.44143690  -130.35971702     0.00000018    -0.00000224  0.24D-08  0.11D-08  6  3     0.46     0.05
  10      1.13895156    -0.44143739  -130.35971751    -0.00000049     0.00000062  0.47D-09  0.19D-09  6  4     0.51     0.05
  11      1.13894988    -0.44143745  -130.35971756    -0.00000006     0.00000018  0.14D-09  0.22D-10  6  5     0.56     0.05
  12      1.13894853    -0.44143762  -130.35971773    -0.00000017     0.00000042  0.15D-10  0.71D-11  6  6     0.61     0.05
  13      1.13894794    -0.44143762  -130.35971774    -0.00000001     0.00000012  0.64D-11  0.11D-11  6  1     0.66     0.05
  14      1.13894758    -0.44143764  -130.35971776    -0.00000002     0.00000007  0.89D-12  0.40D-12  6  2     0.71     0.05
  15      1.13894744    -0.44143764  -130.35971776    -0.00000000     0.00000001  0.23D-12  0.13D-12  6  3     0.76     0.05
  16      1.13894735    -0.44143764  -130.35971776    -0.00000000     0.00000001  0.24D-13  0.15D-13  6  5     0.81     0.05
  17      1.13894732    -0.44143765  -130.35971776    -0.00000000     0.00000000  0.69D-15  0.21D-14  6  4     0.86     0.05
  18      1.13894732    -0.44143765  -130.35971776     0.00000000    -0.00000000  0.46D-15  0.30D-15  6  1     0.90     0.05
  19      1.13894732    -0.44143765  -130.35971776    -0.00000000     0.00000000  0.42D-16  0.53D-16  6  6     0.96     0.05
  20      1.13894731    -0.44143765  -130.35971776    -0.00000000     0.00000000  0.91D-17  0.13D-16  6  2     1.00     0.05
  21      1.13894731    -0.44143765  -130.35971776    -0.00000000     0.00000000  0.17D-17  0.98D-18  6  5     1.05     0.05
  22      1.13894731    -0.44143765  -130.35971776     0.00000000     0.00000000  0.10D-18  0.74D-19  6  3     1.10     0.05
  23      1.13894731    -0.44143765  -130.35971776     0.00000000    -0.00000000  0.29D-19  0.16D-19  6  4     1.14     0.05
  24      1.13894731    -0.44143765  -130.35971776     0.00000000    -0.00000000  0.42D-20  0.44D-20  6  1     1.19     0.05
  25      1.13894731    -0.44143765  -130.35971776     0.00000000    -0.00000000  0.52D-21  0.75D-21  6  6     1.24     0.05

 Norm of t1 vector:      0.07417490      S-energy:     0.00000000      T1 diagnostic:  0.01514089
                                                                       D1 diagnostic:  0.04176814

 Doubles amplitudes (print threshold =  0.500E-01):

         I         J         SYM. A    SYM. B    A         B      T(IJ, AB)

         6         6         2         2         1         1     -0.14230887


 Total CPU time for triples:      0.36 sec


 RESULTS
 =======

  Reference energy                   -129.918280114530
  CCSD singlet pair energy             -0.302542017616
  CCSD triplet pair energy             -0.138895629016
  CCSD correlation energy              -0.441437646631

  Triples (T) contribution             -0.019636983187
  Total correlation energy             -0.461074629818

  CCSD total energy                  -130.359717761162
  CCSD[T] energy                     -130.380350965512
  CCSD-T energy                      -130.378962215712
 !CCSD(T) total energy               -130.379354744349

 Timing summary (sec):

 STEP                 CPU(USER)    SYS     CPU(TOT)    WALL
 Transformation          0.03      0.03      0.06      0.05
 CCSD iterations         1.22      0.07      1.29      1.30
 Triples                 0.36      0.01      0.37      0.37

 Program statistics:

 Available memory in ccsd:               994999756
 Min. memory needed in ccsd:                154850
 Max. memory used in ccsd:                  184802
 Max. memory used in cckext:                238416 (25 integral passes)



 **********************************************************************************************************************************
 DATASETS  * FILE   NREC   LENGTH (MB)   RECORD NAMES
              1      24       40.41       500      610      700      900      950      970     1000      129      960     1700   
                                          VAR    BASINP    GEOM    SYMINP    ZMAT    AOBASIS   BASIS     P2S    ABASIS    OPER   
                                         1101     1401     1411     1412     1650     1100     1400     1410     1200     1210   
                                          SR      EKINR    POTR     PVPR    MOLCAS      S      EKIN      POT      H0       H01  
                                         1300     1080     1600     1380   
                                         ERIS     AOSYM     SMH     JKOP   

              2       4        2.85       700     1000      520     2100   
                                         GEOM     BASIS   MCVARS     RHF  

 PROGRAMS   *        TOTAL   CCSD(T)        HF       INT
 CPU TIMES  *         2.48      1.64      0.22      0.53
 REAL TIME  *         3.29 SEC
 DISK USED  *        75.75 MB      
 **********************************************************************************************************************************

 CCSD(T)/cc-pVTZ-DK energy=   -130.379354744349

        CCSD(T)         HF-SCF  
   -130.37935474   -129.91828011
 **********************************************************************************************************************************
 Molpro calculation terminated
 Variable memory released
