
 Primary working directories    : /tmp/r2666/282628.maple
 Secondary working directories  : /tmp/r2666/282628.maple
 Wavefunction directory         : /ddn/home4/r2666/wfu/
 Main file repository           : /tmp/r2666/282628.maple/

 SHA1      : d5ffa45e93fdbca01ffc919aa182cfdae0147319
 NAME      : 2015.1.35
 ARCHNAME  : linux/x86_64
 FC        : /opt/intel/composer_xe_2015.1.133/bin/intel64/ifort
 BLASLIB   : -Wl,-_start-group /opt/intel/mkl/lib/intel64/libmkl_intel_ilp64.a /opt/intel/mkl/lib/intel64/libmkl_intel_thread.a /opt/intel/mkl/lib/intel64/libmkl_core.a -Wl,-_end-group
 id        : olemiss

 Nodes     nprocs
 cn095        1

 Using customized tuning parameters: mindgm=1; mindgv=20; mindgc=4; mindgr=1; noblas=0; minvec=7
 default implementation of scratch files=df  

 ***,hno CCSD(T)/TZ-F12 QFF
 memory, 995, m;
 gthresh,energy=1.d-12,zero=1.d-22,oneint=1.d-22,twoint=1.d-22;
 gthresh,optgrad=1.d-8,optstep=1.d-8;
 nocompress;
 geomtyp=xyz
 bohr
 geometry={
 3
          9         9
 H        0.0000000000        1.6567190063       -1.9163002116
 N        0.0000000000       -0.1569350077       -1.1493278468
 O        0.0000000000        0.0419837913        1.1150384674
 }
 
 basis=vtz-dk
 dkroll=1
   {hf,maxit=500;accu,20;}
 {ccsd(t),nocheck,maxit=250;orbital,IGNORE_ERROR;}

 Variables initialized (889), CPU time= 0.00 sec
 Commands  initialized (702), CPU time= 0.02 sec, 572 directives.
 Default parameters read. Elapsed time= 0.04 sec

 Checking input...
 Passed
1


                                         ***  PROGRAM SYSTEM MOLPRO  ***
                                       Copyright, TTI GmbH Stuttgart, 2015
                                    Version 2015.1 linked Jul  9 2018 13:16:40


 **********************************************************************************************************************************
 LABEL *   hno CCSD(T)/TZ-F12 QFF                                                        
  64 bit serial version                                                                  DATE: 04-Mar-20          TIME: 13:51:06  
 **********************************************************************************************************************************

 SHA1:             d5ffa45e93fdbca01ffc919aa182cfdae0147319
 **********************************************************************************************************************************

 THRESHOLDS:

 ZERO    =  1.00D-22  ONEINT  =  1.00D-22  TWOINT  =  1.00D-22  PREFAC  =  1.00D-14  LOCALI  =  1.00D-09  EORDER  =  1.00D-04
 ENERGY  =  1.00D-12  ETEST   =  0.00D+00  EDENS   =  0.00D+00  THRDEDEF=  1.00D-06  GRADIENT=  1.00D-02  STEP    =  1.00D-03
 ORBITAL =  1.00D-05  CIVEC   =  1.00D-05  COEFF   =  1.00D-04  PRINTCI =  5.00D-02  PUNCHCI =  9.90D+01  OPTGRAD =  3.00D-04
 OPTENERG=  1.00D-06  OPTSTEP =  3.00D-04  THRGRAD =  1.00D-10  COMPRESS=  1.00D-11  VARMIN  =  1.00D-07  VARMAX  =  1.00D-03
 THRDOUB =  0.00D+00  THRDIV  =  1.00D-05  THRRED  =  1.00D-07  THRPSP  =  1.00D+00  THRDC   =  1.00D-10  THRCS   =  1.00D-10
 THRNRM  =  1.00D-08  THREQ   =  0.00D+00  THRDE   =  1.00D+00  THRREF  =  1.00D-05  SPARFAC =  1.00D+00  THRDLP  =  1.00D-07
 THRDIA  =  1.00D-10  THRDLS  =  1.00D-07  THRGPS  =  0.00D+00  THRKEX  =  0.00D+00  THRDIS  =  2.00D-01  THRVAR  =  1.00D-10
 THRLOC  =  1.00D-06  THRGAP  =  1.00D-06  THRLOCT = -1.00D+00  THRGAPT = -1.00D+00  THRORB  =  1.00D-06  THRMLTP =  0.00D+00
 THRCPQCI=  1.00D-10  KEXTA   =  0.00D+00  THRCOARS=  0.00D+00  SYMTOL  =  1.00D-06  GRADTOL =  1.00D-06  THROVL  =  1.00D-08
 THRORTH =  1.00D-08  GRID    =  1.00D-06  GRIDMAX =  1.00D-03  DTMAX   =  0.00D+00  THROCCDE=  1.00D-01  THROCCDE=  1.00D-01



 THRESHOLDS:

 ZERO    =  1.00D-22  ONEINT  =  1.00D-22  TWOINT  =  1.00D-22  PREFAC  =  1.00D-14  LOCALI  =  1.00D-09  EORDER  =  1.00D-04
 ENERGY  =  1.00D-12  ETEST   =  0.00D+00  EDENS   =  0.00D+00  THRDEDEF=  1.00D-06  GRADIENT=  1.00D-02  STEP    =  1.00D-03
 ORBITAL =  1.00D-05  CIVEC   =  1.00D-05  COEFF   =  1.00D-04  PRINTCI =  5.00D-02  PUNCHCI =  9.90D+01  OPTGRAD =  1.00D-08
 OPTENERG=  1.00D-06  OPTSTEP =  1.00D-08  THRGRAD =  1.00D-10  COMPRESS=  1.00D-11  VARMIN  =  1.00D-07  VARMAX  =  1.00D-03
 THRDOUB =  0.00D+00  THRDIV  =  1.00D-05  THRRED  =  1.00D-07  THRPSP  =  1.00D+00  THRDC   =  1.00D-10  THRCS   =  1.00D-10
 THRNRM  =  1.00D-08  THREQ   =  0.00D+00  THRDE   =  1.00D+00  THRREF  =  1.00D-05  SPARFAC =  1.00D+00  THRDLP  =  1.00D-07
 THRDIA  =  1.00D-10  THRDLS  =  1.00D-07  THRGPS  =  0.00D+00  THRKEX  =  0.00D+00  THRDIS  =  2.00D-01  THRVAR  =  1.00D-10
 THRLOC  =  1.00D-06  THRGAP  =  1.00D-06  THRLOCT = -1.00D+00  THRGAPT = -1.00D+00  THRORB  =  1.00D-06  THRMLTP =  0.00D+00
 THRCPQCI=  1.00D-10  KEXTA   =  0.00D+00  THRCOARS=  0.00D+00  SYMTOL  =  1.00D-06  GRADTOL =  1.00D-06  THROVL  =  1.00D-08
 THRORTH =  1.00D-08  GRID    =  1.00D-06  GRIDMAX =  1.00D-03  DTMAX   =  0.00D+00  THROCCDE=  1.00D-01  THROCCDE=  1.00D-01



 Input parameters for SORTINT:

 COMPRESS =    0.000000
 C_FINAL  =    1.000000
 DEBUG    =   -1.000000
 C_SORT1  =    0.000000
 C_SEWARD =    0.000000
 THRESH   =    0.000000
 IO       =  molpro                                                          
 SPRI     =    0.000000
 SETTING GEOMTYP        =    XYZ
 ZUNIT=BOHR
 

 Variable memory set to  995000000 words,  buffer space   230000 words

 SETTING BASIS          =    VTZ-DK
 SETTING DKROLL         =         1.00000000                                  


 Recomputing integrals since basis changed


 Using spherical harmonics

 Library entry H      S cc-pVTZ-DK           selected for orbital group  1
 Library entry H      P cc-pVTZ-DK           selected for orbital group  1
 Library entry H      D cc-pVTZ-DK           selected for orbital group  1
 Library entry N      S cc-pVTZ-DK           selected for orbital group  2
 Library entry N      P cc-pVTZ-DK           selected for orbital group  2
 Library entry N      D cc-pVTZ-DK           selected for orbital group  2
 Library entry N      F cc-pVTZ-DK           selected for orbital group  2
 Library entry O      S cc-pVTZ-DK           selected for orbital group  3
 Library entry O      P cc-pVTZ-DK           selected for orbital group  3
 Library entry O      D cc-pVTZ-DK           selected for orbital group  3
 Library entry O      F cc-pVTZ-DK           selected for orbital group  3


 PROGRAM * SEWARD (Integral evaluation for generally contracted gaussian basis sets)     Author: Roland Lindh, 1990

 Geometry written to block  1 of record 700


 Point group  Cs  



 ATOMIC COORDINATES

 NR  ATOM    CHARGE       X              Y              Z

   1  H       1.00    0.000000000    1.656719006   -1.916300212
   2  N       7.00    0.000000000   -0.156935008   -1.149327847
   3  O       8.00    0.000000000    0.041983791    1.115038467

 Bond lengths in Bohr (Angstrom)

 1-2  1.969159082  2-3  2.273086776
     ( 1.042034111)     ( 1.202865721)

 Bond angles

  1-2-3  107.90251459

 NUCLEAR CHARGE:                   16
 NUMBER OF PRIMITIVE AOS:         111
 NUMBER OF SYMMETRY AOS:          100
 NUMBER OF CONTRACTIONS:           74   (  50A'  +  24A"  )
 NUMBER OF CORE ORBITALS:           2   (   2A'  +   0A"  )
 NUMBER OF VALENCE ORBITALS:        9   (   7A'  +   2A"  )


 NUCLEAR REPULSION ENERGY   30.52016688

 One-electron integrals computed with SEWARD

 2nd-order Douglas-Kroll-Hess method activated. Optimal DKH parametrization is used.

 Computing Douglas-Kroll / X2C integrals


        1874283. INTEGRALS WRITTEN OUT IN     458 BLOCKS ON RECORD 1290 OF FILE 1


 NUMBER OF SORTED TWO-ELECTRON INTEGRALS:    2006100.     BUFFER LENGTH:  32768
 NUMBER OF SEGMENTS:   1  SEGMENT LENGTH:    2006100      RECORD LENGTH: 524288

 Memory used in sort:       2.56 MW

 SORT1 READ     1874283. AND WROTE     1914195. INTEGRALS IN      6 RECORDS. CPU TIME:     0.03 SEC, REAL TIME:     0.05 SEC
 SORT2 READ     1914195. AND WROTE     2006100. INTEGRALS IN      1 RECORDS. CPU TIME:     0.06 SEC, REAL TIME:     0.07 SEC

 FILE SIZES:   FILE 1:    50.2 MBYTE,  FILE 4:    25.2 MBYTE,   TOTAL:     75.4 MBYTE

 OPERATOR DM      FOR CENTER  0  COORDINATES:    0.000000    0.000000    0.000000

 Eigenvalues of metric

         1 0.240E-02 0.391E-02 0.408E-02 0.813E-02 0.128E-01 0.322E-01 0.422E-01 0.463E-01
         2 0.339E-01 0.463E-01 0.101E+00 0.109E+00 0.231E+00 0.337E+00 0.392E+00 0.447E+00


 **********************************************************************************************************************************
 DATASETS  * FILE   NREC   LENGTH (MB)   RECORD NAMES
              1      23       36.03       500      610      700      900      950      970     1000      129      960     1700   
                                          VAR    BASINP    GEOM    SYMINP    ZMAT    AOBASIS   BASIS     P2S    ABASIS    OPER   
                                         1101     1401     1411     1412     1650     1100     1400     1410     1200     1210   
                                          SR      EKINR    POTR     PVPR    MOLCAS      S      EKIN      POT      H0       H01  
                                         1300     1080     1600   
                                         ERIS     AOSYM     SMH  

 PROGRAMS   *        TOTAL       INT
 CPU TIMES  *         0.73      0.62
 REAL TIME  *         1.51 SEC
 DISK USED  *        75.75 MB      
 **********************************************************************************************************************************


 PROGRAM * RHF-SCF (CLOSED SHELL)       Authors: W. Meyer, H.-J. Werner


 NUMBER OF ELECTRONS:       8+    8-
 CONVERGENCE THRESHOLDS:    1.00E-10 (Density)    1.00E-13 (Energy)
 MAX. NUMBER OF ITERATIONS:      500
 INTERPOLATION TYPE:            DIIS
 INTERPOLATION STEPS:              2 (START)      1 (STEP)
 LEVEL SHIFTS:                  0.00 (CLOSED)  0.00 (OPEN) 



 Orbital guess generated from atomic densities. Full valence occupancy:    9   2

 Molecular orbital dump at record        2100.2

 Initial occupancy:   7   1

 ITERATION    DDIFF          GRAD             ENERGY        2-EL.EN.            DIPOLE MOMENTS         DIIS   ORB.
    1      0.000D+00      0.000D+00      -129.86963975    154.504942    0.00000    0.59203   -1.02211    0    start
    2      0.000D+00      0.134D-01      -129.89651726    155.612520    0.00000    0.61274   -0.22593    1    diag
    3      0.183D-01      0.101D-01      -129.91771233    155.735381    0.00000    0.56313   -0.59336    2    diag
    4      0.883D-02      0.154D-02      -129.91843602    155.474670    0.00000    0.57192   -0.53494    3    diag
    5      0.165D-02      0.508D-03      -129.91854693    155.559060    0.00000    0.57715   -0.53602    4    diag
    6      0.708D-03      0.151D-03      -129.91856516    155.544313    0.00000    0.57769   -0.53196    5    diag
    7      0.273D-03      0.754D-04      -129.91857048    155.546616    0.00000    0.57890   -0.52951    6    diag
    8      0.189D-03      0.238D-04      -129.91857097    155.545953    0.00000    0.57891   -0.52873    7    diag
    9      0.624D-04      0.428D-05      -129.91857099    155.545844    0.00000    0.57886   -0.52859    8    diag
   10      0.120D-04      0.953D-06      -129.91857099    155.545828    0.00000    0.57883   -0.52856    9    orth
   11      0.272D-05      0.187D-06      -129.91857099    155.545824    0.00000    0.57882   -0.52856    9    diag
   12      0.496D-06      0.385D-07      -129.91857099    155.545823    0.00000    0.57882   -0.52856    9    diag
   13      0.107D-06      0.942D-08      -129.91857099    155.545823    0.00000    0.57882   -0.52856    9    diag
   14      0.263D-07      0.171D-08      -129.91857099    155.545823    0.00000    0.57882   -0.52856    9    diag
   15      0.424D-08      0.443D-09      -129.91857099    155.545823    0.00000    0.57882   -0.52856    9    diag
   16      0.101D-08      0.109D-09      -129.91857099    155.545823    0.00000    0.57882   -0.52856    9    diag
   17      0.182D-09      0.304D-10      -129.91857099    155.545823    0.00000    0.57882   -0.52856    9    diag
   18      0.548D-10      0.101D-10      -129.91857099    155.545823    0.00000    0.57882   -0.52856    9    diag
   19      0.234D-10      0.219D-11      -129.91857099    155.545823    0.00000    0.57882   -0.52856    9    fixocc
   20      0.567D-11      0.435D-12      -129.91857099    155.545823    0.00000    0.57882   -0.52856    0    orth

 Final occupancy:   7   1

 !RHF STATE 1.1 Energy               -129.918570989116
 Nuclear energy                        30.52016688
 One-electron energy                 -238.21164914
 Two-electron energy                   77.77291127
 Virial quotient                       -0.99727363
 !RHF STATE 1.1 Dipole moment           0.00000000     0.57882129    -0.52855770
 Dipole moment /Debye                   0.00000000     1.47112063    -1.34337168

 Orbital energies:

         1.1          2.1          3.1          4.1          5.1          6.1          7.1          8.1          9.1
    -20.664264   -15.714584    -1.531827    -0.993318    -0.745697    -0.663128    -0.425958     0.145025     0.370230

         1.2          2.2          3.2
     -0.594137     0.088412     0.612508

 HOMO      7.1    -0.425958 =     -11.5909eV
 LUMO      2.2     0.088412 =       2.4058eV
 LUMO-HOMO         0.514370 =      13.9967eV


 **********************************************************************************************************************************
 DATASETS  * FILE   NREC   LENGTH (MB)   RECORD NAMES
              1      23       36.03       500      610      700      900      950      970     1000      129      960     1700   
                                          VAR    BASINP    GEOM    SYMINP    ZMAT    AOBASIS   BASIS     P2S    ABASIS    OPER   
                                         1101     1401     1411     1412     1650     1100     1400     1410     1200     1210   
                                          SR      EKINR    POTR     PVPR    MOLCAS      S      EKIN      POT      H0       H01  
                                         1300     1080     1600   
                                         ERIS     AOSYM     SMH  

              2       4        2.85       700     1000      520     2100   
                                         GEOM     BASIS   MCVARS     RHF  

 PROGRAMS   *        TOTAL        HF       INT
 CPU TIMES  *         0.96      0.23      0.62
 REAL TIME  *         1.83 SEC
 DISK USED  *        75.75 MB      
 **********************************************************************************************************************************


 PROGRAM * CCSD (Closed-shell coupled cluster)     Authors: C. Hampel, H.-J. Werner, 1991, M. Deegan, P.J. Knowles, 1992


 Convergence thresholds:  THRVAR = 1.00D-08  THRDEN = 1.00D-12

 CCSD(T)     terms to be evaluated (factor= 1.000)


 Number of core orbitals:           2 (   2   0 )
 Number of closed-shell orbitals:   6 (   5   1 )
 Number of external orbitals:      66 (  43  23 )

 Molecular orbitals read from record     2100.2  Type=RHF/CANONICAL (state 1.1)

 Number of N-1 electron functions:               6
 Number of N-2 electron functions:              21
 Number of singly external CSFs:               238
 Number of doubly external CSFs:             41002
 Total number of CSFs:                       41241

 Length of J-op  integral file:               0.00 MB
 Length of K-op  integral file:               0.25 MB
 Length of 3-ext integral record:             0.00 MB

 Memory could be reduced to 1.65 Mwords without degradation in triples

 Integral transformation finished. Total CPU:   0.03 sec, npass=  1  Memory used:   0.55 MW

 Reference energy:                   -129.91857099

 MP2 singlet pair energy:              -0.27299768
 MP2 triplet pair energy:              -0.16210337
 MP2 correlation energy:               -0.43510105
 MP2 total energy:                   -130.35367204

 SCS-MP2 correlation energy:           -0.42846153   (PS=  1.200000  PT=  0.333333)
 SCS-MP2 total energy:               -130.34703252

 ITER.      SQ.NORM     CORR.ENERGY   TOTAL ENERGY   ENERGY CHANGE        DEN1      VAR(S)    VAR(P)  DIIS     TIME  TIME/IT
   1      1.11756581    -0.44038578  -130.35895677    -0.00528473     0.01020766  0.28D-02  0.29D-02  1  1     0.07     0.04
   2      1.12821303    -0.44067907  -130.35925005    -0.00029328    -0.01210936  0.84D-04  0.49D-03  2  2     0.10     0.05
   3      1.13431280    -0.44104823  -130.35961921    -0.00036916    -0.00291831  0.44D-04  0.49D-04  3  3     0.14     0.05
   4      1.13702951    -0.44107560  -130.35964659    -0.00002738    -0.00093370  0.37D-05  0.86D-05  4  4     0.18     0.05
   5      1.13797416    -0.44110326  -130.35967425    -0.00002766    -0.00019576  0.13D-05  0.16D-05  5  5     0.21     0.05
   6      1.13831771    -0.44108757  -130.35965856     0.00001569    -0.00003898  0.87D-07  0.41D-06  6  6     0.25     0.05
   7      1.13840060    -0.44108971  -130.35966070    -0.00000214    -0.00000205  0.10D-07  0.85D-07  6  1     0.28     0.05
   8      1.13843004    -0.44108976  -130.35966074    -0.00000005     0.00000206  0.46D-08  0.95D-08  6  2     0.32     0.05
   9      1.13843718    -0.44108962  -130.35966061     0.00000014    -0.00000228  0.24D-08  0.11D-08  6  3     0.36     0.05
  10      1.13843591    -0.44109009  -130.35966108    -0.00000047     0.00000066  0.46D-09  0.19D-09  6  4     0.42     0.05
  11      1.13843429    -0.44109015  -130.35966114    -0.00000006     0.00000015  0.14D-09  0.21D-10  6  5     0.47     0.05
  12      1.13843298    -0.44109031  -130.35966130    -0.00000017     0.00000041  0.14D-10  0.66D-11  6  6     0.52     0.05
  13      1.13843243    -0.44109032  -130.35966131    -0.00000001     0.00000011  0.59D-11  0.11D-11  6  1     0.55     0.05
  14      1.13843208    -0.44109034  -130.35966133    -0.00000002     0.00000007  0.83D-12  0.39D-12  6  2     0.60     0.05
  15      1.13843196    -0.44109034  -130.35966133    -0.00000000     0.00000001  0.21D-12  0.13D-12  6  3     0.64     0.05
  16      1.13843187    -0.44109034  -130.35966133    -0.00000000     0.00000001  0.22D-13  0.15D-13  6  5     0.67     0.05
  17      1.13843184    -0.44109034  -130.35966133    -0.00000000     0.00000000  0.72D-15  0.21D-14  6  4     0.72     0.05
  18      1.13843184    -0.44109034  -130.35966133     0.00000000    -0.00000000  0.47D-15  0.30D-15  6  1     0.76     0.05
  19      1.13843184    -0.44109034  -130.35966133    -0.00000000     0.00000000  0.43D-16  0.53D-16  6  6     0.81     0.05
  20      1.13843183    -0.44109034  -130.35966133    -0.00000000     0.00000000  0.94D-17  0.13D-16  6  2     0.85     0.05
  21      1.13843183    -0.44109034  -130.35966133    -0.00000000     0.00000000  0.16D-17  0.94D-18  6  5     0.90     0.05
  22      1.13843183    -0.44109034  -130.35966133     0.00000000     0.00000000  0.99D-19  0.74D-19  6  3     0.94     0.05
  23      1.13843183    -0.44109034  -130.35966133     0.00000000    -0.00000000  0.29D-19  0.16D-19  6  4     0.98     0.05
  24      1.13843183    -0.44109034  -130.35966133     0.00000000    -0.00000000  0.43D-20  0.45D-20  6  1     1.02     0.05
  25      1.13843183    -0.44109034  -130.35966133     0.00000000    -0.00000000  0.49D-21  0.76D-21  6  6     1.07     0.05

 Norm of t1 vector:      0.07363028      S-energy:     0.00000000      T1 diagnostic:  0.01502972
                                                                       D1 diagnostic:  0.04173949

 Doubles amplitudes (print threshold =  0.500E-01):

         I         J         SYM. A    SYM. B    A         B      T(IJ, AB)

         6         6         2         2         1         1     -0.14242212


 Total CPU time for triples:      0.26 sec


 RESULTS
 =======

  Reference energy                   -129.918570989116
  CCSD singlet pair energy             -0.302243285435
  CCSD triplet pair energy             -0.138847054813
  CCSD correlation energy              -0.441090340248

  Triples (T) contribution             -0.019573363721
  Total correlation energy             -0.460663703969

  CCSD total energy                  -130.359661329363
  CCSD[T] energy                     -130.380220114211
  CCSD-T energy                      -130.378846278390
 !CCSD(T) total energy               -130.379234693084

 Timing summary (sec):

 STEP                 CPU(USER)    SYS     CPU(TOT)    WALL
 Transformation          0.03      0.01      0.04      0.04
 CCSD iterations         1.04      0.22      1.26      1.25
 Triples                 0.26      0.02      0.28      0.29

 Program statistics:

 Available memory in ccsd:               994999756
 Min. memory needed in ccsd:                154850
 Max. memory used in ccsd:                  184802
 Max. memory used in cckext:                238416 (25 integral passes)



 **********************************************************************************************************************************
 DATASETS  * FILE   NREC   LENGTH (MB)   RECORD NAMES
              1      24       40.41       500      610      700      900      950      970     1000      129      960     1700   
                                          VAR    BASINP    GEOM    SYMINP    ZMAT    AOBASIS   BASIS     P2S    ABASIS    OPER   
                                         1101     1401     1411     1412     1650     1100     1400     1410     1200     1210   
                                          SR      EKINR    POTR     PVPR    MOLCAS      S      EKIN      POT      H0       H01  
                                         1300     1080     1600     1380   
                                         ERIS     AOSYM     SMH     JKOP   

              2       4        2.85       700     1000      520     2100   
                                         GEOM     BASIS   MCVARS     RHF  

 PROGRAMS   *        TOTAL   CCSD(T)        HF       INT
 CPU TIMES  *         2.33      1.37      0.23      0.62
 REAL TIME  *         3.53 SEC
 DISK USED  *        75.75 MB      
 **********************************************************************************************************************************

 CCSD(T)/cc-pVTZ-DK energy=   -130.379234693084

        CCSD(T)         HF-SCF  
   -130.37923469   -129.91857099
 **********************************************************************************************************************************
 Molpro calculation terminated
 Variable memory released
