
 Primary working directories    : /tmp/r2666/282633.maple
 Secondary working directories  : /tmp/r2666/282633.maple
 Wavefunction directory         : /ddn/home4/r2666/wfu/
 Main file repository           : /tmp/r2666/282633.maple/

 SHA1      : d5ffa45e93fdbca01ffc919aa182cfdae0147319
 NAME      : 2015.1.35
 ARCHNAME  : linux/x86_64
 FC        : /opt/intel/composer_xe_2015.1.133/bin/intel64/ifort
 BLASLIB   : -Wl,-_start-group /opt/intel/mkl/lib/intel64/libmkl_intel_ilp64.a /opt/intel/mkl/lib/intel64/libmkl_intel_thread.a /opt/intel/mkl/lib/intel64/libmkl_core.a -Wl,-_end-group
 id        : olemiss

 Nodes     nprocs
 cn045        1

 Using customized tuning parameters: mindgm=1; mindgv=20; mindgc=4; mindgr=1; noblas=0; minvec=7
 default implementation of scratch files=df  

 ***,hno CCSD(T)/TZ-F12 QFF
 memory, 995, m;
 gthresh,energy=1.d-12,zero=1.d-22,oneint=1.d-22,twoint=1.d-22;
 gthresh,optgrad=1.d-8,optstep=1.d-8;
 nocompress;
 geomtyp=xyz
 bohr
 geometry={
 3
         14        14
 H        0.0000000000        1.6577422462       -1.9220063741
 N        0.0000000000       -0.1544043873       -1.1514792367
 O        0.0000000000        0.0384299311        1.1228960198
 }
 
 basis=vtz-dk
 dkroll=1
   {hf,maxit=500;accu,20;}
 {ccsd(t),nocheck,maxit=250;orbital,IGNORE_ERROR;}

 Variables initialized (889), CPU time= 0.00 sec
 Commands  initialized (702), CPU time= 0.01 sec, 572 directives.
 Default parameters read. Elapsed time= 0.04 sec

 Checking input...
 Passed
1


                                         ***  PROGRAM SYSTEM MOLPRO  ***
                                       Copyright, TTI GmbH Stuttgart, 2015
                                    Version 2015.1 linked Jul  9 2018 13:16:40


 **********************************************************************************************************************************
 LABEL *   hno CCSD(T)/TZ-F12 QFF                                                        
  64 bit serial version                                                                  DATE: 04-Mar-20          TIME: 13:51:06  
 **********************************************************************************************************************************

 SHA1:             d5ffa45e93fdbca01ffc919aa182cfdae0147319
 **********************************************************************************************************************************

 THRESHOLDS:

 ZERO    =  1.00D-22  ONEINT  =  1.00D-22  TWOINT  =  1.00D-22  PREFAC  =  1.00D-14  LOCALI  =  1.00D-09  EORDER  =  1.00D-04
 ENERGY  =  1.00D-12  ETEST   =  0.00D+00  EDENS   =  0.00D+00  THRDEDEF=  1.00D-06  GRADIENT=  1.00D-02  STEP    =  1.00D-03
 ORBITAL =  1.00D-05  CIVEC   =  1.00D-05  COEFF   =  1.00D-04  PRINTCI =  5.00D-02  PUNCHCI =  9.90D+01  OPTGRAD =  3.00D-04
 OPTENERG=  1.00D-06  OPTSTEP =  3.00D-04  THRGRAD =  1.00D-10  COMPRESS=  1.00D-11  VARMIN  =  1.00D-07  VARMAX  =  1.00D-03
 THRDOUB =  0.00D+00  THRDIV  =  1.00D-05  THRRED  =  1.00D-07  THRPSP  =  1.00D+00  THRDC   =  1.00D-10  THRCS   =  1.00D-10
 THRNRM  =  1.00D-08  THREQ   =  0.00D+00  THRDE   =  1.00D+00  THRREF  =  1.00D-05  SPARFAC =  1.00D+00  THRDLP  =  1.00D-07
 THRDIA  =  1.00D-10  THRDLS  =  1.00D-07  THRGPS  =  0.00D+00  THRKEX  =  0.00D+00  THRDIS  =  2.00D-01  THRVAR  =  1.00D-10
 THRLOC  =  1.00D-06  THRGAP  =  1.00D-06  THRLOCT = -1.00D+00  THRGAPT = -1.00D+00  THRORB  =  1.00D-06  THRMLTP =  0.00D+00
 THRCPQCI=  1.00D-10  KEXTA   =  0.00D+00  THRCOARS=  0.00D+00  SYMTOL  =  1.00D-06  GRADTOL =  1.00D-06  THROVL  =  1.00D-08
 THRORTH =  1.00D-08  GRID    =  1.00D-06  GRIDMAX =  1.00D-03  DTMAX   =  0.00D+00  THROCCDE=  1.00D-01  THROCCDE=  1.00D-01



 THRESHOLDS:

 ZERO    =  1.00D-22  ONEINT  =  1.00D-22  TWOINT  =  1.00D-22  PREFAC  =  1.00D-14  LOCALI  =  1.00D-09  EORDER  =  1.00D-04
 ENERGY  =  1.00D-12  ETEST   =  0.00D+00  EDENS   =  0.00D+00  THRDEDEF=  1.00D-06  GRADIENT=  1.00D-02  STEP    =  1.00D-03
 ORBITAL =  1.00D-05  CIVEC   =  1.00D-05  COEFF   =  1.00D-04  PRINTCI =  5.00D-02  PUNCHCI =  9.90D+01  OPTGRAD =  1.00D-08
 OPTENERG=  1.00D-06  OPTSTEP =  1.00D-08  THRGRAD =  1.00D-10  COMPRESS=  1.00D-11  VARMIN  =  1.00D-07  VARMAX  =  1.00D-03
 THRDOUB =  0.00D+00  THRDIV  =  1.00D-05  THRRED  =  1.00D-07  THRPSP  =  1.00D+00  THRDC   =  1.00D-10  THRCS   =  1.00D-10
 THRNRM  =  1.00D-08  THREQ   =  0.00D+00  THRDE   =  1.00D+00  THRREF  =  1.00D-05  SPARFAC =  1.00D+00  THRDLP  =  1.00D-07
 THRDIA  =  1.00D-10  THRDLS  =  1.00D-07  THRGPS  =  0.00D+00  THRKEX  =  0.00D+00  THRDIS  =  2.00D-01  THRVAR  =  1.00D-10
 THRLOC  =  1.00D-06  THRGAP  =  1.00D-06  THRLOCT = -1.00D+00  THRGAPT = -1.00D+00  THRORB  =  1.00D-06  THRMLTP =  0.00D+00
 THRCPQCI=  1.00D-10  KEXTA   =  0.00D+00  THRCOARS=  0.00D+00  SYMTOL  =  1.00D-06  GRADTOL =  1.00D-06  THROVL  =  1.00D-08
 THRORTH =  1.00D-08  GRID    =  1.00D-06  GRIDMAX =  1.00D-03  DTMAX   =  0.00D+00  THROCCDE=  1.00D-01  THROCCDE=  1.00D-01



 Input parameters for SORTINT:

 COMPRESS =    0.000000
 C_FINAL  =    1.000000
 DEBUG    =   -1.000000
 C_SORT1  =    0.000000
 C_SEWARD =    0.000000
 THRESH   =    0.000000
 IO       =  molpro                                                          
 SPRI     =    0.000000
 SETTING GEOMTYP        =    XYZ
 ZUNIT=BOHR
 

 Variable memory set to  995000000 words,  buffer space   230000 words

 SETTING BASIS          =    VTZ-DK
 SETTING DKROLL         =         1.00000000                                  


 Recomputing integrals since basis changed


 Using spherical harmonics

 Library entry H      S cc-pVTZ-DK           selected for orbital group  1
 Library entry H      P cc-pVTZ-DK           selected for orbital group  1
 Library entry H      D cc-pVTZ-DK           selected for orbital group  1
 Library entry N      S cc-pVTZ-DK           selected for orbital group  2
 Library entry N      P cc-pVTZ-DK           selected for orbital group  2
 Library entry N      D cc-pVTZ-DK           selected for orbital group  2
 Library entry N      F cc-pVTZ-DK           selected for orbital group  2
 Library entry O      S cc-pVTZ-DK           selected for orbital group  3
 Library entry O      P cc-pVTZ-DK           selected for orbital group  3
 Library entry O      D cc-pVTZ-DK           selected for orbital group  3
 Library entry O      F cc-pVTZ-DK           selected for orbital group  3


 PROGRAM * SEWARD (Integral evaluation for generally contracted gaussian basis sets)     Author: Roland Lindh, 1990

 Geometry written to block  1 of record 700


 Point group  Cs  



 ATOMIC COORDINATES

 NR  ATOM    CHARGE       X              Y              Z

   1  H       1.00    0.000000000    1.657742246   -1.922006374
   2  N       7.00    0.000000000   -0.154404387   -1.151479237
   3  O       8.00    0.000000000    0.038429931    1.122896020

 Bond lengths in Bohr (Angstrom)

 1-2  1.969159082  2-3  2.282535406
     ( 1.042034111)     ( 1.207865720)

 Bond angles

  1-2-3  108.18899349

 NUCLEAR CHARGE:                   16
 NUMBER OF PRIMITIVE AOS:         111
 NUMBER OF SYMMETRY AOS:          100
 NUMBER OF CONTRACTIONS:           74   (  50A'  +  24A"  )
 NUMBER OF CORE ORBITALS:           2   (   2A'  +   0A"  )
 NUMBER OF VALENCE ORBITALS:        9   (   7A'  +   2A"  )


 NUCLEAR REPULSION ENERGY   30.40864570

 One-electron integrals computed with SEWARD

 2nd-order Douglas-Kroll-Hess method activated. Optimal DKH parametrization is used.

 Computing Douglas-Kroll / X2C integrals


        1874283. INTEGRALS WRITTEN OUT IN     458 BLOCKS ON RECORD 1290 OF FILE 1


 NUMBER OF SORTED TWO-ELECTRON INTEGRALS:    2006100.     BUFFER LENGTH:  32768
 NUMBER OF SEGMENTS:   1  SEGMENT LENGTH:    2006100      RECORD LENGTH: 524288

 Memory used in sort:       2.56 MW

 SORT1 READ     1874283. AND WROTE     1914195. INTEGRALS IN      6 RECORDS. CPU TIME:     0.05 SEC, REAL TIME:     0.06 SEC
 SORT2 READ     1914195. AND WROTE     2006100. INTEGRALS IN      1 RECORDS. CPU TIME:     0.05 SEC, REAL TIME:     0.06 SEC

 FILE SIZES:   FILE 1:    50.2 MBYTE,  FILE 4:    25.2 MBYTE,   TOTAL:     75.4 MBYTE

 OPERATOR DM      FOR CENTER  0  COORDINATES:    0.000000    0.000000    0.000000

 Eigenvalues of metric

         1 0.241E-02 0.392E-02 0.415E-02 0.816E-02 0.128E-01 0.325E-01 0.425E-01 0.463E-01
         2 0.342E-01 0.464E-01 0.101E+00 0.109E+00 0.232E+00 0.338E+00 0.393E+00 0.448E+00


 **********************************************************************************************************************************
 DATASETS  * FILE   NREC   LENGTH (MB)   RECORD NAMES
              1      23       36.03       500      610      700      900      950      970     1000      129      960     1700   
                                          VAR    BASINP    GEOM    SYMINP    ZMAT    AOBASIS   BASIS     P2S    ABASIS    OPER   
                                         1101     1401     1411     1412     1650     1100     1400     1410     1200     1210   
                                          SR      EKINR    POTR     PVPR    MOLCAS      S      EKIN      POT      H0       H01  
                                         1300     1080     1600   
                                         ERIS     AOSYM     SMH  

 PROGRAMS   *        TOTAL       INT
 CPU TIMES  *         0.67      0.58
 REAL TIME  *         1.28 SEC
 DISK USED  *        75.75 MB      
 **********************************************************************************************************************************


 PROGRAM * RHF-SCF (CLOSED SHELL)       Authors: W. Meyer, H.-J. Werner


 NUMBER OF ELECTRONS:       8+    8-
 CONVERGENCE THRESHOLDS:    1.00E-10 (Density)    1.00E-13 (Energy)
 MAX. NUMBER OF ITERATIONS:      500
 INTERPOLATION TYPE:            DIIS
 INTERPOLATION STEPS:              2 (START)      1 (STEP)
 LEVEL SHIFTS:                  0.00 (CLOSED)  0.00 (OPEN) 



 Orbital guess generated from atomic densities. Full valence occupancy:    9   2

 Molecular orbital dump at record        2100.2

 Initial occupancy:   7   1

 ITERATION    DDIFF          GRAD             ENERGY        2-EL.EN.            DIPOLE MOMENTS         DIIS   ORB.
    1      0.000D+00      0.000D+00      -129.86832860    154.303338    0.00000    0.59674   -1.03839    0    start
    2      0.000D+00      0.135D-01      -129.89506525    155.403493    0.00000    0.61585   -0.22456    1    diag
    3      0.185D-01      0.103D-01      -129.91702861    155.536353    0.00000    0.56665   -0.60148    2    diag
    4      0.895D-02      0.155D-02      -129.91776223    155.272080    0.00000    0.57521   -0.54218    3    diag
    5      0.166D-02      0.512D-03      -129.91787480    155.356971    0.00000    0.58047   -0.54319    4    diag
    6      0.713D-03      0.152D-03      -129.91789334    155.342164    0.00000    0.58100   -0.53904    5    diag
    7      0.275D-03      0.763D-04      -129.91789882    155.344416    0.00000    0.58220   -0.53653    6    diag
    8      0.191D-03      0.245D-04      -129.91789935    155.343735    0.00000    0.58221   -0.53572    7    diag
    9      0.649D-04      0.442D-05      -129.91789937    155.343621    0.00000    0.58216   -0.53556    8    diag
   10      0.125D-04      0.975D-06      -129.91789937    155.343604    0.00000    0.58212   -0.53554    9    orth
   11      0.278D-05      0.191D-06      -129.91789937    155.343600    0.00000    0.58212   -0.53554    9    diag
   12      0.503D-06      0.397D-07      -129.91789937    155.343599    0.00000    0.58212   -0.53554    9    diag
   13      0.109D-06      0.984D-08      -129.91789937    155.343599    0.00000    0.58212   -0.53554    9    diag
   14      0.269D-07      0.177D-08      -129.91789937    155.343599    0.00000    0.58212   -0.53554    9    diag
   15      0.421D-08      0.453D-09      -129.91789937    155.343599    0.00000    0.58212   -0.53554    9    diag
   16      0.101D-08      0.107D-09      -129.91789937    155.343599    0.00000    0.58212   -0.53554    9    diag
   17      0.167D-09      0.285D-10      -129.91789937    155.343599    0.00000    0.58212   -0.53554    9    diag
   18      0.464D-10      0.905D-11      -129.91789937    155.343599    0.00000    0.58212   -0.53554    0    orth

 Final occupancy:   7   1

 !RHF STATE 1.1 Energy               -129.917899368624
 Nuclear energy                        30.40864570
 One-electron energy                 -237.99834441
 Two-electron energy                   77.67179934
 Virial quotient                       -0.99743412
 !RHF STATE 1.1 Dipole moment           0.00000000     0.58211597    -0.53553546
 Dipole moment /Debye                   0.00000000     1.47949430    -1.36110622

 Orbital energies:

         1.1          2.1          3.1          4.1          5.1          6.1          7.1          8.1          9.1
    -20.664827   -15.715393    -1.527570    -0.994672    -0.744147    -0.661748    -0.427293     0.144676     0.369577

         1.2          2.2          3.2
     -0.591723     0.086517     0.613089

 HOMO      7.1    -0.427293 =     -11.6272eV
 LUMO      2.2     0.086517 =       2.3543eV
 LUMO-HOMO         0.513811 =      13.9815eV


 **********************************************************************************************************************************
 DATASETS  * FILE   NREC   LENGTH (MB)   RECORD NAMES
              1      23       36.03       500      610      700      900      950      970     1000      129      960     1700   
                                          VAR    BASINP    GEOM    SYMINP    ZMAT    AOBASIS   BASIS     P2S    ABASIS    OPER   
                                         1101     1401     1411     1412     1650     1100     1400     1410     1200     1210   
                                          SR      EKINR    POTR     PVPR    MOLCAS      S      EKIN      POT      H0       H01  
                                         1300     1080     1600   
                                         ERIS     AOSYM     SMH  

              2       4        2.85       700     1000      520     2100   
                                         GEOM     BASIS   MCVARS     RHF  

 PROGRAMS   *        TOTAL        HF       INT
 CPU TIMES  *         0.87      0.20      0.58
 REAL TIME  *         1.54 SEC
 DISK USED  *        75.75 MB      
 **********************************************************************************************************************************


 PROGRAM * CCSD (Closed-shell coupled cluster)     Authors: C. Hampel, H.-J. Werner, 1991, M. Deegan, P.J. Knowles, 1992


 Convergence thresholds:  THRVAR = 1.00D-08  THRDEN = 1.00D-12

 CCSD(T)     terms to be evaluated (factor= 1.000)


 Number of core orbitals:           2 (   2   0 )
 Number of closed-shell orbitals:   6 (   5   1 )
 Number of external orbitals:      66 (  43  23 )

 Molecular orbitals read from record     2100.2  Type=RHF/CANONICAL (state 1.1)

 Number of N-1 electron functions:               6
 Number of N-2 electron functions:              21
 Number of singly external CSFs:               238
 Number of doubly external CSFs:             41002
 Total number of CSFs:                       41241

 Length of J-op  integral file:               0.00 MB
 Length of K-op  integral file:               0.25 MB
 Length of 3-ext integral record:             0.00 MB

 Memory could be reduced to 1.65 Mwords without degradation in triples

 Integral transformation finished. Total CPU:   0.04 sec, npass=  1  Memory used:   0.55 MW

 Reference energy:                   -129.91789937

 MP2 singlet pair energy:              -0.27352422
 MP2 triplet pair energy:              -0.16244748
 MP2 correlation energy:               -0.43597170
 MP2 total energy:                   -130.35387107

 SCS-MP2 correlation energy:           -0.42930750   (PS=  1.200000  PT=  0.333333)
 SCS-MP2 total energy:               -130.34720686

 ITER.      SQ.NORM     CORR.ENERGY   TOTAL ENERGY   ENERGY CHANGE        DEN1      VAR(S)    VAR(P)  DIIS     TIME  TIME/IT
   1      1.11811479    -0.44106941  -130.35896878    -0.00509771     0.01060570  0.29D-02  0.30D-02  1  1     0.09     0.05
   2      1.12888927    -0.44132468  -130.35922405    -0.00025527    -0.01223157  0.87D-04  0.50D-03  2  2     0.14     0.05
   3      1.13509945    -0.44170222  -130.35960159    -0.00037755    -0.00295356  0.45D-04  0.50D-04  3  3     0.20     0.05
   4      1.13787916    -0.44172986  -130.35962923    -0.00002764    -0.00095069  0.38D-05  0.88D-05  4  4     0.25     0.05
   5      1.13885586    -0.44175847  -130.35965784    -0.00002861    -0.00020236  0.13D-05  0.17D-05  5  5     0.29     0.05
   6      1.13920792    -0.44174215  -130.35964152     0.00001632    -0.00004009  0.88D-07  0.42D-06  6  6     0.34     0.05
   7      1.13929134    -0.44174438  -130.35964375    -0.00000223    -0.00000190  0.10D-07  0.88D-07  6  1     0.38     0.05
   8      1.13932112    -0.44174439  -130.35964376    -0.00000001     0.00000208  0.47D-08  0.10D-07  6  2     0.43     0.05
   9      1.13932854    -0.44174424  -130.35964361     0.00000015    -0.00000232  0.25D-08  0.11D-08  6  3     0.48     0.05
  10      1.13932724    -0.44174473  -130.35964410    -0.00000049     0.00000067  0.48D-09  0.20D-09  6  4     0.53     0.05
  11      1.13932559    -0.44174478  -130.35964415    -0.00000006     0.00000015  0.14D-09  0.22D-10  6  5     0.57     0.05
  12      1.13932425    -0.44174496  -130.35964433    -0.00000017     0.00000042  0.14D-10  0.69D-11  6  6     0.61     0.05
  13      1.13932368    -0.44174496  -130.35964433    -0.00000001     0.00000012  0.61D-11  0.11D-11  6  1     0.66     0.05
  14      1.13932332    -0.44174498  -130.35964435    -0.00000002     0.00000007  0.86D-12  0.41D-12  6  2     0.71     0.05
  15      1.13932318    -0.44174498  -130.35964435    -0.00000000     0.00000001  0.22D-12  0.13D-12  6  3     0.74     0.05
  16      1.13932309    -0.44174498  -130.35964435    -0.00000000     0.00000001  0.23D-13  0.15D-13  6  5     0.79     0.05
  17      1.13932306    -0.44174499  -130.35964436    -0.00000000     0.00000000  0.70D-15  0.20D-14  6  4     0.85     0.05
  18      1.13932306    -0.44174499  -130.35964436     0.00000000    -0.00000000  0.47D-15  0.28D-15  6  1     0.90     0.05
  19      1.13932306    -0.44174499  -130.35964436    -0.00000000     0.00000000  0.46D-16  0.52D-16  6  6     0.95     0.05
  20      1.13932306    -0.44174499  -130.35964436    -0.00000000     0.00000000  0.10D-16  0.13D-16  6  2     1.00     0.05
  21      1.13932306    -0.44174499  -130.35964436    -0.00000000     0.00000000  0.17D-17  0.10D-17  6  5     1.04     0.05
  22      1.13932305    -0.44174499  -130.35964436    -0.00000000     0.00000000  0.98D-19  0.77D-19  6  3     1.09     0.05
  23      1.13932305    -0.44174499  -130.35964436     0.00000000    -0.00000000  0.28D-19  0.16D-19  6  4     1.13     0.05
  24      1.13932305    -0.44174499  -130.35964436     0.00000000    -0.00000000  0.42D-20  0.46D-20  6  1     1.18     0.05
  25      1.13932306    -0.44174499  -130.35964436     0.00000000    -0.00000000  0.52D-21  0.77D-21  6  6     1.24     0.05

 Norm of t1 vector:      0.07449672      S-energy:     0.00000000      T1 diagnostic:  0.01520658
                                                                       D1 diagnostic:  0.04240735

 Doubles amplitudes (print threshold =  0.500E-01):

         I         J         SYM. A    SYM. B    A         B      T(IJ, AB)

         6         6         2         2         1         1     -0.14383019


 Total CPU time for triples:      0.36 sec


 RESULTS
 =======

  Reference energy                   -129.917899368624
  CCSD singlet pair energy             -0.302814171133
  CCSD triplet pair energy             -0.138930815700
  CCSD correlation energy              -0.441744986832

  Triples (T) contribution             -0.019726060978
  Total correlation energy             -0.461471047810

  CCSD total energy                  -130.359644355456
  CCSD[T] energy                     -130.380378299049
  CCSD-T energy                      -130.378976321542
 !CCSD(T) total energy               -130.379370416434

 Timing summary (sec):

 STEP                 CPU(USER)    SYS     CPU(TOT)    WALL
 Transformation          0.04      0.01      0.05      0.05
 CCSD iterations         1.20      0.10      1.30      1.30
 Triples                 0.36      0.01      0.37      0.37

 Program statistics:

 Available memory in ccsd:               994999756
 Min. memory needed in ccsd:                154850
 Max. memory used in ccsd:                  184802
 Max. memory used in cckext:                238416 (25 integral passes)



 **********************************************************************************************************************************
 DATASETS  * FILE   NREC   LENGTH (MB)   RECORD NAMES
              1      24       40.41       500      610      700      900      950      970     1000      129      960     1700   
                                          VAR    BASINP    GEOM    SYMINP    ZMAT    AOBASIS   BASIS     P2S    ABASIS    OPER   
                                         1101     1401     1411     1412     1650     1100     1400     1410     1200     1210   
                                          SR      EKINR    POTR     PVPR    MOLCAS      S      EKIN      POT      H0       H01  
                                         1300     1080     1600     1380   
                                         ERIS     AOSYM     SMH     JKOP   

              2       4        2.85       700     1000      520     2100   
                                         GEOM     BASIS   MCVARS     RHF  

 PROGRAMS   *        TOTAL   CCSD(T)        HF       INT
 CPU TIMES  *         2.50      1.63      0.20      0.58
 REAL TIME  *         3.30 SEC
 DISK USED  *        75.75 MB      
 **********************************************************************************************************************************

 CCSD(T)/cc-pVTZ-DK energy=   -130.379370416434

        CCSD(T)         HF-SCF  
   -130.37937042   -129.91789937
 **********************************************************************************************************************************
 Molpro calculation terminated
 Variable memory released
