
 Primary working directories    : /tmp/r2666/282675.maple
 Secondary working directories  : /tmp/r2666/282675.maple
 Wavefunction directory         : /ddn/home4/r2666/wfu/
 Main file repository           : /tmp/r2666/282675.maple/

 SHA1      : d5ffa45e93fdbca01ffc919aa182cfdae0147319
 NAME      : 2015.1.35
 ARCHNAME  : linux/x86_64
 FC        : /opt/intel/composer_xe_2015.1.133/bin/intel64/ifort
 BLASLIB   : -Wl,-_start-group /opt/intel/mkl/lib/intel64/libmkl_intel_ilp64.a /opt/intel/mkl/lib/intel64/libmkl_intel_thread.a /opt/intel/mkl/lib/intel64/libmkl_core.a -Wl,-_end-group
 id        : olemiss

 Nodes     nprocs
 cn075        1

 Using customized tuning parameters: mindgm=1; mindgv=20; mindgc=4; mindgr=1; noblas=0; minvec=7
 default implementation of scratch files=df  

 ***,hno CCSD(T)/TZ-F12 QFF
 memory, 995, m;
 gthresh,energy=1.d-12,zero=1.d-22,oneint=1.d-22,twoint=1.d-22;
 gthresh,optgrad=1.d-8,optstep=1.d-8;
 nocompress;
 geomtyp=xyz
 bohr
 geometry={
 3
         56        56
 H        0.0000000000        1.6656066092       -1.9199078229
 N        0.0000000000       -0.1660963258       -1.1470997115
 O        0.0000000000        0.0422575066        1.1164179434
 }
 
 basis=vtz-dk
 dkroll=1
   {hf,maxit=500;accu,20;}
 {ccsd(t),nocheck,maxit=250;orbital,IGNORE_ERROR;}

 Variables initialized (889), CPU time= 0.01 sec
 Commands  initialized (702), CPU time= 0.01 sec, 572 directives.
 Default parameters read. Elapsed time= 0.06 sec

 Checking input...
 Passed
1


                                         ***  PROGRAM SYSTEM MOLPRO  ***
                                       Copyright, TTI GmbH Stuttgart, 2015
                                    Version 2015.1 linked Jul  9 2018 13:16:40


 **********************************************************************************************************************************
 LABEL *   hno CCSD(T)/TZ-F12 QFF                                                        
  64 bit serial version                                                                  DATE: 04-Mar-20          TIME: 13:51:11  
 **********************************************************************************************************************************

 SHA1:             d5ffa45e93fdbca01ffc919aa182cfdae0147319
 **********************************************************************************************************************************

 THRESHOLDS:

 ZERO    =  1.00D-22  ONEINT  =  1.00D-22  TWOINT  =  1.00D-22  PREFAC  =  1.00D-14  LOCALI  =  1.00D-09  EORDER  =  1.00D-04
 ENERGY  =  1.00D-12  ETEST   =  0.00D+00  EDENS   =  0.00D+00  THRDEDEF=  1.00D-06  GRADIENT=  1.00D-02  STEP    =  1.00D-03
 ORBITAL =  1.00D-05  CIVEC   =  1.00D-05  COEFF   =  1.00D-04  PRINTCI =  5.00D-02  PUNCHCI =  9.90D+01  OPTGRAD =  3.00D-04
 OPTENERG=  1.00D-06  OPTSTEP =  3.00D-04  THRGRAD =  1.00D-10  COMPRESS=  1.00D-11  VARMIN  =  1.00D-07  VARMAX  =  1.00D-03
 THRDOUB =  0.00D+00  THRDIV  =  1.00D-05  THRRED  =  1.00D-07  THRPSP  =  1.00D+00  THRDC   =  1.00D-10  THRCS   =  1.00D-10
 THRNRM  =  1.00D-08  THREQ   =  0.00D+00  THRDE   =  1.00D+00  THRREF  =  1.00D-05  SPARFAC =  1.00D+00  THRDLP  =  1.00D-07
 THRDIA  =  1.00D-10  THRDLS  =  1.00D-07  THRGPS  =  0.00D+00  THRKEX  =  0.00D+00  THRDIS  =  2.00D-01  THRVAR  =  1.00D-10
 THRLOC  =  1.00D-06  THRGAP  =  1.00D-06  THRLOCT = -1.00D+00  THRGAPT = -1.00D+00  THRORB  =  1.00D-06  THRMLTP =  0.00D+00
 THRCPQCI=  1.00D-10  KEXTA   =  0.00D+00  THRCOARS=  0.00D+00  SYMTOL  =  1.00D-06  GRADTOL =  1.00D-06  THROVL  =  1.00D-08
 THRORTH =  1.00D-08  GRID    =  1.00D-06  GRIDMAX =  1.00D-03  DTMAX   =  0.00D+00  THROCCDE=  1.00D-01  THROCCDE=  1.00D-01



 THRESHOLDS:

 ZERO    =  1.00D-22  ONEINT  =  1.00D-22  TWOINT  =  1.00D-22  PREFAC  =  1.00D-14  LOCALI  =  1.00D-09  EORDER  =  1.00D-04
 ENERGY  =  1.00D-12  ETEST   =  0.00D+00  EDENS   =  0.00D+00  THRDEDEF=  1.00D-06  GRADIENT=  1.00D-02  STEP    =  1.00D-03
 ORBITAL =  1.00D-05  CIVEC   =  1.00D-05  COEFF   =  1.00D-04  PRINTCI =  5.00D-02  PUNCHCI =  9.90D+01  OPTGRAD =  1.00D-08
 OPTENERG=  1.00D-06  OPTSTEP =  1.00D-08  THRGRAD =  1.00D-10  COMPRESS=  1.00D-11  VARMIN  =  1.00D-07  VARMAX  =  1.00D-03
 THRDOUB =  0.00D+00  THRDIV  =  1.00D-05  THRRED  =  1.00D-07  THRPSP  =  1.00D+00  THRDC   =  1.00D-10  THRCS   =  1.00D-10
 THRNRM  =  1.00D-08  THREQ   =  0.00D+00  THRDE   =  1.00D+00  THRREF  =  1.00D-05  SPARFAC =  1.00D+00  THRDLP  =  1.00D-07
 THRDIA  =  1.00D-10  THRDLS  =  1.00D-07  THRGPS  =  0.00D+00  THRKEX  =  0.00D+00  THRDIS  =  2.00D-01  THRVAR  =  1.00D-10
 THRLOC  =  1.00D-06  THRGAP  =  1.00D-06  THRLOCT = -1.00D+00  THRGAPT = -1.00D+00  THRORB  =  1.00D-06  THRMLTP =  0.00D+00
 THRCPQCI=  1.00D-10  KEXTA   =  0.00D+00  THRCOARS=  0.00D+00  SYMTOL  =  1.00D-06  GRADTOL =  1.00D-06  THROVL  =  1.00D-08
 THRORTH =  1.00D-08  GRID    =  1.00D-06  GRIDMAX =  1.00D-03  DTMAX   =  0.00D+00  THROCCDE=  1.00D-01  THROCCDE=  1.00D-01



 Input parameters for SORTINT:

 COMPRESS =    0.000000
 C_FINAL  =    1.000000
 DEBUG    =   -1.000000
 C_SORT1  =    0.000000
 C_SEWARD =    0.000000
 THRESH   =    0.000000
 IO       =  molpro                                                          
 SPRI     =    0.000000
 SETTING GEOMTYP        =    XYZ
 ZUNIT=BOHR
 

 Variable memory set to  995000000 words,  buffer space   230000 words

 SETTING BASIS          =    VTZ-DK
 SETTING DKROLL         =         1.00000000                                  


 Recomputing integrals since basis changed


 Using spherical harmonics

 Library entry H      S cc-pVTZ-DK           selected for orbital group  1
 Library entry H      P cc-pVTZ-DK           selected for orbital group  1
 Library entry H      D cc-pVTZ-DK           selected for orbital group  1
 Library entry N      S cc-pVTZ-DK           selected for orbital group  2
 Library entry N      P cc-pVTZ-DK           selected for orbital group  2
 Library entry N      D cc-pVTZ-DK           selected for orbital group  2
 Library entry N      F cc-pVTZ-DK           selected for orbital group  2
 Library entry O      S cc-pVTZ-DK           selected for orbital group  3
 Library entry O      P cc-pVTZ-DK           selected for orbital group  3
 Library entry O      D cc-pVTZ-DK           selected for orbital group  3
 Library entry O      F cc-pVTZ-DK           selected for orbital group  3


 PROGRAM * SEWARD (Integral evaluation for generally contracted gaussian basis sets)     Author: Roland Lindh, 1990

 Geometry written to block  1 of record 700


 Point group  Cs  



 ATOMIC COORDINATES

 NR  ATOM    CHARGE       X              Y              Z

   1  H       1.00    0.000000000    1.665606609   -1.919907823
   2  N       7.00    0.000000000   -0.166096326   -1.147099711
   3  O       8.00    0.000000000    0.042257507    1.116417943

 Bond lengths in Bohr (Angstrom)

 1-2  1.988056342  2-3  2.273086777
     ( 1.052034110)     ( 1.202865721)

 Bond angles

  1-2-3  107.61603569

 NUCLEAR CHARGE:                   16
 NUMBER OF PRIMITIVE AOS:         111
 NUMBER OF SYMMETRY AOS:          100
 NUMBER OF CONTRACTIONS:           74   (  50A'  +  24A"  )
 NUMBER OF CORE ORBITALS:           2   (   2A'  +   0A"  )
 NUMBER OF VALENCE ORBITALS:        9   (   7A'  +   2A"  )


 NUCLEAR REPULSION ENERGY   30.48065686

 One-electron integrals computed with SEWARD

 2nd-order Douglas-Kroll-Hess method activated. Optimal DKH parametrization is used.

 Computing Douglas-Kroll / X2C integrals


        1874283. INTEGRALS WRITTEN OUT IN     458 BLOCKS ON RECORD 1290 OF FILE 1


 NUMBER OF SORTED TWO-ELECTRON INTEGRALS:    2006100.     BUFFER LENGTH:  32768
 NUMBER OF SEGMENTS:   1  SEGMENT LENGTH:    2006100      RECORD LENGTH: 524288

 Memory used in sort:       2.56 MW

 SORT1 READ     1874283. AND WROTE     1914195. INTEGRALS IN      6 RECORDS. CPU TIME:     0.04 SEC, REAL TIME:     0.04 SEC
 SORT2 READ     1914195. AND WROTE     2006100. INTEGRALS IN      1 RECORDS. CPU TIME:     0.05 SEC, REAL TIME:     0.06 SEC

 FILE SIZES:   FILE 1:    50.2 MBYTE,  FILE 4:    25.2 MBYTE,   TOTAL:     75.4 MBYTE

 OPERATOR DM      FOR CENTER  0  COORDINATES:    0.000000    0.000000    0.000000

 Eigenvalues of metric

         1 0.243E-02 0.394E-02 0.409E-02 0.831E-02 0.130E-01 0.324E-01 0.422E-01 0.464E-01
         2 0.340E-01 0.465E-01 0.101E+00 0.112E+00 0.232E+00 0.341E+00 0.394E+00 0.448E+00


 **********************************************************************************************************************************
 DATASETS  * FILE   NREC   LENGTH (MB)   RECORD NAMES
              1      23       36.03       500      610      700      900      950      970     1000      129      960     1700   
                                          VAR    BASINP    GEOM    SYMINP    ZMAT    AOBASIS   BASIS     P2S    ABASIS    OPER   
                                         1101     1401     1411     1412     1650     1100     1400     1410     1200     1210   
                                          SR      EKINR    POTR     PVPR    MOLCAS      S      EKIN      POT      H0       H01  
                                         1300     1080     1600   
                                         ERIS     AOSYM     SMH  

 PROGRAMS   *        TOTAL       INT
 CPU TIMES  *         0.69      0.59
 REAL TIME  *         1.38 SEC
 DISK USED  *        75.75 MB      
 **********************************************************************************************************************************


 PROGRAM * RHF-SCF (CLOSED SHELL)       Authors: W. Meyer, H.-J. Werner


 NUMBER OF ELECTRONS:       8+    8-
 CONVERGENCE THRESHOLDS:    1.00E-10 (Density)    1.00E-13 (Energy)
 MAX. NUMBER OF ITERATIONS:      500
 INTERPOLATION TYPE:            DIIS
 INTERPOLATION STEPS:              2 (START)      1 (STEP)
 LEVEL SHIFTS:                  0.00 (CLOSED)  0.00 (OPEN) 



 Orbital guess generated from atomic densities. Full valence occupancy:    9   2

 Molecular orbital dump at record        2100.2

 Initial occupancy:   7   1

 ITERATION    DDIFF          GRAD             ENERGY        2-EL.EN.            DIPOLE MOMENTS         DIIS   ORB.
    1      0.000D+00      0.000D+00      -129.86886653    154.427905    0.00000    0.58316   -1.02292    0    start
    2      0.000D+00      0.135D-01      -129.89575067    155.545276    0.00000    0.61168   -0.22066    1    diag
    3      0.184D-01      0.102D-01      -129.91740696    155.665664    0.00000    0.55831   -0.59112    2    diag
    4      0.890D-02      0.154D-02      -129.91813192    155.403772    0.00000    0.56715   -0.53278    3    diag
    5      0.165D-02      0.511D-03      -129.91824478    155.488811    0.00000    0.57247   -0.53386    4    diag
    6      0.712D-03      0.153D-03      -129.91826346    155.473903    0.00000    0.57301   -0.52976    5    diag
    7      0.276D-03      0.761D-04      -129.91826889    155.476246    0.00000    0.57424   -0.52730    6    diag
    8      0.191D-03      0.240D-04      -129.91826939    155.475573    0.00000    0.57426   -0.52652    7    diag
    9      0.630D-04      0.434D-05      -129.91826941    155.475461    0.00000    0.57421   -0.52637    8    diag
   10      0.121D-04      0.964D-06      -129.91826941    155.475444    0.00000    0.57417   -0.52635    9    orth
   11      0.274D-05      0.190D-06      -129.91826941    155.475440    0.00000    0.57417   -0.52635    9    diag
   12      0.503D-06      0.394D-07      -129.91826941    155.475439    0.00000    0.57417   -0.52635    9    diag
   13      0.110D-06      0.968D-08      -129.91826941    155.475438    0.00000    0.57417   -0.52634    9    diag
   14      0.273D-07      0.176D-08      -129.91826941    155.475438    0.00000    0.57417   -0.52634    9    diag
   15      0.444D-08      0.461D-09      -129.91826941    155.475438    0.00000    0.57417   -0.52634    9    diag
   16      0.106D-08      0.116D-09      -129.91826941    155.475438    0.00000    0.57417   -0.52634    9    diag
   17      0.198D-09      0.338D-10      -129.91826941    155.475438    0.00000    0.57417   -0.52634    9    diag
   18      0.628D-10      0.113D-10      -129.91826941    155.475438    0.00000    0.57417   -0.52634    9    diag
   19      0.266D-10      0.248D-11      -129.91826941    155.475438    0.00000    0.57417   -0.52634    0    orth

 Final occupancy:   7   1

 !RHF STATE 1.1 Energy               -129.918269408910
 Nuclear energy                        30.48065686
 One-electron energy                 -238.13664544
 Two-electron energy                   77.73771917
 Virial quotient                       -0.99738621
 !RHF STATE 1.1 Dipole moment           0.00000000     0.57416505    -0.52634478
 Dipole moment /Debye                   0.00000000     1.45928641    -1.33774736

 Orbital energies:

         1.1          2.1          3.1          4.1          5.1          6.1          7.1          8.1          9.1
    -20.664415   -15.716040    -1.531879    -0.990609    -0.744653    -0.663093    -0.425571     0.144460     0.370241

         1.2          2.2          3.2
     -0.594344     0.088427     0.612460

 HOMO      7.1    -0.425571 =     -11.5804eV
 LUMO      2.2     0.088427 =       2.4062eV
 LUMO-HOMO         0.513998 =      13.9866eV


 **********************************************************************************************************************************
 DATASETS  * FILE   NREC   LENGTH (MB)   RECORD NAMES
              1      23       36.03       500      610      700      900      950      970     1000      129      960     1700   
                                          VAR    BASINP    GEOM    SYMINP    ZMAT    AOBASIS   BASIS     P2S    ABASIS    OPER   
                                         1101     1401     1411     1412     1650     1100     1400     1410     1200     1210   
                                          SR      EKINR    POTR     PVPR    MOLCAS      S      EKIN      POT      H0       H01  
                                         1300     1080     1600   
                                         ERIS     AOSYM     SMH  

              2       4        2.85       700     1000      520     2100   
                                         GEOM     BASIS   MCVARS     RHF  

 PROGRAMS   *        TOTAL        HF       INT
 CPU TIMES  *         0.87      0.18      0.59
 REAL TIME  *         1.62 SEC
 DISK USED  *        75.75 MB      
 **********************************************************************************************************************************


 PROGRAM * CCSD (Closed-shell coupled cluster)     Authors: C. Hampel, H.-J. Werner, 1991, M. Deegan, P.J. Knowles, 1992


 Convergence thresholds:  THRVAR = 1.00D-08  THRDEN = 1.00D-12

 CCSD(T)     terms to be evaluated (factor= 1.000)


 Number of core orbitals:           2 (   2   0 )
 Number of closed-shell orbitals:   6 (   5   1 )
 Number of external orbitals:      66 (  43  23 )

 Molecular orbitals read from record     2100.2  Type=RHF/CANONICAL (state 1.1)

 Number of N-1 electron functions:               6
 Number of N-2 electron functions:              21
 Number of singly external CSFs:               238
 Number of doubly external CSFs:             41002
 Total number of CSFs:                       41241

 Length of J-op  integral file:               0.00 MB
 Length of K-op  integral file:               0.25 MB
 Length of 3-ext integral record:             0.00 MB

 Memory could be reduced to 1.65 Mwords without degradation in triples

 Integral transformation finished. Total CPU:   0.02 sec, npass=  1  Memory used:   0.55 MW

 Reference energy:                   -129.91826941

 MP2 singlet pair energy:              -0.27323245
 MP2 triplet pair energy:              -0.16223730
 MP2 correlation energy:               -0.43546974
 MP2 total energy:                   -130.35373915

 SCS-MP2 correlation energy:           -0.42882659   (PS=  1.200000  PT=  0.333333)
 SCS-MP2 total energy:               -130.34709599

 ITER.      SQ.NORM     CORR.ENERGY   TOTAL ENERGY   ENERGY CHANGE        DEN1      VAR(S)    VAR(P)  DIIS     TIME  TIME/IT
   1      1.11789573    -0.44073115  -130.35900056    -0.00526141     0.01031138  0.29D-02  0.29D-02  1  1     0.07     0.04
   2      1.12860487    -0.44102132  -130.35929073    -0.00029017    -0.01215994  0.85D-04  0.49D-03  2  2     0.10     0.04
   3      1.13476323    -0.44139692  -130.35966632    -0.00037560    -0.00294086  0.45D-04  0.49D-04  3  3     0.13     0.04
   4      1.13749768    -0.44142331  -130.35969272    -0.00002639    -0.00093987  0.38D-05  0.86D-05  4  4     0.17     0.04
   5      1.13845559    -0.44145163  -130.35972103    -0.00002832    -0.00019870  0.13D-05  0.16D-05  5  5     0.19     0.04
   6      1.13880334    -0.44143574  -130.35970515     0.00001589    -0.00003946  0.96D-07  0.40D-06  6  6     0.23     0.04
   7      1.13888746    -0.44143769  -130.35970710    -0.00000195    -0.00000216  0.12D-07  0.84D-07  6  1     0.26     0.04
   8      1.13891747    -0.44143770  -130.35970711    -0.00000001     0.00000191  0.43D-08  0.97D-08  6  2     0.29     0.04
   9      1.13892485    -0.44143752  -130.35970693     0.00000017    -0.00000224  0.24D-08  0.11D-08  6  3     0.33     0.04
  10      1.13892364    -0.44143801  -130.35970742    -0.00000048     0.00000062  0.46D-09  0.19D-09  6  4     0.37     0.04
  11      1.13892197    -0.44143806  -130.35970747    -0.00000006     0.00000017  0.14D-09  0.21D-10  6  5     0.40     0.04
  12      1.13892063    -0.44143823  -130.35970764    -0.00000017     0.00000041  0.14D-10  0.70D-11  6  6     0.44     0.04
  13      1.13892006    -0.44143824  -130.35970765    -0.00000001     0.00000012  0.63D-11  0.11D-11  6  1     0.48     0.04
  14      1.13891970    -0.44143826  -130.35970766    -0.00000002     0.00000007  0.88D-12  0.39D-12  6  2     0.52     0.04
  15      1.13891956    -0.44143826  -130.35970767    -0.00000000     0.00000001  0.22D-12  0.13D-12  6  3     0.55     0.04
  16      1.13891947    -0.44143826  -130.35970767    -0.00000000     0.00000001  0.23D-13  0.15D-13  6  5     0.59     0.04
  17      1.13891945    -0.44143826  -130.35970767    -0.00000000     0.00000000  0.66D-15  0.20D-14  6  4     0.63     0.04
  18      1.13891944    -0.44143826  -130.35970767     0.00000000    -0.00000000  0.45D-15  0.29D-15  6  1     0.67     0.04
  19      1.13891944    -0.44143826  -130.35970767    -0.00000000     0.00000000  0.41D-16  0.51D-16  6  6     0.70     0.04
  20      1.13891944    -0.44143826  -130.35970767    -0.00000000     0.00000000  0.88D-17  0.13D-16  6  2     0.73     0.04
  21      1.13891944    -0.44143826  -130.35970767    -0.00000000     0.00000000  0.16D-17  0.95D-18  6  5     0.77     0.04
  22      1.13891944    -0.44143826  -130.35970767     0.00000000     0.00000000  0.97D-19  0.73D-19  6  3     0.81     0.04
  23      1.13891944    -0.44143826  -130.35970767     0.00000000    -0.00000000  0.28D-19  0.16D-19  6  4     0.84     0.04
  24      1.13891944    -0.44143826  -130.35970767     0.00000000    -0.00000000  0.42D-20  0.43D-20  6  1     0.88     0.04
  25      1.13891944    -0.44143826  -130.35970767     0.00000000    -0.00000000  0.51D-21  0.73D-21  6  6     0.92     0.04

 Norm of t1 vector:      0.07408552      S-energy:     0.00000000      T1 diagnostic:  0.01512264
                                                                       D1 diagnostic:  0.04174260

 Doubles amplitudes (print threshold =  0.500E-01):

         I         J         SYM. A    SYM. B    A         B      T(IJ, AB)

         6         6         2         2         1         1     -0.14229960


 Total CPU time for triples:      0.22 sec


 RESULTS
 =======

  Reference energy                   -129.918269408910
  CCSD singlet pair energy             -0.302542034364
  CCSD triplet pair energy             -0.138896225150
  CCSD correlation energy              -0.441438259513

  Triples (T) contribution             -0.019634282698
  Total correlation energy             -0.461072542212

  CCSD total energy                  -130.359707668423
  CCSD[T] energy                     -130.380336493641
  CCSD-T energy                      -130.378949859953
 !CCSD(T) total energy               -130.379341951121

 Timing summary (sec):

 STEP                 CPU(USER)    SYS     CPU(TOT)    WALL
 Transformation          0.03      0.01      0.04      0.03
 CCSD iterations         0.90      0.09      0.99      0.99
 Triples                 0.22      0.02      0.24      0.24

 Program statistics:

 Available memory in ccsd:               994999756
 Min. memory needed in ccsd:                154850
 Max. memory used in ccsd:                  184802
 Max. memory used in cckext:                238416 (25 integral passes)



 **********************************************************************************************************************************
 DATASETS  * FILE   NREC   LENGTH (MB)   RECORD NAMES
              1      24       40.41       500      610      700      900      950      970     1000      129      960     1700   
                                          VAR    BASINP    GEOM    SYMINP    ZMAT    AOBASIS   BASIS     P2S    ABASIS    OPER   
                                         1101     1401     1411     1412     1650     1100     1400     1410     1200     1210   
                                          SR      EKINR    POTR     PVPR    MOLCAS      S      EKIN      POT      H0       H01  
                                         1300     1080     1600     1380   
                                         ERIS     AOSYM     SMH     JKOP   

              2       4        2.85       700     1000      520     2100   
                                         GEOM     BASIS   MCVARS     RHF  

 PROGRAMS   *        TOTAL   CCSD(T)        HF       INT
 CPU TIMES  *         2.06      1.18      0.18      0.59
 REAL TIME  *         3.00 SEC
 DISK USED  *        75.75 MB      
 **********************************************************************************************************************************

 CCSD(T)/cc-pVTZ-DK energy=   -130.379341951121

        CCSD(T)         HF-SCF  
   -130.37934195   -129.91826941
 **********************************************************************************************************************************
 Molpro calculation terminated
 Variable memory released
