
 Primary working directories    : /tmp/r2666/282728.maple
 Secondary working directories  : /tmp/r2666/282728.maple
 Wavefunction directory         : /ddn/home4/r2666/wfu/
 Main file repository           : /tmp/r2666/282728.maple/

 SHA1      : d5ffa45e93fdbca01ffc919aa182cfdae0147319
 NAME      : 2015.1.35
 ARCHNAME  : linux/x86_64
 FC        : /opt/intel/composer_xe_2015.1.133/bin/intel64/ifort
 BLASLIB   : -Wl,-_start-group /opt/intel/mkl/lib/intel64/libmkl_intel_ilp64.a /opt/intel/mkl/lib/intel64/libmkl_intel_thread.a /opt/intel/mkl/lib/intel64/libmkl_core.a -Wl,-_end-group
 id        : olemiss

 Nodes     nprocs
 cn095        1

 Using customized tuning parameters: mindgm=1; mindgv=20; mindgc=4; mindgr=1; noblas=0; minvec=7
 default implementation of scratch files=df  

 ***,hno CCSD(T)/TZ-F12 QFF
 memory, 995, m;
 gthresh,energy=1.d-12,zero=1.d-22,oneint=1.d-22,twoint=1.d-22;
 gthresh,optgrad=1.d-8,optstep=1.d-8;
 nocompress;
 geomtyp=xyz
 bohr
 geometry={
 3
        109       109
 H        0.0000000000        1.6732280939       -1.9406780253
 N        0.0000000000       -0.1618369187       -1.1516517185
 O        0.0000000000        0.0303766148        1.1417401528
 }
 
 basis=vtz-dk
 dkroll=1
   {hf,maxit=500;accu,20;}
 {ccsd(t),nocheck,maxit=250;orbital,IGNORE_ERROR;}

 Variables initialized (889), CPU time= 0.01 sec
 Commands  initialized (702), CPU time= 0.01 sec, 572 directives.
 Default parameters read. Elapsed time= 0.06 sec

 Checking input...
 Passed
1


                                         ***  PROGRAM SYSTEM MOLPRO  ***
                                       Copyright, TTI GmbH Stuttgart, 2015
                                    Version 2015.1 linked Jul  9 2018 13:16:40


 **********************************************************************************************************************************
 LABEL *   hno CCSD(T)/TZ-F12 QFF                                                        
  64 bit serial version                                                                  DATE: 04-Mar-20          TIME: 13:51:17  
 **********************************************************************************************************************************

 SHA1:             d5ffa45e93fdbca01ffc919aa182cfdae0147319
 **********************************************************************************************************************************

 THRESHOLDS:

 ZERO    =  1.00D-22  ONEINT  =  1.00D-22  TWOINT  =  1.00D-22  PREFAC  =  1.00D-14  LOCALI  =  1.00D-09  EORDER  =  1.00D-04
 ENERGY  =  1.00D-12  ETEST   =  0.00D+00  EDENS   =  0.00D+00  THRDEDEF=  1.00D-06  GRADIENT=  1.00D-02  STEP    =  1.00D-03
 ORBITAL =  1.00D-05  CIVEC   =  1.00D-05  COEFF   =  1.00D-04  PRINTCI =  5.00D-02  PUNCHCI =  9.90D+01  OPTGRAD =  3.00D-04
 OPTENERG=  1.00D-06  OPTSTEP =  3.00D-04  THRGRAD =  1.00D-10  COMPRESS=  1.00D-11  VARMIN  =  1.00D-07  VARMAX  =  1.00D-03
 THRDOUB =  0.00D+00  THRDIV  =  1.00D-05  THRRED  =  1.00D-07  THRPSP  =  1.00D+00  THRDC   =  1.00D-10  THRCS   =  1.00D-10
 THRNRM  =  1.00D-08  THREQ   =  0.00D+00  THRDE   =  1.00D+00  THRREF  =  1.00D-05  SPARFAC =  1.00D+00  THRDLP  =  1.00D-07
 THRDIA  =  1.00D-10  THRDLS  =  1.00D-07  THRGPS  =  0.00D+00  THRKEX  =  0.00D+00  THRDIS  =  2.00D-01  THRVAR  =  1.00D-10
 THRLOC  =  1.00D-06  THRGAP  =  1.00D-06  THRLOCT = -1.00D+00  THRGAPT = -1.00D+00  THRORB  =  1.00D-06  THRMLTP =  0.00D+00
 THRCPQCI=  1.00D-10  KEXTA   =  0.00D+00  THRCOARS=  0.00D+00  SYMTOL  =  1.00D-06  GRADTOL =  1.00D-06  THROVL  =  1.00D-08
 THRORTH =  1.00D-08  GRID    =  1.00D-06  GRIDMAX =  1.00D-03  DTMAX   =  0.00D+00  THROCCDE=  1.00D-01  THROCCDE=  1.00D-01



 THRESHOLDS:

 ZERO    =  1.00D-22  ONEINT  =  1.00D-22  TWOINT  =  1.00D-22  PREFAC  =  1.00D-14  LOCALI  =  1.00D-09  EORDER  =  1.00D-04
 ENERGY  =  1.00D-12  ETEST   =  0.00D+00  EDENS   =  0.00D+00  THRDEDEF=  1.00D-06  GRADIENT=  1.00D-02  STEP    =  1.00D-03
 ORBITAL =  1.00D-05  CIVEC   =  1.00D-05  COEFF   =  1.00D-04  PRINTCI =  5.00D-02  PUNCHCI =  9.90D+01  OPTGRAD =  1.00D-08
 OPTENERG=  1.00D-06  OPTSTEP =  1.00D-08  THRGRAD =  1.00D-10  COMPRESS=  1.00D-11  VARMIN  =  1.00D-07  VARMAX  =  1.00D-03
 THRDOUB =  0.00D+00  THRDIV  =  1.00D-05  THRRED  =  1.00D-07  THRPSP  =  1.00D+00  THRDC   =  1.00D-10  THRCS   =  1.00D-10
 THRNRM  =  1.00D-08  THREQ   =  0.00D+00  THRDE   =  1.00D+00  THRREF  =  1.00D-05  SPARFAC =  1.00D+00  THRDLP  =  1.00D-07
 THRDIA  =  1.00D-10  THRDLS  =  1.00D-07  THRGPS  =  0.00D+00  THRKEX  =  0.00D+00  THRDIS  =  2.00D-01  THRVAR  =  1.00D-10
 THRLOC  =  1.00D-06  THRGAP  =  1.00D-06  THRLOCT = -1.00D+00  THRGAPT = -1.00D+00  THRORB  =  1.00D-06  THRMLTP =  0.00D+00
 THRCPQCI=  1.00D-10  KEXTA   =  0.00D+00  THRCOARS=  0.00D+00  SYMTOL  =  1.00D-06  GRADTOL =  1.00D-06  THROVL  =  1.00D-08
 THRORTH =  1.00D-08  GRID    =  1.00D-06  GRIDMAX =  1.00D-03  DTMAX   =  0.00D+00  THROCCDE=  1.00D-01  THROCCDE=  1.00D-01



 Input parameters for SORTINT:

 COMPRESS =    0.000000
 C_FINAL  =    1.000000
 DEBUG    =   -1.000000
 C_SORT1  =    0.000000
 C_SEWARD =    0.000000
 THRESH   =    0.000000
 IO       =  molpro                                                          
 SPRI     =    0.000000
 SETTING GEOMTYP        =    XYZ
 ZUNIT=BOHR
 

 Variable memory set to  995000000 words,  buffer space   230000 words

 SETTING BASIS          =    VTZ-DK
 SETTING DKROLL         =         1.00000000                                  


 Recomputing integrals since basis changed


 Using spherical harmonics

 Library entry H      S cc-pVTZ-DK           selected for orbital group  1
 Library entry H      P cc-pVTZ-DK           selected for orbital group  1
 Library entry H      D cc-pVTZ-DK           selected for orbital group  1
 Library entry N      S cc-pVTZ-DK           selected for orbital group  2
 Library entry N      P cc-pVTZ-DK           selected for orbital group  2
 Library entry N      D cc-pVTZ-DK           selected for orbital group  2
 Library entry N      F cc-pVTZ-DK           selected for orbital group  2
 Library entry O      S cc-pVTZ-DK           selected for orbital group  3
 Library entry O      P cc-pVTZ-DK           selected for orbital group  3
 Library entry O      D cc-pVTZ-DK           selected for orbital group  3
 Library entry O      F cc-pVTZ-DK           selected for orbital group  3


 PROGRAM * SEWARD (Integral evaluation for generally contracted gaussian basis sets)     Author: Roland Lindh, 1990

 Geometry written to block  1 of record 700


 Point group  Cs  



 ATOMIC COORDINATES

 NR  ATOM    CHARGE       X              Y              Z

   1  H       1.00    0.000000000    1.673228094   -1.940678025
   2  N       7.00    0.000000000   -0.161836919   -1.151651718
   3  O       8.00    0.000000000    0.030376615    1.141740153

 Bond lengths in Bohr (Angstrom)

 1-2  1.997504972  2-3  2.301432666
     ( 1.057034110)     ( 1.217865720)

 Bond angles

  1-2-3  108.47547239

 NUCLEAR CHARGE:                   16
 NUMBER OF PRIMITIVE AOS:         111
 NUMBER OF SYMMETRY AOS:          100
 NUMBER OF CONTRACTIONS:           74   (  50A'  +  24A"  )
 NUMBER OF CORE ORBITALS:           2   (   2A'  +   0A"  )
 NUMBER OF VALENCE ORBITALS:        9   (   7A'  +   2A"  )


 NUCLEAR REPULSION ENERGY   30.12740973

 One-electron integrals computed with SEWARD

 2nd-order Douglas-Kroll-Hess method activated. Optimal DKH parametrization is used.

 Computing Douglas-Kroll / X2C integrals


        1874283. INTEGRALS WRITTEN OUT IN     458 BLOCKS ON RECORD 1290 OF FILE 1


 NUMBER OF SORTED TWO-ELECTRON INTEGRALS:    2006100.     BUFFER LENGTH:  32768
 NUMBER OF SEGMENTS:   1  SEGMENT LENGTH:    2006100      RECORD LENGTH: 524288

 Memory used in sort:       2.56 MW

 SORT1 READ     1874283. AND WROTE     1914195. INTEGRALS IN      6 RECORDS. CPU TIME:     0.03 SEC, REAL TIME:     0.05 SEC
 SORT2 READ     1914195. AND WROTE     2006100. INTEGRALS IN      1 RECORDS. CPU TIME:     0.04 SEC, REAL TIME:     0.07 SEC

 FILE SIZES:   FILE 1:    50.2 MBYTE,  FILE 4:    25.2 MBYTE,   TOTAL:     75.4 MBYTE

 OPERATOR DM      FOR CENTER  0  COORDINATES:    0.000000    0.000000    0.000000

 Eigenvalues of metric

         1 0.250E-02 0.402E-02 0.431E-02 0.852E-02 0.131E-01 0.334E-01 0.432E-01 0.464E-01
         2 0.348E-01 0.466E-01 0.103E+00 0.114E+00 0.238E+00 0.345E+00 0.398E+00 0.453E+00


 **********************************************************************************************************************************
 DATASETS  * FILE   NREC   LENGTH (MB)   RECORD NAMES
              1      23       36.03       500      610      700      900      950      970     1000      129      960     1700   
                                          VAR    BASINP    GEOM    SYMINP    ZMAT    AOBASIS   BASIS     P2S    ABASIS    OPER   
                                         1101     1401     1411     1412     1650     1100     1400     1410     1200     1210   
                                          SR      EKINR    POTR     PVPR    MOLCAS      S      EKIN      POT      H0       H01  
                                         1300     1080     1600   
                                         ERIS     AOSYM     SMH  

 PROGRAMS   *        TOTAL       INT
 CPU TIMES  *         0.74      0.63
 REAL TIME  *         1.34 SEC
 DISK USED  *        75.75 MB      
 **********************************************************************************************************************************


 PROGRAM * RHF-SCF (CLOSED SHELL)       Authors: W. Meyer, H.-J. Werner


 NUMBER OF ELECTRONS:       8+    8-
 CONVERGENCE THRESHOLDS:    1.00E-10 (Density)    1.00E-13 (Energy)
 MAX. NUMBER OF ITERATIONS:      500
 INTERPOLATION TYPE:            DIIS
 INTERPOLATION STEPS:              2 (START)      1 (STEP)
 LEVEL SHIFTS:                  0.00 (CLOSED)  0.00 (OPEN) 



 Orbital guess generated from atomic densities. Full valence occupancy:    9   2

 Molecular orbital dump at record        2100.2

 Initial occupancy:   7   1

 ITERATION    DDIFF          GRAD             ENERGY        2-EL.EN.            DIPOLE MOMENTS         DIIS   ORB.
    1      0.000D+00      0.000D+00      -129.86418418    153.788166    0.00000    0.59443   -1.07348    0    start
    2      0.000D+00      0.138D-01      -129.89054477    154.885540    0.00000    0.62072   -0.21372    1    diag
    3      0.190D-01      0.108D-01      -129.91488801    155.035471    0.00000    0.56732   -0.61520    2    diag
    4      0.931D-02      0.157D-02      -129.91564291    154.762395    0.00000    0.57540   -0.55429    3    diag
    5      0.167D-02      0.523D-03      -129.91576173    154.849327    0.00000    0.58086   -0.55517    4    diag
    6      0.730D-03      0.156D-03      -129.91578153    154.834153    0.00000    0.58134   -0.55079    5    diag
    7      0.284D-03      0.792D-04      -129.91578753    154.836360    0.00000    0.58256   -0.54814    6    diag
    8      0.198D-03      0.263D-04      -129.91578816    154.835624    0.00000    0.58257   -0.54725    7    diag
    9      0.713D-04      0.484D-05      -129.91578818    154.835494    0.00000    0.58252   -0.54707    8    diag
   10      0.140D-04      0.104D-05      -129.91578818    154.835476    0.00000    0.58248   -0.54705    9    orth
   11      0.294D-05      0.204D-06      -129.91578818    154.835472    0.00000    0.58247   -0.54705    9    diag
   12      0.531D-06      0.439D-07      -129.91578818    154.835470    0.00000    0.58247   -0.54704    9    diag
   13      0.118D-06      0.113D-07      -129.91578818    154.835470    0.00000    0.58247   -0.54704    9    diag
   14      0.302D-07      0.204D-08      -129.91578818    154.835470    0.00000    0.58247   -0.54704    9    diag
   15      0.453D-08      0.518D-09      -129.91578818    154.835470    0.00000    0.58247   -0.54704    9    diag
   16      0.112D-08      0.124D-09      -129.91578818    154.835470    0.00000    0.58247   -0.54704    9    diag
   17      0.179D-09      0.352D-10      -129.91578818    154.835470    0.00000    0.58247   -0.54704    9    diag
   18      0.538D-10      0.120D-10      -129.91578818    154.835470    0.00000    0.58247   -0.54704    9    diag
   19      0.235D-10      0.259D-11      -129.91578818    154.835470    0.00000    0.58247   -0.54704    9    fixocc
   20      0.665D-11      0.514D-12      -129.91578818    154.835470    0.00000    0.58247   -0.54704    0    orth

 Final occupancy:   7   1

 !RHF STATE 1.1 Energy               -129.915788183267
 Nuclear energy                        30.12740973
 One-electron energy                 -237.46093287
 Two-electron energy                   77.41773496
 Virial quotient                       -0.99791359
 !RHF STATE 1.1 Dipole moment           0.00000000     0.58247164    -0.54704357
 Dipole moment /Debye                   0.00000000     1.48039828    -1.39035500

 Orbital energies:

         1.1          2.1          3.1          4.1          5.1          6.1          7.1          8.1          9.1
    -20.666156   -15.719120    -1.519161    -0.993401    -0.739466    -0.658947    -0.429245     0.143064     0.368179

         1.2          2.2          3.2
     -0.587237     0.082793     0.614149

 HOMO      7.1    -0.429245 =     -11.6804eV
 LUMO      2.2     0.082793 =       2.2529eV
 LUMO-HOMO         0.512039 =      13.9333eV


 **********************************************************************************************************************************
 DATASETS  * FILE   NREC   LENGTH (MB)   RECORD NAMES
              1      23       36.03       500      610      700      900      950      970     1000      129      960     1700   
                                          VAR    BASINP    GEOM    SYMINP    ZMAT    AOBASIS   BASIS     P2S    ABASIS    OPER   
                                         1101     1401     1411     1412     1650     1100     1400     1410     1200     1210   
                                          SR      EKINR    POTR     PVPR    MOLCAS      S      EKIN      POT      H0       H01  
                                         1300     1080     1600   
                                         ERIS     AOSYM     SMH  

              2       4        2.85       700     1000      520     2100   
                                         GEOM     BASIS   MCVARS     RHF  

 PROGRAMS   *        TOTAL        HF       INT
 CPU TIMES  *         0.98      0.24      0.63
 REAL TIME  *         1.65 SEC
 DISK USED  *        75.75 MB      
 **********************************************************************************************************************************


 PROGRAM * CCSD (Closed-shell coupled cluster)     Authors: C. Hampel, H.-J. Werner, 1991, M. Deegan, P.J. Knowles, 1992


 Convergence thresholds:  THRVAR = 1.00D-08  THRDEN = 1.00D-12

 CCSD(T)     terms to be evaluated (factor= 1.000)


 Number of core orbitals:           2 (   2   0 )
 Number of closed-shell orbitals:   6 (   5   1 )
 Number of external orbitals:      66 (  43  23 )

 Molecular orbitals read from record     2100.2  Type=RHF/CANONICAL (state 1.1)

 Number of N-1 electron functions:               6
 Number of N-2 electron functions:              21
 Number of singly external CSFs:               238
 Number of doubly external CSFs:             41002
 Total number of CSFs:                       41241

 Length of J-op  integral file:               0.00 MB
 Length of K-op  integral file:               0.25 MB
 Length of 3-ext integral record:             0.00 MB

 Memory could be reduced to 1.65 Mwords without degradation in triples

 Integral transformation finished. Total CPU:   0.03 sec, npass=  1  Memory used:   0.55 MW

 Reference energy:                   -129.91578818

 MP2 singlet pair energy:              -0.27494052
 MP2 triplet pair energy:              -0.16334785
 MP2 correlation energy:               -0.43828838
 MP2 total energy:                   -130.35407656

 SCS-MP2 correlation energy:           -0.43156729   (PS=  1.200000  PT=  0.333333)
 SCS-MP2 total energy:               -130.34735548

 ITER.      SQ.NORM     CORR.ENERGY   TOTAL ENERGY   ENERGY CHANGE        DEN1      VAR(S)    VAR(P)  DIIS     TIME  TIME/IT
   1      1.11971978    -0.44296912  -130.35875730    -0.00468074     0.01158417  0.31D-02  0.31D-02  1  1     0.08     0.05
   2      1.13085057    -0.44313742  -130.35892561    -0.00016831    -0.01256090  0.94D-04  0.52D-03  2  2     0.12     0.05
   3      1.13738036    -0.44354287  -130.35933105    -0.00040544    -0.00305942  0.51D-04  0.53D-04  3  3     0.17     0.05
   4      1.14032029    -0.44356940  -130.35935758    -0.00002653    -0.00099557  0.44D-05  0.94D-05  4  4     0.20     0.05
   5      1.14138947    -0.44360118  -130.35938936    -0.00003178    -0.00022163  0.15D-05  0.17D-05  5  5     0.25     0.05
   6      1.14176757    -0.44358320  -130.35937138     0.00001798    -0.00004331  0.10D-06  0.42D-06  6  6     0.30     0.05
   7      1.14185438    -0.44358532  -130.35937351    -0.00000212    -0.00000180  0.12D-07  0.92D-07  6  1     0.35     0.05
   8      1.14188570    -0.44358521  -130.35937340     0.00000011     0.00000185  0.44D-08  0.12D-07  6  2     0.39     0.05
   9      1.14189413    -0.44358496  -130.35937314     0.00000025    -0.00000231  0.27D-08  0.13D-08  6  3     0.44     0.05
  10      1.14189287    -0.44358550  -130.35937368    -0.00000054     0.00000062  0.52D-09  0.23D-09  6  4     0.48     0.05
  11      1.14189108    -0.44358556  -130.35937374    -0.00000006     0.00000019  0.16D-09  0.25D-10  6  5     0.53     0.05
  12      1.14188962    -0.44358575  -130.35937393    -0.00000019     0.00000046  0.16D-10  0.82D-11  6  6     0.57     0.05
  13      1.14188897    -0.44358576  -130.35937394    -0.00000001     0.00000013  0.70D-11  0.13D-11  6  1     0.61     0.05
  14      1.14188854    -0.44358578  -130.35937396    -0.00000002     0.00000008  0.10D-11  0.47D-12  6  2     0.66     0.05
  15      1.14188838    -0.44358578  -130.35937396    -0.00000000     0.00000002  0.27D-12  0.15D-12  6  3     0.70     0.05
  16      1.14188826    -0.44358579  -130.35937397    -0.00000000     0.00000002  0.84D-14  0.38D-13  6  1     0.74     0.05
  17      1.14188825    -0.44358578  -130.35937397     0.00000000    -0.00000000  0.29D-14  0.25D-14  6  4     0.78     0.05
  18      1.14188824    -0.44358579  -130.35937397    -0.00000000     0.00000000  0.74D-15  0.43D-15  6  5     0.82     0.05
  19      1.14188824    -0.44358579  -130.35937397     0.00000000    -0.00000000  0.14D-15  0.85D-16  6  6     0.87     0.05
  20      1.14188824    -0.44358579  -130.35937397    -0.00000000     0.00000000  0.24D-16  0.22D-16  6  2     0.91     0.05
  21      1.14188824    -0.44358579  -130.35937397    -0.00000000     0.00000000  0.65D-18  0.16D-17  6  4     0.95     0.05
  22      1.14188824    -0.44358579  -130.35937397    -0.00000000     0.00000000  0.96D-19  0.16D-18  6  3     0.99     0.05
  23      1.14188824    -0.44358579  -130.35937397    -0.00000000     0.00000000  0.87D-20  0.16D-19  6  1     1.03     0.05
  24      1.14188824    -0.44358579  -130.35937397     0.00000000     0.00000000  0.46D-20  0.21D-20  6  6     1.07     0.05
  25      1.14188824    -0.44358579  -130.35937397     0.00000000    -0.00000000  0.29D-21  0.51D-21  6  4     1.11     0.05

 Norm of t1 vector:      0.07700842      S-energy:    -0.00000000      T1 diagnostic:  0.01571928
                                                                       D1 diagnostic:  0.04380328

 Doubles amplitudes (print threshold =  0.500E-01):

         I         J         SYM. A    SYM. B    A         B      T(IJ, AB)

         6         6         2         2         1         1     -0.14647283


 Total CPU time for triples:      0.28 sec


 RESULTS
 =======

  Reference energy                   -129.915788183267
  CCSD singlet pair energy             -0.304414323357
  CCSD triplet pair energy             -0.139171462163
  CCSD correlation energy              -0.443585785520

  Triples (T) contribution             -0.020129550407
  Total correlation energy             -0.463715335928

  CCSD total energy                  -130.359373968787
  CCSD[T] energy                     -130.380573282196
  CCSD-T energy                      -130.379092170645
 !CCSD(T) total energy               -130.379503519195

 Timing summary (sec):

 STEP                 CPU(USER)    SYS     CPU(TOT)    WALL
 Transformation          0.04      0.01      0.05      0.05
 CCSD iterations         1.07      0.13      1.20      1.20
 Triples                 0.28      0.01      0.29      0.29

 Program statistics:

 Available memory in ccsd:               994999756
 Min. memory needed in ccsd:                154850
 Max. memory used in ccsd:                  184802
 Max. memory used in cckext:                238416 (25 integral passes)



 **********************************************************************************************************************************
 DATASETS  * FILE   NREC   LENGTH (MB)   RECORD NAMES
              1      24       40.41       500      610      700      900      950      970     1000      129      960     1700   
                                          VAR    BASINP    GEOM    SYMINP    ZMAT    AOBASIS   BASIS     P2S    ABASIS    OPER   
                                         1101     1401     1411     1412     1650     1100     1400     1410     1200     1210   
                                          SR      EKINR    POTR     PVPR    MOLCAS      S      EKIN      POT      H0       H01  
                                         1300     1080     1600     1380   
                                         ERIS     AOSYM     SMH     JKOP   

              2       4        2.85       700     1000      520     2100   
                                         GEOM     BASIS   MCVARS     RHF  

 PROGRAMS   *        TOTAL   CCSD(T)        HF       INT
 CPU TIMES  *         2.39      1.40      0.24      0.63
 REAL TIME  *         3.23 SEC
 DISK USED  *        75.75 MB      
 **********************************************************************************************************************************

 CCSD(T)/cc-pVTZ-DK energy=   -130.379503519195

        CCSD(T)         HF-SCF  
   -130.37950352   -129.91578818
 **********************************************************************************************************************************
 Molpro calculation terminated
 Variable memory released
