
 Primary working directories    : /tmp/r2666/282649.maple
 Secondary working directories  : /tmp/r2666/282649.maple
 Wavefunction directory         : /ddn/home4/r2666/wfu/
 Main file repository           : /tmp/r2666/282649.maple/

 SHA1      : d5ffa45e93fdbca01ffc919aa182cfdae0147319
 NAME      : 2015.1.35
 ARCHNAME  : linux/x86_64
 FC        : /opt/intel/composer_xe_2015.1.133/bin/intel64/ifort
 BLASLIB   : -Wl,-_start-group /opt/intel/mkl/lib/intel64/libmkl_intel_ilp64.a /opt/intel/mkl/lib/intel64/libmkl_intel_thread.a /opt/intel/mkl/lib/intel64/libmkl_core.a -Wl,-_end-group
 id        : olemiss

 Nodes     nprocs
 cn086        1

 Using customized tuning parameters: mindgm=1; mindgv=20; mindgc=4; mindgr=1; noblas=0; minvec=7
 default implementation of scratch files=df  

 ***,hno CCSD(T)/TZ-F12 QFF
 memory, 995, m;
 gthresh,energy=1.d-12,zero=1.d-22,oneint=1.d-22,twoint=1.d-22;
 gthresh,optgrad=1.d-8,optstep=1.d-8;
 nocompress;
 geomtyp=xyz
 bohr
 geometry={
 3
         30        30
 H        0.0000000000        1.6616165577       -1.9149175566
 N        0.0000000000       -0.1649353943       -1.1542622832
 O        0.0000000000        0.0450866266        1.1185902488
 }
 
 basis=vtz-dk
 dkroll=1
   {hf,maxit=500;accu,20;}
 {ccsd(t),nocheck,maxit=250;orbital,IGNORE_ERROR;}

 Variables initialized (889), CPU time= 0.01 sec
 Commands  initialized (702), CPU time= 0.01 sec, 572 directives.
 Default parameters read. Elapsed time= 0.05 sec

 Checking input...
 Passed
1


                                         ***  PROGRAM SYSTEM MOLPRO  ***
                                       Copyright, TTI GmbH Stuttgart, 2015
                                    Version 2015.1 linked Jul  9 2018 13:16:40


 **********************************************************************************************************************************
 LABEL *   hno CCSD(T)/TZ-F12 QFF                                                        
  64 bit serial version                                                                  DATE: 04-Mar-20          TIME: 13:51:08  
 **********************************************************************************************************************************

 SHA1:             d5ffa45e93fdbca01ffc919aa182cfdae0147319
 **********************************************************************************************************************************

 THRESHOLDS:

 ZERO    =  1.00D-22  ONEINT  =  1.00D-22  TWOINT  =  1.00D-22  PREFAC  =  1.00D-14  LOCALI  =  1.00D-09  EORDER  =  1.00D-04
 ENERGY  =  1.00D-12  ETEST   =  0.00D+00  EDENS   =  0.00D+00  THRDEDEF=  1.00D-06  GRADIENT=  1.00D-02  STEP    =  1.00D-03
 ORBITAL =  1.00D-05  CIVEC   =  1.00D-05  COEFF   =  1.00D-04  PRINTCI =  5.00D-02  PUNCHCI =  9.90D+01  OPTGRAD =  3.00D-04
 OPTENERG=  1.00D-06  OPTSTEP =  3.00D-04  THRGRAD =  1.00D-10  COMPRESS=  1.00D-11  VARMIN  =  1.00D-07  VARMAX  =  1.00D-03
 THRDOUB =  0.00D+00  THRDIV  =  1.00D-05  THRRED  =  1.00D-07  THRPSP  =  1.00D+00  THRDC   =  1.00D-10  THRCS   =  1.00D-10
 THRNRM  =  1.00D-08  THREQ   =  0.00D+00  THRDE   =  1.00D+00  THRREF  =  1.00D-05  SPARFAC =  1.00D+00  THRDLP  =  1.00D-07
 THRDIA  =  1.00D-10  THRDLS  =  1.00D-07  THRGPS  =  0.00D+00  THRKEX  =  0.00D+00  THRDIS  =  2.00D-01  THRVAR  =  1.00D-10
 THRLOC  =  1.00D-06  THRGAP  =  1.00D-06  THRLOCT = -1.00D+00  THRGAPT = -1.00D+00  THRORB  =  1.00D-06  THRMLTP =  0.00D+00
 THRCPQCI=  1.00D-10  KEXTA   =  0.00D+00  THRCOARS=  0.00D+00  SYMTOL  =  1.00D-06  GRADTOL =  1.00D-06  THROVL  =  1.00D-08
 THRORTH =  1.00D-08  GRID    =  1.00D-06  GRIDMAX =  1.00D-03  DTMAX   =  0.00D+00  THROCCDE=  1.00D-01  THROCCDE=  1.00D-01



 THRESHOLDS:

 ZERO    =  1.00D-22  ONEINT  =  1.00D-22  TWOINT  =  1.00D-22  PREFAC  =  1.00D-14  LOCALI  =  1.00D-09  EORDER  =  1.00D-04
 ENERGY  =  1.00D-12  ETEST   =  0.00D+00  EDENS   =  0.00D+00  THRDEDEF=  1.00D-06  GRADIENT=  1.00D-02  STEP    =  1.00D-03
 ORBITAL =  1.00D-05  CIVEC   =  1.00D-05  COEFF   =  1.00D-04  PRINTCI =  5.00D-02  PUNCHCI =  9.90D+01  OPTGRAD =  1.00D-08
 OPTENERG=  1.00D-06  OPTSTEP =  1.00D-08  THRGRAD =  1.00D-10  COMPRESS=  1.00D-11  VARMIN  =  1.00D-07  VARMAX  =  1.00D-03
 THRDOUB =  0.00D+00  THRDIV  =  1.00D-05  THRRED  =  1.00D-07  THRPSP  =  1.00D+00  THRDC   =  1.00D-10  THRCS   =  1.00D-10
 THRNRM  =  1.00D-08  THREQ   =  0.00D+00  THRDE   =  1.00D+00  THRREF  =  1.00D-05  SPARFAC =  1.00D+00  THRDLP  =  1.00D-07
 THRDIA  =  1.00D-10  THRDLS  =  1.00D-07  THRGPS  =  0.00D+00  THRKEX  =  0.00D+00  THRDIS  =  2.00D-01  THRVAR  =  1.00D-10
 THRLOC  =  1.00D-06  THRGAP  =  1.00D-06  THRLOCT = -1.00D+00  THRGAPT = -1.00D+00  THRORB  =  1.00D-06  THRMLTP =  0.00D+00
 THRCPQCI=  1.00D-10  KEXTA   =  0.00D+00  THRCOARS=  0.00D+00  SYMTOL  =  1.00D-06  GRADTOL =  1.00D-06  THROVL  =  1.00D-08
 THRORTH =  1.00D-08  GRID    =  1.00D-06  GRIDMAX =  1.00D-03  DTMAX   =  0.00D+00  THROCCDE=  1.00D-01  THROCCDE=  1.00D-01



 Input parameters for SORTINT:

 COMPRESS =    0.000000
 C_FINAL  =    1.000000
 DEBUG    =   -1.000000
 C_SORT1  =    0.000000
 C_SEWARD =    0.000000
 THRESH   =    0.000000
 IO       =  molpro                                                          
 SPRI     =    0.000000
 SETTING GEOMTYP        =    XYZ
 ZUNIT=BOHR
 

 Variable memory set to  995000000 words,  buffer space   230000 words

 SETTING BASIS          =    VTZ-DK
 SETTING DKROLL         =         1.00000000                                  


 Recomputing integrals since basis changed


 Using spherical harmonics

 Library entry H      S cc-pVTZ-DK           selected for orbital group  1
 Library entry H      P cc-pVTZ-DK           selected for orbital group  1
 Library entry H      D cc-pVTZ-DK           selected for orbital group  1
 Library entry N      S cc-pVTZ-DK           selected for orbital group  2
 Library entry N      P cc-pVTZ-DK           selected for orbital group  2
 Library entry N      D cc-pVTZ-DK           selected for orbital group  2
 Library entry N      F cc-pVTZ-DK           selected for orbital group  2
 Library entry O      S cc-pVTZ-DK           selected for orbital group  3
 Library entry O      P cc-pVTZ-DK           selected for orbital group  3
 Library entry O      D cc-pVTZ-DK           selected for orbital group  3
 Library entry O      F cc-pVTZ-DK           selected for orbital group  3


 PROGRAM * SEWARD (Integral evaluation for generally contracted gaussian basis sets)     Author: Roland Lindh, 1990

 Geometry written to block  1 of record 700


 Point group  Cs  



 ATOMIC COORDINATES

 NR  ATOM    CHARGE       X              Y              Z

   1  H       1.00    0.000000000    1.661616558   -1.914917557
   2  N       7.00    0.000000000   -0.164935394   -1.154262283
   3  O       8.00    0.000000000    0.045086627    1.118590249

 Bond lengths in Bohr (Angstrom)

 1-2  1.978607712  2-3  2.282535406
     ( 1.047034111)     ( 1.207865720)

 Bond angles

  1-2-3  107.32955680

 NUCLEAR CHARGE:                   16
 NUMBER OF PRIMITIVE AOS:         111
 NUMBER OF SYMMETRY AOS:          100
 NUMBER OF CONTRACTIONS:           74   (  50A'  +  24A"  )
 NUMBER OF CORE ORBITALS:           2   (   2A'  +   0A"  )
 NUMBER OF VALENCE ORBITALS:        9   (   7A'  +   2A"  )


 NUCLEAR REPULSION ENERGY   30.39934020

 One-electron integrals computed with SEWARD

 2nd-order Douglas-Kroll-Hess method activated. Optimal DKH parametrization is used.

 Computing Douglas-Kroll / X2C integrals


        1874283. INTEGRALS WRITTEN OUT IN     458 BLOCKS ON RECORD 1290 OF FILE 1


 NUMBER OF SORTED TWO-ELECTRON INTEGRALS:    2006100.     BUFFER LENGTH:  32768
 NUMBER OF SEGMENTS:   1  SEGMENT LENGTH:    2006100      RECORD LENGTH: 524288

 Memory used in sort:       2.56 MW

 SORT1 READ     1874283. AND WROTE     1914195. INTEGRALS IN      6 RECORDS. CPU TIME:     0.03 SEC, REAL TIME:     0.05 SEC
 SORT2 READ     1914195. AND WROTE     2006100. INTEGRALS IN      1 RECORDS. CPU TIME:     0.05 SEC, REAL TIME:     0.06 SEC

 FILE SIZES:   FILE 1:    50.2 MBYTE,  FILE 4:    25.2 MBYTE,   TOTAL:     75.4 MBYTE

 OPERATOR DM      FOR CENTER  0  COORDINATES:    0.000000    0.000000    0.000000

 Eigenvalues of metric

         1 0.243E-02 0.394E-02 0.416E-02 0.824E-02 0.129E-01 0.326E-01 0.425E-01 0.464E-01
         2 0.342E-01 0.465E-01 0.101E+00 0.111E+00 0.233E+00 0.339E+00 0.395E+00 0.449E+00


 **********************************************************************************************************************************
 DATASETS  * FILE   NREC   LENGTH (MB)   RECORD NAMES
              1      23       36.03       500      610      700      900      950      970     1000      129      960     1700   
                                          VAR    BASINP    GEOM    SYMINP    ZMAT    AOBASIS   BASIS     P2S    ABASIS    OPER   
                                         1101     1401     1411     1412     1650     1100     1400     1410     1200     1210   
                                          SR      EKINR    POTR     PVPR    MOLCAS      S      EKIN      POT      H0       H01  
                                         1300     1080     1600   
                                         ERIS     AOSYM     SMH  

 PROGRAMS   *        TOTAL       INT
 CPU TIMES  *         0.62      0.52
 REAL TIME  *         1.16 SEC
 DISK USED  *        75.75 MB      
 **********************************************************************************************************************************


 PROGRAM * RHF-SCF (CLOSED SHELL)       Authors: W. Meyer, H.-J. Werner


 NUMBER OF ELECTRONS:       8+    8-
 CONVERGENCE THRESHOLDS:    1.00E-10 (Density)    1.00E-13 (Energy)
 MAX. NUMBER OF ITERATIONS:      500
 INTERPOLATION TYPE:            DIIS
 INTERPOLATION STEPS:              2 (START)      1 (STEP)
 LEVEL SHIFTS:                  0.00 (CLOSED)  0.00 (OPEN) 



 Orbital guess generated from atomic densities. Full valence occupancy:    9   2

 Molecular orbital dump at record        2100.2

 Initial occupancy:   7   1

 ITERATION    DDIFF          GRAD             ENERGY        2-EL.EN.            DIPOLE MOMENTS         DIIS   ORB.
    1      0.000D+00      0.000D+00      -129.86785223    154.286590    0.00000    0.58606   -1.03730    0    start
    2      0.000D+00      0.136D-01      -129.89460509    155.388622    0.00000    0.61577   -0.21894    1    diag
    3      0.185D-01      0.104D-01      -129.91687548    155.520711    0.00000    0.56153   -0.59761    2    diag
    4      0.900D-02      0.155D-02      -129.91760801    155.256182    0.00000    0.57045   -0.53854    3    diag
    5      0.166D-02      0.514D-03      -129.91772181    155.341191    0.00000    0.57570   -0.53948    4    diag
    6      0.716D-03      0.153D-03      -129.91774066    155.326270    0.00000    0.57621   -0.53531    5    diag
    7      0.277D-03      0.769D-04      -129.91774623    155.328537    0.00000    0.57742   -0.53278    6    diag
    8      0.192D-03      0.246D-04      -129.91774676    155.327844    0.00000    0.57742   -0.53196    7    diag
    9      0.653D-04      0.445D-05      -129.91774678    155.327730    0.00000    0.57737   -0.53181    8    diag
   10      0.126D-04      0.974D-06      -129.91774678    155.327713    0.00000    0.57734   -0.53178    9    orth
   11      0.276D-05      0.191D-06      -129.91774678    155.327710    0.00000    0.57733   -0.53178    9    diag
   12      0.504D-06      0.401D-07      -129.91774678    155.327708    0.00000    0.57733   -0.53178    9    diag
   13      0.110D-06      0.995D-08      -129.91774678    155.327708    0.00000    0.57733   -0.53178    9    diag
   14      0.274D-07      0.178D-08      -129.91774678    155.327708    0.00000    0.57733   -0.53178    9    diag
   15      0.429D-08      0.456D-09      -129.91774678    155.327708    0.00000    0.57733   -0.53178    9    diag
   16      0.103D-08      0.108D-09      -129.91774678    155.327708    0.00000    0.57733   -0.53178    9    diag
   17      0.173D-09      0.296D-10      -129.91774678    155.327708    0.00000    0.57733   -0.53178    9    diag
   18      0.496D-10      0.958D-11      -129.91774678    155.327708    0.00000    0.57733   -0.53178    9    diag
   19      0.209D-10      0.192D-11      -129.91774678    155.327708    0.00000    0.57733   -0.53178    0    orth

 Final occupancy:   7   1

 !RHF STATE 1.1 Energy               -129.917746782976
 Nuclear energy                        30.39934020
 One-electron energy                 -237.98094091
 Two-electron energy                   77.66385393
 Virial quotient                       -0.99747017
 !RHF STATE 1.1 Dipole moment           0.00000000     0.57733164    -0.53177875
 Dipole moment /Debye                   0.00000000     1.46733455    -1.35155823

 Orbital energies:

         1.1          2.1          3.1          4.1          5.1          6.1          7.1          8.1          9.1
    -20.664726   -15.716269    -1.527979    -0.992864    -0.743671    -0.661597    -0.427583     0.144550     0.369525

         1.2          2.2          3.2
     -0.591928     0.086597     0.613010

 HOMO      7.1    -0.427583 =     -11.6351eV
 LUMO      2.2     0.086597 =       2.3564eV
 LUMO-HOMO         0.514180 =      13.9915eV


 **********************************************************************************************************************************
 DATASETS  * FILE   NREC   LENGTH (MB)   RECORD NAMES
              1      23       36.03       500      610      700      900      950      970     1000      129      960     1700   
                                          VAR    BASINP    GEOM    SYMINP    ZMAT    AOBASIS   BASIS     P2S    ABASIS    OPER   
                                         1101     1401     1411     1412     1650     1100     1400     1410     1200     1210   
                                          SR      EKINR    POTR     PVPR    MOLCAS      S      EKIN      POT      H0       H01  
                                         1300     1080     1600   
                                         ERIS     AOSYM     SMH  

              2       4        2.85       700     1000      520     2100   
                                         GEOM     BASIS   MCVARS     RHF  

 PROGRAMS   *        TOTAL        HF       INT
 CPU TIMES  *         0.85      0.23      0.52
 REAL TIME  *         1.47 SEC
 DISK USED  *        75.75 MB      
 **********************************************************************************************************************************


 PROGRAM * CCSD (Closed-shell coupled cluster)     Authors: C. Hampel, H.-J. Werner, 1991, M. Deegan, P.J. Knowles, 1992


 Convergence thresholds:  THRVAR = 1.00D-08  THRDEN = 1.00D-12

 CCSD(T)     terms to be evaluated (factor= 1.000)


 Number of core orbitals:           2 (   2   0 )
 Number of closed-shell orbitals:   6 (   5   1 )
 Number of external orbitals:      66 (  43  23 )

 Molecular orbitals read from record     2100.2  Type=RHF/CANONICAL (state 1.1)

 Number of N-1 electron functions:               6
 Number of N-2 electron functions:              21
 Number of singly external CSFs:               238
 Number of doubly external CSFs:             41002
 Total number of CSFs:                       41241

 Length of J-op  integral file:               0.00 MB
 Length of K-op  integral file:               0.25 MB
 Length of 3-ext integral record:             0.00 MB

 Memory could be reduced to 1.65 Mwords without degradation in triples

 Integral transformation finished. Total CPU:   0.03 sec, npass=  1  Memory used:   0.55 MW

 Reference energy:                   -129.91774678

 MP2 singlet pair energy:              -0.27364345
 MP2 triplet pair energy:              -0.16251604
 MP2 correlation energy:               -0.43615949
 MP2 total energy:                   -130.35390627

 SCS-MP2 correlation energy:           -0.42949323   (PS=  1.200000  PT=  0.333333)
 SCS-MP2 total energy:               -130.34724001

 ITER.      SQ.NORM     CORR.ENERGY   TOTAL ENERGY   ENERGY CHANGE        DEN1      VAR(S)    VAR(P)  DIIS     TIME  TIME/IT
   1      1.11826076    -0.44124225  -130.35898903    -0.00508276     0.01064606  0.29D-02  0.30D-02  1  1     0.06     0.04
   2      1.12905411    -0.44149822  -130.35924501    -0.00025598    -0.01224948  0.87D-04  0.50D-03  2  2     0.10     0.04
   3      1.13527842    -0.44187702  -130.35962381    -0.00037880    -0.00296274  0.45D-04  0.50D-04  3  3     0.13     0.04
   4      1.13805682    -0.44190467  -130.35965145    -0.00002765    -0.00095152  0.38D-05  0.87D-05  4  4     0.17     0.04
   5      1.13903005    -0.44193341  -130.35968019    -0.00002874    -0.00020193  0.13D-05  0.16D-05  5  5     0.20     0.04
   6      1.13937966    -0.44191706  -130.35966385     0.00001634    -0.00003995  0.91D-07  0.40D-06  6  6     0.23     0.04
   7      1.13946202    -0.44191920  -130.35966599    -0.00000214    -0.00000185  0.11D-07  0.86D-07  6  1     0.27     0.04
   8      1.13949168    -0.44191916  -130.35966594     0.00000004     0.00000201  0.44D-08  0.99D-08  6  2     0.30     0.04
   9      1.13949901    -0.44191901  -130.35966579     0.00000015    -0.00000228  0.24D-08  0.11D-08  6  3     0.33     0.04
  10      1.13949776    -0.44191949  -130.35966627    -0.00000048     0.00000066  0.46D-09  0.19D-09  6  4     0.37     0.04
  11      1.13949613    -0.44191955  -130.35966633    -0.00000006     0.00000014  0.14D-09  0.21D-10  6  5     0.41     0.04
  12      1.13949481    -0.44191972  -130.35966650    -0.00000017     0.00000041  0.14D-10  0.68D-11  6  6     0.44     0.04
  13      1.13949425    -0.44191972  -130.35966651    -0.00000001     0.00000011  0.60D-11  0.11D-11  6  1     0.47     0.04
  14      1.13949389    -0.44191974  -130.35966652    -0.00000002     0.00000007  0.85D-12  0.39D-12  6  2     0.51     0.04
  15      1.13949376    -0.44191974  -130.35966653    -0.00000000     0.00000001  0.22D-12  0.13D-12  6  3     0.54     0.04
  16      1.13949366    -0.44191974  -130.35966653    -0.00000000     0.00000001  0.22D-13  0.15D-13  6  5     0.58     0.04
  17      1.13949364    -0.44191975  -130.35966653    -0.00000000     0.00000000  0.60D-15  0.19D-14  6  4     0.62     0.04
  18      1.13949363    -0.44191975  -130.35966653     0.00000000    -0.00000000  0.43D-15  0.27D-15  6  1     0.65     0.04
  19      1.13949363    -0.44191975  -130.35966653    -0.00000000     0.00000000  0.41D-16  0.48D-16  6  6     0.69     0.04
  20      1.13949363    -0.44191975  -130.35966653    -0.00000000     0.00000000  0.94D-17  0.12D-16  6  2     0.72     0.04
  21      1.13949363    -0.44191975  -130.35966653    -0.00000000     0.00000000  0.15D-17  0.93D-18  6  5     0.76     0.04
  22      1.13949363    -0.44191975  -130.35966653    -0.00000000     0.00000000  0.90D-19  0.73D-19  6  3     0.79     0.04
  23      1.13949363    -0.44191975  -130.35966653     0.00000000    -0.00000000  0.26D-19  0.15D-19  6  4     0.83     0.04
  24      1.13949363    -0.44191975  -130.35966653     0.00000000    -0.00000000  0.39D-20  0.42D-20  6  1     0.87     0.04
  25      1.13949363    -0.44191975  -130.35966653     0.00000000    -0.00000000  0.52D-21  0.71D-21  6  6     0.91     0.04

 Norm of t1 vector:      0.07449831      S-energy:     0.00000000      T1 diagnostic:  0.01520690
                                                                       D1 diagnostic:  0.04234340

 Doubles amplitudes (print threshold =  0.500E-01):

         I         J         SYM. A    SYM. B    A         B      T(IJ, AB)

         6         6         2         2         1         1     -0.14374242


 Total CPU time for triples:      0.23 sec


 RESULTS
 =======

  Reference energy                   -129.917746782976
  CCSD singlet pair energy             -0.302962197789
  CCSD triplet pair energy             -0.138957547856
  CCSD correlation energy              -0.441919745645

  Triples (T) contribution             -0.019749698578
  Total correlation energy             -0.461669444223

  CCSD total energy                  -130.359666528621
  CCSD[T] energy                     -130.380424518749
  CCSD-T energy                      -130.379021366918
 !CCSD(T) total energy               -130.379416227199

 Timing summary (sec):

 STEP                 CPU(USER)    SYS     CPU(TOT)    WALL
 Transformation          0.03      0.01      0.04      0.04
 CCSD iterations         0.88      0.12      1.00      1.00
 Triples                 0.23      0.01      0.24      0.24

 Program statistics:

 Available memory in ccsd:               994999756
 Min. memory needed in ccsd:                154850
 Max. memory used in ccsd:                  184802
 Max. memory used in cckext:                238416 (25 integral passes)



 **********************************************************************************************************************************
 DATASETS  * FILE   NREC   LENGTH (MB)   RECORD NAMES
              1      24       40.41       500      610      700      900      950      970     1000      129      960     1700   
                                          VAR    BASINP    GEOM    SYMINP    ZMAT    AOBASIS   BASIS     P2S    ABASIS    OPER   
                                         1101     1401     1411     1412     1650     1100     1400     1410     1200     1210   
                                          SR      EKINR    POTR     PVPR    MOLCAS      S      EKIN      POT      H0       H01  
                                         1300     1080     1600     1380   
                                         ERIS     AOSYM     SMH     JKOP   

              2       4        2.85       700     1000      520     2100   
                                         GEOM     BASIS   MCVARS     RHF  

 PROGRAMS   *        TOTAL   CCSD(T)        HF       INT
 CPU TIMES  *         2.02      1.17      0.23      0.52
 REAL TIME  *         2.79 SEC
 DISK USED  *        75.75 MB      
 **********************************************************************************************************************************

 CCSD(T)/cc-pVTZ-DK energy=   -130.379416227199

        CCSD(T)         HF-SCF  
   -130.37941623   -129.91774678
 **********************************************************************************************************************************
 Molpro calculation terminated
 Variable memory released
