
 Primary working directories    : /tmp/r2666/232733.maple
 Secondary working directories  : /tmp/r2666/232733.maple
 Wavefunction directory         : /ddn/home4/r2666/wfu/
 Main file repository           : /tmp/r2666/232733.maple/

 SHA1      : d5ffa45e93fdbca01ffc919aa182cfdae0147319
 NAME      : 2015.1.35
 ARCHNAME  : linux/x86_64
 FC        : /opt/intel/composer_xe_2015.1.133/bin/intel64/ifort
 BLASLIB   : -Wl,-_start-group /opt/intel/mkl/lib/intel64/libmkl_intel_ilp64.a /opt/intel/mkl/lib/intel64/libmkl_intel_thread.a /opt/intel/mkl/lib/intel64/libmkl_core.a -Wl,-_end-group
 id        : olemiss

 Nodes     nprocs
 cn084        1

 Using customized tuning parameters: mindgm=1; mindgv=20; mindgc=4; mindgr=1; noblas=0; minvec=7
 default implementation of scratch files=df  

 ***,hcn CCSD(T)/TZ-F12 QFF
 memory, 995, m;
 gthresh,energy=1.d-12,zero=1.d-22,oneint=1.d-22,twoint=1.d-22;
 gthresh,optgrad=1.d-8,optstep=1.d-8;
 nocompress;
 geomtyp=xyz
 bohr
 geometry={
 3
         12        12
 N        0.0000000000        0.0000000000        1.1121032177
 C        0.0000000000        0.0000000000       -1.0572978193
 H        0.0000000000        0.0000000000       -3.0518753804
 }
 
 basis={
 default=aug-cc-pvtz
 s,C,8236.0,1235.0,280.8, 79.27,25.59, 8.997,3.319
 s,C,0.9059,0.3643,0.1285000
 p,C,56.0,18.71,4.133,0.2827,0.3827,0.1209
 d,C,30.0,10.0,3.3,1.097,0.318
 f,C,7.0,2.3,0.7610
 s,N,11420.0,1712.0,389.3,110.0,35.57,12.54,4.644
 s,N,1.293,0.5118,0.1787
 p,N,79.89,26.63,5.948,1.742,0.555,0.1725
 d,N,45.0,15.0,5.0,1.654,0.469
 f,N,9.9,3.3,1.093
 s,O,15330.0,2299.0,522.4,147.3,47.55,16.76,6.207
 s,O,1.752,0.6882,0.2384
 p,O,103.5,34.46,7.749,2.28,0.7156,0.214
 d,O,63.0,21.0,7.0,2.314,0.645
 f,O,12.9,4.3,1.428
 s,mg,164900.0,24710.0,5628.0,1596.0,521.0;
 s,mg,188.0,73.01,29.90,12.54,4.306,1.826;
 s,mg,0.7417,0.0761,0.145,0.033,0.0129;
 p,mg,950.70,316.90,74.86,23.72,8.669,3.363;
 p,mg,1.310,0.4911,0.2364,0.08733,0.03237,0.00745;
 d,mg,1.601,0.686,0.126,0.294,0.0468;
 f,mg,1.372,0.588,0.094,0.252;
 }
   {hf,maxit=500;accu,20;}
 {ccsd(t),nocheck,maxit=250;orbital,IGNORE_ERROR;core}

 Variables initialized (889), CPU time= 0.00 sec
 Commands  initialized (702), CPU time= 0.01 sec, 572 directives.
 Default parameters read. Elapsed time= 0.05 sec

 Checking input...
 Passed
1


                                         ***  PROGRAM SYSTEM MOLPRO  ***
                                       Copyright, TTI GmbH Stuttgart, 2015
                                    Version 2015.1 linked Jul  9 2018 13:16:40


 **********************************************************************************************************************************
 LABEL *   hcn CCSD(T)/TZ-F12 QFF                                                        
  64 bit serial version                                                                  DATE: 06-Feb-20          TIME: 09:55:17  
 **********************************************************************************************************************************

 SHA1:             d5ffa45e93fdbca01ffc919aa182cfdae0147319
 **********************************************************************************************************************************

 THRESHOLDS:

 ZERO    =  1.00D-22  ONEINT  =  1.00D-22  TWOINT  =  1.00D-22  PREFAC  =  1.00D-14  LOCALI  =  1.00D-09  EORDER  =  1.00D-04
 ENERGY  =  1.00D-12  ETEST   =  0.00D+00  EDENS   =  0.00D+00  THRDEDEF=  1.00D-06  GRADIENT=  1.00D-02  STEP    =  1.00D-03
 ORBITAL =  1.00D-05  CIVEC   =  1.00D-05  COEFF   =  1.00D-04  PRINTCI =  5.00D-02  PUNCHCI =  9.90D+01  OPTGRAD =  3.00D-04
 OPTENERG=  1.00D-06  OPTSTEP =  3.00D-04  THRGRAD =  1.00D-10  COMPRESS=  1.00D-11  VARMIN  =  1.00D-07  VARMAX  =  1.00D-03
 THRDOUB =  0.00D+00  THRDIV  =  1.00D-05  THRRED  =  1.00D-07  THRPSP  =  1.00D+00  THRDC   =  1.00D-10  THRCS   =  1.00D-10
 THRNRM  =  1.00D-08  THREQ   =  0.00D+00  THRDE   =  1.00D+00  THRREF  =  1.00D-05  SPARFAC =  1.00D+00  THRDLP  =  1.00D-07
 THRDIA  =  1.00D-10  THRDLS  =  1.00D-07  THRGPS  =  0.00D+00  THRKEX  =  0.00D+00  THRDIS  =  2.00D-01  THRVAR  =  1.00D-10
 THRLOC  =  1.00D-06  THRGAP  =  1.00D-06  THRLOCT = -1.00D+00  THRGAPT = -1.00D+00  THRORB  =  1.00D-06  THRMLTP =  0.00D+00
 THRCPQCI=  1.00D-10  KEXTA   =  0.00D+00  THRCOARS=  0.00D+00  SYMTOL  =  1.00D-06  GRADTOL =  1.00D-06  THROVL  =  1.00D-08
 THRORTH =  1.00D-08  GRID    =  1.00D-06  GRIDMAX =  1.00D-03  DTMAX   =  0.00D+00  THROCCDE=  1.00D-01  THROCCDE=  1.00D-01



 THRESHOLDS:

 ZERO    =  1.00D-22  ONEINT  =  1.00D-22  TWOINT  =  1.00D-22  PREFAC  =  1.00D-14  LOCALI  =  1.00D-09  EORDER  =  1.00D-04
 ENERGY  =  1.00D-12  ETEST   =  0.00D+00  EDENS   =  0.00D+00  THRDEDEF=  1.00D-06  GRADIENT=  1.00D-02  STEP    =  1.00D-03
 ORBITAL =  1.00D-05  CIVEC   =  1.00D-05  COEFF   =  1.00D-04  PRINTCI =  5.00D-02  PUNCHCI =  9.90D+01  OPTGRAD =  1.00D-08
 OPTENERG=  1.00D-06  OPTSTEP =  1.00D-08  THRGRAD =  1.00D-10  COMPRESS=  1.00D-11  VARMIN  =  1.00D-07  VARMAX  =  1.00D-03
 THRDOUB =  0.00D+00  THRDIV  =  1.00D-05  THRRED  =  1.00D-07  THRPSP  =  1.00D+00  THRDC   =  1.00D-10  THRCS   =  1.00D-10
 THRNRM  =  1.00D-08  THREQ   =  0.00D+00  THRDE   =  1.00D+00  THRREF  =  1.00D-05  SPARFAC =  1.00D+00  THRDLP  =  1.00D-07
 THRDIA  =  1.00D-10  THRDLS  =  1.00D-07  THRGPS  =  0.00D+00  THRKEX  =  0.00D+00  THRDIS  =  2.00D-01  THRVAR  =  1.00D-10
 THRLOC  =  1.00D-06  THRGAP  =  1.00D-06  THRLOCT = -1.00D+00  THRGAPT = -1.00D+00  THRORB  =  1.00D-06  THRMLTP =  0.00D+00
 THRCPQCI=  1.00D-10  KEXTA   =  0.00D+00  THRCOARS=  0.00D+00  SYMTOL  =  1.00D-06  GRADTOL =  1.00D-06  THROVL  =  1.00D-08
 THRORTH =  1.00D-08  GRID    =  1.00D-06  GRIDMAX =  1.00D-03  DTMAX   =  0.00D+00  THROCCDE=  1.00D-01  THROCCDE=  1.00D-01



 Input parameters for SORTINT:

 COMPRESS =    0.000000
 C_FINAL  =    1.000000
 DEBUG    =   -1.000000
 C_SORT1  =    0.000000
 C_SEWARD =    0.000000
 THRESH   =    0.000000
 IO       =  molpro                                                          
 SPRI     =    0.000000
 SETTING GEOMTYP        =    XYZ
 ZUNIT=BOHR
 

 Variable memory set to  995000000 words,  buffer space   230000 words

 SETTING BASIS          =    USERDEF


 Recomputing integrals since basis changed


 Using spherical harmonics

 Library entry H      S aug-cc-pVTZ          selected for orbital group  3
 Library entry H      P aug-cc-pVTZ          selected for orbital group  3
 Library entry H      D aug-cc-pVTZ          selected for orbital group  3


 PROGRAM * SEWARD (Integral evaluation for generally contracted gaussian basis sets)     Author: Roland Lindh, 1990

 Geometry written to block  1 of record 700


 Point group  C2v 



 ATOMIC COORDINATES

 NR  ATOM    CHARGE       X              Y              Z

   1  N       7.00    0.000000000    0.000000000    1.112103218
   2  C       6.00    0.000000000    0.000000000   -1.057297819
   3  H       1.00    0.000000000    0.000000000   -3.051875380

 Bond lengths in Bohr (Angstrom)

 1-2  2.169401037  2-3  1.994577561
     ( 1.147997590)     ( 1.055484991)

 Bond angles

  1-2-3  179.99999879

 NUCLEAR CHARGE:                   14
 NUMBER OF PRIMITIVE AOS:         203
 NUMBER OF SYMMETRY AOS:          173
 NUMBER OF CONTRACTIONS:          171   (  75A1  +  39B1  +  39B2  +  18A2  )
 NUMBER OF CORE ORBITALS:           2   (   2A1  +   0B1  +   0B2  +   0A2  )
 NUMBER OF VALENCE ORBITALS:        9   (   5A1  +   2B1  +   2B2  +   0A2  )


 NUCLEAR REPULSION ENERGY   24.04942280

 EXTRA SYMMETRY OF AOS IN SYMMETRY 1:   1 1 1 1 1 1 1 1 1 1   1 1 1 1 1 1 1 2 1 2   1 2 1 2 1 2 1 2 1 2   1 2 1 1 1 1 1 1 1 1
                                        1 1 1 1 1 1 1 1 1 2   1 2 1 2 1 2 1 2 1 2   1 2 1 2 1 1 1 1 1 1   1 1 2 1 2
 EXTRA SYMMETRY OF AOS IN SYMMETRY 2:   1 1 1 1 1 1 1 1 1 1   1 1 2 1 2 1 2 1 1 1   1 1 1 1 1 1 1 1 1 2   1 2 1 2 1 1 1 1 1
 EXTRA SYMMETRY OF AOS IN SYMMETRY 3:   1 1 1 1 1 1 1 1 1 1   1 1 2 1 2 1 2 1 1 1   1 1 1 1 1 1 1 1 1 2   1 2 1 2 1 1 1 1 1

 Eigenvalues of metric

         1 0.233E-03 0.506E-03 0.879E-03 0.135E-02 0.315E-02 0.731E-02 0.977E-02 0.131E-01
         2 0.536E-02 0.154E-01 0.211E-01 0.337E-01 0.957E-01 0.111E+00 0.125E+00 0.187E+00
         3 0.536E-02 0.154E-01 0.211E-01 0.337E-01 0.957E-01 0.111E+00 0.125E+00 0.187E+00
         4 0.124E+00 0.139E+00 0.193E+00 0.254E+00 0.314E+00 0.379E+00 0.483E+00 0.595E+00


 Contracted 2-electron integrals neglected if value below      1.0D-22

       21776974. INTEGRALS WRITTEN OUT IN    5318 BLOCKS ON RECORD 1290 OF FILE 1


 NUMBER OF SORTED TWO-ELECTRON INTEGRALS:   28272141.     BUFFER LENGTH:  32768
 NUMBER OF SEGMENTS:   2  SEGMENT LENGTH:   15998211      RECORD LENGTH: 524288

 Memory used in sort:      16.56 MW

 SORT1 READ    21776974. AND WROTE    22175727. INTEGRALS IN     65 RECORDS. CPU TIME:     0.48 SEC, REAL TIME:     0.62 SEC
 SORT2 READ    22175727. AND WROTE    28272141. INTEGRALS IN      2 RECORDS. CPU TIME:     0.35 SEC, REAL TIME:     0.50 SEC

 FILE SIZES:   FILE 1:   369.1 MBYTE,  FILE 4:   272.7 MBYTE,   TOTAL:    641.8 MBYTE

 OPERATOR DM      FOR CENTER  0  COORDINATES:    0.000000    0.000000    0.000000


 **********************************************************************************************************************************
 DATASETS  * FILE   NREC   LENGTH (MB)   RECORD NAMES
              1      19      213.67       500      610      700      900      950      970     1000      129      960     1100   
                                          VAR    BASINP    GEOM    SYMINP    ZMAT    AOBASIS   BASIS     P2S    ABASIS      S 
                                         1400     1410     1200     1210     1080     1600     1650     1300     1700   
                                           T        V       H0       H01     AOSYM     SMH    MOLCAS    ERIS     OPER   

 PROGRAMS   *        TOTAL       INT
 CPU TIMES  *         3.12      3.03
 REAL TIME  *         4.57 SEC
 DISK USED  *       642.14 MB      
 **********************************************************************************************************************************


 PROGRAM * RHF-SCF (CLOSED SHELL)       Authors: W. Meyer, H.-J. Werner


 NUMBER OF ELECTRONS:       7+    7-
 CONVERGENCE THRESHOLDS:    1.00E-10 (Density)    1.00E-13 (Energy)
 MAX. NUMBER OF ITERATIONS:      500
 INTERPOLATION TYPE:            DIIS
 INTERPOLATION STEPS:              2 (START)      1 (STEP)
 LEVEL SHIFTS:                  0.00 (CLOSED)  0.00 (OPEN) 



 Orbital guess generated from atomic densities. Full valence occupancy:    7   2   2   0

 Molecular orbital dump at record        2100.2

 Initial occupancy:   5   1   1   0

 ITERATION    DDIFF          GRAD             ENERGY        2-EL.EN.            DIPOLE MOMENTS         DIIS   ORB.
    1      0.000D+00      0.000D+00       -92.77193360    111.977386    0.00000    0.00000   -2.00854    0    start
    2      0.000D+00      0.910D-02       -92.78454853    110.249344    0.00000    0.00000   -0.95014    1    diag
    3      0.336D-01      0.779D-02       -92.80592679    111.174946    0.00000    0.00000   -1.44335    2    diag
    4      0.115D-01      0.566D-03       -92.80617513    111.126830    0.00000    0.00000   -1.43619    3    diag
    5      0.187D-02      0.124D-03       -92.80618933    111.133986    0.00000    0.00000   -1.43495    4    diag
    6      0.505D-03      0.320D-04       -92.80619006    111.130062    0.00000    0.00000   -1.43524    5    diag
    7      0.388D-04      0.113D-04       -92.80619014    111.131044    0.00000    0.00000   -1.43529    6    diag
    8      0.151D-04      0.226D-05       -92.80619014    111.131025    0.00000    0.00000   -1.43528    7    diag
    9      0.770D-05      0.250D-06       -92.80619014    111.131032    0.00000    0.00000   -1.43527    8    diag
   10      0.129D-05      0.284D-07       -92.80619014    111.131034    0.00000    0.00000   -1.43527    9    orth
   11      0.130D-06      0.368D-08       -92.80619014    111.131034    0.00000    0.00000   -1.43527    9    diag
   12      0.122D-07      0.382D-09       -92.80619014    111.131034    0.00000    0.00000   -1.43527    9    diag
   13      0.117D-08      0.489D-10       -92.80619014    111.131034    0.00000    0.00000   -1.43527    9    diag
   14      0.167D-09      0.691D-11       -92.80619014    111.131034    0.00000    0.00000   -1.43527    9    diag
   15      0.262D-10      0.144D-11       -92.80619014    111.131034    0.00000    0.00000   -1.43527    9    diag
   16      0.618D-11      0.464D-12       -92.80619014    111.131034    0.00000    0.00000   -1.43527    9    diag
   17      0.712D-12      0.236D-12       -92.80619014    111.131034    0.00000    0.00000   -1.43527    9    diag
   18      0.117D-11      0.474D-12       -92.80619014    111.131034    0.00000    0.00000   -1.43527    0    orth

 Final occupancy:   5   1   1   0

 !RHF STATE 1.1 Energy                -92.806190139774
 Nuclear energy                        24.04942280
 One-electron energy                 -172.42112973
 Two-electron energy                   55.56551679
 Virial quotient                       -1.00191895
 !RHF STATE 1.1 Dipole moment           0.00000000     0.00000000    -1.43527282
 Dipole moment /Debye                   0.00000000     0.00000000    -3.64786069

 Orbital energies:

         1.1          2.1          3.1          4.1          5.1          6.1          7.1
    -15.589537   -11.397281    -1.256489    -0.839247    -0.578129     0.032736     0.153535

         1.2          2.2          3.2
     -0.492183     0.134566     0.307596

         1.3          2.3          3.3
     -0.492183     0.134566     0.307596

         1.4          2.4
      0.682617     0.964740

 HOMO      1.2    -0.492183 =     -13.3930eV
 LUMO      6.1     0.032736 =       0.8908eV
 LUMO-HOMO         0.524919 =      14.2838eV


 **********************************************************************************************************************************
 DATASETS  * FILE   NREC   LENGTH (MB)   RECORD NAMES
              1      19      213.67       500      610      700      900      950      970     1000      129      960     1100   
                                          VAR    BASINP    GEOM    SYMINP    ZMAT    AOBASIS   BASIS     P2S    ABASIS      S 
                                         1400     1410     1200     1210     1080     1600     1650     1300     1700   
                                           T        V       H0       H01     AOSYM     SMH    MOLCAS    ERIS     OPER   

              2       4        2.98       700     1000      520     2100   
                                         GEOM     BASIS   MCVARS     RHF  

 PROGRAMS   *        TOTAL        HF       INT
 CPU TIMES  *         4.96      1.84      3.03
 REAL TIME  *         6.81 SEC
 DISK USED  *       642.14 MB      
 **********************************************************************************************************************************


 PROGRAM * CCSD (Closed-shell coupled cluster)     Authors: C. Hampel, H.-J. Werner, 1991, M. Deegan, P.J. Knowles, 1992


 Convergence thresholds:  THRVAR = 1.00D-08  THRDEN = 1.00D-12

 CCSD(T)     terms to be evaluated (factor= 1.000)


 Number of closed-shell orbitals:   7 (   5   1   1   0 )
 Number of external orbitals:     164 (  70  38  38  18 )

 Molecular orbitals read from record     2100.2  Type=RHF/CANONICAL (state 1.1)

 Number of N-1 electron functions:               7
 Number of N-2 electron functions:              28
 Number of singly external CSFs:               426
 Number of doubly external CSFs:            182374
 Total number of CSFs:                      182801

 Length of J-op  integral file:               0.00 MB
 Length of K-op  integral file:               0.65 MB
 Length of 3-ext integral record:             0.00 MB

 Memory could be reduced to 11.98 Mwords without degradation in triples

 Integral transformation finished. Total CPU:   0.27 sec, npass=  1  Memory used:   1.63 MW

 Reference energy:                    -92.80619014

 MP2 singlet pair energy:              -0.30552990
 MP2 triplet pair energy:              -0.13906477
 MP2 correlation energy:               -0.44459467
 MP2 total energy:                    -93.25078481

 SCS-MP2 correlation energy:           -0.45316507   (PS=  1.200000  PT=  0.333333)
 SCS-MP2 total energy:                -93.25935521

 ITER.      SQ.NORM     CORR.ENERGY   TOTAL ENERGY   ENERGY CHANGE        DEN1      VAR(S)    VAR(P)  DIIS     TIME  TIME/IT
   1      1.11100603    -0.45131452   -93.25750466    -0.00671985     0.00579019  0.24D-02  0.26D-02  1  1     0.60     0.35
   2      1.11965119    -0.45157212   -93.25776226    -0.00025760    -0.01003633  0.54D-04  0.35D-03  2  2     0.93     0.36
   3      1.12322161    -0.45173689   -93.25792703    -0.00016477    -0.00175307  0.18D-04  0.49D-04  3  3     1.25     0.36
   4      1.12548354    -0.45175037   -93.25794051    -0.00001348    -0.00100688  0.91D-06  0.48D-05  4  4     1.58     0.36
   5      1.12601441    -0.45175469   -93.25794483    -0.00000432    -0.00014980  0.17D-06  0.39D-06  5  5     1.89     0.36
   6      1.12609085    -0.45175791   -93.25794805    -0.00000323    -0.00000387  0.79D-08  0.33D-07  6  6     2.21     0.36
   7      1.12610466    -0.45175868   -93.25794882    -0.00000077    -0.00000354  0.17D-08  0.27D-08  6  1     2.54     0.36
   8      1.12610742    -0.45175883   -93.25794897    -0.00000014    -0.00000117  0.21D-09  0.17D-09  6  2     2.87     0.36
   9      1.12610737    -0.45175889   -93.25794903    -0.00000007     0.00000018  0.21D-10  0.19D-10  6  3     3.20     0.36
  10      1.12610754    -0.45175891   -93.25794905    -0.00000002    -0.00000001  0.46D-11  0.19D-11  6  4     3.51     0.36
  11      1.12610754    -0.45175892   -93.25794906    -0.00000001     0.00000002  0.59D-12  0.43D-12  6  5     3.83     0.36
  12      1.12610750    -0.45175892   -93.25794906    -0.00000000     0.00000003  0.39D-13  0.82D-13  6  6     4.14     0.36
  13      1.12610747    -0.45175892   -93.25794906    -0.00000000     0.00000001  0.18D-14  0.11D-13  6  1     4.45     0.36
  14      1.12610745    -0.45175892   -93.25794906    -0.00000000     0.00000001  0.38D-15  0.18D-14  6  2     4.76     0.36
  15      1.12610744    -0.45175892   -93.25794906    -0.00000000     0.00000000  0.29D-16  0.12D-15  6  4     5.08     0.36
  16      1.12610744    -0.45175892   -93.25794906    -0.00000000     0.00000000  0.68D-17  0.75D-17  6  3     5.41     0.36
  17      1.12610744    -0.45175892   -93.25794906    -0.00000000     0.00000000  0.12D-17  0.10D-17  6  5     5.74     0.36
  18      1.12610744    -0.45175892   -93.25794906    -0.00000000     0.00000000  0.12D-18  0.86D-19  6  6     6.07     0.36
  19      1.12610744    -0.45175892   -93.25794906    -0.00000000     0.00000000  0.26D-19  0.85D-20  6  1     6.39     0.36
  20      1.12610744    -0.45175892   -93.25794906    -0.00000000     0.00000000  0.32D-20  0.28D-20  6  2     6.71     0.36
  21      1.12610744    -0.45175892   -93.25794906    -0.00000000     0.00000000  0.43D-21  0.52D-21  6  4     7.01     0.36
  22      1.12610744    -0.45175892   -93.25794906     0.00000000    -0.00000000  0.16D-22  0.72D-22  6  3     7.33     0.36

 Norm of t1 vector:      0.06291522      S-energy:    -0.00000000      T1 diagnostic:  0.01188986
                                                                       D1 diagnostic:  0.02783515

 Doubles amplitudes (print threshold =  0.500E-01):

         I         J         SYM. A    SYM. B    A         B      T(IJ, AB)

         6         6         2         2         1         1     -0.05720958
         7         7         3         3         1         1     -0.05720958


 Total CPU time for triples:      3.59 sec


 RESULTS
 =======

  Reference energy                    -92.806190139774

  Correlated core orbitals:             1.1       2.1
  Orbital energies:                   -15.5895  -11.3973
 
  CCSD core-core energy                -0.079694960368
  CCSD core-valence energy             -0.029390937855
  CCSD valence correlation energy      -0.342673020351
 
  CCSD singlet pair energy             -0.330551104548
  CCSD triplet pair energy             -0.121207814025
  CCSD correlation energy              -0.451758918573

  Triples (T) contribution             -0.017808181287
  Total correlation energy             -0.469567099860

  CCSD total energy                   -93.257949058347
  CCSD[T] energy                      -93.276509392621
  CCSD-T energy                       -93.275399213428
 !CCSD(T) total energy                -93.275757239634

 Timing summary (sec):

 STEP                 CPU(USER)    SYS     CPU(TOT)    WALL
 Transformation          0.28      0.09      0.37      0.39
 CCSD iterations         7.06      0.91      7.97      7.97
 Triples                 3.59      0.12      3.71      3.71

 Program statistics:

 Available memory in ccsd:               994999704
 Min. memory needed in ccsd:                607983
 Max. memory used in ccsd:                  763562
 Max. memory used in cckext:                768329 (22 integral passes)



 **********************************************************************************************************************************
 DATASETS  * FILE   NREC   LENGTH (MB)   RECORD NAMES
              1      20      249.82       500      610      700      900      950      970     1000      129      960     1100   
                                          VAR    BASINP    GEOM    SYMINP    ZMAT    AOBASIS   BASIS     P2S    ABASIS      S 
                                         1400     1410     1200     1210     1080     1600     1650     1300     1700     1380   
                                           T        V       H0       H01     AOSYM     SMH    MOLCAS    ERIS     OPER     JKOP   

              2       4        2.98       700     1000      520     2100   
                                         GEOM     BASIS   MCVARS     RHF  

 PROGRAMS   *        TOTAL   CCSD(T)        HF       INT
 CPU TIMES  *        15.92     10.96      1.84      3.03
 REAL TIME  *        18.93 SEC
 DISK USED  *       642.14 MB      
 **********************************************************************************************************************************

 CCSD(T)/USERDEF energy=    -93.275757239634

        CCSD(T)         HF-SCF  
    -93.27575724    -92.80619014
 **********************************************************************************************************************************
 Molpro calculation terminated
 Variable memory released
