
 Primary working directories    : /tmp/r2666/232773.maple
 Secondary working directories  : /tmp/r2666/232773.maple
 Wavefunction directory         : /ddn/home4/r2666/wfu/
 Main file repository           : /tmp/r2666/232773.maple/

 SHA1      : d5ffa45e93fdbca01ffc919aa182cfdae0147319
 NAME      : 2015.1.35
 ARCHNAME  : linux/x86_64
 FC        : /opt/intel/composer_xe_2015.1.133/bin/intel64/ifort
 BLASLIB   : -Wl,-_start-group /opt/intel/mkl/lib/intel64/libmkl_intel_ilp64.a /opt/intel/mkl/lib/intel64/libmkl_intel_thread.a /opt/intel/mkl/lib/intel64/libmkl_core.a -Wl,-_end-group
 id        : olemiss

 Nodes     nprocs
 cn075        1

 Using customized tuning parameters: mindgm=1; mindgv=20; mindgc=4; mindgr=1; noblas=0; minvec=7
 default implementation of scratch files=df  

 ***,hcn CCSD(T)/TZ-F12 QFF
 memory, 995, m;
 gthresh,energy=1.d-12,zero=1.d-22,oneint=1.d-22,twoint=1.d-22;
 gthresh,optgrad=1.d-8,optstep=1.d-8;
 nocompress;
 geomtyp=xyz
 bohr
 geometry={
 3
         52        52
 N        0.0000000000        0.0000000000        1.1404491076
 C        0.0000000000        0.0000000000       -1.0667464493
 H        0.0000000000        0.0000000000       -3.0707726403
 }
 
 basis={
 default=aug-cc-pvtz
 s,C,8236.0,1235.0,280.8, 79.27,25.59, 8.997,3.319
 s,C,0.9059,0.3643,0.1285000
 p,C,56.0,18.71,4.133,0.2827,0.3827,0.1209
 d,C,30.0,10.0,3.3,1.097,0.318
 f,C,7.0,2.3,0.7610
 s,N,11420.0,1712.0,389.3,110.0,35.57,12.54,4.644
 s,N,1.293,0.5118,0.1787
 p,N,79.89,26.63,5.948,1.742,0.555,0.1725
 d,N,45.0,15.0,5.0,1.654,0.469
 f,N,9.9,3.3,1.093
 s,O,15330.0,2299.0,522.4,147.3,47.55,16.76,6.207
 s,O,1.752,0.6882,0.2384
 p,O,103.5,34.46,7.749,2.28,0.7156,0.214
 d,O,63.0,21.0,7.0,2.314,0.645
 f,O,12.9,4.3,1.428
 s,mg,164900.0,24710.0,5628.0,1596.0,521.0;
 s,mg,188.0,73.01,29.90,12.54,4.306,1.826;
 s,mg,0.7417,0.0761,0.145,0.033,0.0129;
 p,mg,950.70,316.90,74.86,23.72,8.669,3.363;
 p,mg,1.310,0.4911,0.2364,0.08733,0.03237,0.00745;
 d,mg,1.601,0.686,0.126,0.294,0.0468;
 f,mg,1.372,0.588,0.094,0.252;
 }
   {hf,maxit=500;accu,20;}
 {ccsd(t),nocheck,maxit=250;orbital,IGNORE_ERROR;core}

 Variables initialized (889), CPU time= 0.00 sec
 Commands  initialized (702), CPU time= 0.01 sec, 572 directives.
 Default parameters read. Elapsed time= 0.05 sec

 Checking input...
 Passed
1


                                         ***  PROGRAM SYSTEM MOLPRO  ***
                                       Copyright, TTI GmbH Stuttgart, 2015
                                    Version 2015.1 linked Jul  9 2018 13:16:40


 **********************************************************************************************************************************
 LABEL *   hcn CCSD(T)/TZ-F12 QFF                                                        
  64 bit serial version                                                                  DATE: 06-Feb-20          TIME: 09:55:39  
 **********************************************************************************************************************************

 SHA1:             d5ffa45e93fdbca01ffc919aa182cfdae0147319
 **********************************************************************************************************************************

 THRESHOLDS:

 ZERO    =  1.00D-22  ONEINT  =  1.00D-22  TWOINT  =  1.00D-22  PREFAC  =  1.00D-14  LOCALI  =  1.00D-09  EORDER  =  1.00D-04
 ENERGY  =  1.00D-12  ETEST   =  0.00D+00  EDENS   =  0.00D+00  THRDEDEF=  1.00D-06  GRADIENT=  1.00D-02  STEP    =  1.00D-03
 ORBITAL =  1.00D-05  CIVEC   =  1.00D-05  COEFF   =  1.00D-04  PRINTCI =  5.00D-02  PUNCHCI =  9.90D+01  OPTGRAD =  3.00D-04
 OPTENERG=  1.00D-06  OPTSTEP =  3.00D-04  THRGRAD =  1.00D-10  COMPRESS=  1.00D-11  VARMIN  =  1.00D-07  VARMAX  =  1.00D-03
 THRDOUB =  0.00D+00  THRDIV  =  1.00D-05  THRRED  =  1.00D-07  THRPSP  =  1.00D+00  THRDC   =  1.00D-10  THRCS   =  1.00D-10
 THRNRM  =  1.00D-08  THREQ   =  0.00D+00  THRDE   =  1.00D+00  THRREF  =  1.00D-05  SPARFAC =  1.00D+00  THRDLP  =  1.00D-07
 THRDIA  =  1.00D-10  THRDLS  =  1.00D-07  THRGPS  =  0.00D+00  THRKEX  =  0.00D+00  THRDIS  =  2.00D-01  THRVAR  =  1.00D-10
 THRLOC  =  1.00D-06  THRGAP  =  1.00D-06  THRLOCT = -1.00D+00  THRGAPT = -1.00D+00  THRORB  =  1.00D-06  THRMLTP =  0.00D+00
 THRCPQCI=  1.00D-10  KEXTA   =  0.00D+00  THRCOARS=  0.00D+00  SYMTOL  =  1.00D-06  GRADTOL =  1.00D-06  THROVL  =  1.00D-08
 THRORTH =  1.00D-08  GRID    =  1.00D-06  GRIDMAX =  1.00D-03  DTMAX   =  0.00D+00  THROCCDE=  1.00D-01  THROCCDE=  1.00D-01



 THRESHOLDS:

 ZERO    =  1.00D-22  ONEINT  =  1.00D-22  TWOINT  =  1.00D-22  PREFAC  =  1.00D-14  LOCALI  =  1.00D-09  EORDER  =  1.00D-04
 ENERGY  =  1.00D-12  ETEST   =  0.00D+00  EDENS   =  0.00D+00  THRDEDEF=  1.00D-06  GRADIENT=  1.00D-02  STEP    =  1.00D-03
 ORBITAL =  1.00D-05  CIVEC   =  1.00D-05  COEFF   =  1.00D-04  PRINTCI =  5.00D-02  PUNCHCI =  9.90D+01  OPTGRAD =  1.00D-08
 OPTENERG=  1.00D-06  OPTSTEP =  1.00D-08  THRGRAD =  1.00D-10  COMPRESS=  1.00D-11  VARMIN  =  1.00D-07  VARMAX  =  1.00D-03
 THRDOUB =  0.00D+00  THRDIV  =  1.00D-05  THRRED  =  1.00D-07  THRPSP  =  1.00D+00  THRDC   =  1.00D-10  THRCS   =  1.00D-10
 THRNRM  =  1.00D-08  THREQ   =  0.00D+00  THRDE   =  1.00D+00  THRREF  =  1.00D-05  SPARFAC =  1.00D+00  THRDLP  =  1.00D-07
 THRDIA  =  1.00D-10  THRDLS  =  1.00D-07  THRGPS  =  0.00D+00  THRKEX  =  0.00D+00  THRDIS  =  2.00D-01  THRVAR  =  1.00D-10
 THRLOC  =  1.00D-06  THRGAP  =  1.00D-06  THRLOCT = -1.00D+00  THRGAPT = -1.00D+00  THRORB  =  1.00D-06  THRMLTP =  0.00D+00
 THRCPQCI=  1.00D-10  KEXTA   =  0.00D+00  THRCOARS=  0.00D+00  SYMTOL  =  1.00D-06  GRADTOL =  1.00D-06  THROVL  =  1.00D-08
 THRORTH =  1.00D-08  GRID    =  1.00D-06  GRIDMAX =  1.00D-03  DTMAX   =  0.00D+00  THROCCDE=  1.00D-01  THROCCDE=  1.00D-01



 Input parameters for SORTINT:

 COMPRESS =    0.000000
 C_FINAL  =    1.000000
 DEBUG    =   -1.000000
 C_SORT1  =    0.000000
 C_SEWARD =    0.000000
 THRESH   =    0.000000
 IO       =  molpro                                                          
 SPRI     =    0.000000
 SETTING GEOMTYP        =    XYZ
 ZUNIT=BOHR
 

 Variable memory set to  995000000 words,  buffer space   230000 words

 SETTING BASIS          =    USERDEF


 Recomputing integrals since basis changed


 Using spherical harmonics

 Library entry H      S aug-cc-pVTZ          selected for orbital group  3
 Library entry H      P aug-cc-pVTZ          selected for orbital group  3
 Library entry H      D aug-cc-pVTZ          selected for orbital group  3


 PROGRAM * SEWARD (Integral evaluation for generally contracted gaussian basis sets)     Author: Roland Lindh, 1990

 Geometry written to block  1 of record 700


 Point group  C2v 



 ATOMIC COORDINATES

 NR  ATOM    CHARGE       X              Y              Z

   1  N       7.00    0.000000000    0.000000000    1.140449108
   2  C       6.00    0.000000000    0.000000000   -1.066746449
   3  H       1.00    0.000000000    0.000000000   -3.070772640

 Bond lengths in Bohr (Angstrom)

 1-2  2.207195557  2-3  2.004026191
     ( 1.167997589)     ( 1.060484990)

 Bond angles

  1-2-3  179.99999879

 NUCLEAR CHARGE:                   14
 NUMBER OF PRIMITIVE AOS:         203
 NUMBER OF SYMMETRY AOS:          173
 NUMBER OF CONTRACTIONS:          171   (  75A1  +  39B1  +  39B2  +  18A2  )
 NUMBER OF CORE ORBITALS:           2   (   2A1  +   0B1  +   0B2  +   0A2  )
 NUMBER OF VALENCE ORBITALS:        9   (   5A1  +   2B1  +   2B2  +   0A2  )


 NUCLEAR REPULSION ENERGY   23.68487017

 EXTRA SYMMETRY OF AOS IN SYMMETRY 1:   1 1 1 1 1 1 1 1 1 1   1 1 1 1 1 1 1 2 1 2   1 2 1 2 1 2 1 2 1 2   1 2 1 1 1 1 1 1 1 1
                                        1 1 1 1 1 1 1 1 1 2   1 2 1 2 1 2 1 2 1 2   1 2 1 2 1 1 1 1 1 1   1 1 2 1 2
 EXTRA SYMMETRY OF AOS IN SYMMETRY 2:   1 1 1 1 1 1 1 1 1 1   1 1 2 1 2 1 2 1 1 1   1 1 1 1 1 1 1 1 1 2   1 2 1 2 1 1 1 1 1
 EXTRA SYMMETRY OF AOS IN SYMMETRY 3:   1 1 1 1 1 1 1 1 1 1   1 1 2 1 2 1 2 1 1 1   1 1 1 1 1 1 1 1 1 2   1 2 1 2 1 1 1 1 1

 Eigenvalues of metric

         1 0.242E-03 0.560E-03 0.921E-03 0.137E-02 0.320E-02 0.754E-02 0.999E-02 0.132E-01
         2 0.548E-02 0.160E-01 0.227E-01 0.349E-01 0.963E-01 0.113E+00 0.126E+00 0.189E+00
         3 0.548E-02 0.160E-01 0.227E-01 0.349E-01 0.963E-01 0.113E+00 0.126E+00 0.189E+00
         4 0.125E+00 0.140E+00 0.198E+00 0.256E+00 0.315E+00 0.379E+00 0.486E+00 0.602E+00


 Contracted 2-electron integrals neglected if value below      1.0D-22

       21682082. INTEGRALS WRITTEN OUT IN    5295 BLOCKS ON RECORD 1290 OF FILE 1


 NUMBER OF SORTED TWO-ELECTRON INTEGRALS:   28272141.     BUFFER LENGTH:  32768
 NUMBER OF SEGMENTS:   2  SEGMENT LENGTH:   15998211      RECORD LENGTH: 524288

 Memory used in sort:      16.56 MW

 SORT1 READ    21682082. AND WROTE    22079063. INTEGRALS IN     64 RECORDS. CPU TIME:     0.55 SEC, REAL TIME:     0.73 SEC
 SORT2 READ    22079063. AND WROTE    28272141. INTEGRALS IN      2 RECORDS. CPU TIME:     0.41 SEC, REAL TIME:     0.52 SEC

 FILE SIZES:   FILE 1:   367.6 MBYTE,  FILE 4:   268.5 MBYTE,   TOTAL:    636.1 MBYTE

 OPERATOR DM      FOR CENTER  0  COORDINATES:    0.000000    0.000000    0.000000


 **********************************************************************************************************************************
 DATASETS  * FILE   NREC   LENGTH (MB)   RECORD NAMES
              1      19      213.12       500      610      700      900      950      970     1000      129      960     1100   
                                          VAR    BASINP    GEOM    SYMINP    ZMAT    AOBASIS   BASIS     P2S    ABASIS      S 
                                         1400     1410     1200     1210     1080     1600     1650     1300     1700   
                                           T        V       H0       H01     AOSYM     SMH    MOLCAS    ERIS     OPER   

 PROGRAMS   *        TOTAL       INT
 CPU TIMES  *         3.94      3.84
 REAL TIME  *         5.20 SEC
 DISK USED  *       636.44 MB      
 **********************************************************************************************************************************


 PROGRAM * RHF-SCF (CLOSED SHELL)       Authors: W. Meyer, H.-J. Werner


 NUMBER OF ELECTRONS:       7+    7-
 CONVERGENCE THRESHOLDS:    1.00E-10 (Density)    1.00E-13 (Energy)
 MAX. NUMBER OF ITERATIONS:      500
 INTERPOLATION TYPE:            DIIS
 INTERPOLATION STEPS:              2 (START)      1 (STEP)
 LEVEL SHIFTS:                  0.00 (CLOSED)  0.00 (OPEN) 



 Orbital guess generated from atomic densities. Full valence occupancy:    7   2   2   0

 Molecular orbital dump at record        2100.2

 Initial occupancy:   5   1   1   0

 ITERATION    DDIFF          GRAD             ENERGY        2-EL.EN.            DIPOLE MOMENTS         DIIS   ORB.
    1      0.000D+00      0.000D+00       -92.76996465    111.177405    0.00000    0.00000   -2.03094    0    start
    2      0.000D+00      0.902D-02       -92.78128245    109.554002    0.00000    0.00000   -0.92534    1    diag
    3      0.349D-01      0.797D-02       -92.80395072    110.472877    0.00000    0.00000   -1.44920    2    diag
    4      0.121D-01      0.578D-03       -92.80420942    110.416145    0.00000    0.00000   -1.44199    3    diag
    5      0.191D-02      0.133D-03       -92.80422457    110.426876    0.00000    0.00000   -1.44064    4    diag
    6      0.548D-03      0.346D-04       -92.80422552    110.422080    0.00000    0.00000   -1.44078    5    diag
    7      0.520D-04      0.124D-04       -92.80422562    110.422996    0.00000    0.00000   -1.44087    6    diag
    8      0.171D-04      0.253D-05       -92.80422562    110.422986    0.00000    0.00000   -1.44086    7    diag
    9      0.912D-05      0.276D-06       -92.80422562    110.422994    0.00000    0.00000   -1.44085    8    diag
   10      0.153D-05      0.297D-07       -92.80422562    110.422995    0.00000    0.00000   -1.44085    9    orth
   11      0.147D-06      0.390D-08       -92.80422562    110.422995    0.00000    0.00000   -1.44086    9    diag
   12      0.126D-07      0.409D-09       -92.80422562    110.422995    0.00000    0.00000   -1.44085    9    diag
   13      0.122D-08      0.532D-10       -92.80422562    110.422995    0.00000    0.00000   -1.44085    9    diag
   14      0.180D-09      0.752D-11       -92.80422562    110.422995    0.00000    0.00000   -1.44085    9    diag
   15      0.268D-10      0.151D-11       -92.80422562    110.422995    0.00000    0.00000   -1.44085    0    orth

 Final occupancy:   5   1   1   0

 !RHF STATE 1.1 Energy                -92.804225620831
 Nuclear energy                        23.68487017
 One-electron energy                 -171.70059337
 Two-electron energy                   55.21149758
 Virial quotient                       -1.00316450
 !RHF STATE 1.1 Dipole moment           0.00000000     0.00000000    -1.44085499
 Dipole moment /Debye                   0.00000000     0.00000000    -3.66204824

 Orbital energies:

         1.1          2.1          3.1          4.1          5.1          6.1          7.1
    -15.596353   -11.404473    -1.246585    -0.839924    -0.578947     0.032589     0.152069

         1.2          2.2          3.2
     -0.486258     0.130632     0.303007

         1.3          2.3          3.3
     -0.486258     0.130632     0.303007

         1.4          2.4
      0.682153     0.963709

 HOMO      1.2    -0.486258 =     -13.2318eV
 LUMO      6.1     0.032589 =       0.8868eV
 LUMO-HOMO         0.518847 =      14.1186eV


 **********************************************************************************************************************************
 DATASETS  * FILE   NREC   LENGTH (MB)   RECORD NAMES
              1      19      213.12       500      610      700      900      950      970     1000      129      960     1100   
                                          VAR    BASINP    GEOM    SYMINP    ZMAT    AOBASIS   BASIS     P2S    ABASIS      S 
                                         1400     1410     1200     1210     1080     1600     1650     1300     1700   
                                           T        V       H0       H01     AOSYM     SMH    MOLCAS    ERIS     OPER   

              2       4        2.98       700     1000      520     2100   
                                         GEOM     BASIS   MCVARS     RHF  

 PROGRAMS   *        TOTAL        HF       INT
 CPU TIMES  *         5.72      1.78      3.84
 REAL TIME  *         7.22 SEC
 DISK USED  *       636.44 MB      
 **********************************************************************************************************************************


 PROGRAM * CCSD (Closed-shell coupled cluster)     Authors: C. Hampel, H.-J. Werner, 1991, M. Deegan, P.J. Knowles, 1992


 Convergence thresholds:  THRVAR = 1.00D-08  THRDEN = 1.00D-12

 CCSD(T)     terms to be evaluated (factor= 1.000)


 Number of closed-shell orbitals:   7 (   5   1   1   0 )
 Number of external orbitals:     164 (  70  38  38  18 )

 Molecular orbitals read from record     2100.2  Type=RHF/CANONICAL (state 1.1)

 Number of N-1 electron functions:               7
 Number of N-2 electron functions:              28
 Number of singly external CSFs:               426
 Number of doubly external CSFs:            182374
 Total number of CSFs:                      182801

 Length of J-op  integral file:               0.00 MB
 Length of K-op  integral file:               0.65 MB
 Length of 3-ext integral record:             0.00 MB

 Memory could be reduced to 11.98 Mwords without degradation in triples

 Integral transformation finished. Total CPU:   0.30 sec, npass=  1  Memory used:   1.63 MW

 Reference energy:                    -92.80422562

 MP2 singlet pair energy:              -0.30741254
 MP2 triplet pair energy:              -0.14044689
 MP2 correlation energy:               -0.44785943
 MP2 total energy:                    -93.25208505

 SCS-MP2 correlation energy:           -0.45628422   (PS=  1.200000  PT=  0.333333)
 SCS-MP2 total energy:                -93.26050985

 ITER.      SQ.NORM     CORR.ENERGY   TOTAL ENERGY   ENERGY CHANGE        DEN1      VAR(S)    VAR(P)  DIIS     TIME  TIME/IT
   1      1.11344465    -0.45371054   -93.25793616    -0.00585111     0.00738603  0.27D-02  0.28D-02  1  1     0.65     0.37
   2      1.12259362    -0.45384128   -93.25806690    -0.00013074    -0.01049754  0.59D-04  0.38D-03  2  2     1.00     0.38
   3      1.12641667    -0.45402038   -93.25824601    -0.00017911    -0.00182428  0.19D-04  0.55D-04  3  3     1.36     0.39
   4      1.12890579    -0.45403964   -93.25826526    -0.00001925    -0.00107606  0.95D-06  0.56D-05  4  4     1.72     0.39
   5      1.12950696    -0.45404449   -93.25827011    -0.00000486    -0.00016807  0.19D-06  0.47D-06  5  5     2.09     0.39
   6      1.12959763    -0.45404834   -93.25827396    -0.00000385    -0.00000526  0.82D-08  0.41D-07  6  6     2.45     0.40
   7      1.12961369    -0.45404936   -93.25827498    -0.00000102    -0.00000389  0.16D-08  0.34D-08  6  1     2.82     0.40
   8      1.12961700    -0.45404955   -93.25827517    -0.00000019    -0.00000142  0.19D-09  0.20D-09  6  2     3.16     0.40
   9      1.12961689    -0.45404963   -93.25827525    -0.00000008     0.00000022  0.15D-10  0.20D-10  6  3     3.51     0.40
  10      1.12961707    -0.45404965   -93.25827527    -0.00000002    -0.00000002  0.34D-11  0.17D-11  6  4     3.87     0.40
  11      1.12961705    -0.45404966   -93.25827528    -0.00000001     0.00000002  0.52D-12  0.33D-12  6  5     4.25     0.40
  12      1.12961700    -0.45404966   -93.25827528    -0.00000000     0.00000003  0.51D-13  0.71D-13  6  6     4.58     0.40
  13      1.12961697    -0.45404966   -93.25827528    -0.00000000     0.00000001  0.26D-14  0.10D-13  6  1     4.96     0.40
  14      1.12961695    -0.45404966   -93.25827528    -0.00000000     0.00000001  0.22D-15  0.15D-14  6  2     5.32     0.40
  15      1.12961695    -0.45404966   -93.25827528     0.00000000     0.00000000  0.18D-16  0.97D-16  6  4     5.66     0.40
  16      1.12961695    -0.45404966   -93.25827528    -0.00000000     0.00000000  0.70D-17  0.68D-17  6  3     6.03     0.40
  17      1.12961695    -0.45404966   -93.25827528    -0.00000000     0.00000000  0.13D-17  0.11D-17  6  5     6.41     0.40
  18      1.12961695    -0.45404966   -93.25827528    -0.00000000     0.00000000  0.13D-18  0.82D-19  6  6     6.78     0.40
  19      1.12961695    -0.45404966   -93.25827528    -0.00000000     0.00000000  0.21D-19  0.71D-20  6  1     7.14     0.40
  20      1.12961695    -0.45404966   -93.25827528    -0.00000000     0.00000000  0.25D-20  0.20D-20  6  2     7.50     0.40
  21      1.12961695    -0.45404966   -93.25827528    -0.00000000     0.00000000  0.43D-21  0.34D-21  6  4     7.83     0.40
  22      1.12961695    -0.45404966   -93.25827528     0.00000000    -0.00000000  0.12D-22  0.54D-22  6  3     8.21     0.40

 Norm of t1 vector:      0.06551251      S-energy:     0.00000000      T1 diagnostic:  0.01238070
                                                                       D1 diagnostic:  0.02904903

 Doubles amplitudes (print threshold =  0.500E-01):

         I         J         SYM. A    SYM. B    A         B      T(IJ, AB)

         6         6         2         2         1         1     -0.06138425
         7         7         3         3         1         1     -0.06138425


 Total CPU time for triples:      4.01 sec


 RESULTS
 =======

  Reference energy                    -92.804225620831

  Correlated core orbitals:             1.1       2.1
  Orbital energies:                   -15.5964  -11.4045
 
  CCSD core-core energy                -0.079739109978
  CCSD core-valence energy             -0.029116386341
  CCSD valence correlation energy      -0.345194166630
 
  CCSD singlet pair energy             -0.332566659992
  CCSD triplet pair energy             -0.121483002957
  CCSD correlation energy              -0.454049662949

  Triples (T) contribution             -0.018397082635
  Total correlation energy             -0.472446745584

  CCSD total energy                   -93.258275283780
  CCSD[T] energy                      -93.277492659810
  CCSD-T energy                       -93.276283683544
 !CCSD(T) total energy                -93.276672366415

 Timing summary (sec):

 STEP                 CPU(USER)    SYS     CPU(TOT)    WALL
 Transformation          0.31      0.07      0.38      0.38
 CCSD iterations         7.91      1.01      8.92      8.91
 Triples                 4.01      0.16      4.17      4.19

 Program statistics:

 Available memory in ccsd:               994999704
 Min. memory needed in ccsd:                607983
 Max. memory used in ccsd:                  763562
 Max. memory used in cckext:                768329 (22 integral passes)



 **********************************************************************************************************************************
 DATASETS  * FILE   NREC   LENGTH (MB)   RECORD NAMES
              1      20      249.28       500      610      700      900      950      970     1000      129      960     1100   
                                          VAR    BASINP    GEOM    SYMINP    ZMAT    AOBASIS   BASIS     P2S    ABASIS      S 
                                         1400     1410     1200     1210     1080     1600     1650     1300     1700     1380   
                                           T        V       H0       H01     AOSYM     SMH    MOLCAS    ERIS     OPER     JKOP   

              2       4        2.98       700     1000      520     2100   
                                         GEOM     BASIS   MCVARS     RHF  

 PROGRAMS   *        TOTAL   CCSD(T)        HF       INT
 CPU TIMES  *        18.00     12.28      1.78      3.84
 REAL TIME  *        20.80 SEC
 DISK USED  *       636.44 MB      
 **********************************************************************************************************************************

 CCSD(T)/USERDEF energy=    -93.276672366415

        CCSD(T)         HF-SCF  
    -93.27667237    -92.80422562
 **********************************************************************************************************************************
 Molpro calculation terminated
 Variable memory released
