
 Primary working directories    : /tmp/r2666/232771.maple
 Secondary working directories  : /tmp/r2666/232771.maple
 Wavefunction directory         : /ddn/home4/r2666/wfu/
 Main file repository           : /tmp/r2666/232771.maple/

 SHA1      : d5ffa45e93fdbca01ffc919aa182cfdae0147319
 NAME      : 2015.1.35
 ARCHNAME  : linux/x86_64
 FC        : /opt/intel/composer_xe_2015.1.133/bin/intel64/ifort
 BLASLIB   : -Wl,-_start-group /opt/intel/mkl/lib/intel64/libmkl_intel_ilp64.a /opt/intel/mkl/lib/intel64/libmkl_intel_thread.a /opt/intel/mkl/lib/intel64/libmkl_core.a -Wl,-_end-group
 id        : olemiss

 Nodes     nprocs
 cn080        1

 Using customized tuning parameters: mindgm=1; mindgv=20; mindgc=4; mindgr=1; noblas=0; minvec=7
 default implementation of scratch files=df  

 ***,hcn CCSD(T)/TZ-F12 QFF
 memory, 995, m;
 gthresh,energy=1.d-12,zero=1.d-22,oneint=1.d-22,twoint=1.d-22;
 gthresh,optgrad=1.d-8,optstep=1.d-8;
 nocompress;
 geomtyp=xyz
 bohr
 geometry={
 3
         50        50
 N        0.0000000000        0.0000000000        1.1404491076
 C        0.0000000000        0.0000000000       -1.0572978193
 H        0.0000000000        0.0000000000       -3.0802212703
 }
 
 basis={
 default=aug-cc-pvtz
 s,C,8236.0,1235.0,280.8, 79.27,25.59, 8.997,3.319
 s,C,0.9059,0.3643,0.1285000
 p,C,56.0,18.71,4.133,0.2827,0.3827,0.1209
 d,C,30.0,10.0,3.3,1.097,0.318
 f,C,7.0,2.3,0.7610
 s,N,11420.0,1712.0,389.3,110.0,35.57,12.54,4.644
 s,N,1.293,0.5118,0.1787
 p,N,79.89,26.63,5.948,1.742,0.555,0.1725
 d,N,45.0,15.0,5.0,1.654,0.469
 f,N,9.9,3.3,1.093
 s,O,15330.0,2299.0,522.4,147.3,47.55,16.76,6.207
 s,O,1.752,0.6882,0.2384
 p,O,103.5,34.46,7.749,2.28,0.7156,0.214
 d,O,63.0,21.0,7.0,2.314,0.645
 f,O,12.9,4.3,1.428
 s,mg,164900.0,24710.0,5628.0,1596.0,521.0;
 s,mg,188.0,73.01,29.90,12.54,4.306,1.826;
 s,mg,0.7417,0.0761,0.145,0.033,0.0129;
 p,mg,950.70,316.90,74.86,23.72,8.669,3.363;
 p,mg,1.310,0.4911,0.2364,0.08733,0.03237,0.00745;
 d,mg,1.601,0.686,0.126,0.294,0.0468;
 f,mg,1.372,0.588,0.094,0.252;
 }
   {hf,maxit=500;accu,20;}
 {ccsd(t),nocheck,maxit=250;orbital,IGNORE_ERROR;core}

 Variables initialized (889), CPU time= 0.00 sec
 Commands  initialized (702), CPU time= 0.02 sec, 572 directives.
 Default parameters read. Elapsed time= 0.05 sec

 Checking input...
 Passed
1


                                         ***  PROGRAM SYSTEM MOLPRO  ***
                                       Copyright, TTI GmbH Stuttgart, 2015
                                    Version 2015.1 linked Jul  9 2018 13:16:40


 **********************************************************************************************************************************
 LABEL *   hcn CCSD(T)/TZ-F12 QFF                                                        
  64 bit serial version                                                                  DATE: 06-Feb-20          TIME: 09:55:39  
 **********************************************************************************************************************************

 SHA1:             d5ffa45e93fdbca01ffc919aa182cfdae0147319
 **********************************************************************************************************************************

 THRESHOLDS:

 ZERO    =  1.00D-22  ONEINT  =  1.00D-22  TWOINT  =  1.00D-22  PREFAC  =  1.00D-14  LOCALI  =  1.00D-09  EORDER  =  1.00D-04
 ENERGY  =  1.00D-12  ETEST   =  0.00D+00  EDENS   =  0.00D+00  THRDEDEF=  1.00D-06  GRADIENT=  1.00D-02  STEP    =  1.00D-03
 ORBITAL =  1.00D-05  CIVEC   =  1.00D-05  COEFF   =  1.00D-04  PRINTCI =  5.00D-02  PUNCHCI =  9.90D+01  OPTGRAD =  3.00D-04
 OPTENERG=  1.00D-06  OPTSTEP =  3.00D-04  THRGRAD =  1.00D-10  COMPRESS=  1.00D-11  VARMIN  =  1.00D-07  VARMAX  =  1.00D-03
 THRDOUB =  0.00D+00  THRDIV  =  1.00D-05  THRRED  =  1.00D-07  THRPSP  =  1.00D+00  THRDC   =  1.00D-10  THRCS   =  1.00D-10
 THRNRM  =  1.00D-08  THREQ   =  0.00D+00  THRDE   =  1.00D+00  THRREF  =  1.00D-05  SPARFAC =  1.00D+00  THRDLP  =  1.00D-07
 THRDIA  =  1.00D-10  THRDLS  =  1.00D-07  THRGPS  =  0.00D+00  THRKEX  =  0.00D+00  THRDIS  =  2.00D-01  THRVAR  =  1.00D-10
 THRLOC  =  1.00D-06  THRGAP  =  1.00D-06  THRLOCT = -1.00D+00  THRGAPT = -1.00D+00  THRORB  =  1.00D-06  THRMLTP =  0.00D+00
 THRCPQCI=  1.00D-10  KEXTA   =  0.00D+00  THRCOARS=  0.00D+00  SYMTOL  =  1.00D-06  GRADTOL =  1.00D-06  THROVL  =  1.00D-08
 THRORTH =  1.00D-08  GRID    =  1.00D-06  GRIDMAX =  1.00D-03  DTMAX   =  0.00D+00  THROCCDE=  1.00D-01  THROCCDE=  1.00D-01



 THRESHOLDS:

 ZERO    =  1.00D-22  ONEINT  =  1.00D-22  TWOINT  =  1.00D-22  PREFAC  =  1.00D-14  LOCALI  =  1.00D-09  EORDER  =  1.00D-04
 ENERGY  =  1.00D-12  ETEST   =  0.00D+00  EDENS   =  0.00D+00  THRDEDEF=  1.00D-06  GRADIENT=  1.00D-02  STEP    =  1.00D-03
 ORBITAL =  1.00D-05  CIVEC   =  1.00D-05  COEFF   =  1.00D-04  PRINTCI =  5.00D-02  PUNCHCI =  9.90D+01  OPTGRAD =  1.00D-08
 OPTENERG=  1.00D-06  OPTSTEP =  1.00D-08  THRGRAD =  1.00D-10  COMPRESS=  1.00D-11  VARMIN  =  1.00D-07  VARMAX  =  1.00D-03
 THRDOUB =  0.00D+00  THRDIV  =  1.00D-05  THRRED  =  1.00D-07  THRPSP  =  1.00D+00  THRDC   =  1.00D-10  THRCS   =  1.00D-10
 THRNRM  =  1.00D-08  THREQ   =  0.00D+00  THRDE   =  1.00D+00  THRREF  =  1.00D-05  SPARFAC =  1.00D+00  THRDLP  =  1.00D-07
 THRDIA  =  1.00D-10  THRDLS  =  1.00D-07  THRGPS  =  0.00D+00  THRKEX  =  0.00D+00  THRDIS  =  2.00D-01  THRVAR  =  1.00D-10
 THRLOC  =  1.00D-06  THRGAP  =  1.00D-06  THRLOCT = -1.00D+00  THRGAPT = -1.00D+00  THRORB  =  1.00D-06  THRMLTP =  0.00D+00
 THRCPQCI=  1.00D-10  KEXTA   =  0.00D+00  THRCOARS=  0.00D+00  SYMTOL  =  1.00D-06  GRADTOL =  1.00D-06  THROVL  =  1.00D-08
 THRORTH =  1.00D-08  GRID    =  1.00D-06  GRIDMAX =  1.00D-03  DTMAX   =  0.00D+00  THROCCDE=  1.00D-01  THROCCDE=  1.00D-01



 Input parameters for SORTINT:

 COMPRESS =    0.000000
 C_FINAL  =    1.000000
 DEBUG    =   -1.000000
 C_SORT1  =    0.000000
 C_SEWARD =    0.000000
 THRESH   =    0.000000
 IO       =  molpro                                                          
 SPRI     =    0.000000
 SETTING GEOMTYP        =    XYZ
 ZUNIT=BOHR
 

 Variable memory set to  995000000 words,  buffer space   230000 words

 SETTING BASIS          =    USERDEF


 Recomputing integrals since basis changed


 Using spherical harmonics

 Library entry H      S aug-cc-pVTZ          selected for orbital group  3
 Library entry H      P aug-cc-pVTZ          selected for orbital group  3
 Library entry H      D aug-cc-pVTZ          selected for orbital group  3


 PROGRAM * SEWARD (Integral evaluation for generally contracted gaussian basis sets)     Author: Roland Lindh, 1990

 Geometry written to block  1 of record 700


 Point group  C2v 



 ATOMIC COORDINATES

 NR  ATOM    CHARGE       X              Y              Z

   1  N       7.00    0.000000000    0.000000000    1.140449108
   2  C       6.00    0.000000000    0.000000000   -1.057297819
   3  H       1.00    0.000000000    0.000000000   -3.080221270

 Bond lengths in Bohr (Angstrom)

 1-2  2.197746927  2-3  2.022923451
     ( 1.162997589)     ( 1.070484990)

 Bond angles

  1-2-3  180.00000000

 NUCLEAR CHARGE:                   14
 NUMBER OF PRIMITIVE AOS:         203
 NUMBER OF SYMMETRY AOS:          173
 NUMBER OF CONTRACTIONS:          171   (  75A1  +  39B1  +  39B2  +  18A2  )
 NUMBER OF CORE ORBITALS:           2   (   2A1  +   0B1  +   0B2  +   0A2  )
 NUMBER OF VALENCE ORBITALS:        9   (   5A1  +   2B1  +   2B2  +   0A2  )


 NUCLEAR REPULSION ENERGY   23.73498937

 EXTRA SYMMETRY OF AOS IN SYMMETRY 1:   1 1 1 1 1 1 1 1 1 1   1 1 1 1 1 1 1 2 1 2   1 2 1 2 1 2 1 2 1 2   1 2 1 1 1 1 1 1 1 1
                                        1 1 1 1 1 1 1 1 1 2   1 2 1 2 1 2 1 2 1 2   1 2 1 2 1 1 1 1 1 1   1 1 2 1 2
 EXTRA SYMMETRY OF AOS IN SYMMETRY 2:   1 1 1 1 1 1 1 1 1 1   1 1 2 1 2 1 2 1 1 1   1 1 1 1 1 1 1 1 1 2   1 2 1 2 1 1 1 1 1
 EXTRA SYMMETRY OF AOS IN SYMMETRY 3:   1 1 1 1 1 1 1 1 1 1   1 1 2 1 2 1 2 1 1 1   1 1 1 1 1 1 1 1 1 2   1 2 1 2 1 1 1 1 1

 Eigenvalues of metric

         1 0.250E-03 0.551E-03 0.937E-03 0.139E-02 0.320E-02 0.774E-02 0.102E-01 0.133E-01
         2 0.548E-02 0.161E-01 0.230E-01 0.354E-01 0.969E-01 0.113E+00 0.126E+00 0.189E+00
         3 0.548E-02 0.161E-01 0.230E-01 0.354E-01 0.969E-01 0.113E+00 0.126E+00 0.189E+00
         4 0.125E+00 0.140E+00 0.198E+00 0.258E+00 0.315E+00 0.379E+00 0.486E+00 0.602E+00


 Contracted 2-electron integrals neglected if value below      1.0D-22

       21690757. INTEGRALS WRITTEN OUT IN    5297 BLOCKS ON RECORD 1290 OF FILE 1


 NUMBER OF SORTED TWO-ELECTRON INTEGRALS:   28272141.     BUFFER LENGTH:  32768
 NUMBER OF SEGMENTS:   2  SEGMENT LENGTH:   15998211      RECORD LENGTH: 524288

 Memory used in sort:      16.56 MW

 SORT1 READ    21690757. AND WROTE    22088025. INTEGRALS IN     64 RECORDS. CPU TIME:     0.50 SEC, REAL TIME:     0.61 SEC
 SORT2 READ    22088025. AND WROTE    28272141. INTEGRALS IN      2 RECORDS. CPU TIME:     0.37 SEC, REAL TIME:     0.49 SEC

 FILE SIZES:   FILE 1:   367.8 MBYTE,  FILE 4:   268.5 MBYTE,   TOTAL:    636.2 MBYTE

 OPERATOR DM      FOR CENTER  0  COORDINATES:    0.000000    0.000000    0.000000


 **********************************************************************************************************************************
 DATASETS  * FILE   NREC   LENGTH (MB)   RECORD NAMES
              1      19      213.18       500      610      700      900      950      970     1000      129      960     1100   
                                          VAR    BASINP    GEOM    SYMINP    ZMAT    AOBASIS   BASIS     P2S    ABASIS      S 
                                         1400     1410     1200     1210     1080     1600     1650     1300     1700   
                                           T        V       H0       H01     AOSYM     SMH    MOLCAS    ERIS     OPER   

 PROGRAMS   *        TOTAL       INT
 CPU TIMES  *         3.22      3.10
 REAL TIME  *         4.16 SEC
 DISK USED  *       636.57 MB      
 **********************************************************************************************************************************


 PROGRAM * RHF-SCF (CLOSED SHELL)       Authors: W. Meyer, H.-J. Werner


 NUMBER OF ELECTRONS:       7+    7-
 CONVERGENCE THRESHOLDS:    1.00E-10 (Density)    1.00E-13 (Energy)
 MAX. NUMBER OF ITERATIONS:      500
 INTERPOLATION TYPE:            DIIS
 INTERPOLATION STEPS:              2 (START)      1 (STEP)
 LEVEL SHIFTS:                  0.00 (CLOSED)  0.00 (OPEN) 



 Orbital guess generated from atomic densities. Full valence occupancy:    7   2   2   0

 Molecular orbital dump at record        2100.2

 Initial occupancy:   5   1   1   0

 ITERATION    DDIFF          GRAD             ENERGY        2-EL.EN.            DIPOLE MOMENTS         DIIS   ORB.
    1      0.000D+00      0.000D+00       -92.77054174    111.327124    0.00000    0.00000   -2.03912    0    start
    2      0.000D+00      0.910D-02       -92.78222168    109.658830    0.00000    0.00000   -0.93383    1    diag
    3      0.350D-01      0.799D-02       -92.80495528    110.587264    0.00000    0.00000   -1.45396    2    diag
    4      0.121D-01      0.571D-03       -92.80520962    110.533526    0.00000    0.00000   -1.44676    3    diag
    5      0.189D-02      0.131D-03       -92.80522468    110.543461    0.00000    0.00000   -1.44543    4    diag
    6      0.547D-03      0.343D-04       -92.80522559    110.538808    0.00000    0.00000   -1.44562    5    diag
    7      0.490D-04      0.123D-04       -92.80522569    110.539758    0.00000    0.00000   -1.44571    6    diag
    8      0.168D-04      0.248D-05       -92.80522570    110.539746    0.00000    0.00000   -1.44570    7    diag
    9      0.893D-05      0.271D-06       -92.80522570    110.539754    0.00000    0.00000   -1.44569    8    diag
   10      0.150D-05      0.292D-07       -92.80522570    110.539755    0.00000    0.00000   -1.44569    9    orth
   11      0.144D-06      0.382D-08       -92.80522570    110.539755    0.00000    0.00000   -1.44569    9    diag
   12      0.123D-07      0.404D-09       -92.80522570    110.539755    0.00000    0.00000   -1.44569    9    diag
   13      0.120D-08      0.524D-10       -92.80522570    110.539755    0.00000    0.00000   -1.44569    9    diag
   14      0.178D-09      0.779D-11       -92.80522570    110.539755    0.00000    0.00000   -1.44569    9    diag
   15      0.276D-10      0.157D-11       -92.80522570    110.539755    0.00000    0.00000   -1.44569    9    diag
   16      0.640D-11      0.539D-12       -92.80522570    110.539755    0.00000    0.00000   -1.44569    9    diag
   17      0.149D-11      0.309D-12       -92.80522570    110.539755    0.00000    0.00000   -1.44569    9    diag
   18      0.102D-11      0.567D-12       -92.80522570    110.539755    0.00000    0.00000   -1.44569    0    orth

 Final occupancy:   5   1   1   0

 !RHF STATE 1.1 Energy                -92.805225696899
 Nuclear energy                        23.73498937
 One-electron energy                 -171.81009269
 Two-electron energy                   55.26987762
 Virial quotient                       -1.00305122
 !RHF STATE 1.1 Dipole moment           0.00000000     0.00000000    -1.44569376
 Dipole moment /Debye                   0.00000000     0.00000000    -3.67434636

 Orbital energies:

         1.1          2.1          3.1          4.1          5.1          6.1          7.1
    -15.594408   -11.403219    -1.248817    -0.835386    -0.578370     0.032571     0.150793

         1.2          2.2          3.2
     -0.487485     0.131640     0.304042

         1.3          2.3          3.3
     -0.487485     0.131640     0.304042

         1.4          2.4
      0.682389     0.962498

 HOMO      1.2    -0.487485 =     -13.2651eV
 LUMO      6.1     0.032571 =       0.8863eV
 LUMO-HOMO         0.520055 =      14.1514eV


 **********************************************************************************************************************************
 DATASETS  * FILE   NREC   LENGTH (MB)   RECORD NAMES
              1      19      213.18       500      610      700      900      950      970     1000      129      960     1100   
                                          VAR    BASINP    GEOM    SYMINP    ZMAT    AOBASIS   BASIS     P2S    ABASIS      S 
                                         1400     1410     1200     1210     1080     1600     1650     1300     1700   
                                           T        V       H0       H01     AOSYM     SMH    MOLCAS    ERIS     OPER   

              2       4        2.98       700     1000      520     2100   
                                         GEOM     BASIS   MCVARS     RHF  

 PROGRAMS   *        TOTAL        HF       INT
 CPU TIMES  *         5.07      1.85      3.10
 REAL TIME  *         6.74 SEC
 DISK USED  *       636.57 MB      
 **********************************************************************************************************************************


 PROGRAM * CCSD (Closed-shell coupled cluster)     Authors: C. Hampel, H.-J. Werner, 1991, M. Deegan, P.J. Knowles, 1992


 Convergence thresholds:  THRVAR = 1.00D-08  THRDEN = 1.00D-12

 CCSD(T)     terms to be evaluated (factor= 1.000)


 Number of closed-shell orbitals:   7 (   5   1   1   0 )
 Number of external orbitals:     164 (  70  38  38  18 )

 Molecular orbitals read from record     2100.2  Type=RHF/CANONICAL (state 1.1)

 Number of N-1 electron functions:               7
 Number of N-2 electron functions:              28
 Number of singly external CSFs:               426
 Number of doubly external CSFs:            182374
 Total number of CSFs:                      182801

 Length of J-op  integral file:               0.00 MB
 Length of K-op  integral file:               0.65 MB
 Length of 3-ext integral record:             0.00 MB

 Memory could be reduced to 11.98 Mwords without degradation in triples

 Integral transformation finished. Total CPU:   0.27 sec, npass=  1  Memory used:   1.63 MW

 Reference energy:                    -92.80522570

 MP2 singlet pair energy:              -0.30700954
 MP2 triplet pair energy:              -0.14011890
 MP2 correlation energy:               -0.44712844
 MP2 total energy:                    -93.25235413

 SCS-MP2 correlation energy:           -0.45559654   (PS=  1.200000  PT=  0.333333)
 SCS-MP2 total energy:                -93.26082223

 ITER.      SQ.NORM     CORR.ENERGY   TOTAL ENERGY   ENERGY CHANGE        DEN1      VAR(S)    VAR(P)  DIIS     TIME  TIME/IT
   1      1.11303163    -0.45320795   -93.25843365    -0.00607952     0.00699768  0.26D-02  0.28D-02  1  1     0.57     0.33
   2      1.12208946    -0.45338056   -93.25860626    -0.00017261    -0.01040028  0.58D-04  0.37D-03  2  2     0.88     0.33
   3      1.12587532    -0.45355874   -93.25878443    -0.00017818    -0.00181744  0.19D-04  0.53D-04  3  3     1.16     0.34
   4      1.12832112    -0.45357681   -93.25880251    -0.00001807    -0.00106408  0.95D-06  0.54D-05  4  4     1.46     0.34
   5      1.12890608    -0.45358169   -93.25880738    -0.00000488    -0.00016355  0.19D-06  0.46D-06  5  5     1.79     0.34
   6      1.12899550    -0.45358532   -93.25881101    -0.00000363    -0.00000551  0.87D-08  0.39D-07  6  6     2.09     0.34
   7      1.12901106    -0.45358626   -93.25881196    -0.00000095    -0.00000374  0.18D-08  0.33D-08  6  1     2.39     0.34
   8      1.12901443    -0.45358642   -93.25881212    -0.00000016    -0.00000142  0.22D-09  0.20D-09  6  2     2.70     0.34
   9      1.12901435    -0.45358649   -93.25881219    -0.00000007     0.00000021  0.21D-10  0.21D-10  6  3     3.01     0.34
  10      1.12901454    -0.45358652   -93.25881221    -0.00000002    -0.00000002  0.48D-11  0.21D-11  6  4     3.31     0.34
  11      1.12901453    -0.45358652   -93.25881222    -0.00000001     0.00000002  0.66D-12  0.46D-12  6  5     3.62     0.34
  12      1.12901449    -0.45358652   -93.25881222    -0.00000000     0.00000003  0.52D-13  0.95D-13  6  6     3.93     0.34
  13      1.12901445    -0.45358652   -93.25881222    -0.00000000     0.00000001  0.22D-14  0.14D-13  6  1     4.22     0.35
  14      1.12901443    -0.45358652   -93.25881222    -0.00000000     0.00000001  0.37D-15  0.21D-14  6  2     4.52     0.35
  15      1.12901443    -0.45358652   -93.25881222    -0.00000000     0.00000000  0.30D-16  0.13D-15  6  4     4.81     0.35
  16      1.12901442    -0.45358652   -93.25881222    -0.00000000     0.00000000  0.87D-17  0.93D-17  6  3     5.10     0.35
  17      1.12901442    -0.45358652   -93.25881222    -0.00000000     0.00000000  0.15D-17  0.13D-17  6  5     5.41     0.35
  18      1.12901442    -0.45358652   -93.25881222    -0.00000000     0.00000000  0.15D-18  0.10D-18  6  6     5.69     0.35
  19      1.12901442    -0.45358652   -93.25881222    -0.00000000     0.00000000  0.31D-19  0.99D-20  6  1     5.99     0.35
  20      1.12901442    -0.45358652   -93.25881222    -0.00000000     0.00000000  0.38D-20  0.32D-20  6  2     6.31     0.35
  21      1.12901442    -0.45358652   -93.25881222    -0.00000000     0.00000000  0.57D-21  0.59D-21  6  4     6.61     0.35
  22      1.12901442    -0.45358652   -93.25881222     0.00000000    -0.00000000  0.18D-22  0.86D-22  6  3     6.89     0.35

 Norm of t1 vector:      0.06499734      S-energy:    -0.00000000      T1 diagnostic:  0.01228334
                                                                       D1 diagnostic:  0.02873258

 Doubles amplitudes (print threshold =  0.500E-01):

         I         J         SYM. A    SYM. B    A         B      T(IJ, AB)

         6         6         2         2         1         1     -0.06016640
         7         7         3         3         1         1     -0.06016640


 Total CPU time for triples:      3.58 sec


 RESULTS
 =======

  Reference energy                    -92.805225696898

  Correlated core orbitals:             1.1       2.1
  Orbital energies:                   -15.5944  -11.4032
 
  CCSD core-core energy                -0.079733898433
  CCSD core-valence energy             -0.029159912896
  CCSD valence correlation energy      -0.344692713047
 
  CCSD singlet pair energy             -0.332179531365
  CCSD triplet pair energy             -0.121406993011
  CCSD correlation energy              -0.453586524376

  Triples (T) contribution             -0.018275441668
  Total correlation energy             -0.471861966044

  CCSD total energy                   -93.258812221274
  CCSD[T] energy                      -93.277892364033
  CCSD-T energy                       -93.276706315118
 !CCSD(T) total energy                -93.277087662942

 Timing summary (sec):

 STEP                 CPU(USER)    SYS     CPU(TOT)    WALL
 Transformation          0.28      0.07      0.35      0.40
 CCSD iterations         6.61      1.02      7.63      7.61
 Triples                 3.58      0.15      3.73      3.73

 Program statistics:

 Available memory in ccsd:               994999704
 Min. memory needed in ccsd:                607983
 Max. memory used in ccsd:                  763562
 Max. memory used in cckext:                768329 (22 integral passes)



 **********************************************************************************************************************************
 DATASETS  * FILE   NREC   LENGTH (MB)   RECORD NAMES
              1      20      249.33       500      610      700      900      950      970     1000      129      960     1100   
                                          VAR    BASINP    GEOM    SYMINP    ZMAT    AOBASIS   BASIS     P2S    ABASIS      S 
                                         1400     1410     1200     1210     1080     1600     1650     1300     1700     1380   
                                           T        V       H0       H01     AOSYM     SMH    MOLCAS    ERIS     OPER     JKOP   

              2       4        2.98       700     1000      520     2100   
                                         GEOM     BASIS   MCVARS     RHF  

 PROGRAMS   *        TOTAL   CCSD(T)        HF       INT
 CPU TIMES  *        15.59     10.51      1.85      3.10
 REAL TIME  *        18.60 SEC
 DISK USED  *       636.57 MB      
 **********************************************************************************************************************************

 CCSD(T)/USERDEF energy=    -93.277087662942

        CCSD(T)         HF-SCF  
    -93.27708766    -92.80522570
 **********************************************************************************************************************************
 Molpro calculation terminated
 Variable memory released
