
 Primary working directories    : /tmp/r2666/232766.maple
 Secondary working directories  : /tmp/r2666/232766.maple
 Wavefunction directory         : /ddn/home4/r2666/wfu/
 Main file repository           : /tmp/r2666/232766.maple/

 SHA1      : d5ffa45e93fdbca01ffc919aa182cfdae0147319
 NAME      : 2015.1.35
 ARCHNAME  : linux/x86_64
 FC        : /opt/intel/composer_xe_2015.1.133/bin/intel64/ifort
 BLASLIB   : -Wl,-_start-group /opt/intel/mkl/lib/intel64/libmkl_intel_ilp64.a /opt/intel/mkl/lib/intel64/libmkl_intel_thread.a /opt/intel/mkl/lib/intel64/libmkl_core.a -Wl,-_end-group
 id        : olemiss

 Nodes     nprocs
 cn093        1

 Using customized tuning parameters: mindgm=1; mindgv=20; mindgc=4; mindgr=1; noblas=0; minvec=7
 default implementation of scratch files=df  

 ***,hcn CCSD(T)/TZ-F12 QFF
 memory, 995, m;
 gthresh,energy=1.d-12,zero=1.d-22,oneint=1.d-22,twoint=1.d-22;
 gthresh,optgrad=1.d-8,optstep=1.d-8;
 nocompress;
 geomtyp=xyz
 bohr
 geometry={
 3
         45        45
 N        0.0000000000        0.0000000000        1.1404491076
 C        0.0000000000        0.0000000000       -1.0478491894
 H        0.0000000000        0.0000000000       -3.0896699002
 }
 
 basis={
 default=aug-cc-pvtz
 s,C,8236.0,1235.0,280.8, 79.27,25.59, 8.997,3.319
 s,C,0.9059,0.3643,0.1285000
 p,C,56.0,18.71,4.133,0.2827,0.3827,0.1209
 d,C,30.0,10.0,3.3,1.097,0.318
 f,C,7.0,2.3,0.7610
 s,N,11420.0,1712.0,389.3,110.0,35.57,12.54,4.644
 s,N,1.293,0.5118,0.1787
 p,N,79.89,26.63,5.948,1.742,0.555,0.1725
 d,N,45.0,15.0,5.0,1.654,0.469
 f,N,9.9,3.3,1.093
 s,O,15330.0,2299.0,522.4,147.3,47.55,16.76,6.207
 s,O,1.752,0.6882,0.2384
 p,O,103.5,34.46,7.749,2.28,0.7156,0.214
 d,O,63.0,21.0,7.0,2.314,0.645
 f,O,12.9,4.3,1.428
 s,mg,164900.0,24710.0,5628.0,1596.0,521.0;
 s,mg,188.0,73.01,29.90,12.54,4.306,1.826;
 s,mg,0.7417,0.0761,0.145,0.033,0.0129;
 p,mg,950.70,316.90,74.86,23.72,8.669,3.363;
 p,mg,1.310,0.4911,0.2364,0.08733,0.03237,0.00745;
 d,mg,1.601,0.686,0.126,0.294,0.0468;
 f,mg,1.372,0.588,0.094,0.252;
 }
   {hf,maxit=500;accu,20;}
 {ccsd(t),nocheck,maxit=250;orbital,IGNORE_ERROR;core}

 Variables initialized (889), CPU time= 0.00 sec
 Commands  initialized (702), CPU time= 0.01 sec, 572 directives.
 Default parameters read. Elapsed time= 0.04 sec

 Checking input...
 Passed
1


                                         ***  PROGRAM SYSTEM MOLPRO  ***
                                       Copyright, TTI GmbH Stuttgart, 2015
                                    Version 2015.1 linked Jul  9 2018 13:16:40


 **********************************************************************************************************************************
 LABEL *   hcn CCSD(T)/TZ-F12 QFF                                                        
  64 bit serial version                                                                  DATE: 06-Feb-20          TIME: 09:55:35  
 **********************************************************************************************************************************

 SHA1:             d5ffa45e93fdbca01ffc919aa182cfdae0147319
 **********************************************************************************************************************************

 THRESHOLDS:

 ZERO    =  1.00D-22  ONEINT  =  1.00D-22  TWOINT  =  1.00D-22  PREFAC  =  1.00D-14  LOCALI  =  1.00D-09  EORDER  =  1.00D-04
 ENERGY  =  1.00D-12  ETEST   =  0.00D+00  EDENS   =  0.00D+00  THRDEDEF=  1.00D-06  GRADIENT=  1.00D-02  STEP    =  1.00D-03
 ORBITAL =  1.00D-05  CIVEC   =  1.00D-05  COEFF   =  1.00D-04  PRINTCI =  5.00D-02  PUNCHCI =  9.90D+01  OPTGRAD =  3.00D-04
 OPTENERG=  1.00D-06  OPTSTEP =  3.00D-04  THRGRAD =  1.00D-10  COMPRESS=  1.00D-11  VARMIN  =  1.00D-07  VARMAX  =  1.00D-03
 THRDOUB =  0.00D+00  THRDIV  =  1.00D-05  THRRED  =  1.00D-07  THRPSP  =  1.00D+00  THRDC   =  1.00D-10  THRCS   =  1.00D-10
 THRNRM  =  1.00D-08  THREQ   =  0.00D+00  THRDE   =  1.00D+00  THRREF  =  1.00D-05  SPARFAC =  1.00D+00  THRDLP  =  1.00D-07
 THRDIA  =  1.00D-10  THRDLS  =  1.00D-07  THRGPS  =  0.00D+00  THRKEX  =  0.00D+00  THRDIS  =  2.00D-01  THRVAR  =  1.00D-10
 THRLOC  =  1.00D-06  THRGAP  =  1.00D-06  THRLOCT = -1.00D+00  THRGAPT = -1.00D+00  THRORB  =  1.00D-06  THRMLTP =  0.00D+00
 THRCPQCI=  1.00D-10  KEXTA   =  0.00D+00  THRCOARS=  0.00D+00  SYMTOL  =  1.00D-06  GRADTOL =  1.00D-06  THROVL  =  1.00D-08
 THRORTH =  1.00D-08  GRID    =  1.00D-06  GRIDMAX =  1.00D-03  DTMAX   =  0.00D+00  THROCCDE=  1.00D-01  THROCCDE=  1.00D-01



 THRESHOLDS:

 ZERO    =  1.00D-22  ONEINT  =  1.00D-22  TWOINT  =  1.00D-22  PREFAC  =  1.00D-14  LOCALI  =  1.00D-09  EORDER  =  1.00D-04
 ENERGY  =  1.00D-12  ETEST   =  0.00D+00  EDENS   =  0.00D+00  THRDEDEF=  1.00D-06  GRADIENT=  1.00D-02  STEP    =  1.00D-03
 ORBITAL =  1.00D-05  CIVEC   =  1.00D-05  COEFF   =  1.00D-04  PRINTCI =  5.00D-02  PUNCHCI =  9.90D+01  OPTGRAD =  1.00D-08
 OPTENERG=  1.00D-06  OPTSTEP =  1.00D-08  THRGRAD =  1.00D-10  COMPRESS=  1.00D-11  VARMIN  =  1.00D-07  VARMAX  =  1.00D-03
 THRDOUB =  0.00D+00  THRDIV  =  1.00D-05  THRRED  =  1.00D-07  THRPSP  =  1.00D+00  THRDC   =  1.00D-10  THRCS   =  1.00D-10
 THRNRM  =  1.00D-08  THREQ   =  0.00D+00  THRDE   =  1.00D+00  THRREF  =  1.00D-05  SPARFAC =  1.00D+00  THRDLP  =  1.00D-07
 THRDIA  =  1.00D-10  THRDLS  =  1.00D-07  THRGPS  =  0.00D+00  THRKEX  =  0.00D+00  THRDIS  =  2.00D-01  THRVAR  =  1.00D-10
 THRLOC  =  1.00D-06  THRGAP  =  1.00D-06  THRLOCT = -1.00D+00  THRGAPT = -1.00D+00  THRORB  =  1.00D-06  THRMLTP =  0.00D+00
 THRCPQCI=  1.00D-10  KEXTA   =  0.00D+00  THRCOARS=  0.00D+00  SYMTOL  =  1.00D-06  GRADTOL =  1.00D-06  THROVL  =  1.00D-08
 THRORTH =  1.00D-08  GRID    =  1.00D-06  GRIDMAX =  1.00D-03  DTMAX   =  0.00D+00  THROCCDE=  1.00D-01  THROCCDE=  1.00D-01



 Input parameters for SORTINT:

 COMPRESS =    0.000000
 C_FINAL  =    1.000000
 DEBUG    =   -1.000000
 C_SORT1  =    0.000000
 C_SEWARD =    0.000000
 THRESH   =    0.000000
 IO       =  molpro                                                          
 SPRI     =    0.000000
 SETTING GEOMTYP        =    XYZ
 ZUNIT=BOHR
 

 Variable memory set to  995000000 words,  buffer space   230000 words

 SETTING BASIS          =    USERDEF


 Recomputing integrals since basis changed


 Using spherical harmonics

 Library entry H      S aug-cc-pVTZ          selected for orbital group  3
 Library entry H      P aug-cc-pVTZ          selected for orbital group  3
 Library entry H      D aug-cc-pVTZ          selected for orbital group  3


 PROGRAM * SEWARD (Integral evaluation for generally contracted gaussian basis sets)     Author: Roland Lindh, 1990

 Geometry written to block  1 of record 700


 Point group  C2v 



 ATOMIC COORDINATES

 NR  ATOM    CHARGE       X              Y              Z

   1  N       7.00    0.000000000    0.000000000    1.140449108
   2  C       6.00    0.000000000    0.000000000   -1.047849189
   3  H       1.00    0.000000000    0.000000000   -3.089669900

 Bond lengths in Bohr (Angstrom)

 1-2  2.188298297  2-3  2.041820711
     ( 1.157997589)     ( 1.080484989)

 Bond angles

  1-2-3  179.99999829

 NUCLEAR CHARGE:                   14
 NUMBER OF PRIMITIVE AOS:         203
 NUMBER OF SYMMETRY AOS:          173
 NUMBER OF CONTRACTIONS:          171   (  75A1  +  39B1  +  39B2  +  18A2  )
 NUMBER OF CORE ORBITALS:           2   (   2A1  +   0B1  +   0B2  +   0A2  )
 NUMBER OF VALENCE ORBITALS:        9   (   5A1  +   2B1  +   2B2  +   0A2  )


 NUCLEAR REPULSION ENERGY   23.78634936

 EXTRA SYMMETRY OF AOS IN SYMMETRY 1:   1 1 1 1 1 1 1 1 1 1   1 1 1 1 1 1 1 2 1 2   1 2 1 2 1 2 1 2 1 2   1 2 1 1 1 1 1 1 1 1
                                        1 1 1 1 1 1 1 1 1 2   1 2 1 2 1 2 1 2 1 2   1 2 1 2 1 1 1 1 1 1   1 1 2 1 2
 EXTRA SYMMETRY OF AOS IN SYMMETRY 2:   1 1 1 1 1 1 1 1 1 1   1 1 2 1 2 1 2 1 1 1   1 1 1 1 1 1 1 1 1 2   1 2 1 2 1 1 1 1 1
 EXTRA SYMMETRY OF AOS IN SYMMETRY 3:   1 1 1 1 1 1 1 1 1 1   1 1 2 1 2 1 2 1 1 1   1 1 1 1 1 1 1 1 1 2   1 2 1 2 1 1 1 1 1

 Eigenvalues of metric

         1 0.259E-03 0.542E-03 0.952E-03 0.142E-02 0.320E-02 0.793E-02 0.104E-01 0.134E-01
         2 0.548E-02 0.161E-01 0.234E-01 0.358E-01 0.976E-01 0.114E+00 0.126E+00 0.189E+00
         3 0.548E-02 0.161E-01 0.234E-01 0.358E-01 0.976E-01 0.114E+00 0.126E+00 0.189E+00
         4 0.125E+00 0.140E+00 0.197E+00 0.259E+00 0.315E+00 0.379E+00 0.486E+00 0.602E+00


 Contracted 2-electron integrals neglected if value below      1.0D-22

       21708482. INTEGRALS WRITTEN OUT IN    5302 BLOCKS ON RECORD 1290 OF FILE 1


 NUMBER OF SORTED TWO-ELECTRON INTEGRALS:   28272141.     BUFFER LENGTH:  32768
 NUMBER OF SEGMENTS:   2  SEGMENT LENGTH:   15998211      RECORD LENGTH: 524288

 Memory used in sort:      16.56 MW

 SORT1 READ    21708482. AND WROTE    22106167. INTEGRALS IN     65 RECORDS. CPU TIME:     0.59 SEC, REAL TIME:     0.78 SEC
 SORT2 READ    22106167. AND WROTE    28272141. INTEGRALS IN      2 RECORDS. CPU TIME:     0.47 SEC, REAL TIME:     0.64 SEC

 FILE SIZES:   FILE 1:   368.1 MBYTE,  FILE 4:   272.7 MBYTE,   TOTAL:    640.8 MBYTE

 OPERATOR DM      FOR CENTER  0  COORDINATES:    0.000000    0.000000    0.000000


 **********************************************************************************************************************************
 DATASETS  * FILE   NREC   LENGTH (MB)   RECORD NAMES
              1      19      213.29       500      610      700      900      950      970     1000      129      960     1100   
                                          VAR    BASINP    GEOM    SYMINP    ZMAT    AOBASIS   BASIS     P2S    ABASIS      S 
                                         1400     1410     1200     1210     1080     1600     1650     1300     1700   
                                           T        V       H0       H01     AOSYM     SMH    MOLCAS    ERIS     OPER   

 PROGRAMS   *        TOTAL       INT
 CPU TIMES  *         4.13      4.03
 REAL TIME  *         5.38 SEC
 DISK USED  *       641.09 MB      
 **********************************************************************************************************************************


 PROGRAM * RHF-SCF (CLOSED SHELL)       Authors: W. Meyer, H.-J. Werner


 NUMBER OF ELECTRONS:       7+    7-
 CONVERGENCE THRESHOLDS:    1.00E-10 (Density)    1.00E-13 (Energy)
 MAX. NUMBER OF ITERATIONS:      500
 INTERPOLATION TYPE:            DIIS
 INTERPOLATION STEPS:              2 (START)      1 (STEP)
 LEVEL SHIFTS:                  0.00 (CLOSED)  0.00 (OPEN) 



 Orbital guess generated from atomic densities. Full valence occupancy:    7   2   2   0

 Molecular orbital dump at record        2100.2

 Initial occupancy:   5   1   1   0

 ITERATION    DDIFF          GRAD             ENERGY        2-EL.EN.            DIPOLE MOMENTS         DIIS   ORB.
    1      0.000D+00      0.000D+00       -92.77086525    111.479247    0.00000    0.00000   -2.04717    0    start
    2      0.000D+00      0.917D-02       -92.78291749    109.765631    0.00000    0.00000   -0.94266    1    diag
    3      0.349D-01      0.801D-02       -92.80569994    110.703604    0.00000    0.00000   -1.45889    2    diag
    4      0.121D-01      0.565D-03       -92.80595019    110.652805    0.00000    0.00000   -1.45164    3    diag
    5      0.186D-02      0.129D-03       -92.80596517    110.661890    0.00000    0.00000   -1.45034    4    diag
    6      0.544D-03      0.340D-04       -92.80596605    110.657411    0.00000    0.00000   -1.45057    5    diag
    7      0.460D-04      0.122D-04       -92.80596614    110.658398    0.00000    0.00000   -1.45066    6    diag
    8      0.165D-04      0.244D-05       -92.80596615    110.658382    0.00000    0.00000   -1.45065    7    diag
    9      0.870D-05      0.266D-06       -92.80596615    110.658390    0.00000    0.00000   -1.45064    8    diag
   10      0.147D-05      0.287D-07       -92.80596615    110.658391    0.00000    0.00000   -1.45065    9    orth
   11      0.141D-06      0.374D-08       -92.80596615    110.658391    0.00000    0.00000   -1.45065    9    diag
   12      0.120D-07      0.399D-09       -92.80596615    110.658391    0.00000    0.00000   -1.45065    9    diag
   13      0.117D-08      0.518D-10       -92.80596615    110.658391    0.00000    0.00000   -1.45065    9    diag
   14      0.180D-09      0.799D-11       -92.80596615    110.658391    0.00000    0.00000   -1.45065    9    diag
   15      0.294D-10      0.172D-11       -92.80596615    110.658391    0.00000    0.00000   -1.45065    9    diag
   16      0.532D-11      0.574D-12       -92.80596615    110.658391    0.00000    0.00000   -1.45065    9    diag
   17      0.170D-11      0.593D-12       -92.80596615    110.658391    0.00000    0.00000   -1.45065    0    orth

 Final occupancy:   5   1   1   0

 !RHF STATE 1.1 Energy                -92.805966145393
 Nuclear energy                        23.78634936
 One-electron energy                 -171.92151111
 Two-electron energy                   55.32919560
 Virial quotient                       -1.00292536
 !RHF STATE 1.1 Dipole moment           0.00000000     0.00000000    -1.45064554
 Dipole moment /Debye                   0.00000000     0.00000000    -3.68693170

 Orbital energies:

         1.1          2.1          3.1          4.1          5.1          6.1          7.1
    -15.592448   -11.401947    -1.251058    -0.830884    -0.577784     0.032547     0.149473

         1.2          2.2          3.2
     -0.488719     0.132637     0.305073

         1.3          2.3          3.3
     -0.488719     0.132637     0.305073

         1.4          2.4
      0.682628     0.961295

 HOMO      1.2    -0.488719 =     -13.2987eV
 LUMO      6.1     0.032547 =       0.8856eV
 LUMO-HOMO         0.521266 =      14.1844eV


 **********************************************************************************************************************************
 DATASETS  * FILE   NREC   LENGTH (MB)   RECORD NAMES
              1      19      213.29       500      610      700      900      950      970     1000      129      960     1100   
                                          VAR    BASINP    GEOM    SYMINP    ZMAT    AOBASIS   BASIS     P2S    ABASIS      S 
                                         1400     1410     1200     1210     1080     1600     1650     1300     1700   
                                           T        V       H0       H01     AOSYM     SMH    MOLCAS    ERIS     OPER   

              2       4        2.98       700     1000      520     2100   
                                         GEOM     BASIS   MCVARS     RHF  

 PROGRAMS   *        TOTAL        HF       INT
 CPU TIMES  *         6.18      2.06      4.03
 REAL TIME  *         7.92 SEC
 DISK USED  *       641.09 MB      
 **********************************************************************************************************************************


 PROGRAM * CCSD (Closed-shell coupled cluster)     Authors: C. Hampel, H.-J. Werner, 1991, M. Deegan, P.J. Knowles, 1992


 Convergence thresholds:  THRVAR = 1.00D-08  THRDEN = 1.00D-12

 CCSD(T)     terms to be evaluated (factor= 1.000)


 Number of closed-shell orbitals:   7 (   5   1   1   0 )
 Number of external orbitals:     164 (  70  38  38  18 )

 Molecular orbitals read from record     2100.2  Type=RHF/CANONICAL (state 1.1)

 Number of N-1 electron functions:               7
 Number of N-2 electron functions:              28
 Number of singly external CSFs:               426
 Number of doubly external CSFs:            182374
 Total number of CSFs:                      182801

 Length of J-op  integral file:               0.00 MB
 Length of K-op  integral file:               0.65 MB
 Length of 3-ext integral record:             0.00 MB

 Memory could be reduced to 11.98 Mwords without degradation in triples

 Integral transformation finished. Total CPU:   0.39 sec, npass=  1  Memory used:   1.63 MW

 Reference energy:                    -92.80596615

 MP2 singlet pair energy:              -0.30661573
 MP2 triplet pair energy:              -0.13979714
 MP2 correlation energy:               -0.44641287
 MP2 total energy:                    -93.25237901

 SCS-MP2 correlation energy:           -0.45492376   (PS=  1.200000  PT=  0.333333)
 SCS-MP2 total energy:                -93.26088991

 ITER.      SQ.NORM     CORR.ENERGY   TOTAL ENERGY   ENERGY CHANGE        DEN1      VAR(S)    VAR(P)  DIIS     TIME  TIME/IT
   1      1.11262468    -0.45271805   -93.25868420    -0.00630519     0.00661619  0.26D-02  0.27D-02  1  1     0.79     0.43
   2      1.12159455    -0.45293174   -93.25889788    -0.00021368    -0.01030551  0.57D-04  0.37D-03  2  2     1.20     0.44
   3      1.12534499    -0.45310911   -93.25907526    -0.00017737    -0.00181108  0.19D-04  0.52D-04  3  3     1.59     0.45
   4      1.12774930    -0.45312611   -93.25909226    -0.00001700    -0.00105254  0.95D-06  0.52D-05  4  4     2.02     0.45
   5      1.12831876    -0.45313102   -93.25909717    -0.00000491    -0.00015919  0.19D-06  0.44D-06  5  5     2.43     0.45
   6      1.12840706    -0.45313445   -93.25910059    -0.00000342    -0.00000577  0.94D-08  0.38D-07  6  6     2.83     0.45
   7      1.12842220    -0.45313532   -93.25910147    -0.00000088    -0.00000360  0.20D-08  0.31D-08  6  1     3.24     0.46
   8      1.12842564    -0.45313545   -93.25910159    -0.00000013    -0.00000143  0.27D-09  0.19D-09  6  2     3.66     0.46
   9      1.12842560    -0.45313551   -93.25910166    -0.00000007     0.00000020  0.29D-10  0.23D-10  6  3     4.07     0.46
  10      1.12842581    -0.45313553   -93.25910168    -0.00000002    -0.00000001  0.63D-11  0.26D-11  6  4     4.49     0.46
  11      1.12842581    -0.45313554   -93.25910169    -0.00000001     0.00000002  0.74D-12  0.62D-12  6  5     4.89     0.46
  12      1.12842577    -0.45313554   -93.25910169     0.00000000     0.00000003  0.48D-13  0.12D-12  6  6     5.32     0.46
  13      1.12842571    -0.45313554   -93.25910169    -0.00000000     0.00000001  0.40D-14  0.80D-14  6  2     5.73     0.46
  14      1.12842570    -0.45313554   -93.25910169    -0.00000000     0.00000001  0.23D-15  0.39D-15  6  1     6.13     0.46
  15      1.12842569    -0.45313554   -93.25910169    -0.00000000     0.00000000  0.42D-16  0.47D-16  6  3     6.52     0.46
  16      1.12842569    -0.45313554   -93.25910169    -0.00000000     0.00000000  0.70D-17  0.33D-17  6  4     6.95     0.46
  17      1.12842569    -0.45313554   -93.25910169     0.00000000     0.00000000  0.91D-18  0.49D-18  6  5     7.37     0.46
  18      1.12842569    -0.45313554   -93.25910169     0.00000000    -0.00000000  0.14D-18  0.49D-19  6  6     7.79     0.46
  19      1.12842569    -0.45313554   -93.25910169     0.00000000    -0.00000000  0.85D-20  0.44D-20  6  1     8.19     0.46
  20      1.12842569    -0.45313554   -93.25910169    -0.00000000     0.00000000  0.43D-21  0.53D-21  6  2     8.58     0.46
  21      1.12842569    -0.45313554   -93.25910169    -0.00000000     0.00000000  0.92D-22  0.99D-22  6  3     8.98     0.46

 Norm of t1 vector:      0.06449055      S-energy:     0.00000000      T1 diagnostic:  0.01218757
                                                                       D1 diagnostic:  0.02841832

 Doubles amplitudes (print threshold =  0.500E-01):

         I         J         SYM. A    SYM. B    A         B      T(IJ, AB)

         6         6         2         2         1         1     -0.05895701
         7         7         3         3         1         1     -0.05895701


 Total CPU time for triples:      6.73 sec


 RESULTS
 =======

  Reference energy                    -92.805966145393

  Correlated core orbitals:             1.1       2.1
  Orbital energies:                   -15.5924  -11.4019
 
  CCSD core-core energy                -0.079728257186
  CCSD core-valence energy             -0.029205362715
  CCSD valence correlation energy      -0.344201921685
 
  CCSD singlet pair energy             -0.331803046314
  CCSD triplet pair energy             -0.121332495273
  CCSD correlation energy              -0.453135541586

  Triples (T) contribution             -0.018155398327
  Total correlation energy             -0.471290939913

  CCSD total energy                   -93.259101686979
  CCSD[T] energy                      -93.278046517094
  CCSD-T energy                       -93.276882964742
 !CCSD(T) total energy                -93.277257085306

 Timing summary (sec):

 STEP                 CPU(USER)    SYS     CPU(TOT)    WALL
 Transformation          0.40      0.07      0.47      0.47
 CCSD iterations         8.58      1.10      9.68      9.69
 Triples                 6.73      0.23      6.96      6.96

 Program statistics:

 Available memory in ccsd:               994999704
 Min. memory needed in ccsd:                607983
 Max. memory used in ccsd:                  763562
 Max. memory used in cckext:                768329 (21 integral passes)



 **********************************************************************************************************************************
 DATASETS  * FILE   NREC   LENGTH (MB)   RECORD NAMES
              1      20      249.44       500      610      700      900      950      970     1000      129      960     1100   
                                          VAR    BASINP    GEOM    SYMINP    ZMAT    AOBASIS   BASIS     P2S    ABASIS      S 
                                         1400     1410     1200     1210     1080     1600     1650     1300     1700     1380   
                                           T        V       H0       H01     AOSYM     SMH    MOLCAS    ERIS     OPER     JKOP   

              2       4        2.98       700     1000      520     2100   
                                         GEOM     BASIS   MCVARS     RHF  

 PROGRAMS   *        TOTAL   CCSD(T)        HF       INT
 CPU TIMES  *        21.94     15.75      2.06      4.03
 REAL TIME  *        25.20 SEC
 DISK USED  *       641.09 MB      
 **********************************************************************************************************************************

 CCSD(T)/USERDEF energy=    -93.277257085306

        CCSD(T)         HF-SCF  
    -93.27725709    -92.80596615
 **********************************************************************************************************************************
 Molpro calculation terminated
 Variable memory released
