
 Primary working directories    : /tmp/r2666/232762.maple
 Secondary working directories  : /tmp/r2666/232762.maple
 Wavefunction directory         : /ddn/home4/r2666/wfu/
 Main file repository           : /tmp/r2666/232762.maple/

 SHA1      : d5ffa45e93fdbca01ffc919aa182cfdae0147319
 NAME      : 2015.1.35
 ARCHNAME  : linux/x86_64
 FC        : /opt/intel/composer_xe_2015.1.133/bin/intel64/ifort
 BLASLIB   : -Wl,-_start-group /opt/intel/mkl/lib/intel64/libmkl_intel_ilp64.a /opt/intel/mkl/lib/intel64/libmkl_intel_thread.a /opt/intel/mkl/lib/intel64/libmkl_core.a -Wl,-_end-group
 id        : olemiss

 Nodes     nprocs
 cn095        1

 Using customized tuning parameters: mindgm=1; mindgv=20; mindgc=4; mindgr=1; noblas=0; minvec=7
 default implementation of scratch files=df  

 ***,hcn CCSD(T)/TZ-F12 QFF
 memory, 995, m;
 gthresh,energy=1.d-12,zero=1.d-22,oneint=1.d-22,twoint=1.d-22;
 gthresh,optgrad=1.d-8,optstep=1.d-8;
 nocompress;
 geomtyp=xyz
 bohr
 geometry={
 3
         41        41
 N       -0.0046256470        0.0000000675        1.1309517820
 C        0.0096312361       -0.0000000018       -1.0573000722
 H       -0.0050055891       -0.0000000657       -3.0707216918
 }
 
 basis={
 default=aug-cc-pvtz
 s,C,8236.0,1235.0,280.8, 79.27,25.59, 8.997,3.319
 s,C,0.9059,0.3643,0.1285000
 p,C,56.0,18.71,4.133,0.2827,0.3827,0.1209
 d,C,30.0,10.0,3.3,1.097,0.318
 f,C,7.0,2.3,0.7610
 s,N,11420.0,1712.0,389.3,110.0,35.57,12.54,4.644
 s,N,1.293,0.5118,0.1787
 p,N,79.89,26.63,5.948,1.742,0.555,0.1725
 d,N,45.0,15.0,5.0,1.654,0.469
 f,N,9.9,3.3,1.093
 s,O,15330.0,2299.0,522.4,147.3,47.55,16.76,6.207
 s,O,1.752,0.6882,0.2384
 p,O,103.5,34.46,7.749,2.28,0.7156,0.214
 d,O,63.0,21.0,7.0,2.314,0.645
 f,O,12.9,4.3,1.428
 s,mg,164900.0,24710.0,5628.0,1596.0,521.0;
 s,mg,188.0,73.01,29.90,12.54,4.306,1.826;
 s,mg,0.7417,0.0761,0.145,0.033,0.0129;
 p,mg,950.70,316.90,74.86,23.72,8.669,3.363;
 p,mg,1.310,0.4911,0.2364,0.08733,0.03237,0.00745;
 d,mg,1.601,0.686,0.126,0.294,0.0468;
 f,mg,1.372,0.588,0.094,0.252;
 }
   {hf,maxit=500;accu,20;}
 {ccsd(t),nocheck,maxit=250;orbital,IGNORE_ERROR;core}

 Variables initialized (889), CPU time= 0.00 sec
 Commands  initialized (702), CPU time= 0.01 sec, 572 directives.
 Default parameters read. Elapsed time= 0.05 sec

 Checking input...
 Passed
1


                                         ***  PROGRAM SYSTEM MOLPRO  ***
                                       Copyright, TTI GmbH Stuttgart, 2015
                                    Version 2015.1 linked Jul  9 2018 13:16:40


 **********************************************************************************************************************************
 LABEL *   hcn CCSD(T)/TZ-F12 QFF                                                        
  64 bit serial version                                                                  DATE: 06-Feb-20          TIME: 09:55:27  
 **********************************************************************************************************************************

 SHA1:             d5ffa45e93fdbca01ffc919aa182cfdae0147319
 **********************************************************************************************************************************

 THRESHOLDS:

 ZERO    =  1.00D-22  ONEINT  =  1.00D-22  TWOINT  =  1.00D-22  PREFAC  =  1.00D-14  LOCALI  =  1.00D-09  EORDER  =  1.00D-04
 ENERGY  =  1.00D-12  ETEST   =  0.00D+00  EDENS   =  0.00D+00  THRDEDEF=  1.00D-06  GRADIENT=  1.00D-02  STEP    =  1.00D-03
 ORBITAL =  1.00D-05  CIVEC   =  1.00D-05  COEFF   =  1.00D-04  PRINTCI =  5.00D-02  PUNCHCI =  9.90D+01  OPTGRAD =  3.00D-04
 OPTENERG=  1.00D-06  OPTSTEP =  3.00D-04  THRGRAD =  1.00D-10  COMPRESS=  1.00D-11  VARMIN  =  1.00D-07  VARMAX  =  1.00D-03
 THRDOUB =  0.00D+00  THRDIV  =  1.00D-05  THRRED  =  1.00D-07  THRPSP  =  1.00D+00  THRDC   =  1.00D-10  THRCS   =  1.00D-10
 THRNRM  =  1.00D-08  THREQ   =  0.00D+00  THRDE   =  1.00D+00  THRREF  =  1.00D-05  SPARFAC =  1.00D+00  THRDLP  =  1.00D-07
 THRDIA  =  1.00D-10  THRDLS  =  1.00D-07  THRGPS  =  0.00D+00  THRKEX  =  0.00D+00  THRDIS  =  2.00D-01  THRVAR  =  1.00D-10
 THRLOC  =  1.00D-06  THRGAP  =  1.00D-06  THRLOCT = -1.00D+00  THRGAPT = -1.00D+00  THRORB  =  1.00D-06  THRMLTP =  0.00D+00
 THRCPQCI=  1.00D-10  KEXTA   =  0.00D+00  THRCOARS=  0.00D+00  SYMTOL  =  1.00D-06  GRADTOL =  1.00D-06  THROVL  =  1.00D-08
 THRORTH =  1.00D-08  GRID    =  1.00D-06  GRIDMAX =  1.00D-03  DTMAX   =  0.00D+00  THROCCDE=  1.00D-01  THROCCDE=  1.00D-01



 THRESHOLDS:

 ZERO    =  1.00D-22  ONEINT  =  1.00D-22  TWOINT  =  1.00D-22  PREFAC  =  1.00D-14  LOCALI  =  1.00D-09  EORDER  =  1.00D-04
 ENERGY  =  1.00D-12  ETEST   =  0.00D+00  EDENS   =  0.00D+00  THRDEDEF=  1.00D-06  GRADIENT=  1.00D-02  STEP    =  1.00D-03
 ORBITAL =  1.00D-05  CIVEC   =  1.00D-05  COEFF   =  1.00D-04  PRINTCI =  5.00D-02  PUNCHCI =  9.90D+01  OPTGRAD =  1.00D-08
 OPTENERG=  1.00D-06  OPTSTEP =  1.00D-08  THRGRAD =  1.00D-10  COMPRESS=  1.00D-11  VARMIN  =  1.00D-07  VARMAX  =  1.00D-03
 THRDOUB =  0.00D+00  THRDIV  =  1.00D-05  THRRED  =  1.00D-07  THRPSP  =  1.00D+00  THRDC   =  1.00D-10  THRCS   =  1.00D-10
 THRNRM  =  1.00D-08  THREQ   =  0.00D+00  THRDE   =  1.00D+00  THRREF  =  1.00D-05  SPARFAC =  1.00D+00  THRDLP  =  1.00D-07
 THRDIA  =  1.00D-10  THRDLS  =  1.00D-07  THRGPS  =  0.00D+00  THRKEX  =  0.00D+00  THRDIS  =  2.00D-01  THRVAR  =  1.00D-10
 THRLOC  =  1.00D-06  THRGAP  =  1.00D-06  THRLOCT = -1.00D+00  THRGAPT = -1.00D+00  THRORB  =  1.00D-06  THRMLTP =  0.00D+00
 THRCPQCI=  1.00D-10  KEXTA   =  0.00D+00  THRCOARS=  0.00D+00  SYMTOL  =  1.00D-06  GRADTOL =  1.00D-06  THROVL  =  1.00D-08
 THRORTH =  1.00D-08  GRID    =  1.00D-06  GRIDMAX =  1.00D-03  DTMAX   =  0.00D+00  THROCCDE=  1.00D-01  THROCCDE=  1.00D-01



 Input parameters for SORTINT:

 COMPRESS =    0.000000
 C_FINAL  =    1.000000
 DEBUG    =   -1.000000
 C_SORT1  =    0.000000
 C_SEWARD =    0.000000
 THRESH   =    0.000000
 IO       =  molpro                                                          
 SPRI     =    0.000000
 SETTING GEOMTYP        =    XYZ
 ZUNIT=BOHR
 

 Variable memory set to  995000000 words,  buffer space   230000 words

 SETTING BASIS          =    USERDEF


 Recomputing integrals since basis changed


 Using spherical harmonics

 Library entry H      S aug-cc-pVTZ          selected for orbital group  3
 Library entry H      P aug-cc-pVTZ          selected for orbital group  3
 Library entry H      D aug-cc-pVTZ          selected for orbital group  3


 PROGRAM * SEWARD (Integral evaluation for generally contracted gaussian basis sets)     Author: Roland Lindh, 1990

 Geometry written to block  1 of record 700


 Point group  Cs  



 ATOMIC COORDINATES

 NR  ATOM    CHARGE       X              Y              Z

   1  N       7.00   -0.004625647    0.000000000    1.130951782
   2  C       6.00    0.009631236    0.000000000   -1.057300072
   3  H       1.00   -0.005005589    0.000000000   -3.070721692

 Bond lengths in Bohr (Angstrom)

 1-2  2.188298297  2-3  2.013474821
     ( 1.157997589)     ( 1.065484990)

 Bond angles

  1-2-3  179.21020058

 NUCLEAR CHARGE:                   14
 NUMBER OF PRIMITIVE AOS:         203
 NUMBER OF SYMMETRY AOS:          173
 NUMBER OF CONTRACTIONS:          171   ( 114A'  +  57A"  )
 NUMBER OF CORE ORBITALS:           2   (   2A'  +   0A"  )
 NUMBER OF VALENCE ORBITALS:        9   (   7A'  +   2A"  )


 NUCLEAR REPULSION ENERGY   23.83892167


 Eigenvalues of metric

         1 0.244E-03 0.536E-03 0.917E-03 0.138E-02 0.318E-02 0.544E-02 0.759E-02 0.100E-01
         2 0.544E-02 0.159E-01 0.223E-01 0.348E-01 0.965E-01 0.113E+00 0.124E+00 0.125E+00


 Contracted 2-electron integrals neglected if value below      1.0D-22

       47935175. INTEGRALS WRITTEN OUT IN   11706 BLOCKS ON RECORD 1290 OF FILE 1


 NUMBER OF SORTED TWO-ELECTRON INTEGRALS:   55360566.     BUFFER LENGTH:  32768
 NUMBER OF SEGMENTS:   4  SEGMENT LENGTH:   15997996      RECORD LENGTH: 524288

 Memory used in sort:      16.56 MW

 SORT1 READ    47935175. AND WROTE    48389905. INTEGRALS IN    141 RECORDS. CPU TIME:     0.79 SEC, REAL TIME:     1.07 SEC
 SORT2 READ    48389905. AND WROTE    55360566. INTEGRALS IN      4 RECORDS. CPU TIME:     0.60 SEC, REAL TIME:     0.86 SEC

 FILE SIZES:   FILE 1:   787.9 MBYTE,  FILE 4:   591.4 MBYTE,   TOTAL:   1379.3 MBYTE

 OPERATOR DM      FOR CENTER  0  COORDINATES:    0.000000    0.000000    0.000000


 **********************************************************************************************************************************
 DATASETS  * FILE   NREC   LENGTH (MB)   RECORD NAMES
              1      19      432.31       500      610      700      900      950      970     1000      129      960     1100   
                                          VAR    BASINP    GEOM    SYMINP    ZMAT    AOBASIS   BASIS     P2S    ABASIS      S 
                                         1400     1410     1200     1210     1080     1600     1650     1300     1700   
                                           T        V       H0       H01     AOSYM     SMH    MOLCAS    ERIS     OPER   

 PROGRAMS   *        TOTAL       INT
 CPU TIMES  *         4.24      4.16
 REAL TIME  *         5.60 SEC
 DISK USED  *         1.38 GB      
 **********************************************************************************************************************************


 PROGRAM * RHF-SCF (CLOSED SHELL)       Authors: W. Meyer, H.-J. Werner


 NUMBER OF ELECTRONS:       7+    7-
 CONVERGENCE THRESHOLDS:    1.00E-10 (Density)    1.00E-13 (Energy)
 MAX. NUMBER OF ITERATIONS:      500
 INTERPOLATION TYPE:            DIIS
 INTERPOLATION STEPS:              2 (START)      1 (STEP)
 LEVEL SHIFTS:                  0.00 (CLOSED)  0.00 (OPEN) 



 Orbital guess generated from atomic densities. Full valence occupancy:    9   2

 Molecular orbital dump at record        2100.2

 Initial occupancy:   6   1

 ITERATION    DDIFF          GRAD             ENERGY        2-EL.EN.            DIPOLE MOMENTS         DIIS   ORB.
    1      0.000D+00      0.000D+00       -92.77113889    111.541842    0.00838    0.00000   -2.02877    0    start
    2      0.000D+00      0.707D-02       -92.78313608    109.854335   -0.00332    0.00000   -0.93933    1    diag
    3      0.258D-01      0.616D-02       -92.80540391    110.781555    0.00159    0.00000   -1.45027    2    diag
    4      0.890D-02      0.443D-03       -92.80565626    110.729729    0.00122    0.00000   -1.44310    3    diag
    5      0.141D-02      0.100D-03       -92.80567103    110.738764    0.00110    0.00000   -1.44179    4    diag
    6      0.398D-03      0.262D-04       -92.80567188    110.734328    0.00109    0.00000   -1.44202    5    diag
    7      0.338D-04      0.934D-05       -92.80567197    110.735290    0.00108    0.00000   -1.44210    6    diag
    8      0.122D-04      0.187D-05       -92.80567198    110.735275    0.00108    0.00000   -1.44208    7    diag
    9      0.637D-05      0.206D-06       -92.80567198    110.735283    0.00108    0.00000   -1.44208    8    diag
   10      0.107D-05      0.234D-07       -92.80567198    110.735284    0.00108    0.00000   -1.44208    9    orth
   11      0.106D-06      0.434D-08       -92.80567198    110.735284    0.00108    0.00000   -1.44208    9    diag
   12      0.144D-07      0.164D-08       -92.80567198    110.735284    0.00108    0.00000   -1.44208    9    diag
   13      0.711D-08      0.727D-09       -92.80567198    110.735284    0.00108    0.00000   -1.44208    9    diag
   14      0.461D-08      0.202D-09       -92.80567198    110.735284    0.00108    0.00000   -1.44208    9    diag
   15      0.125D-08      0.780D-10       -92.80567198    110.735284    0.00108    0.00000   -1.44208    9    diag
   16      0.414D-09      0.169D-10       -92.80567198    110.735284    0.00108    0.00000   -1.44208    9    diag
   17      0.877D-10      0.445D-11       -92.80567198    110.735284    0.00108    0.00000   -1.44208    9    diag
   18      0.140D-10      0.130D-11       -92.80567198    110.735284    0.00108    0.00000   -1.44208    9    diag
   19      0.247D-11      0.251D-12       -92.80567198    110.735284    0.00108    0.00000   -1.44208    9    fixocc
   20      0.102D-11      0.267D-12       -92.80567198    110.735284    0.00108    0.00000   -1.44208    9    orth
   21      0.649D-12      0.290D-12       -92.80567198    110.735284    0.00108    0.00000   -1.44208    9    diag
   22      0.427D-12      0.288D-12       -92.80567198    110.735284    0.00108    0.00000   -1.44208    9    diag
   23      0.396D-12      0.314D-12       -92.80567198    110.735284    0.00108    0.00000   -1.44208    0    orth

 Final occupancy:   6   1

 !RHF STATE 1.1 Energy                -92.805671975249
 Nuclear energy                        23.83892167
 One-electron energy                 -172.01223575
 Two-electron energy                   55.36764211
 Virial quotient                       -1.00268154
 !RHF STATE 1.1 Dipole moment           0.00108295     0.00000000    -1.44207983
 Dipole moment /Debye                   0.00275240     0.00000000    -3.66516125

 Orbital energies:

         1.1          2.1          3.1          4.1          5.1          6.1          7.1          8.1
    -15.592802   -11.401261    -1.251378    -0.836644    -0.578306    -0.489042     0.032630     0.132562

         1.2          2.2          3.2
     -0.489044     0.132624     0.305208

 HOMO      6.1    -0.489042 =     -13.3075eV
 LUMO      7.1     0.032630 =       0.8879eV
 LUMO-HOMO         0.521672 =      14.1954eV


 **********************************************************************************************************************************
 DATASETS  * FILE   NREC   LENGTH (MB)   RECORD NAMES
              1      19      432.31       500      610      700      900      950      970     1000      129      960     1100   
                                          VAR    BASINP    GEOM    SYMINP    ZMAT    AOBASIS   BASIS     P2S    ABASIS      S 
                                         1400     1410     1200     1210     1080     1600     1650     1300     1700   
                                           T        V       H0       H01     AOSYM     SMH    MOLCAS    ERIS     OPER   

              2       4        3.13       700     1000      520     2100   
                                         GEOM     BASIS   MCVARS     RHF  

 PROGRAMS   *        TOTAL        HF       INT
 CPU TIMES  *        10.24      6.00      4.16
 REAL TIME  *        12.82 SEC
 DISK USED  *         1.38 GB      
 **********************************************************************************************************************************


 PROGRAM * CCSD (Closed-shell coupled cluster)     Authors: C. Hampel, H.-J. Werner, 1991, M. Deegan, P.J. Knowles, 1992


 Convergence thresholds:  THRVAR = 1.00D-08  THRDEN = 1.00D-12

 CCSD(T)     terms to be evaluated (factor= 1.000)


 Number of closed-shell orbitals:   7 (   6   1 )
 Number of external orbitals:     164 ( 108  56 )

 Molecular orbitals read from record     2100.2  Type=RHF/CANONICAL (state 1.1)

 Number of N-1 electron functions:               7
 Number of N-2 electron functions:              28
 Number of singly external CSFs:               704
 Number of doubly external CSFs:            346950
 Total number of CSFs:                      347655

 Length of J-op  integral file:               0.00 MB
 Length of K-op  integral file:               1.15 MB
 Length of 3-ext integral record:             0.00 MB

 Memory could be reduced to 22.83 Mwords without degradation in triples

 Integral transformation finished. Total CPU:   0.83 sec, npass=  1  Memory used:   5.99 MW

 Reference energy:                    -92.80567198

 MP2 singlet pair energy:              -0.30651121
 MP2 triplet pair energy:              -0.13976160
 MP2 correlation energy:               -0.44627281
 MP2 total energy:                    -93.25194478

 SCS-MP2 correlation energy:           -0.45477622   (PS=  1.200000  PT=  0.333333)
 SCS-MP2 total energy:                -93.26044820

 ITER.      SQ.NORM     CORR.ENERGY   TOTAL ENERGY   ENERGY CHANGE        DEN1      VAR(S)    VAR(P)  DIIS     TIME  TIME/IT
   1      1.11235451    -0.45256960   -93.25824157    -0.00629679     0.00658757  0.26D-02  0.27D-02  1  1     1.52     0.81
   2      1.12127269    -0.45277183   -93.25844381    -0.00020224    -0.01027691  0.57D-04  0.37D-03  2  2     2.28     0.84
   3      1.12498568    -0.45294550   -93.25861748    -0.00017367    -0.00179582  0.19D-04  0.52D-04  3  3     3.02     0.85
   4      1.12736892    -0.45296198   -93.25863396    -0.00001648    -0.00104477  0.94D-06  0.52D-05  4  4     3.76     0.85
   5      1.12793541    -0.45296667   -93.25863864    -0.00000469    -0.00015888  0.18D-06  0.43D-06  5  5     4.52     0.85
   6      1.12802027    -0.45297016   -93.25864213    -0.00000349    -0.00000492  0.84D-08  0.37D-07  6  6     5.26     0.86
   7      1.12803523    -0.45297104   -93.25864302    -0.00000088    -0.00000368  0.17D-08  0.31D-08  6  1     5.99     0.86
   8      1.12803838    -0.45297120   -93.25864317    -0.00000015    -0.00000133  0.22D-09  0.19D-09  6  2     6.72     0.86
   9      1.12803832    -0.45297127   -93.25864324    -0.00000007     0.00000020  0.22D-10  0.20D-10  6  3     7.51     0.86
  10      1.12803850    -0.45297129   -93.25864326    -0.00000002    -0.00000002  0.48D-11  0.20D-11  6  4     8.22     0.86
  11      1.12803850    -0.45297129   -93.25864327    -0.00000001     0.00000002  0.65D-12  0.46D-12  6  5     9.01     0.86
  12      1.12803845    -0.45297129   -93.25864327    -0.00000000     0.00000003  0.50D-13  0.92D-13  6  6     9.78     0.86
  13      1.12803842    -0.45297130   -93.25864327    -0.00000000     0.00000001  0.25D-14  0.13D-13  6  1    10.51     0.86
  14      1.12803840    -0.45297130   -93.25864327    -0.00000000     0.00000001  0.51D-15  0.20D-14  6  2    11.32     0.86
  15      1.12803839    -0.45297130   -93.25864327    -0.00000000     0.00000000  0.50D-16  0.13D-15  6  4    12.05     0.86
  16      1.12803839    -0.45297130   -93.25864327    -0.00000000     0.00000000  0.13D-16  0.93D-17  6  3    12.81     0.86
  17      1.12803839    -0.45297130   -93.25864327    -0.00000000     0.00000000  0.29D-17  0.15D-17  6  5    13.55     0.86
  18      1.12803839    -0.45297130   -93.25864327    -0.00000000     0.00000000  0.40D-18  0.18D-18  6  6    14.30     0.86
  19      1.12803839    -0.45297130   -93.25864327    -0.00000000     0.00000000  0.76D-19  0.31D-19  6  1    15.04     0.86
  20      1.12803839    -0.45297130   -93.25864327    -0.00000000     0.00000000  0.87D-20  0.88D-20  6  2    15.84     0.86
  21      1.12803839    -0.45297130   -93.25864327     0.00000000    -0.00000000  0.84D-21  0.17D-20  6  4    16.61     0.86
  22      1.12803839    -0.45297130   -93.25864327     0.00000000    -0.00000000  0.93D-22  0.24D-21  6  3    17.43     0.86

 Norm of t1 vector:      0.06429807      S-energy:    -0.00000000      T1 diagnostic:  0.01215119
                                                                       D1 diagnostic:  0.02843201

 Doubles amplitudes (print threshold =  0.500E-01):

         I         J         SYM. A    SYM. B    A         B      T(IJ, AB)

         6         6         1         1         2         2     -0.05909053
         7         7         2         2         1         1     -0.05917638


 Total CPU time for triples:     11.60 sec


 RESULTS
 =======

  Reference energy                    -92.805671975249

  Correlated core orbitals:             1.1       2.1
  Orbital energies:                   -15.5928  -11.4013
 
  CCSD core-core energy                -0.079721240973
  CCSD core-valence energy             -0.029235471682
  CCSD valence correlation energy      -0.344014582927
 
  CCSD singlet pair energy             -0.331632352721
  CCSD triplet pair energy             -0.121338942861
  CCSD correlation energy              -0.452971295582

  Triples (T) contribution             -0.018118327067
  Total correlation energy             -0.471089622648

  CCSD total energy                   -93.258643270831
  CCSD[T] energy                      -93.277548423133
  CCSD-T energy                       -93.276388145090
 !CCSD(T) total energy                -93.276761597898

 Timing summary (sec):

 STEP                 CPU(USER)    SYS     CPU(TOT)    WALL
 Transformation          0.84      0.21      1.05      1.05
 CCSD iterations        16.59      2.38     18.97     18.98
 Triples                11.60      0.39     11.99     11.99

 Program statistics:

 Available memory in ccsd:               994999704
 Min. memory needed in ccsd:               1130392
 Max. memory used in ccsd:                 1422657
 Max. memory used in cckext:               1758571 (22 integral passes)



 **********************************************************************************************************************************
 DATASETS  * FILE   NREC   LENGTH (MB)   RECORD NAMES
              1      20      501.86       500      610      700      900      950      970     1000      129      960     1100   
                                          VAR    BASINP    GEOM    SYMINP    ZMAT    AOBASIS   BASIS     P2S    ABASIS      S 
                                         1400     1410     1200     1210     1080     1600     1650     1300     1700     1380   
                                           T        V       H0       H01     AOSYM     SMH    MOLCAS    ERIS     OPER     JKOP   

              2       4        3.13       700     1000      520     2100   
                                         GEOM     BASIS   MCVARS     RHF  

 PROGRAMS   *        TOTAL   CCSD(T)        HF       INT
 CPU TIMES  *        39.30     29.05      6.00      4.16
 REAL TIME  *        44.87 SEC
 DISK USED  *         1.38 GB      
 **********************************************************************************************************************************

 CCSD(T)/USERDEF energy=    -93.276761597898

        CCSD(T)         HF-SCF  
    -93.27676160    -92.80567198
 **********************************************************************************************************************************
 Molpro calculation terminated
 Variable memory released
