
 Primary working directories    : /tmp/r2666/232722.maple
 Secondary working directories  : /tmp/r2666/232722.maple
 Wavefunction directory         : /ddn/home4/r2666/wfu/
 Main file repository           : /tmp/r2666/232722.maple/

 SHA1      : d5ffa45e93fdbca01ffc919aa182cfdae0147319
 NAME      : 2015.1.35
 ARCHNAME  : linux/x86_64
 FC        : /opt/intel/composer_xe_2015.1.133/bin/intel64/ifort
 BLASLIB   : -Wl,-_start-group /opt/intel/mkl/lib/intel64/libmkl_intel_ilp64.a /opt/intel/mkl/lib/intel64/libmkl_intel_thread.a /opt/intel/mkl/lib/intel64/libmkl_core.a -Wl,-_end-group
 id        : olemiss

 Nodes     nprocs
 cn046        1

 Using customized tuning parameters: mindgm=1; mindgv=20; mindgc=4; mindgr=1; noblas=0; minvec=7
 default implementation of scratch files=df  

 ***,hcn CCSD(T)/TZ-F12 QFF
 memory, 995, m;
 gthresh,energy=1.d-12,zero=1.d-22,oneint=1.d-22,twoint=1.d-22;
 gthresh,optgrad=1.d-8,optstep=1.d-8;
 nocompress;
 geomtyp=xyz
 bohr
 geometry={
 3
          1         1
 N        0.0000000000        0.0000000000        1.0995050445
 C        0.0000000000        0.0000000000       -1.0415501027
 H        0.0000000000        0.0000000000       -3.0550249237
 }
 
 basis={
 default=aug-cc-pvtz
 s,C,8236.0,1235.0,280.8, 79.27,25.59, 8.997,3.319
 s,C,0.9059,0.3643,0.1285000
 p,C,56.0,18.71,4.133,0.2827,0.3827,0.1209
 d,C,30.0,10.0,3.3,1.097,0.318
 f,C,7.0,2.3,0.7610
 s,N,11420.0,1712.0,389.3,110.0,35.57,12.54,4.644
 s,N,1.293,0.5118,0.1787
 p,N,79.89,26.63,5.948,1.742,0.555,0.1725
 d,N,45.0,15.0,5.0,1.654,0.469
 f,N,9.9,3.3,1.093
 s,O,15330.0,2299.0,522.4,147.3,47.55,16.76,6.207
 s,O,1.752,0.6882,0.2384
 p,O,103.5,34.46,7.749,2.28,0.7156,0.214
 d,O,63.0,21.0,7.0,2.314,0.645
 f,O,12.9,4.3,1.428
 s,mg,164900.0,24710.0,5628.0,1596.0,521.0;
 s,mg,188.0,73.01,29.90,12.54,4.306,1.826;
 s,mg,0.7417,0.0761,0.145,0.033,0.0129;
 p,mg,950.70,316.90,74.86,23.72,8.669,3.363;
 p,mg,1.310,0.4911,0.2364,0.08733,0.03237,0.00745;
 d,mg,1.601,0.686,0.126,0.294,0.0468;
 f,mg,1.372,0.588,0.094,0.252;
 }
   {hf,maxit=500;accu,20;}
 {ccsd(t),nocheck,maxit=250;orbital,IGNORE_ERROR;core}

 Variables initialized (889), CPU time= 0.01 sec
 Commands  initialized (702), CPU time= 0.01 sec, 572 directives.
 Default parameters read. Elapsed time= 0.21 sec

 Checking input...
 Passed
1


                                         ***  PROGRAM SYSTEM MOLPRO  ***
                                       Copyright, TTI GmbH Stuttgart, 2015
                                    Version 2015.1 linked Jul  9 2018 13:16:40


 **********************************************************************************************************************************
 LABEL *   hcn CCSD(T)/TZ-F12 QFF                                                        
  64 bit serial version                                                                  DATE: 06-Feb-20          TIME: 09:55:06  
 **********************************************************************************************************************************

 SHA1:             d5ffa45e93fdbca01ffc919aa182cfdae0147319
 **********************************************************************************************************************************

 THRESHOLDS:

 ZERO    =  1.00D-22  ONEINT  =  1.00D-22  TWOINT  =  1.00D-22  PREFAC  =  1.00D-14  LOCALI  =  1.00D-09  EORDER  =  1.00D-04
 ENERGY  =  1.00D-12  ETEST   =  0.00D+00  EDENS   =  0.00D+00  THRDEDEF=  1.00D-06  GRADIENT=  1.00D-02  STEP    =  1.00D-03
 ORBITAL =  1.00D-05  CIVEC   =  1.00D-05  COEFF   =  1.00D-04  PRINTCI =  5.00D-02  PUNCHCI =  9.90D+01  OPTGRAD =  3.00D-04
 OPTENERG=  1.00D-06  OPTSTEP =  3.00D-04  THRGRAD =  1.00D-10  COMPRESS=  1.00D-11  VARMIN  =  1.00D-07  VARMAX  =  1.00D-03
 THRDOUB =  0.00D+00  THRDIV  =  1.00D-05  THRRED  =  1.00D-07  THRPSP  =  1.00D+00  THRDC   =  1.00D-10  THRCS   =  1.00D-10
 THRNRM  =  1.00D-08  THREQ   =  0.00D+00  THRDE   =  1.00D+00  THRREF  =  1.00D-05  SPARFAC =  1.00D+00  THRDLP  =  1.00D-07
 THRDIA  =  1.00D-10  THRDLS  =  1.00D-07  THRGPS  =  0.00D+00  THRKEX  =  0.00D+00  THRDIS  =  2.00D-01  THRVAR  =  1.00D-10
 THRLOC  =  1.00D-06  THRGAP  =  1.00D-06  THRLOCT = -1.00D+00  THRGAPT = -1.00D+00  THRORB  =  1.00D-06  THRMLTP =  0.00D+00
 THRCPQCI=  1.00D-10  KEXTA   =  0.00D+00  THRCOARS=  0.00D+00  SYMTOL  =  1.00D-06  GRADTOL =  1.00D-06  THROVL  =  1.00D-08
 THRORTH =  1.00D-08  GRID    =  1.00D-06  GRIDMAX =  1.00D-03  DTMAX   =  0.00D+00  THROCCDE=  1.00D-01  THROCCDE=  1.00D-01



 THRESHOLDS:

 ZERO    =  1.00D-22  ONEINT  =  1.00D-22  TWOINT  =  1.00D-22  PREFAC  =  1.00D-14  LOCALI  =  1.00D-09  EORDER  =  1.00D-04
 ENERGY  =  1.00D-12  ETEST   =  0.00D+00  EDENS   =  0.00D+00  THRDEDEF=  1.00D-06  GRADIENT=  1.00D-02  STEP    =  1.00D-03
 ORBITAL =  1.00D-05  CIVEC   =  1.00D-05  COEFF   =  1.00D-04  PRINTCI =  5.00D-02  PUNCHCI =  9.90D+01  OPTGRAD =  1.00D-08
 OPTENERG=  1.00D-06  OPTSTEP =  1.00D-08  THRGRAD =  1.00D-10  COMPRESS=  1.00D-11  VARMIN  =  1.00D-07  VARMAX  =  1.00D-03
 THRDOUB =  0.00D+00  THRDIV  =  1.00D-05  THRRED  =  1.00D-07  THRPSP  =  1.00D+00  THRDC   =  1.00D-10  THRCS   =  1.00D-10
 THRNRM  =  1.00D-08  THREQ   =  0.00D+00  THRDE   =  1.00D+00  THRREF  =  1.00D-05  SPARFAC =  1.00D+00  THRDLP  =  1.00D-07
 THRDIA  =  1.00D-10  THRDLS  =  1.00D-07  THRGPS  =  0.00D+00  THRKEX  =  0.00D+00  THRDIS  =  2.00D-01  THRVAR  =  1.00D-10
 THRLOC  =  1.00D-06  THRGAP  =  1.00D-06  THRLOCT = -1.00D+00  THRGAPT = -1.00D+00  THRORB  =  1.00D-06  THRMLTP =  0.00D+00
 THRCPQCI=  1.00D-10  KEXTA   =  0.00D+00  THRCOARS=  0.00D+00  SYMTOL  =  1.00D-06  GRADTOL =  1.00D-06  THROVL  =  1.00D-08
 THRORTH =  1.00D-08  GRID    =  1.00D-06  GRIDMAX =  1.00D-03  DTMAX   =  0.00D+00  THROCCDE=  1.00D-01  THROCCDE=  1.00D-01



 Input parameters for SORTINT:

 COMPRESS =    0.000000
 C_FINAL  =    1.000000
 DEBUG    =   -1.000000
 C_SORT1  =    0.000000
 C_SEWARD =    0.000000
 THRESH   =    0.000000
 IO       =  molpro                                                          
 SPRI     =    0.000000
 SETTING GEOMTYP        =    XYZ
 ZUNIT=BOHR
 

 Variable memory set to  995000000 words,  buffer space   230000 words

 SETTING BASIS          =    USERDEF


 Recomputing integrals since basis changed


 Using spherical harmonics

 Library entry H      S aug-cc-pVTZ          selected for orbital group  3
 Library entry H      P aug-cc-pVTZ          selected for orbital group  3
 Library entry H      D aug-cc-pVTZ          selected for orbital group  3


 PROGRAM * SEWARD (Integral evaluation for generally contracted gaussian basis sets)     Author: Roland Lindh, 1990

 Geometry written to block  1 of record 700


 Point group  C2v 



 ATOMIC COORDINATES

 NR  ATOM    CHARGE       X              Y              Z

   1  N       7.00    0.000000000    0.000000000    1.099505045
   2  C       6.00    0.000000000    0.000000000   -1.041550103
   3  H       1.00    0.000000000    0.000000000   -3.055024924

 Bond lengths in Bohr (Angstrom)

 1-2  2.141055147  2-3  2.013474821
     ( 1.132997591)     ( 1.065484990)

 Bond angles

  1-2-3  180.00000000

 NUCLEAR CHARGE:                   14
 NUMBER OF PRIMITIVE AOS:         203
 NUMBER OF SYMMETRY AOS:          173
 NUMBER OF CONTRACTIONS:          171   (  75A1  +  39B1  +  39B2  +  18A2  )
 NUMBER OF CORE ORBITALS:           2   (   2A1  +   0B1  +   0B2  +   0A2  )
 NUMBER OF VALENCE ORBITALS:        9   (   5A1  +   2B1  +   2B2  +   0A2  )


 NUCLEAR REPULSION ENERGY   24.28132697

 EXTRA SYMMETRY OF AOS IN SYMMETRY 1:   1 1 1 1 1 1 1 1 1 1   1 1 1 1 1 1 1 2 1 2   1 2 1 2 1 2 1 2 1 2   1 2 1 1 1 1 1 1 1 1
                                        1 1 1 1 1 1 1 1 1 2   1 2 1 2 1 2 1 2 1 2   1 2 1 2 1 1 1 1 1 1   1 1 2 1 2
 EXTRA SYMMETRY OF AOS IN SYMMETRY 2:   1 1 1 1 1 1 1 1 1 1   1 1 2 1 2 1 2 1 1 1   1 1 1 1 1 1 1 1 1 2   1 2 1 2 1 1 1 1 1
 EXTRA SYMMETRY OF AOS IN SYMMETRY 3:   1 1 1 1 1 1 1 1 1 1   1 1 2 1 2 1 2 1 1 1   1 1 1 1 1 1 1 1 1 2   1 2 1 2 1 1 1 1 1

 Eigenvalues of metric

         1 0.239E-03 0.476E-03 0.879E-03 0.137E-02 0.314E-02 0.744E-02 0.992E-02 0.131E-01
         2 0.528E-02 0.151E-01 0.210E-01 0.336E-01 0.962E-01 0.111E+00 0.124E+00 0.187E+00
         3 0.528E-02 0.151E-01 0.210E-01 0.336E-01 0.962E-01 0.111E+00 0.124E+00 0.187E+00
         4 0.124E+00 0.139E+00 0.190E+00 0.256E+00 0.313E+00 0.379E+00 0.482E+00 0.591E+00


 Contracted 2-electron integrals neglected if value below      1.0D-22

       21867467. INTEGRALS WRITTEN OUT IN    5341 BLOCKS ON RECORD 1290 OF FILE 1


 NUMBER OF SORTED TWO-ELECTRON INTEGRALS:   28272141.     BUFFER LENGTH:  32768
 NUMBER OF SEGMENTS:   2  SEGMENT LENGTH:   15998211      RECORD LENGTH: 524288

 Memory used in sort:      16.56 MW

 SORT1 READ    21867467. AND WROTE    22267928. INTEGRALS IN     65 RECORDS. CPU TIME:     0.94 SEC, REAL TIME:     1.15 SEC
 SORT2 READ    22267928. AND WROTE    28272141. INTEGRALS IN      2 RECORDS. CPU TIME:     0.68 SEC, REAL TIME:     0.85 SEC

 FILE SIZES:   FILE 1:   370.6 MBYTE,  FILE 4:   272.7 MBYTE,   TOTAL:    643.3 MBYTE

 OPERATOR DM      FOR CENTER  0  COORDINATES:    0.000000    0.000000    0.000000


 **********************************************************************************************************************************
 DATASETS  * FILE   NREC   LENGTH (MB)   RECORD NAMES
              1      19      214.15       500      610      700      900      950      970     1000      129      960     1100   
                                          VAR    BASINP    GEOM    SYMINP    ZMAT    AOBASIS   BASIS     P2S    ABASIS      S 
                                         1400     1410     1200     1210     1080     1600     1650     1300     1700   
                                           T        V       H0       H01     AOSYM     SMH    MOLCAS    ERIS     OPER   

 PROGRAMS   *        TOTAL       INT
 CPU TIMES  *         5.57      5.46
 REAL TIME  *         7.12 SEC
 DISK USED  *       643.65 MB      
 **********************************************************************************************************************************


 PROGRAM * RHF-SCF (CLOSED SHELL)       Authors: W. Meyer, H.-J. Werner


 NUMBER OF ELECTRONS:       7+    7-
 CONVERGENCE THRESHOLDS:    1.00E-10 (Density)    1.00E-13 (Energy)
 MAX. NUMBER OF ITERATIONS:      500
 INTERPOLATION TYPE:            DIIS
 INTERPOLATION STEPS:              2 (START)      1 (STEP)
 LEVEL SHIFTS:                  0.00 (CLOSED)  0.00 (OPEN) 



 Orbital guess generated from atomic densities. Full valence occupancy:    7   2   2   0

 Molecular orbital dump at record        2100.2

 Initial occupancy:   5   1   1   0

 ITERATION    DDIFF          GRAD             ENERGY        2-EL.EN.            DIPOLE MOMENTS         DIIS   ORB.
    1      0.000D+00      0.000D+00       -92.77209997    112.536695    0.00000    0.00000   -2.00874    0    start
    2      0.000D+00      0.925D-02       -92.78577726    110.698706    0.00000    0.00000   -0.97068    1    diag
    3      0.330D-01      0.775D-02       -92.80672519    111.642237    0.00000    0.00000   -1.44698    2    diag
    4      0.113D-01      0.554D-03       -92.80696448    111.600995    0.00000    0.00000   -1.43951    3    diag
    5      0.182D-02      0.119D-03       -92.80697831    111.605263    0.00000    0.00000   -1.43846    4    diag
    6      0.481D-03      0.298D-04       -92.80697891    111.602252    0.00000    0.00000   -1.43882    5    diag
    7      0.335D-04      0.101D-04       -92.80697897    111.603299    0.00000    0.00000   -1.43885    6    diag
    8      0.136D-04      0.208D-05       -92.80697897    111.603266    0.00000    0.00000   -1.43883    7    diag
    9      0.685D-05      0.233D-06       -92.80697897    111.603273    0.00000    0.00000   -1.43883    8    diag
   10      0.116D-05      0.273D-07       -92.80697897    111.603274    0.00000    0.00000   -1.43883    9    orth
   11      0.119D-06      0.352D-08       -92.80697897    111.603274    0.00000    0.00000   -1.43883    9    diag
   12      0.117D-07      0.369D-09       -92.80697897    111.603274    0.00000    0.00000   -1.43883    9    diag
   13      0.113D-08      0.466D-10       -92.80697897    111.603274    0.00000    0.00000   -1.43883    9    diag
   14      0.166D-09      0.728D-11       -92.80697897    111.603274    0.00000    0.00000   -1.43883    9    diag
   15      0.286D-10      0.153D-11       -92.80697897    111.603274    0.00000    0.00000   -1.43883    0    orth

 Final occupancy:   5   1   1   0

 !RHF STATE 1.1 Energy                -92.806978973482
 Nuclear energy                        24.28132697
 One-electron energy                 -172.88994301
 Two-electron energy                   55.80163706
 Virial quotient                       -1.00115000
 !RHF STATE 1.1 Dipole moment           0.00000000     0.00000000    -1.43882542
 Dipole moment /Debye                   0.00000000     0.00000000    -3.65688991

 Orbital energies:

         1.1          2.1          3.1          4.1          5.1          6.1          7.1
    -15.583991   -11.392426    -1.263666    -0.833371    -0.576956     0.032780     0.152649

         1.2          2.2          3.2
     -0.496463     0.137421     0.311118

         1.3          2.3          3.3
     -0.496463     0.137421     0.311118

         1.4          2.4
      0.683115     0.963769

 HOMO      1.2    -0.496463 =     -13.5094eV
 LUMO      6.1     0.032780 =       0.8920eV
 LUMO-HOMO         0.529243 =      14.4014eV


 **********************************************************************************************************************************
 DATASETS  * FILE   NREC   LENGTH (MB)   RECORD NAMES
              1      19      214.15       500      610      700      900      950      970     1000      129      960     1100   
                                          VAR    BASINP    GEOM    SYMINP    ZMAT    AOBASIS   BASIS     P2S    ABASIS      S 
                                         1400     1410     1200     1210     1080     1600     1650     1300     1700   
                                           T        V       H0       H01     AOSYM     SMH    MOLCAS    ERIS     OPER   

              2       4        2.98       700     1000      520     2100   
                                         GEOM     BASIS   MCVARS     RHF  

 PROGRAMS   *        TOTAL        HF       INT
 CPU TIMES  *         7.71      2.14      5.46
 REAL TIME  *         9.80 SEC
 DISK USED  *       643.65 MB      
 **********************************************************************************************************************************


 PROGRAM * CCSD (Closed-shell coupled cluster)     Authors: C. Hampel, H.-J. Werner, 1991, M. Deegan, P.J. Knowles, 1992


 Convergence thresholds:  THRVAR = 1.00D-08  THRDEN = 1.00D-12

 CCSD(T)     terms to be evaluated (factor= 1.000)


 Number of closed-shell orbitals:   7 (   5   1   1   0 )
 Number of external orbitals:     164 (  70  38  38  18 )

 Molecular orbitals read from record     2100.2  Type=RHF/CANONICAL (state 1.1)

 Number of N-1 electron functions:               7
 Number of N-2 electron functions:              28
 Number of singly external CSFs:               426
 Number of doubly external CSFs:            182374
 Total number of CSFs:                      182801

 Length of J-op  integral file:               0.00 MB
 Length of K-op  integral file:               0.65 MB
 Length of 3-ext integral record:             0.00 MB

 Memory could be reduced to 11.98 Mwords without degradation in triples

 Integral transformation finished. Total CPU:   0.45 sec, npass=  1  Memory used:   1.63 MW

 Reference energy:                    -92.80697897

 MP2 singlet pair energy:              -0.30426465
 MP2 triplet pair energy:              -0.13811259
 MP2 correlation energy:               -0.44237724
 MP2 total energy:                    -93.24935622

 SCS-MP2 correlation energy:           -0.45105431   (PS=  1.200000  PT=  0.333333)
 SCS-MP2 total energy:                -93.25803328

 ITER.      SQ.NORM     CORR.ENERGY   TOTAL ENERGY   ENERGY CHANGE        DEN1      VAR(S)    VAR(P)  DIIS     TIME  TIME/IT
   1      1.10944847    -0.44971794   -93.25669692    -0.00734070     0.00469399  0.23D-02  0.24D-02  1  1     0.97     0.56
   2      1.11778286    -0.45006866   -93.25704764    -0.00035072    -0.00973654  0.51D-04  0.33D-03  2  2     1.49     0.57
   3      1.12120589    -0.45022602   -93.25720499    -0.00015735    -0.00171483  0.17D-04  0.45D-04  3  3     2.01     0.58
   4      1.12332740    -0.45023628   -93.25721525    -0.00001026    -0.00096403  0.89D-06  0.43D-05  4  4     2.55     0.58
   5      1.12381326    -0.45024044   -93.25721941    -0.00000416    -0.00013753  0.16D-06  0.34D-06  5  5     3.06     0.58
   6      1.12388304    -0.45024320   -93.25722217    -0.00000276    -0.00000365  0.86D-08  0.29D-07  6  6     3.56     0.58
   7      1.12389561    -0.45024380   -93.25722277    -0.00000060    -0.00000328  0.19D-08  0.23D-08  6  1     4.09     0.59
   8      1.12389827    -0.45024390   -93.25722287    -0.00000010    -0.00000109  0.27D-09  0.15D-09  6  2     4.60     0.59
   9      1.12389829    -0.45024395   -93.25722292    -0.00000005     0.00000016  0.33D-10  0.21D-10  6  3     5.14     0.59
  10      1.12389848    -0.45024396   -93.25722294    -0.00000001    -0.00000001  0.63D-11  0.27D-11  6  4     5.68     0.59
  11      1.12389850    -0.45024397   -93.25722294    -0.00000000     0.00000002  0.56D-12  0.60D-12  6  5     6.20     0.59
  12      1.12389846    -0.45024397   -93.25722294     0.00000000     0.00000003  0.28D-13  0.10D-12  6  6     6.75     0.59
  13      1.12389842    -0.45024397   -93.25722294    -0.00000000     0.00000001  0.23D-14  0.14D-13  6  1     7.25     0.59
  14      1.12389840    -0.45024397   -93.25722294    -0.00000000     0.00000001  0.65D-15  0.22D-14  6  2     7.80     0.59
  15      1.12389839    -0.45024397   -93.25722294    -0.00000000     0.00000000  0.39D-16  0.15D-15  6  4     8.32     0.59
  16      1.12389839    -0.45024397   -93.25722294    -0.00000000     0.00000000  0.60D-17  0.78D-17  6  3     8.85     0.59
  17      1.12389839    -0.45024397   -93.25722294     0.00000000     0.00000000  0.11D-17  0.94D-18  6  5     9.37     0.59
  18      1.12389839    -0.45024397   -93.25722294    -0.00000000     0.00000000  0.12D-18  0.91D-19  6  6     9.90     0.59
  19      1.12389839    -0.45024397   -93.25722294    -0.00000000     0.00000000  0.28D-19  0.11D-19  6  1    10.40     0.59
  20      1.12389839    -0.45024397   -93.25722294    -0.00000000     0.00000000  0.29D-20  0.34D-20  6  2    10.94     0.59
  21      1.12389839    -0.45024397   -93.25722294    -0.00000000    -0.00000000  0.31D-21  0.63D-21  6  4    11.48     0.59
  22      1.12389839    -0.45024397   -93.25722294     0.00000000    -0.00000000  0.23D-22  0.81D-22  6  3    12.02     0.59

 Norm of t1 vector:      0.06116957      S-energy:     0.00000000      T1 diagnostic:  0.01155996
                                                                       D1 diagnostic:  0.02693310

 Doubles amplitudes (print threshold =  0.500E-01):

         I         J         SYM. A    SYM. B    A         B      T(IJ, AB)

         6         6         2         2         1         1     -0.05399309
         7         7         3         3         1         1     -0.05399309


 Total CPU time for triples:      8.06 sec


 RESULTS
 =======

  Reference energy                    -92.806978973482

  Correlated core orbitals:             1.1       2.1
  Orbital energies:                   -15.5840  -11.3924
 
  CCSD core-core energy                -0.079665856353
  CCSD core-valence energy             -0.029580798295
  CCSD valence correlation energy      -0.340997312149
 
  CCSD singlet pair energy             -0.329240441292
  CCSD triplet pair energy             -0.121003525505
  CCSD correlation energy              -0.450243966797

  Triples (T) contribution             -0.017413207387
  Total correlation energy             -0.467657174184

  CCSD total energy                   -93.257222940279
  CCSD[T] energy                      -93.275342707634
  CCSD-T energy                       -93.274299377663
 !CCSD(T) total energy                -93.274636147666

 Timing summary (sec):

 STEP                 CPU(USER)    SYS     CPU(TOT)    WALL
 Transformation          0.46      0.13      0.59      0.58
 CCSD iterations        11.56      1.45     13.01     13.02
 Triples                 8.06      0.24      8.30      8.31

 Program statistics:

 Available memory in ccsd:               994999704
 Min. memory needed in ccsd:                607983
 Max. memory used in ccsd:                  763562
 Max. memory used in cckext:                768329 (22 integral passes)



 **********************************************************************************************************************************
 DATASETS  * FILE   NREC   LENGTH (MB)   RECORD NAMES
              1      20      250.30       500      610      700      900      950      970     1000      129      960     1100   
                                          VAR    BASINP    GEOM    SYMINP    ZMAT    AOBASIS   BASIS     P2S    ABASIS      S 
                                         1400     1410     1200     1210     1080     1600     1650     1300     1700     1380   
                                           T        V       H0       H01     AOSYM     SMH    MOLCAS    ERIS     OPER     JKOP   

              2       4        2.98       700     1000      520     2100   
                                         GEOM     BASIS   MCVARS     RHF  

 PROGRAMS   *        TOTAL   CCSD(T)        HF       INT
 CPU TIMES  *        27.82     20.10      2.14      5.46
 REAL TIME  *        31.76 SEC
 DISK USED  *       643.65 MB      
 **********************************************************************************************************************************

 CCSD(T)/USERDEF energy=    -93.274636147666

        CCSD(T)         HF-SCF  
    -93.27463615    -92.80697897
 **********************************************************************************************************************************
 Molpro calculation terminated
 Variable memory released
