
 Primary working directories    : /tmp/r2666/232732.maple
 Secondary working directories  : /tmp/r2666/232732.maple
 Wavefunction directory         : /ddn/home4/r2666/wfu/
 Main file repository           : /tmp/r2666/232732.maple/

 SHA1      : d5ffa45e93fdbca01ffc919aa182cfdae0147319
 NAME      : 2015.1.35
 ARCHNAME  : linux/x86_64
 FC        : /opt/intel/composer_xe_2015.1.133/bin/intel64/ifort
 BLASLIB   : -Wl,-_start-group /opt/intel/mkl/lib/intel64/libmkl_intel_ilp64.a /opt/intel/mkl/lib/intel64/libmkl_intel_thread.a /opt/intel/mkl/lib/intel64/libmkl_core.a -Wl,-_end-group
 id        : olemiss

 Nodes     nprocs
 cn052        1

 Using customized tuning parameters: mindgm=1; mindgv=20; mindgc=4; mindgr=1; noblas=0; minvec=7
 default implementation of scratch files=df  

 ***,hcn CCSD(T)/TZ-F12 QFF
 memory, 995, m;
 gthresh,energy=1.d-12,zero=1.d-22,oneint=1.d-22,twoint=1.d-22;
 gthresh,optgrad=1.d-8,optstep=1.d-8;
 nocompress;
 geomtyp=xyz
 bohr
 geometry={
 3
         11        11
 N        0.0000000000        0.0000000000        1.1089536744
 C        0.0000000000        0.0000000000       -1.0604473626
 H        0.0000000000        0.0000000000       -3.0455762938
 }
 
 basis={
 default=aug-cc-pvtz
 s,C,8236.0,1235.0,280.8, 79.27,25.59, 8.997,3.319
 s,C,0.9059,0.3643,0.1285000
 p,C,56.0,18.71,4.133,0.2827,0.3827,0.1209
 d,C,30.0,10.0,3.3,1.097,0.318
 f,C,7.0,2.3,0.7610
 s,N,11420.0,1712.0,389.3,110.0,35.57,12.54,4.644
 s,N,1.293,0.5118,0.1787
 p,N,79.89,26.63,5.948,1.742,0.555,0.1725
 d,N,45.0,15.0,5.0,1.654,0.469
 f,N,9.9,3.3,1.093
 s,O,15330.0,2299.0,522.4,147.3,47.55,16.76,6.207
 s,O,1.752,0.6882,0.2384
 p,O,103.5,34.46,7.749,2.28,0.7156,0.214
 d,O,63.0,21.0,7.0,2.314,0.645
 f,O,12.9,4.3,1.428
 s,mg,164900.0,24710.0,5628.0,1596.0,521.0;
 s,mg,188.0,73.01,29.90,12.54,4.306,1.826;
 s,mg,0.7417,0.0761,0.145,0.033,0.0129;
 p,mg,950.70,316.90,74.86,23.72,8.669,3.363;
 p,mg,1.310,0.4911,0.2364,0.08733,0.03237,0.00745;
 d,mg,1.601,0.686,0.126,0.294,0.0468;
 f,mg,1.372,0.588,0.094,0.252;
 }
   {hf,maxit=500;accu,20;}
 {ccsd(t),nocheck,maxit=250;orbital,IGNORE_ERROR;core}

 Variables initialized (889), CPU time= 0.00 sec
 Commands  initialized (702), CPU time= 0.01 sec, 572 directives.
 Default parameters read. Elapsed time= 0.05 sec

 Checking input...
 Passed
1


                                         ***  PROGRAM SYSTEM MOLPRO  ***
                                       Copyright, TTI GmbH Stuttgart, 2015
                                    Version 2015.1 linked Jul  9 2018 13:16:40


 **********************************************************************************************************************************
 LABEL *   hcn CCSD(T)/TZ-F12 QFF                                                        
  64 bit serial version                                                                  DATE: 06-Feb-20          TIME: 09:55:15  
 **********************************************************************************************************************************

 SHA1:             d5ffa45e93fdbca01ffc919aa182cfdae0147319
 **********************************************************************************************************************************

 THRESHOLDS:

 ZERO    =  1.00D-22  ONEINT  =  1.00D-22  TWOINT  =  1.00D-22  PREFAC  =  1.00D-14  LOCALI  =  1.00D-09  EORDER  =  1.00D-04
 ENERGY  =  1.00D-12  ETEST   =  0.00D+00  EDENS   =  0.00D+00  THRDEDEF=  1.00D-06  GRADIENT=  1.00D-02  STEP    =  1.00D-03
 ORBITAL =  1.00D-05  CIVEC   =  1.00D-05  COEFF   =  1.00D-04  PRINTCI =  5.00D-02  PUNCHCI =  9.90D+01  OPTGRAD =  3.00D-04
 OPTENERG=  1.00D-06  OPTSTEP =  3.00D-04  THRGRAD =  1.00D-10  COMPRESS=  1.00D-11  VARMIN  =  1.00D-07  VARMAX  =  1.00D-03
 THRDOUB =  0.00D+00  THRDIV  =  1.00D-05  THRRED  =  1.00D-07  THRPSP  =  1.00D+00  THRDC   =  1.00D-10  THRCS   =  1.00D-10
 THRNRM  =  1.00D-08  THREQ   =  0.00D+00  THRDE   =  1.00D+00  THRREF  =  1.00D-05  SPARFAC =  1.00D+00  THRDLP  =  1.00D-07
 THRDIA  =  1.00D-10  THRDLS  =  1.00D-07  THRGPS  =  0.00D+00  THRKEX  =  0.00D+00  THRDIS  =  2.00D-01  THRVAR  =  1.00D-10
 THRLOC  =  1.00D-06  THRGAP  =  1.00D-06  THRLOCT = -1.00D+00  THRGAPT = -1.00D+00  THRORB  =  1.00D-06  THRMLTP =  0.00D+00
 THRCPQCI=  1.00D-10  KEXTA   =  0.00D+00  THRCOARS=  0.00D+00  SYMTOL  =  1.00D-06  GRADTOL =  1.00D-06  THROVL  =  1.00D-08
 THRORTH =  1.00D-08  GRID    =  1.00D-06  GRIDMAX =  1.00D-03  DTMAX   =  0.00D+00  THROCCDE=  1.00D-01  THROCCDE=  1.00D-01



 THRESHOLDS:

 ZERO    =  1.00D-22  ONEINT  =  1.00D-22  TWOINT  =  1.00D-22  PREFAC  =  1.00D-14  LOCALI  =  1.00D-09  EORDER  =  1.00D-04
 ENERGY  =  1.00D-12  ETEST   =  0.00D+00  EDENS   =  0.00D+00  THRDEDEF=  1.00D-06  GRADIENT=  1.00D-02  STEP    =  1.00D-03
 ORBITAL =  1.00D-05  CIVEC   =  1.00D-05  COEFF   =  1.00D-04  PRINTCI =  5.00D-02  PUNCHCI =  9.90D+01  OPTGRAD =  1.00D-08
 OPTENERG=  1.00D-06  OPTSTEP =  1.00D-08  THRGRAD =  1.00D-10  COMPRESS=  1.00D-11  VARMIN  =  1.00D-07  VARMAX  =  1.00D-03
 THRDOUB =  0.00D+00  THRDIV  =  1.00D-05  THRRED  =  1.00D-07  THRPSP  =  1.00D+00  THRDC   =  1.00D-10  THRCS   =  1.00D-10
 THRNRM  =  1.00D-08  THREQ   =  0.00D+00  THRDE   =  1.00D+00  THRREF  =  1.00D-05  SPARFAC =  1.00D+00  THRDLP  =  1.00D-07
 THRDIA  =  1.00D-10  THRDLS  =  1.00D-07  THRGPS  =  0.00D+00  THRKEX  =  0.00D+00  THRDIS  =  2.00D-01  THRVAR  =  1.00D-10
 THRLOC  =  1.00D-06  THRGAP  =  1.00D-06  THRLOCT = -1.00D+00  THRGAPT = -1.00D+00  THRORB  =  1.00D-06  THRMLTP =  0.00D+00
 THRCPQCI=  1.00D-10  KEXTA   =  0.00D+00  THRCOARS=  0.00D+00  SYMTOL  =  1.00D-06  GRADTOL =  1.00D-06  THROVL  =  1.00D-08
 THRORTH =  1.00D-08  GRID    =  1.00D-06  GRIDMAX =  1.00D-03  DTMAX   =  0.00D+00  THROCCDE=  1.00D-01  THROCCDE=  1.00D-01



 Input parameters for SORTINT:

 COMPRESS =    0.000000
 C_FINAL  =    1.000000
 DEBUG    =   -1.000000
 C_SORT1  =    0.000000
 C_SEWARD =    0.000000
 THRESH   =    0.000000
 IO       =  molpro                                                          
 SPRI     =    0.000000
 SETTING GEOMTYP        =    XYZ
 ZUNIT=BOHR
 

 Variable memory set to  995000000 words,  buffer space   230000 words

 SETTING BASIS          =    USERDEF


 Recomputing integrals since basis changed


 Using spherical harmonics

 Library entry H      S aug-cc-pVTZ          selected for orbital group  3
 Library entry H      P aug-cc-pVTZ          selected for orbital group  3
 Library entry H      D aug-cc-pVTZ          selected for orbital group  3


 PROGRAM * SEWARD (Integral evaluation for generally contracted gaussian basis sets)     Author: Roland Lindh, 1990

 Geometry written to block  1 of record 700


 Point group  C2v 



 ATOMIC COORDINATES

 NR  ATOM    CHARGE       X              Y              Z

   1  N       7.00    0.000000000    0.000000000    1.108953674
   2  C       6.00    0.000000000    0.000000000   -1.060447363
   3  H       1.00    0.000000000    0.000000000   -3.045576294

 Bond lengths in Bohr (Angstrom)

 1-2  2.169401037  2-3  1.985128931
     ( 1.147997590)     ( 1.050484991)

 Bond angles

  1-2-3  180.00000000

 NUCLEAR CHARGE:                   14
 NUMBER OF PRIMITIVE AOS:         203
 NUMBER OF SYMMETRY AOS:          173
 NUMBER OF CONTRACTIONS:          171   (  75A1  +  39B1  +  39B2  +  18A2  )
 NUMBER OF CORE ORBITALS:           2   (   2A1  +   0B1  +   0B2  +   0A2  )
 NUMBER OF VALENCE ORBITALS:        9   (   5A1  +   2B1  +   2B2  +   0A2  )


 NUCLEAR REPULSION ENERGY   24.06756402

 EXTRA SYMMETRY OF AOS IN SYMMETRY 1:   1 1 1 1 1 1 1 1 1 1   1 1 1 1 1 1 1 2 1 2   1 2 1 2 1 2 1 2 1 2   1 2 1 1 1 1 1 1 1 1
                                        1 1 1 1 1 1 1 1 1 2   1 2 1 2 1 2 1 2 1 2   1 2 1 2 1 1 1 1 1 1   1 1 2 1 2
 EXTRA SYMMETRY OF AOS IN SYMMETRY 2:   1 1 1 1 1 1 1 1 1 1   1 1 2 1 2 1 2 1 1 1   1 1 1 1 1 1 1 1 1 2   1 2 1 2 1 1 1 1 1
 EXTRA SYMMETRY OF AOS IN SYMMETRY 3:   1 1 1 1 1 1 1 1 1 1   1 1 2 1 2 1 2 1 1 1   1 1 1 1 1 1 1 1 1 2   1 2 1 2 1 1 1 1 1

 Eigenvalues of metric

         1 0.229E-03 0.504E-03 0.868E-03 0.134E-02 0.315E-02 0.720E-02 0.966E-02 0.130E-01
         2 0.535E-02 0.153E-01 0.207E-01 0.333E-01 0.953E-01 0.111E+00 0.124E+00 0.187E+00
         3 0.535E-02 0.153E-01 0.207E-01 0.333E-01 0.953E-01 0.111E+00 0.124E+00 0.187E+00
         4 0.124E+00 0.139E+00 0.192E+00 0.253E+00 0.314E+00 0.379E+00 0.483E+00 0.594E+00


 Contracted 2-electron integrals neglected if value below      1.0D-22

       21777290. INTEGRALS WRITTEN OUT IN    5319 BLOCKS ON RECORD 1290 OF FILE 1


 NUMBER OF SORTED TWO-ELECTRON INTEGRALS:   28272141.     BUFFER LENGTH:  32768
 NUMBER OF SEGMENTS:   2  SEGMENT LENGTH:   15998211      RECORD LENGTH: 524288

 Memory used in sort:      16.56 MW

 SORT1 READ    21777290. AND WROTE    22176102. INTEGRALS IN     65 RECORDS. CPU TIME:     0.97 SEC, REAL TIME:     1.17 SEC
 SORT2 READ    22176102. AND WROTE    28272141. INTEGRALS IN      2 RECORDS. CPU TIME:     0.65 SEC, REAL TIME:     0.81 SEC

 FILE SIZES:   FILE 1:   369.2 MBYTE,  FILE 4:   272.7 MBYTE,   TOTAL:    641.9 MBYTE

 OPERATOR DM      FOR CENTER  0  COORDINATES:    0.000000    0.000000    0.000000


 **********************************************************************************************************************************
 DATASETS  * FILE   NREC   LENGTH (MB)   RECORD NAMES
              1      19      213.67       500      610      700      900      950      970     1000      129      960     1100   
                                          VAR    BASINP    GEOM    SYMINP    ZMAT    AOBASIS   BASIS     P2S    ABASIS      S 
                                         1400     1410     1200     1210     1080     1600     1650     1300     1700   
                                           T        V       H0       H01     AOSYM     SMH    MOLCAS    ERIS     OPER   

 PROGRAMS   *        TOTAL       INT
 CPU TIMES  *         5.49      5.39
 REAL TIME  *         6.82 SEC
 DISK USED  *       642.21 MB      
 **********************************************************************************************************************************


 PROGRAM * RHF-SCF (CLOSED SHELL)       Authors: W. Meyer, H.-J. Werner


 NUMBER OF ELECTRONS:       7+    7-
 CONVERGENCE THRESHOLDS:    1.00E-10 (Density)    1.00E-13 (Energy)
 MAX. NUMBER OF ITERATIONS:      500
 INTERPOLATION TYPE:            DIIS
 INTERPOLATION STEPS:              2 (START)      1 (STEP)
 LEVEL SHIFTS:                  0.00 (CLOSED)  0.00 (OPEN) 



 Orbital guess generated from atomic densities. Full valence occupancy:    7   2   2   0

 Molecular orbital dump at record        2100.2

 Initial occupancy:   5   1   1   0

 ITERATION    DDIFF          GRAD             ENERGY        2-EL.EN.            DIPOLE MOMENTS         DIIS   ORB.
    1      0.000D+00      0.000D+00       -92.77189760    111.999256    0.00000    0.00000   -2.00245    0    start
    2      0.000D+00      0.907D-02       -92.78448657    110.279991    0.00000    0.00000   -0.94921    1    diag
    3      0.333D-01      0.776D-02       -92.80569363    111.201881    0.00000    0.00000   -1.44065    2    diag
    4      0.115D-01      0.567D-03       -92.80594269    111.153427    0.00000    0.00000   -1.43350    3    diag
    5      0.187D-02      0.124D-03       -92.80595682    111.160557    0.00000    0.00000   -1.43226    4    diag
    6      0.500D-03      0.319D-04       -92.80595753    111.156646    0.00000    0.00000   -1.43255    5    diag
    7      0.385D-04      0.112D-04       -92.80595761    111.157621    0.00000    0.00000   -1.43260    6    diag
    8      0.150D-04      0.225D-05       -92.80595761    111.157602    0.00000    0.00000   -1.43258    7    diag
    9      0.762D-05      0.249D-06       -92.80595761    111.157609    0.00000    0.00000   -1.43258    8    diag
   10      0.127D-05      0.285D-07       -92.80595761    111.157610    0.00000    0.00000   -1.43258    9    orth
   11      0.129D-06      0.369D-08       -92.80595761    111.157610    0.00000    0.00000   -1.43258    9    diag
   12      0.123D-07      0.381D-09       -92.80595761    111.157610    0.00000    0.00000   -1.43258    9    diag
   13      0.117D-08      0.487D-10       -92.80595761    111.157610    0.00000    0.00000   -1.43258    9    diag
   14      0.166D-09      0.676D-11       -92.80595761    111.157610    0.00000    0.00000   -1.43258    9    diag
   15      0.257D-10      0.141D-11       -92.80595761    111.157610    0.00000    0.00000   -1.43258    9    diag
   16      0.506D-11      0.434D-12       -92.80595761    111.157610    0.00000    0.00000   -1.43258    0    orth

 Final occupancy:   5   1   1   0

 !RHF STATE 1.1 Energy                -92.805957614097
 Nuclear energy                        24.06756402
 One-electron energy                 -172.45232673
 Two-electron energy                   55.57880509
 Virial quotient                       -1.00183142
 !RHF STATE 1.1 Dipole moment           0.00000000     0.00000000    -1.43258043
 Dipole moment /Debye                   0.00000000     0.00000000    -3.64101778

 Orbital energies:

         1.1          2.1          3.1          4.1          5.1          6.1          7.1
    -15.589649   -11.397033    -1.256591    -0.841223    -0.578294     0.032757     0.154231

         1.2          2.2          3.2
     -0.492284     0.134566     0.307621

         1.3          2.3          3.3
     -0.492284     0.134566     0.307621

         1.4          2.4
      0.682564     0.965394

 HOMO      1.2    -0.492284 =     -13.3957eV
 LUMO      6.1     0.032757 =       0.8914eV
 LUMO-HOMO         0.525042 =      14.2871eV


 **********************************************************************************************************************************
 DATASETS  * FILE   NREC   LENGTH (MB)   RECORD NAMES
              1      19      213.67       500      610      700      900      950      970     1000      129      960     1100   
                                          VAR    BASINP    GEOM    SYMINP    ZMAT    AOBASIS   BASIS     P2S    ABASIS      S 
                                         1400     1410     1200     1210     1080     1600     1650     1300     1700   
                                           T        V       H0       H01     AOSYM     SMH    MOLCAS    ERIS     OPER   

              2       4        2.98       700     1000      520     2100   
                                         GEOM     BASIS   MCVARS     RHF  

 PROGRAMS   *        TOTAL        HF       INT
 CPU TIMES  *         7.78      2.29      5.39
 REAL TIME  *         9.65 SEC
 DISK USED  *       642.21 MB      
 **********************************************************************************************************************************


 PROGRAM * CCSD (Closed-shell coupled cluster)     Authors: C. Hampel, H.-J. Werner, 1991, M. Deegan, P.J. Knowles, 1992


 Convergence thresholds:  THRVAR = 1.00D-08  THRDEN = 1.00D-12

 CCSD(T)     terms to be evaluated (factor= 1.000)


 Number of closed-shell orbitals:   7 (   5   1   1   0 )
 Number of external orbitals:     164 (  70  38  38  18 )

 Molecular orbitals read from record     2100.2  Type=RHF/CANONICAL (state 1.1)

 Number of N-1 electron functions:               7
 Number of N-2 electron functions:              28
 Number of singly external CSFs:               426
 Number of doubly external CSFs:            182374
 Total number of CSFs:                      182801

 Length of J-op  integral file:               0.00 MB
 Length of K-op  integral file:               0.65 MB
 Length of 3-ext integral record:             0.00 MB

 Memory could be reduced to 11.98 Mwords without degradation in triples

 Integral transformation finished. Total CPU:   0.46 sec, npass=  1  Memory used:   1.63 MW

 Reference energy:                    -92.80595761

 MP2 singlet pair energy:              -0.30549864
 MP2 triplet pair energy:              -0.13905531
 MP2 correlation energy:               -0.44455395
 MP2 total energy:                    -93.25051156

 SCS-MP2 correlation energy:           -0.45312167   (PS=  1.200000  PT=  0.333333)
 SCS-MP2 total energy:                -93.25907928

 ITER.      SQ.NORM     CORR.ENERGY   TOTAL ENERGY   ENERGY CHANGE        DEN1      VAR(S)    VAR(P)  DIIS     TIME  TIME/IT
   1      1.11091895    -0.45127101   -93.25722863    -0.00671707     0.00578143  0.24D-02  0.26D-02  1  1     0.98     0.55
   2      1.11954794    -0.45152494   -93.25748255    -0.00025393    -0.01002733  0.54D-04  0.35D-03  2  2     1.49     0.57
   3      1.12310687    -0.45168860   -93.25764622    -0.00016366    -0.00174826  0.17D-04  0.49D-04  3  3     2.00     0.57
   4      1.12536253    -0.45170193   -93.25765954    -0.00001332    -0.00100452  0.90D-06  0.48D-05  4  4     2.52     0.58
   5      1.12589250    -0.45170618   -93.25766379    -0.00000425    -0.00014971  0.16D-06  0.39D-06  5  5     3.04     0.58
   6      1.12596798    -0.45170942   -93.25766704    -0.00000325    -0.00000363  0.76D-08  0.33D-07  6  6     3.56     0.58
   7      1.12598174    -0.45171020   -93.25766781    -0.00000077    -0.00000356  0.16D-08  0.27D-08  6  1     4.09     0.58
   8      1.12598442    -0.45171035   -93.25766796    -0.00000015    -0.00000114  0.19D-09  0.16D-09  6  2     4.62     0.58
   9      1.12598437    -0.45171042   -93.25766803    -0.00000007     0.00000018  0.19D-10  0.18D-10  6  3     5.15     0.58
  10      1.12598453    -0.45171043   -93.25766805    -0.00000002    -0.00000001  0.42D-11  0.18D-11  6  4     5.67     0.58
  11      1.12598452    -0.45171044   -93.25766805    -0.00000001     0.00000002  0.55D-12  0.39D-12  6  5     6.19     0.58
  12      1.12598448    -0.45171044   -93.25766805    -0.00000000     0.00000003  0.38D-13  0.75D-13  6  6     6.74     0.58
  13      1.12598445    -0.45171044   -93.25766806    -0.00000000     0.00000001  0.17D-14  0.10D-13  6  1     7.26     0.58
  14      1.12598444    -0.45171044   -93.25766806    -0.00000000     0.00000001  0.33D-15  0.16D-14  6  2     7.79     0.58
  15      1.12598443    -0.45171044   -93.25766806    -0.00000000     0.00000000  0.25D-16  0.11D-15  6  4     8.30     0.58
  16      1.12598443    -0.45171044   -93.25766806    -0.00000000     0.00000000  0.65D-17  0.69D-17  6  3     8.82     0.58
  17      1.12598443    -0.45171044   -93.25766806    -0.00000000     0.00000000  0.12D-17  0.98D-18  6  5     9.33     0.58
  18      1.12598443    -0.45171044   -93.25766806    -0.00000000     0.00000000  0.11D-18  0.81D-19  6  6     9.85     0.58
  19      1.12598443    -0.45171044   -93.25766806    -0.00000000     0.00000000  0.24D-19  0.78D-20  6  1    10.39     0.58
  20      1.12598443    -0.45171044   -93.25766806    -0.00000000     0.00000000  0.29D-20  0.25D-20  6  2    10.93     0.59
  21      1.12598443    -0.45171044   -93.25766806    -0.00000000     0.00000000  0.41D-21  0.46D-21  6  4    11.45     0.59
  22      1.12598443    -0.45171044   -93.25766806     0.00000000    -0.00000000  0.14D-22  0.65D-22  6  3    12.00     0.59

 Norm of t1 vector:      0.06285721      S-energy:    -0.00000000      T1 diagnostic:  0.01187890
                                                                       D1 diagnostic:  0.02784000

 Doubles amplitudes (print threshold =  0.500E-01):

         I         J         SYM. A    SYM. B    A         B      T(IJ, AB)

         6         6         2         2         1         1     -0.05727557
         7         7         3         3         1         1     -0.05727557


 Total CPU time for triples:      5.80 sec


 RESULTS
 =======

  Reference energy                    -92.805957614097

  Correlated core orbitals:             1.1       2.1
  Orbital energies:                   -15.5896  -11.3970
 
  CCSD core-core energy                -0.079692405768
  CCSD core-valence energy             -0.029401810187
  CCSD valence correlation energy      -0.342616225594
 
  CCSD singlet pair energy             -0.330498851801
  CCSD triplet pair energy             -0.121211589748
  CCSD correlation energy              -0.451710441550

  Triples (T) contribution             -0.017796475602
  Total correlation energy             -0.469506917151

  CCSD total energy                   -93.257668055647
  CCSD[T] energy                      -93.276215900704
  CCSD-T energy                       -93.275106707907
 !CCSD(T) total energy                -93.275464531248

 Timing summary (sec):

 STEP                 CPU(USER)    SYS     CPU(TOT)    WALL
 Transformation          0.47      0.10      0.57      0.57
 CCSD iterations        11.53      1.35     12.88     12.92
 Triples                 5.80      0.20      6.00      6.53

 Program statistics:

 Available memory in ccsd:               994999704
 Min. memory needed in ccsd:                607983
 Max. memory used in ccsd:                  763562
 Max. memory used in cckext:                768329 (22 integral passes)



 **********************************************************************************************************************************
 DATASETS  * FILE   NREC   LENGTH (MB)   RECORD NAMES
              1      20      249.82       500      610      700      900      950      970     1000      129      960     1100   
                                          VAR    BASINP    GEOM    SYMINP    ZMAT    AOBASIS   BASIS     P2S    ABASIS      S 
                                         1400     1410     1200     1210     1080     1600     1650     1300     1700     1380   
                                           T        V       H0       H01     AOSYM     SMH    MOLCAS    ERIS     OPER     JKOP   

              2       4        2.98       700     1000      520     2100   
                                         GEOM     BASIS   MCVARS     RHF  

 PROGRAMS   *        TOTAL   CCSD(T)        HF       INT
 CPU TIMES  *        25.61     17.83      2.29      5.39
 REAL TIME  *        29.72 SEC
 DISK USED  *       642.21 MB      
 **********************************************************************************************************************************

 CCSD(T)/USERDEF energy=    -93.275464531248

        CCSD(T)         HF-SCF  
    -93.27546453    -92.80595761
 **********************************************************************************************************************************
 Molpro calculation terminated
 Variable memory released
