
 Primary working directories    : /tmp/r2666/232753.maple
 Secondary working directories  : /tmp/r2666/232753.maple
 Wavefunction directory         : /ddn/home4/r2666/wfu/
 Main file repository           : /tmp/r2666/232753.maple/

 SHA1      : d5ffa45e93fdbca01ffc919aa182cfdae0147319
 NAME      : 2015.1.35
 ARCHNAME  : linux/x86_64
 FC        : /opt/intel/composer_xe_2015.1.133/bin/intel64/ifort
 BLASLIB   : -Wl,-_start-group /opt/intel/mkl/lib/intel64/libmkl_intel_ilp64.a /opt/intel/mkl/lib/intel64/libmkl_intel_thread.a /opt/intel/mkl/lib/intel64/libmkl_core.a -Wl,-_end-group
 id        : olemiss

 Nodes     nprocs
 cn090        1

 Using customized tuning parameters: mindgm=1; mindgv=20; mindgc=4; mindgr=1; noblas=0; minvec=7
 default implementation of scratch files=df  

 ***,hcn CCSD(T)/TZ-F12 QFF
 memory, 995, m;
 gthresh,energy=1.d-12,zero=1.d-22,oneint=1.d-22,twoint=1.d-22;
 gthresh,optgrad=1.d-8,optstep=1.d-8;
 nocompress;
 geomtyp=xyz
 bohr
 geometry={
 3
         32        32
 N        0.0000000000        0.0000000000        1.1310004776
 C        0.0000000000        0.0000000000       -1.0478491894
 H        0.0000000000        0.0000000000       -3.0802212703
 }
 
 basis={
 default=aug-cc-pvtz
 s,C,8236.0,1235.0,280.8, 79.27,25.59, 8.997,3.319
 s,C,0.9059,0.3643,0.1285000
 p,C,56.0,18.71,4.133,0.2827,0.3827,0.1209
 d,C,30.0,10.0,3.3,1.097,0.318
 f,C,7.0,2.3,0.7610
 s,N,11420.0,1712.0,389.3,110.0,35.57,12.54,4.644
 s,N,1.293,0.5118,0.1787
 p,N,79.89,26.63,5.948,1.742,0.555,0.1725
 d,N,45.0,15.0,5.0,1.654,0.469
 f,N,9.9,3.3,1.093
 s,O,15330.0,2299.0,522.4,147.3,47.55,16.76,6.207
 s,O,1.752,0.6882,0.2384
 p,O,103.5,34.46,7.749,2.28,0.7156,0.214
 d,O,63.0,21.0,7.0,2.314,0.645
 f,O,12.9,4.3,1.428
 s,mg,164900.0,24710.0,5628.0,1596.0,521.0;
 s,mg,188.0,73.01,29.90,12.54,4.306,1.826;
 s,mg,0.7417,0.0761,0.145,0.033,0.0129;
 p,mg,950.70,316.90,74.86,23.72,8.669,3.363;
 p,mg,1.310,0.4911,0.2364,0.08733,0.03237,0.00745;
 d,mg,1.601,0.686,0.126,0.294,0.0468;
 f,mg,1.372,0.588,0.094,0.252;
 }
   {hf,maxit=500;accu,20;}
 {ccsd(t),nocheck,maxit=250;orbital,IGNORE_ERROR;core}

 Variables initialized (889), CPU time= 0.00 sec
 Commands  initialized (702), CPU time= 0.01 sec, 572 directives.
 Default parameters read. Elapsed time= 0.07 sec

 Checking input...
 Passed
1


                                         ***  PROGRAM SYSTEM MOLPRO  ***
                                       Copyright, TTI GmbH Stuttgart, 2015
                                    Version 2015.1 linked Jul  9 2018 13:16:40


 **********************************************************************************************************************************
 LABEL *   hcn CCSD(T)/TZ-F12 QFF                                                        
  64 bit serial version                                                                  DATE: 06-Feb-20          TIME: 09:55:22  
 **********************************************************************************************************************************

 SHA1:             d5ffa45e93fdbca01ffc919aa182cfdae0147319
 **********************************************************************************************************************************

 THRESHOLDS:

 ZERO    =  1.00D-22  ONEINT  =  1.00D-22  TWOINT  =  1.00D-22  PREFAC  =  1.00D-14  LOCALI  =  1.00D-09  EORDER  =  1.00D-04
 ENERGY  =  1.00D-12  ETEST   =  0.00D+00  EDENS   =  0.00D+00  THRDEDEF=  1.00D-06  GRADIENT=  1.00D-02  STEP    =  1.00D-03
 ORBITAL =  1.00D-05  CIVEC   =  1.00D-05  COEFF   =  1.00D-04  PRINTCI =  5.00D-02  PUNCHCI =  9.90D+01  OPTGRAD =  3.00D-04
 OPTENERG=  1.00D-06  OPTSTEP =  3.00D-04  THRGRAD =  1.00D-10  COMPRESS=  1.00D-11  VARMIN  =  1.00D-07  VARMAX  =  1.00D-03
 THRDOUB =  0.00D+00  THRDIV  =  1.00D-05  THRRED  =  1.00D-07  THRPSP  =  1.00D+00  THRDC   =  1.00D-10  THRCS   =  1.00D-10
 THRNRM  =  1.00D-08  THREQ   =  0.00D+00  THRDE   =  1.00D+00  THRREF  =  1.00D-05  SPARFAC =  1.00D+00  THRDLP  =  1.00D-07
 THRDIA  =  1.00D-10  THRDLS  =  1.00D-07  THRGPS  =  0.00D+00  THRKEX  =  0.00D+00  THRDIS  =  2.00D-01  THRVAR  =  1.00D-10
 THRLOC  =  1.00D-06  THRGAP  =  1.00D-06  THRLOCT = -1.00D+00  THRGAPT = -1.00D+00  THRORB  =  1.00D-06  THRMLTP =  0.00D+00
 THRCPQCI=  1.00D-10  KEXTA   =  0.00D+00  THRCOARS=  0.00D+00  SYMTOL  =  1.00D-06  GRADTOL =  1.00D-06  THROVL  =  1.00D-08
 THRORTH =  1.00D-08  GRID    =  1.00D-06  GRIDMAX =  1.00D-03  DTMAX   =  0.00D+00  THROCCDE=  1.00D-01  THROCCDE=  1.00D-01



 THRESHOLDS:

 ZERO    =  1.00D-22  ONEINT  =  1.00D-22  TWOINT  =  1.00D-22  PREFAC  =  1.00D-14  LOCALI  =  1.00D-09  EORDER  =  1.00D-04
 ENERGY  =  1.00D-12  ETEST   =  0.00D+00  EDENS   =  0.00D+00  THRDEDEF=  1.00D-06  GRADIENT=  1.00D-02  STEP    =  1.00D-03
 ORBITAL =  1.00D-05  CIVEC   =  1.00D-05  COEFF   =  1.00D-04  PRINTCI =  5.00D-02  PUNCHCI =  9.90D+01  OPTGRAD =  1.00D-08
 OPTENERG=  1.00D-06  OPTSTEP =  1.00D-08  THRGRAD =  1.00D-10  COMPRESS=  1.00D-11  VARMIN  =  1.00D-07  VARMAX  =  1.00D-03
 THRDOUB =  0.00D+00  THRDIV  =  1.00D-05  THRRED  =  1.00D-07  THRPSP  =  1.00D+00  THRDC   =  1.00D-10  THRCS   =  1.00D-10
 THRNRM  =  1.00D-08  THREQ   =  0.00D+00  THRDE   =  1.00D+00  THRREF  =  1.00D-05  SPARFAC =  1.00D+00  THRDLP  =  1.00D-07
 THRDIA  =  1.00D-10  THRDLS  =  1.00D-07  THRGPS  =  0.00D+00  THRKEX  =  0.00D+00  THRDIS  =  2.00D-01  THRVAR  =  1.00D-10
 THRLOC  =  1.00D-06  THRGAP  =  1.00D-06  THRLOCT = -1.00D+00  THRGAPT = -1.00D+00  THRORB  =  1.00D-06  THRMLTP =  0.00D+00
 THRCPQCI=  1.00D-10  KEXTA   =  0.00D+00  THRCOARS=  0.00D+00  SYMTOL  =  1.00D-06  GRADTOL =  1.00D-06  THROVL  =  1.00D-08
 THRORTH =  1.00D-08  GRID    =  1.00D-06  GRIDMAX =  1.00D-03  DTMAX   =  0.00D+00  THROCCDE=  1.00D-01  THROCCDE=  1.00D-01



 Input parameters for SORTINT:

 COMPRESS =    0.000000
 C_FINAL  =    1.000000
 DEBUG    =   -1.000000
 C_SORT1  =    0.000000
 C_SEWARD =    0.000000
 THRESH   =    0.000000
 IO       =  molpro                                                          
 SPRI     =    0.000000
 SETTING GEOMTYP        =    XYZ
 ZUNIT=BOHR
 

 Variable memory set to  995000000 words,  buffer space   230000 words

 SETTING BASIS          =    USERDEF


 Recomputing integrals since basis changed


 Using spherical harmonics

 Library entry H      S aug-cc-pVTZ          selected for orbital group  3
 Library entry H      P aug-cc-pVTZ          selected for orbital group  3
 Library entry H      D aug-cc-pVTZ          selected for orbital group  3


 PROGRAM * SEWARD (Integral evaluation for generally contracted gaussian basis sets)     Author: Roland Lindh, 1990

 Geometry written to block  1 of record 700


 Point group  C2v 



 ATOMIC COORDINATES

 NR  ATOM    CHARGE       X              Y              Z

   1  N       7.00    0.000000000    0.000000000    1.131000478
   2  C       6.00    0.000000000    0.000000000   -1.047849189
   3  H       1.00    0.000000000    0.000000000   -3.080221270

 Bond lengths in Bohr (Angstrom)

 1-2  2.178849667  2-3  2.032372081
     ( 1.152997590)     ( 1.075484989)

 Bond angles

  1-2-3  180.00000000

 NUCLEAR CHARGE:                   14
 NUMBER OF PRIMITIVE AOS:         203
 NUMBER OF SYMMETRY AOS:          173
 NUMBER OF CONTRACTIONS:          171   (  75A1  +  39B1  +  39B2  +  18A2  )
 NUMBER OF CORE ORBITALS:           2   (   2A1  +   0B1  +   0B2  +   0A2  )
 NUMBER OF VALENCE ORBITALS:        9   (   5A1  +   2B1  +   2B2  +   0A2  )


 NUCLEAR REPULSION ENERGY   23.89066742

 EXTRA SYMMETRY OF AOS IN SYMMETRY 1:   1 1 1 1 1 1 1 1 1 1   1 1 1 1 1 1 1 2 1 2   1 2 1 2 1 2 1 2 1 2   1 2 1 1 1 1 1 1 1 1
                                        1 1 1 1 1 1 1 1 1 2   1 2 1 2 1 2 1 2 1 2   1 2 1 2 1 1 1 1 1 1   1 1 2 1 2
 EXTRA SYMMETRY OF AOS IN SYMMETRY 2:   1 1 1 1 1 1 1 1 1 1   1 1 2 1 2 1 2 1 1 1   1 1 1 1 1 1 1 1 1 2   1 2 1 2 1 1 1 1 1
 EXTRA SYMMETRY OF AOS IN SYMMETRY 3:   1 1 1 1 1 1 1 1 1 1   1 1 2 1 2 1 2 1 1 1   1 1 1 1 1 1 1 1 1 2   1 2 1 2 1 1 1 1 1

 Eigenvalues of metric

         1 0.253E-03 0.527E-03 0.933E-03 0.140E-02 0.319E-02 0.779E-02 0.102E-01 0.133E-01
         2 0.544E-02 0.159E-01 0.228E-01 0.352E-01 0.972E-01 0.113E+00 0.125E+00 0.188E+00
         3 0.544E-02 0.159E-01 0.228E-01 0.352E-01 0.972E-01 0.113E+00 0.125E+00 0.188E+00
         4 0.125E+00 0.140E+00 0.195E+00 0.258E+00 0.314E+00 0.379E+00 0.485E+00 0.599E+00


 Contracted 2-electron integrals neglected if value below      1.0D-22

       21745040. INTEGRALS WRITTEN OUT IN    5311 BLOCKS ON RECORD 1290 OF FILE 1


 NUMBER OF SORTED TWO-ELECTRON INTEGRALS:   28272141.     BUFFER LENGTH:  32768
 NUMBER OF SEGMENTS:   2  SEGMENT LENGTH:   15998211      RECORD LENGTH: 524288

 Memory used in sort:      16.56 MW

 SORT1 READ    21745040. AND WROTE    22143314. INTEGRALS IN     65 RECORDS. CPU TIME:     0.47 SEC, REAL TIME:     0.64 SEC
 SORT2 READ    22143314. AND WROTE    28272141. INTEGRALS IN      2 RECORDS. CPU TIME:     0.38 SEC, REAL TIME:     0.50 SEC

 FILE SIZES:   FILE 1:   368.7 MBYTE,  FILE 4:   272.7 MBYTE,   TOTAL:    641.3 MBYTE

 OPERATOR DM      FOR CENTER  0  COORDINATES:    0.000000    0.000000    0.000000


 **********************************************************************************************************************************
 DATASETS  * FILE   NREC   LENGTH (MB)   RECORD NAMES
              1      19      213.49       500      610      700      900      950      970     1000      129      960     1100   
                                          VAR    BASINP    GEOM    SYMINP    ZMAT    AOBASIS   BASIS     P2S    ABASIS      S 
                                         1400     1410     1200     1210     1080     1600     1650     1300     1700   
                                           T        V       H0       H01     AOSYM     SMH    MOLCAS    ERIS     OPER   

 PROGRAMS   *        TOTAL       INT
 CPU TIMES  *         3.10      3.02
 REAL TIME  *         4.15 SEC
 DISK USED  *       641.68 MB      
 **********************************************************************************************************************************


 PROGRAM * RHF-SCF (CLOSED SHELL)       Authors: W. Meyer, H.-J. Werner


 NUMBER OF ELECTRONS:       7+    7-
 CONVERGENCE THRESHOLDS:    1.00E-10 (Density)    1.00E-13 (Energy)
 MAX. NUMBER OF ITERATIONS:      500
 INTERPOLATION TYPE:            DIIS
 INTERPOLATION STEPS:              2 (START)      1 (STEP)
 LEVEL SHIFTS:                  0.00 (CLOSED)  0.00 (OPEN) 



 Orbital guess generated from atomic densities. Full valence occupancy:    7   2   2   0

 Molecular orbital dump at record        2100.2

 Initial occupancy:   5   1   1   0

 ITERATION    DDIFF          GRAD             ENERGY        2-EL.EN.            DIPOLE MOMENTS         DIIS   ORB.
    1      0.000D+00      0.000D+00       -92.77142815    111.695199    0.00000    0.00000   -2.03691    0    start
    2      0.000D+00      0.917D-02       -92.78380194    109.961662    0.00000    0.00000   -0.94804    1    diag
    3      0.345D-01      0.794D-02       -92.80612574    110.898737    0.00000    0.00000   -1.45525    2    diag
    4      0.119D-01      0.563D-03       -92.80637401    110.849805    0.00000    0.00000   -1.44801    3    diag
    5      0.186D-02      0.127D-03       -92.80638871    110.857964    0.00000    0.00000   -1.44673    4    diag
    6      0.531D-03      0.332D-04       -92.80638952    110.853730    0.00000    0.00000   -1.44700    5    diag
    7      0.426D-04      0.118D-04       -92.80638961    110.854728    0.00000    0.00000   -1.44708    6    diag
    8      0.159D-04      0.237D-05       -92.80638961    110.854710    0.00000    0.00000   -1.44706    7    diag
    9      0.831D-05      0.259D-06       -92.80638961    110.854718    0.00000    0.00000   -1.44706    8    diag
   10      0.141D-05      0.284D-07       -92.80638961    110.854719    0.00000    0.00000   -1.44706    9    orth
   11      0.136D-06      0.370D-08       -92.80638961    110.854719    0.00000    0.00000   -1.44706    9    diag
   12      0.120D-07      0.393D-09       -92.80638961    110.854719    0.00000    0.00000   -1.44706    9    diag
   13      0.117D-08      0.507D-10       -92.80638961    110.854719    0.00000    0.00000   -1.44706    9    diag
   14      0.177D-09      0.775D-11       -92.80638961    110.854719    0.00000    0.00000   -1.44706    9    diag
   15      0.280D-10      0.158D-11       -92.80638961    110.854719    0.00000    0.00000   -1.44706    0    orth

 Final occupancy:   5   1   1   0

 !RHF STATE 1.1 Energy                -92.806389612050
 Nuclear energy                        23.89066742
 One-electron energy                 -172.12441667
 Two-electron energy                   55.42735964
 Virial quotient                       -1.00255262
 !RHF STATE 1.1 Dipole moment           0.00000000     0.00000000    -1.44705991
 Dipole moment /Debye                   0.00000000     0.00000000    -3.67781852

 Orbital energies:

         1.1          2.1          3.1          4.1          5.1          6.1          7.1
    -15.590828   -11.399980    -1.253621    -0.832128    -0.577714     0.032607     0.150432

         1.2          2.2          3.2
     -0.490289     0.133607     0.306275

         1.3          2.3          3.3
     -0.490289     0.133607     0.306275

         1.4          2.4
      0.682702     0.962036

 HOMO      1.2    -0.490289 =     -13.3414eV
 LUMO      6.1     0.032607 =       0.8873eV
 LUMO-HOMO         0.522895 =      14.2287eV


 **********************************************************************************************************************************
 DATASETS  * FILE   NREC   LENGTH (MB)   RECORD NAMES
              1      19      213.49       500      610      700      900      950      970     1000      129      960     1100   
                                          VAR    BASINP    GEOM    SYMINP    ZMAT    AOBASIS   BASIS     P2S    ABASIS      S 
                                         1400     1410     1200     1210     1080     1600     1650     1300     1700   
                                           T        V       H0       H01     AOSYM     SMH    MOLCAS    ERIS     OPER   

              2       4        2.98       700     1000      520     2100   
                                         GEOM     BASIS   MCVARS     RHF  

 PROGRAMS   *        TOTAL        HF       INT
 CPU TIMES  *         4.68      1.58      3.02
 REAL TIME  *         6.03 SEC
 DISK USED  *       641.68 MB      
 **********************************************************************************************************************************


 PROGRAM * CCSD (Closed-shell coupled cluster)     Authors: C. Hampel, H.-J. Werner, 1991, M. Deegan, P.J. Knowles, 1992


 Convergence thresholds:  THRVAR = 1.00D-08  THRDEN = 1.00D-12

 CCSD(T)     terms to be evaluated (factor= 1.000)


 Number of closed-shell orbitals:   7 (   5   1   1   0 )
 Number of external orbitals:     164 (  70  38  38  18 )

 Molecular orbitals read from record     2100.2  Type=RHF/CANONICAL (state 1.1)

 Number of N-1 electron functions:               7
 Number of N-2 electron functions:              28
 Number of singly external CSFs:               426
 Number of doubly external CSFs:            182374
 Total number of CSFs:                      182801

 Length of J-op  integral file:               0.00 MB
 Length of K-op  integral file:               0.65 MB
 Length of 3-ext integral record:             0.00 MB

 Memory could be reduced to 11.98 Mwords without degradation in triples

 Integral transformation finished. Total CPU:   0.26 sec, npass=  1  Memory used:   1.63 MW

 Reference energy:                    -92.80638961

 MP2 singlet pair energy:              -0.30611971
 MP2 triplet pair energy:              -0.13944351
 MP2 correlation energy:               -0.44556321
 MP2 total energy:                    -93.25195283

 SCS-MP2 correlation energy:           -0.45410850   (PS=  1.200000  PT=  0.333333)
 SCS-MP2 total energy:                -93.26049811

 ITER.      SQ.NORM     CORR.ENERGY   TOTAL ENERGY   ENERGY CHANGE        DEN1      VAR(S)    VAR(P)  DIIS     TIME  TIME/IT
   1      1.11194680    -0.45208215   -93.25847177    -0.00651894     0.00621258  0.25D-02  0.27D-02  1  1     0.58     0.33
   2      1.12077819    -0.45232414   -93.25871376    -0.00024199    -0.01018370  0.56D-04  0.36D-03  2  2     0.90     0.34
   3      1.12445592    -0.45249694   -93.25888655    -0.00017280    -0.00178941  0.18D-04  0.50D-04  3  3     1.21     0.34
   4      1.12679824    -0.45251239   -93.25890200    -0.00001545    -0.00103328  0.94D-06  0.50D-05  4  4     1.52     0.34
   5      1.12734961    -0.45251711   -93.25890672    -0.00000472    -0.00015461  0.19D-06  0.42D-06  5  5     1.85     0.34
   6      1.12743338    -0.45252040   -93.25891002    -0.00000329    -0.00000517  0.91D-08  0.36D-07  6  6     2.16     0.35
   7      1.12744794    -0.45252122   -93.25891083    -0.00000082    -0.00000354  0.19D-08  0.30D-08  6  1     2.46     0.35
   8      1.12745117    -0.45252134   -93.25891095    -0.00000012    -0.00000134  0.26D-09  0.18D-09  6  2     2.79     0.35
   9      1.12745113    -0.45252141   -93.25891102    -0.00000006     0.00000019  0.29D-10  0.22D-10  6  3     3.10     0.35
  10      1.12745133    -0.45252142   -93.25891104    -0.00000002    -0.00000001  0.61D-11  0.26D-11  6  4     3.41     0.35
  11      1.12745134    -0.45252143   -93.25891104    -0.00000001     0.00000002  0.70D-12  0.60D-12  6  5     3.70     0.35
  12      1.12745129    -0.45252143   -93.25891104     0.00000000     0.00000003  0.44D-13  0.11D-12  6  6     4.00     0.35
  13      1.12745126    -0.45252143   -93.25891104    -0.00000000     0.00000001  0.22D-14  0.16D-13  6  1     4.30     0.35
  14      1.12745124    -0.45252143   -93.25891104    -0.00000000     0.00000001  0.57D-15  0.25D-14  6  2     4.63     0.35
  15      1.12745123    -0.45252143   -93.25891104    -0.00000000     0.00000000  0.42D-16  0.16D-15  6  4     4.94     0.35
  16      1.12745122    -0.45252143   -93.25891104    -0.00000000     0.00000000  0.82D-17  0.99D-17  6  3     5.25     0.35
  17      1.12745122    -0.45252143   -93.25891104    -0.00000000     0.00000000  0.15D-17  0.13D-17  6  5     5.55     0.35
  18      1.12745122    -0.45252143   -93.25891104    -0.00000000     0.00000000  0.15D-18  0.11D-18  6  6     5.86     0.35
  19      1.12745122    -0.45252143   -93.25891104    -0.00000000     0.00000000  0.35D-19  0.12D-19  6  1     6.16     0.35
  20      1.12745122    -0.45252143   -93.25891104    -0.00000000     0.00000000  0.42D-20  0.40D-20  6  2     6.46     0.35
  21      1.12745122    -0.45252143   -93.25891104    -0.00000000     0.00000000  0.54D-21  0.76D-21  6  4     6.77     0.35
  22      1.12745122    -0.45252143   -93.25891104     0.00000000    -0.00000000  0.24D-22  0.10D-21  6  3     7.05     0.35

 Norm of t1 vector:      0.06379117      S-energy:     0.00000000      T1 diagnostic:  0.01205540
                                                                       D1 diagnostic:  0.02811870

 Doubles amplitudes (print threshold =  0.500E-01):

         I         J         SYM. A    SYM. B    A         B      T(IJ, AB)

         6         6         2         2         1         1     -0.05797791
         7         7         3         3         1         1     -0.05797791


 Total CPU time for triples:      3.90 sec


 RESULTS
 =======

  Reference energy                    -92.806389612050

  Correlated core orbitals:             1.1       2.1
  Orbital energies:                   -15.5908  -11.4000
 
  CCSD core-core energy                -0.079715450721
  CCSD core-valence energy             -0.029281792411
  CCSD valence correlation energy      -0.343524188234
 
  CCSD singlet pair energy             -0.331256740781
  CCSD triplet pair energy             -0.121264690586
  CCSD correlation energy              -0.452521431367

  Triples (T) contribution             -0.017998941104
  Total correlation energy             -0.470520372471

  CCSD total energy                   -93.258911043417
  CCSD[T] energy                      -93.277681807908
  CCSD-T energy                       -93.276543660776
 !CCSD(T) total energy                -93.276909984521

 Timing summary (sec):

 STEP                 CPU(USER)    SYS     CPU(TOT)    WALL
 Transformation          0.26      0.08      0.34      0.35
 CCSD iterations         6.80      0.97      7.77      7.77
 Triples                 3.90      0.14      4.04      4.04

 Program statistics:

 Available memory in ccsd:               994999704
 Min. memory needed in ccsd:                607983
 Max. memory used in ccsd:                  763562
 Max. memory used in cckext:                768329 (22 integral passes)



 **********************************************************************************************************************************
 DATASETS  * FILE   NREC   LENGTH (MB)   RECORD NAMES
              1      20      249.64       500      610      700      900      950      970     1000      129      960     1100   
                                          VAR    BASINP    GEOM    SYMINP    ZMAT    AOBASIS   BASIS     P2S    ABASIS      S 
                                         1400     1410     1200     1210     1080     1600     1650     1300     1700     1380   
                                           T        V       H0       H01     AOSYM     SMH    MOLCAS    ERIS     OPER     JKOP   

              2       4        2.98       700     1000      520     2100   
                                         GEOM     BASIS   MCVARS     RHF  

 PROGRAMS   *        TOTAL   CCSD(T)        HF       INT
 CPU TIMES  *        15.69     11.00      1.58      3.02
 REAL TIME  *        19.49 SEC
 DISK USED  *       641.68 MB      
 **********************************************************************************************************************************

 CCSD(T)/USERDEF energy=    -93.276909984521

        CCSD(T)         HF-SCF  
    -93.27690998    -92.80638961
 **********************************************************************************************************************************
 Molpro calculation terminated
 Variable memory released
