
 Primary working directories    : /tmp/r2666/233472.maple
 Secondary working directories  : /tmp/r2666/233472.maple
 Wavefunction directory         : /ddn/home4/r2666/wfu/
 Main file repository           : /tmp/r2666/233472.maple/

 SHA1      : d5ffa45e93fdbca01ffc919aa182cfdae0147319
 NAME      : 2015.1.35
 ARCHNAME  : linux/x86_64
 FC        : /opt/intel/composer_xe_2015.1.133/bin/intel64/ifort
 BLASLIB   : -Wl,-_start-group /opt/intel/mkl/lib/intel64/libmkl_intel_ilp64.a /opt/intel/mkl/lib/intel64/libmkl_intel_thread.a /opt/intel/mkl/lib/intel64/libmkl_core.a -Wl,-_end-group
 id        : olemiss

 Nodes     nprocs
 cn094        1

 Using customized tuning parameters: mindgm=1; mindgv=20; mindgc=4; mindgr=1; noblas=0; minvec=7
 default implementation of scratch files=df  

 ***,hcn CCSD(T)/TZ-F12 QFF
 memory, 995, m;
 gthresh,energy=1.d-12,zero=1.d-22,oneint=1.d-22,twoint=1.d-22;
 gthresh,optgrad=1.d-8,optstep=1.d-8;
 nocompress;
 geomtyp=xyz
 bohr
 geometry={
 3
          4         4
 N        0.0000000000        0.0000000000        1.1089536744
 C        0.0000000000        0.0000000000       -1.0415501027
 H        0.0000000000        0.0000000000       -3.0644735537
 }
 
 basis={
 default=aug-cc-pvtz
 s,C,8236.0,1235.0,280.8, 79.27,25.59, 8.997,3.319
 s,C,0.9059,0.3643,0.1285000
 p,C,56.0,18.71,4.133,0.2827,0.3827,0.1209
 d,C,30.0,10.0,3.3,1.097,0.318
 f,C,7.0,2.3,0.7610
 s,N,11420.0,1712.0,389.3,110.0,35.57,12.54,4.644
 s,N,1.293,0.5118,0.1787
 p,N,79.89,26.63,5.948,1.742,0.555,0.1725
 d,N,45.0,15.0,5.0,1.654,0.469
 f,N,9.9,3.3,1.093
 s,O,15330.0,2299.0,522.4,147.3,47.55,16.76,6.207
 s,O,1.752,0.6882,0.2384
 p,O,103.5,34.46,7.749,2.28,0.7156,0.214
 d,O,63.0,21.0,7.0,2.314,0.645
 f,O,12.9,4.3,1.428
 s,mg,164900.0,24710.0,5628.0,1596.0,521.0;
 s,mg,188.0,73.01,29.90,12.54,4.306,1.826;
 s,mg,0.7417,0.0761,0.145,0.033,0.0129;
 p,mg,950.70,316.90,74.86,23.72,8.669,3.363;
 p,mg,1.310,0.4911,0.2364,0.08733,0.03237,0.00745;
 d,mg,1.601,0.686,0.126,0.294,0.0468;
 f,mg,1.372,0.588,0.094,0.252;
 }
   {hf,maxit=500;accu,20;}
 {ccsd(t),nocheck,maxit=250;orbital,IGNORE_ERROR;core}

 Variables initialized (889), CPU time= 0.01 sec
 Commands  initialized (702), CPU time= 0.01 sec, 572 directives.
 Default parameters read. Elapsed time= 0.05 sec

 Checking input...
 Passed
1


                                         ***  PROGRAM SYSTEM MOLPRO  ***
                                       Copyright, TTI GmbH Stuttgart, 2015
                                    Version 2015.1 linked Jul  9 2018 13:16:40


 **********************************************************************************************************************************
 LABEL *   hcn CCSD(T)/TZ-F12 QFF                                                        
  64 bit serial version                                                                  DATE: 06-Feb-20          TIME: 21:38:37  
 **********************************************************************************************************************************

 SHA1:             d5ffa45e93fdbca01ffc919aa182cfdae0147319
 **********************************************************************************************************************************

 THRESHOLDS:

 ZERO    =  1.00D-22  ONEINT  =  1.00D-22  TWOINT  =  1.00D-22  PREFAC  =  1.00D-14  LOCALI  =  1.00D-09  EORDER  =  1.00D-04
 ENERGY  =  1.00D-12  ETEST   =  0.00D+00  EDENS   =  0.00D+00  THRDEDEF=  1.00D-06  GRADIENT=  1.00D-02  STEP    =  1.00D-03
 ORBITAL =  1.00D-05  CIVEC   =  1.00D-05  COEFF   =  1.00D-04  PRINTCI =  5.00D-02  PUNCHCI =  9.90D+01  OPTGRAD =  3.00D-04
 OPTENERG=  1.00D-06  OPTSTEP =  3.00D-04  THRGRAD =  1.00D-10  COMPRESS=  1.00D-11  VARMIN  =  1.00D-07  VARMAX  =  1.00D-03
 THRDOUB =  0.00D+00  THRDIV  =  1.00D-05  THRRED  =  1.00D-07  THRPSP  =  1.00D+00  THRDC   =  1.00D-10  THRCS   =  1.00D-10
 THRNRM  =  1.00D-08  THREQ   =  0.00D+00  THRDE   =  1.00D+00  THRREF  =  1.00D-05  SPARFAC =  1.00D+00  THRDLP  =  1.00D-07
 THRDIA  =  1.00D-10  THRDLS  =  1.00D-07  THRGPS  =  0.00D+00  THRKEX  =  0.00D+00  THRDIS  =  2.00D-01  THRVAR  =  1.00D-10
 THRLOC  =  1.00D-06  THRGAP  =  1.00D-06  THRLOCT = -1.00D+00  THRGAPT = -1.00D+00  THRORB  =  1.00D-06  THRMLTP =  0.00D+00
 THRCPQCI=  1.00D-10  KEXTA   =  0.00D+00  THRCOARS=  0.00D+00  SYMTOL  =  1.00D-06  GRADTOL =  1.00D-06  THROVL  =  1.00D-08
 THRORTH =  1.00D-08  GRID    =  1.00D-06  GRIDMAX =  1.00D-03  DTMAX   =  0.00D+00  THROCCDE=  1.00D-01  THROCCDE=  1.00D-01



 THRESHOLDS:

 ZERO    =  1.00D-22  ONEINT  =  1.00D-22  TWOINT  =  1.00D-22  PREFAC  =  1.00D-14  LOCALI  =  1.00D-09  EORDER  =  1.00D-04
 ENERGY  =  1.00D-12  ETEST   =  0.00D+00  EDENS   =  0.00D+00  THRDEDEF=  1.00D-06  GRADIENT=  1.00D-02  STEP    =  1.00D-03
 ORBITAL =  1.00D-05  CIVEC   =  1.00D-05  COEFF   =  1.00D-04  PRINTCI =  5.00D-02  PUNCHCI =  9.90D+01  OPTGRAD =  1.00D-08
 OPTENERG=  1.00D-06  OPTSTEP =  1.00D-08  THRGRAD =  1.00D-10  COMPRESS=  1.00D-11  VARMIN  =  1.00D-07  VARMAX  =  1.00D-03
 THRDOUB =  0.00D+00  THRDIV  =  1.00D-05  THRRED  =  1.00D-07  THRPSP  =  1.00D+00  THRDC   =  1.00D-10  THRCS   =  1.00D-10
 THRNRM  =  1.00D-08  THREQ   =  0.00D+00  THRDE   =  1.00D+00  THRREF  =  1.00D-05  SPARFAC =  1.00D+00  THRDLP  =  1.00D-07
 THRDIA  =  1.00D-10  THRDLS  =  1.00D-07  THRGPS  =  0.00D+00  THRKEX  =  0.00D+00  THRDIS  =  2.00D-01  THRVAR  =  1.00D-10
 THRLOC  =  1.00D-06  THRGAP  =  1.00D-06  THRLOCT = -1.00D+00  THRGAPT = -1.00D+00  THRORB  =  1.00D-06  THRMLTP =  0.00D+00
 THRCPQCI=  1.00D-10  KEXTA   =  0.00D+00  THRCOARS=  0.00D+00  SYMTOL  =  1.00D-06  GRADTOL =  1.00D-06  THROVL  =  1.00D-08
 THRORTH =  1.00D-08  GRID    =  1.00D-06  GRIDMAX =  1.00D-03  DTMAX   =  0.00D+00  THROCCDE=  1.00D-01  THROCCDE=  1.00D-01



 Input parameters for SORTINT:

 COMPRESS =    0.000000
 C_FINAL  =    1.000000
 DEBUG    =   -1.000000
 C_SORT1  =    0.000000
 C_SEWARD =    0.000000
 THRESH   =    0.000000
 IO       =  molpro                                                          
 SPRI     =    0.000000
 SETTING GEOMTYP        =    XYZ
 ZUNIT=BOHR
 

 Variable memory set to  995000000 words,  buffer space   230000 words

 SETTING BASIS          =    USERDEF


 Recomputing integrals since basis changed


 Using spherical harmonics

 Library entry H      S aug-cc-pVTZ          selected for orbital group  3
 Library entry H      P aug-cc-pVTZ          selected for orbital group  3
 Library entry H      D aug-cc-pVTZ          selected for orbital group  3


 PROGRAM * SEWARD (Integral evaluation for generally contracted gaussian basis sets)     Author: Roland Lindh, 1990

 Geometry written to block  1 of record 700


 Point group  C2v 



 ATOMIC COORDINATES

 NR  ATOM    CHARGE       X              Y              Z

   1  N       7.00    0.000000000    0.000000000    1.108953674
   2  C       6.00    0.000000000    0.000000000   -1.041550103
   3  H       1.00    0.000000000    0.000000000   -3.064473554

 Bond lengths in Bohr (Angstrom)

 1-2  2.150503777  2-3  2.022923451
     ( 1.137997591)     ( 1.070484990)

 Bond angles

  1-2-3  179.99999879

 NUCLEAR CHARGE:                   14
 NUMBER OF PRIMITIVE AOS:         203
 NUMBER OF SYMMETRY AOS:          173
 NUMBER OF CONTRACTIONS:          171   (  75A1  +  39B1  +  39B2  +  18A2  )
 NUMBER OF CORE ORBITALS:           2   (   2A1  +   0B1  +   0B2  +   0A2  )
 NUMBER OF VALENCE ORBITALS:        9   (   5A1  +   2B1  +   2B2  +   0A2  )


 NUCLEAR REPULSION ENERGY   24.17359051

 EXTRA SYMMETRY OF AOS IN SYMMETRY 1:   1 1 1 1 1 1 1 1 1 1   1 1 1 1 1 1 1 2 1 2   1 2 1 2 1 2 1 2 1 2   1 2 1 1 1 1 1 1 1 1
                                        1 1 1 1 1 1 1 1 1 2   1 2 1 2 1 2 1 2 1 2   1 2 1 2 1 1 1 1 1 1   1 1 2 1 2
 EXTRA SYMMETRY OF AOS IN SYMMETRY 2:   1 1 1 1 1 1 1 1 1 1   1 1 2 1 2 1 2 1 1 1   1 1 1 1 1 1 1 1 1 2   1 2 1 2 1 1 1 1 1
 EXTRA SYMMETRY OF AOS IN SYMMETRY 3:   1 1 1 1 1 1 1 1 1 1   1 1 2 1 2 1 2 1 1 1   1 1 1 1 1 1 1 1 1 2   1 2 1 2 1 1 1 1 1

 Eigenvalues of metric

         1 0.244E-03 0.489E-03 0.898E-03 0.139E-02 0.315E-02 0.758E-02 0.101E-01 0.131E-01
         2 0.533E-02 0.154E-01 0.216E-01 0.341E-01 0.966E-01 0.112E+00 0.124E+00 0.187E+00
         3 0.533E-02 0.154E-01 0.216E-01 0.341E-01 0.966E-01 0.112E+00 0.124E+00 0.187E+00
         4 0.124E+00 0.139E+00 0.191E+00 0.257E+00 0.313E+00 0.379E+00 0.483E+00 0.594E+00


 Contracted 2-electron integrals neglected if value below      1.0D-22

       21837237. INTEGRALS WRITTEN OUT IN    5333 BLOCKS ON RECORD 1290 OF FILE 1


 NUMBER OF SORTED TWO-ELECTRON INTEGRALS:   28272141.     BUFFER LENGTH:  32768
 NUMBER OF SEGMENTS:   2  SEGMENT LENGTH:   15998211      RECORD LENGTH: 524288

 Memory used in sort:      16.56 MW

 SORT1 READ    21837237. AND WROTE    22237311. INTEGRALS IN     65 RECORDS. CPU TIME:     0.60 SEC, REAL TIME:     0.74 SEC
 SORT2 READ    22237311. AND WROTE    28272141. INTEGRALS IN      2 RECORDS. CPU TIME:     0.49 SEC, REAL TIME:     0.59 SEC

 FILE SIZES:   FILE 1:   370.1 MBYTE,  FILE 4:   272.7 MBYTE,   TOTAL:    642.8 MBYTE

 OPERATOR DM      FOR CENTER  0  COORDINATES:    0.000000    0.000000    0.000000


 **********************************************************************************************************************************
 DATASETS  * FILE   NREC   LENGTH (MB)   RECORD NAMES
              1      19      214.00       500      610      700      900      950      970     1000      129      960     1100   
                                          VAR    BASINP    GEOM    SYMINP    ZMAT    AOBASIS   BASIS     P2S    ABASIS      S 
                                         1400     1410     1200     1210     1080     1600     1650     1300     1700   
                                           T        V       H0       H01     AOSYM     SMH    MOLCAS    ERIS     OPER   

 PROGRAMS   *        TOTAL       INT
 CPU TIMES  *         4.00      3.90
 REAL TIME  *         5.94 SEC
 DISK USED  *       643.13 MB      
 **********************************************************************************************************************************


 PROGRAM * RHF-SCF (CLOSED SHELL)       Authors: W. Meyer, H.-J. Werner


 NUMBER OF ELECTRONS:       7+    7-
 CONVERGENCE THRESHOLDS:    1.00E-10 (Density)    1.00E-13 (Energy)
 MAX. NUMBER OF ITERATIONS:      500
 INTERPOLATION TYPE:            DIIS
 INTERPOLATION STEPS:              2 (START)      1 (STEP)
 LEVEL SHIFTS:                  0.00 (CLOSED)  0.00 (OPEN) 



 Orbital guess generated from atomic densities. Full valence occupancy:    7   2   2   0

 Molecular orbital dump at record        2100.2

 Initial occupancy:   5   1   1   0

 ITERATION    DDIFF          GRAD             ENERGY        2-EL.EN.            DIPOLE MOMENTS         DIIS   ORB.
    1      0.000D+00      0.000D+00       -92.77209644    112.312851    0.00000    0.00000   -2.01868    0    start
    2      0.000D+00      0.924D-02       -92.78546443    110.497795    0.00000    0.00000   -0.96581    1    diag
    3      0.335D-01      0.781D-02       -92.80681747    111.441015    0.00000    0.00000   -1.45038    2    diag
    4      0.115D-01      0.556D-03       -92.80705867    111.398092    0.00000    0.00000   -1.44298    3    diag
    5      0.183D-02      0.121D-03       -92.80707274    111.403360    0.00000    0.00000   -1.44185    4    diag
    6      0.496D-03      0.308D-04       -92.80707339    111.399999    0.00000    0.00000   -1.44220    5    diag
    7      0.353D-04      0.106D-04       -92.80707346    111.401043    0.00000    0.00000   -1.44224    6    diag
    8      0.143D-04      0.216D-05       -92.80707346    111.401015    0.00000    0.00000   -1.44222    7    diag
    9      0.724D-05      0.240D-06       -92.80707346    111.401022    0.00000    0.00000   -1.44222    8    diag
   10      0.123D-05      0.275D-07       -92.80707346    111.401023    0.00000    0.00000   -1.44222    9    orth
   11      0.124D-06      0.356D-08       -92.80707346    111.401023    0.00000    0.00000   -1.44222    9    diag
   12      0.117D-07      0.376D-09       -92.80707346    111.401023    0.00000    0.00000   -1.44222    9    diag
   13      0.114D-08      0.477D-10       -92.80707346    111.401023    0.00000    0.00000   -1.44222    9    diag
   14      0.169D-09      0.743D-11       -92.80707346    111.401023    0.00000    0.00000   -1.44222    9    diag
   15      0.287D-10      0.156D-11       -92.80707346    111.401023    0.00000    0.00000   -1.44222    9    diag
   16      0.539D-11      0.483D-12       -92.80707346    111.401023    0.00000    0.00000   -1.44222    9    diag
   17      0.180D-11      0.349D-12       -92.80707346    111.401023    0.00000    0.00000   -1.44222    0    orth

 Final occupancy:   5   1   1   0

 !RHF STATE 1.1 Energy                -92.807073462571
 Nuclear energy                        24.17359051
 One-electron energy                 -172.68117546
 Two-electron energy                   55.70051149
 Virial quotient                       -1.00155254
 !RHF STATE 1.1 Dipole moment           0.00000000     0.00000000    -1.44221948
 Dipole moment /Debye                   0.00000000     0.00000000    -3.66551619

 Orbital energies:

         1.1          2.1          3.1          4.1          5.1          6.1          7.1
    -15.585661   -11.394454    -1.261106    -0.832076    -0.577082     0.032725     0.151740

         1.2          2.2          3.2
     -0.494849     0.136480     0.309864

         1.3          2.3          3.3
     -0.494849     0.136480     0.309864

         1.4          2.4
      0.683038     0.963001

 HOMO      1.2    -0.494849 =     -13.4655eV
 LUMO      6.1     0.032725 =       0.8905eV
 LUMO-HOMO         0.527575 =      14.3560eV


 **********************************************************************************************************************************
 DATASETS  * FILE   NREC   LENGTH (MB)   RECORD NAMES
              1      19      214.00       500      610      700      900      950      970     1000      129      960     1100   
                                          VAR    BASINP    GEOM    SYMINP    ZMAT    AOBASIS   BASIS     P2S    ABASIS      S 
                                         1400     1410     1200     1210     1080     1600     1650     1300     1700   
                                           T        V       H0       H01     AOSYM     SMH    MOLCAS    ERIS     OPER   

              2       4        2.98       700     1000      520     2100   
                                         GEOM     BASIS   MCVARS     RHF  

 PROGRAMS   *        TOTAL        HF       INT
 CPU TIMES  *         5.98      1.98      3.90
 REAL TIME  *         8.31 SEC
 DISK USED  *       643.13 MB      
 **********************************************************************************************************************************


 PROGRAM * CCSD (Closed-shell coupled cluster)     Authors: C. Hampel, H.-J. Werner, 1991, M. Deegan, P.J. Knowles, 1992


 Convergence thresholds:  THRVAR = 1.00D-08  THRDEN = 1.00D-12

 CCSD(T)     terms to be evaluated (factor= 1.000)


 Number of closed-shell orbitals:   7 (   5   1   1   0 )
 Number of external orbitals:     164 (  70  38  38  18 )

 Molecular orbitals read from record     2100.2  Type=RHF/CANONICAL (state 1.1)

 Number of N-1 electron functions:               7
 Number of N-2 electron functions:              28
 Number of singly external CSFs:               426
 Number of doubly external CSFs:            182374
 Total number of CSFs:                      182801

 Length of J-op  integral file:               0.00 MB
 Length of K-op  integral file:               0.65 MB
 Length of 3-ext integral record:             0.00 MB

 Memory could be reduced to 11.98 Mwords without degradation in triples

 Integral transformation finished. Total CPU:   0.32 sec, npass=  1  Memory used:   1.63 MW

 Reference energy:                    -92.80707346

 MP2 singlet pair energy:              -0.30473721
 MP2 triplet pair energy:              -0.13844183
 MP2 correlation energy:               -0.44317904
 MP2 total energy:                    -93.25025251

 SCS-MP2 correlation energy:           -0.45182624   (PS=  1.200000  PT=  0.333333)
 SCS-MP2 total energy:                -93.25889970

 ITER.      SQ.NORM     CORR.ENERGY   TOTAL ENERGY   ENERGY CHANGE        DEN1      VAR(S)    VAR(P)  DIIS     TIME  TIME/IT
   1      1.11011341    -0.45032180   -93.25739526    -0.00714276     0.00506666  0.23D-02  0.25D-02  1  1     0.69     0.41
   2      1.11857741    -0.45064911   -93.25772257    -0.00032730    -0.00985000  0.52D-04  0.34D-03  2  2     1.08     0.42
   3      1.12206866    -0.45081087   -93.25788433    -0.00016176    -0.00173575  0.17D-04  0.46D-04  3  3     1.46     0.42
   4      1.12424692    -0.45082243   -93.25789589    -0.00001156    -0.00098224  0.90D-06  0.45D-05  4  4     1.85     0.42
   5      1.12474896    -0.45082676   -93.25790022    -0.00000433    -0.00014171  0.17D-06  0.36D-06  5  5     2.24     0.43
   6      1.12482250    -0.45082964   -93.25790310    -0.00000288    -0.00000411  0.89D-08  0.31D-07  6  6     2.64     0.43
   7      1.12483557    -0.45083028   -93.25790374    -0.00000065    -0.00000334  0.20D-08  0.25D-08  6  1     3.04     0.43
   8      1.12483841    -0.45083038   -93.25790384    -0.00000010    -0.00000116  0.28D-09  0.16D-09  6  2     3.43     0.43
   9      1.12483842    -0.45083044   -93.25790390    -0.00000005     0.00000017  0.33D-10  0.22D-10  6  3     3.83     0.43
  10      1.12483862    -0.45083045   -93.25790391    -0.00000002    -0.00000001  0.65D-11  0.28D-11  6  4     4.23     0.43
  11      1.12483864    -0.45083046   -93.25790392    -0.00000000     0.00000002  0.61D-12  0.63D-12  6  5     4.63     0.43
  12      1.12483859    -0.45083045   -93.25790392     0.00000000     0.00000003  0.31D-13  0.11D-12  6  6     4.99     0.43
  13      1.12483854    -0.45083045   -93.25790392    -0.00000000     0.00000001  0.32D-14  0.69D-14  6  2     5.35     0.43
  14      1.12483853    -0.45083046   -93.25790392    -0.00000000     0.00000001  0.25D-15  0.32D-15  6  1     5.72     0.43
  15      1.12483852    -0.45083046   -93.25790392    -0.00000000     0.00000000  0.47D-16  0.39D-16  6  3     6.10     0.43
  16      1.12483852    -0.45083046   -93.25790392    -0.00000000     0.00000000  0.78D-17  0.29D-17  6  4     6.48     0.43
  17      1.12483852    -0.45083046   -93.25790392    -0.00000000     0.00000000  0.11D-17  0.48D-18  6  5     6.87     0.43
  18      1.12483852    -0.45083046   -93.25790392     0.00000000    -0.00000000  0.13D-18  0.54D-19  6  6     7.22     0.43
  19      1.12483852    -0.45083046   -93.25790392     0.00000000    -0.00000000  0.71D-20  0.45D-20  6  1     7.60     0.43
  20      1.12483852    -0.45083046   -93.25790392    -0.00000000     0.00000000  0.17D-21  0.44D-21  6  2     7.96     0.42
  21      1.12483852    -0.45083046   -93.25790392    -0.00000000     0.00000000  0.39D-22  0.73D-22  6  3     8.33     0.42

 Norm of t1 vector:      0.06184927      S-energy:     0.00000000      T1 diagnostic:  0.01168841
                                                                       D1 diagnostic:  0.02722405

 Doubles amplitudes (print threshold =  0.500E-01):

         I         J         SYM. A    SYM. B    A         B      T(IJ, AB)

         6         6         2         2         1         1     -0.05494306
         7         7         3         3         1         1     -0.05494306


 Total CPU time for triples:      5.37 sec


 RESULTS
 =======

  Reference energy                    -92.807073462571

  Correlated core orbitals:             1.1       2.1
  Orbital energies:                   -15.5857  -11.3945
 
  CCSD core-core energy                -0.079679903386
  CCSD core-valence energy             -0.029498966232
  CCSD valence correlation energy      -0.341651586014
 
  CCSD singlet pair energy             -0.329765297200
  CCSD triplet pair energy             -0.121065158432
  CCSD correlation energy              -0.450830455631

  Triples (T) contribution             -0.017563424519
  Total correlation energy             -0.468393880150

  CCSD total energy                   -93.257903918203
  CCSD[T] energy                      -93.276190118550
  CCSD-T energy                       -93.275123258666
 !CCSD(T) total energy                -93.275467342721

 Timing summary (sec):

 STEP                 CPU(USER)    SYS     CPU(TOT)    WALL
 Transformation          0.33      0.11      0.44      0.44
 CCSD iterations         8.01      0.93      8.94      8.94
 Triples                 5.37      0.24      5.61      5.62

 Program statistics:

 Available memory in ccsd:               994999704
 Min. memory needed in ccsd:                607983
 Max. memory used in ccsd:                  763562
 Max. memory used in cckext:                768329 (21 integral passes)



 **********************************************************************************************************************************
 DATASETS  * FILE   NREC   LENGTH (MB)   RECORD NAMES
              1      20      250.15       500      610      700      900      950      970     1000      129      960     1100   
                                          VAR    BASINP    GEOM    SYMINP    ZMAT    AOBASIS   BASIS     P2S    ABASIS      S 
                                         1400     1410     1200     1210     1080     1600     1650     1300     1700     1380   
                                           T        V       H0       H01     AOSYM     SMH    MOLCAS    ERIS     OPER     JKOP   

              2       4        2.98       700     1000      520     2100   
                                         GEOM     BASIS   MCVARS     RHF  

 PROGRAMS   *        TOTAL   CCSD(T)        HF       INT
 CPU TIMES  *        19.72     13.74      1.98      3.90
 REAL TIME  *        23.36 SEC
 DISK USED  *       643.13 MB      
 **********************************************************************************************************************************

 CCSD(T)/USERDEF energy=    -93.275467342721

        CCSD(T)         HF-SCF  
    -93.27546734    -92.80707346
 **********************************************************************************************************************************
 Molpro calculation terminated
 Variable memory released
