
 Primary working directories    : /tmp/r2666/233470.maple
 Secondary working directories  : /tmp/r2666/233470.maple
 Wavefunction directory         : /ddn/home4/r2666/wfu/
 Main file repository           : /tmp/r2666/233470.maple/

 SHA1      : d5ffa45e93fdbca01ffc919aa182cfdae0147319
 NAME      : 2015.1.35
 ARCHNAME  : linux/x86_64
 FC        : /opt/intel/composer_xe_2015.1.133/bin/intel64/ifort
 BLASLIB   : -Wl,-_start-group /opt/intel/mkl/lib/intel64/libmkl_intel_ilp64.a /opt/intel/mkl/lib/intel64/libmkl_intel_thread.a /opt/intel/mkl/lib/intel64/libmkl_core.a -Wl,-_end-group
 id        : olemiss

 Nodes     nprocs
 cn094        1

 Using customized tuning parameters: mindgm=1; mindgv=20; mindgc=4; mindgr=1; noblas=0; minvec=7
 default implementation of scratch files=df  

 ***,hcn CCSD(T)/TZ-F12 QFF
 memory, 995, m;
 gthresh,energy=1.d-12,zero=1.d-22,oneint=1.d-22,twoint=1.d-22;
 gthresh,optgrad=1.d-8,optstep=1.d-8;
 nocompress;
 geomtyp=xyz
 bohr
 geometry={
 3
          5         5
 N        0.0000000000        0.0000000000        1.1058041311
 C        0.0000000000        0.0000000000       -1.0541482760
 H        0.0000000000        0.0000000000       -3.0487258371
 }
 
 basis={
 default=aug-cc-pvtz
 s,C,8236.0,1235.0,280.8, 79.27,25.59, 8.997,3.319
 s,C,0.9059,0.3643,0.1285000
 p,C,56.0,18.71,4.133,0.2827,0.3827,0.1209
 d,C,30.0,10.0,3.3,1.097,0.318
 f,C,7.0,2.3,0.7610
 s,N,11420.0,1712.0,389.3,110.0,35.57,12.54,4.644
 s,N,1.293,0.5118,0.1787
 p,N,79.89,26.63,5.948,1.742,0.555,0.1725
 d,N,45.0,15.0,5.0,1.654,0.469
 f,N,9.9,3.3,1.093
 s,O,15330.0,2299.0,522.4,147.3,47.55,16.76,6.207
 s,O,1.752,0.6882,0.2384
 p,O,103.5,34.46,7.749,2.28,0.7156,0.214
 d,O,63.0,21.0,7.0,2.314,0.645
 f,O,12.9,4.3,1.428
 s,mg,164900.0,24710.0,5628.0,1596.0,521.0;
 s,mg,188.0,73.01,29.90,12.54,4.306,1.826;
 s,mg,0.7417,0.0761,0.145,0.033,0.0129;
 p,mg,950.70,316.90,74.86,23.72,8.669,3.363;
 p,mg,1.310,0.4911,0.2364,0.08733,0.03237,0.00745;
 d,mg,1.601,0.686,0.126,0.294,0.0468;
 f,mg,1.372,0.588,0.094,0.252;
 }
   {hf,maxit=500;accu,20;}
 {ccsd(t),nocheck,maxit=250;orbital,IGNORE_ERROR;core}

 Variables initialized (889), CPU time= 0.01 sec
 Commands  initialized (702), CPU time= 0.01 sec, 572 directives.
 Default parameters read. Elapsed time= 0.05 sec

 Checking input...
 Passed
1


                                         ***  PROGRAM SYSTEM MOLPRO  ***
                                       Copyright, TTI GmbH Stuttgart, 2015
                                    Version 2015.1 linked Jul  9 2018 13:16:40


 **********************************************************************************************************************************
 LABEL *   hcn CCSD(T)/TZ-F12 QFF                                                        
  64 bit serial version                                                                  DATE: 06-Feb-20          TIME: 21:38:09  
 **********************************************************************************************************************************

 SHA1:             d5ffa45e93fdbca01ffc919aa182cfdae0147319
 **********************************************************************************************************************************

 THRESHOLDS:

 ZERO    =  1.00D-22  ONEINT  =  1.00D-22  TWOINT  =  1.00D-22  PREFAC  =  1.00D-14  LOCALI  =  1.00D-09  EORDER  =  1.00D-04
 ENERGY  =  1.00D-12  ETEST   =  0.00D+00  EDENS   =  0.00D+00  THRDEDEF=  1.00D-06  GRADIENT=  1.00D-02  STEP    =  1.00D-03
 ORBITAL =  1.00D-05  CIVEC   =  1.00D-05  COEFF   =  1.00D-04  PRINTCI =  5.00D-02  PUNCHCI =  9.90D+01  OPTGRAD =  3.00D-04
 OPTENERG=  1.00D-06  OPTSTEP =  3.00D-04  THRGRAD =  1.00D-10  COMPRESS=  1.00D-11  VARMIN  =  1.00D-07  VARMAX  =  1.00D-03
 THRDOUB =  0.00D+00  THRDIV  =  1.00D-05  THRRED  =  1.00D-07  THRPSP  =  1.00D+00  THRDC   =  1.00D-10  THRCS   =  1.00D-10
 THRNRM  =  1.00D-08  THREQ   =  0.00D+00  THRDE   =  1.00D+00  THRREF  =  1.00D-05  SPARFAC =  1.00D+00  THRDLP  =  1.00D-07
 THRDIA  =  1.00D-10  THRDLS  =  1.00D-07  THRGPS  =  0.00D+00  THRKEX  =  0.00D+00  THRDIS  =  2.00D-01  THRVAR  =  1.00D-10
 THRLOC  =  1.00D-06  THRGAP  =  1.00D-06  THRLOCT = -1.00D+00  THRGAPT = -1.00D+00  THRORB  =  1.00D-06  THRMLTP =  0.00D+00
 THRCPQCI=  1.00D-10  KEXTA   =  0.00D+00  THRCOARS=  0.00D+00  SYMTOL  =  1.00D-06  GRADTOL =  1.00D-06  THROVL  =  1.00D-08
 THRORTH =  1.00D-08  GRID    =  1.00D-06  GRIDMAX =  1.00D-03  DTMAX   =  0.00D+00  THROCCDE=  1.00D-01  THROCCDE=  1.00D-01



 THRESHOLDS:

 ZERO    =  1.00D-22  ONEINT  =  1.00D-22  TWOINT  =  1.00D-22  PREFAC  =  1.00D-14  LOCALI  =  1.00D-09  EORDER  =  1.00D-04
 ENERGY  =  1.00D-12  ETEST   =  0.00D+00  EDENS   =  0.00D+00  THRDEDEF=  1.00D-06  GRADIENT=  1.00D-02  STEP    =  1.00D-03
 ORBITAL =  1.00D-05  CIVEC   =  1.00D-05  COEFF   =  1.00D-04  PRINTCI =  5.00D-02  PUNCHCI =  9.90D+01  OPTGRAD =  1.00D-08
 OPTENERG=  1.00D-06  OPTSTEP =  1.00D-08  THRGRAD =  1.00D-10  COMPRESS=  1.00D-11  VARMIN  =  1.00D-07  VARMAX  =  1.00D-03
 THRDOUB =  0.00D+00  THRDIV  =  1.00D-05  THRRED  =  1.00D-07  THRPSP  =  1.00D+00  THRDC   =  1.00D-10  THRCS   =  1.00D-10
 THRNRM  =  1.00D-08  THREQ   =  0.00D+00  THRDE   =  1.00D+00  THRREF  =  1.00D-05  SPARFAC =  1.00D+00  THRDLP  =  1.00D-07
 THRDIA  =  1.00D-10  THRDLS  =  1.00D-07  THRGPS  =  0.00D+00  THRKEX  =  0.00D+00  THRDIS  =  2.00D-01  THRVAR  =  1.00D-10
 THRLOC  =  1.00D-06  THRGAP  =  1.00D-06  THRLOCT = -1.00D+00  THRGAPT = -1.00D+00  THRORB  =  1.00D-06  THRMLTP =  0.00D+00
 THRCPQCI=  1.00D-10  KEXTA   =  0.00D+00  THRCOARS=  0.00D+00  SYMTOL  =  1.00D-06  GRADTOL =  1.00D-06  THROVL  =  1.00D-08
 THRORTH =  1.00D-08  GRID    =  1.00D-06  GRIDMAX =  1.00D-03  DTMAX   =  0.00D+00  THROCCDE=  1.00D-01  THROCCDE=  1.00D-01



 Input parameters for SORTINT:

 COMPRESS =    0.000000
 C_FINAL  =    1.000000
 DEBUG    =   -1.000000
 C_SORT1  =    0.000000
 C_SEWARD =    0.000000
 THRESH   =    0.000000
 IO       =  molpro                                                          
 SPRI     =    0.000000
 SETTING GEOMTYP        =    XYZ
 ZUNIT=BOHR
 

 Variable memory set to  995000000 words,  buffer space   230000 words

 SETTING BASIS          =    USERDEF


 Recomputing integrals since basis changed


 Using spherical harmonics

 Library entry H      S aug-cc-pVTZ          selected for orbital group  3
 Library entry H      P aug-cc-pVTZ          selected for orbital group  3
 Library entry H      D aug-cc-pVTZ          selected for orbital group  3


 PROGRAM * SEWARD (Integral evaluation for generally contracted gaussian basis sets)     Author: Roland Lindh, 1990

 Geometry written to block  1 of record 700


 Point group  C2v 



 ATOMIC COORDINATES

 NR  ATOM    CHARGE       X              Y              Z

   1  N       7.00    0.000000000    0.000000000    1.105804131
   2  C       6.00    0.000000000    0.000000000   -1.054148276
   3  H       1.00    0.000000000    0.000000000   -3.048725837

 Bond lengths in Bohr (Angstrom)

 1-2  2.159952407  2-3  1.994577561
     ( 1.142997591)     ( 1.055484991)

 Bond angles

  1-2-3  180.00000000

 NUCLEAR CHARGE:                   14
 NUMBER OF PRIMITIVE AOS:         203
 NUMBER OF SYMMETRY AOS:          173
 NUMBER OF CONTRACTIONS:          171   (  75A1  +  39B1  +  39B2  +  18A2  )
 NUMBER OF CORE ORBITALS:           2   (   2A1  +   0B1  +   0B2  +   0A2  )
 NUMBER OF VALENCE ORBITALS:        9   (   5A1  +   2B1  +   2B2  +   0A2  )


 NUCLEAR REPULSION ENERGY   24.13793647

 EXTRA SYMMETRY OF AOS IN SYMMETRY 1:   1 1 1 1 1 1 1 1 1 1   1 1 1 1 1 1 1 2 1 2   1 2 1 2 1 2 1 2 1 2   1 2 1 1 1 1 1 1 1 1
                                        1 1 1 1 1 1 1 1 1 2   1 2 1 2 1 2 1 2 1 2   1 2 1 2 1 1 1 1 1 1   1 1 2 1 2
 EXTRA SYMMETRY OF AOS IN SYMMETRY 2:   1 1 1 1 1 1 1 1 1 1   1 1 2 1 2 1 2 1 1 1   1 1 1 1 1 1 1 1 1 2   1 2 1 2 1 1 1 1 1
 EXTRA SYMMETRY OF AOS IN SYMMETRY 3:   1 1 1 1 1 1 1 1 1 1   1 1 2 1 2 1 2 1 1 1   1 1 1 1 1 1 1 1 1 2   1 2 1 2 1 1 1 1 1

 Eigenvalues of metric

         1 0.232E-03 0.494E-03 0.872E-03 0.135E-02 0.314E-02 0.728E-02 0.975E-02 0.130E-01
         2 0.533E-02 0.153E-01 0.208E-01 0.334E-01 0.956E-01 0.111E+00 0.124E+00 0.187E+00
         3 0.533E-02 0.153E-01 0.208E-01 0.334E-01 0.956E-01 0.111E+00 0.124E+00 0.187E+00
         4 0.124E+00 0.139E+00 0.191E+00 0.254E+00 0.313E+00 0.379E+00 0.483E+00 0.593E+00


 Contracted 2-electron integrals neglected if value below      1.0D-22

       21812399. INTEGRALS WRITTEN OUT IN    5327 BLOCKS ON RECORD 1290 OF FILE 1


 NUMBER OF SORTED TWO-ELECTRON INTEGRALS:   28272141.     BUFFER LENGTH:  32768
 NUMBER OF SEGMENTS:   2  SEGMENT LENGTH:   15998211      RECORD LENGTH: 524288

 Memory used in sort:      16.56 MW

 SORT1 READ    21812399. AND WROTE    22211877. INTEGRALS IN     65 RECORDS. CPU TIME:     0.55 SEC, REAL TIME:     0.74 SEC
 SORT2 READ    22211877. AND WROTE    28272141. INTEGRALS IN      2 RECORDS. CPU TIME:     0.45 SEC, REAL TIME:     0.59 SEC

 FILE SIZES:   FILE 1:   369.7 MBYTE,  FILE 4:   272.7 MBYTE,   TOTAL:    642.4 MBYTE

 OPERATOR DM      FOR CENTER  0  COORDINATES:    0.000000    0.000000    0.000000


 **********************************************************************************************************************************
 DATASETS  * FILE   NREC   LENGTH (MB)   RECORD NAMES
              1      19      213.85       500      610      700      900      950      970     1000      129      960     1100   
                                          VAR    BASINP    GEOM    SYMINP    ZMAT    AOBASIS   BASIS     P2S    ABASIS      S 
                                         1400     1410     1200     1210     1080     1600     1650     1300     1700   
                                           T        V       H0       H01     AOSYM     SMH    MOLCAS    ERIS     OPER   

 PROGRAMS   *        TOTAL       INT
 CPU TIMES  *         3.82      3.71
 REAL TIME  *         4.92 SEC
 DISK USED  *       642.73 MB      
 **********************************************************************************************************************************


 PROGRAM * RHF-SCF (CLOSED SHELL)       Authors: W. Meyer, H.-J. Werner


 NUMBER OF ELECTRONS:       7+    7-
 CONVERGENCE THRESHOLDS:    1.00E-10 (Density)    1.00E-13 (Energy)
 MAX. NUMBER OF ITERATIONS:      500
 INTERPOLATION TYPE:            DIIS
 INTERPOLATION STEPS:              2 (START)      1 (STEP)
 LEVEL SHIFTS:                  0.00 (CLOSED)  0.00 (OPEN) 



 Orbital guess generated from atomic densities. Full valence occupancy:    7   2   2   0

 Molecular orbital dump at record        2100.2

 Initial occupancy:   5   1   1   0

 ITERATION    DDIFF          GRAD             ENERGY        2-EL.EN.            DIPOLE MOMENTS         DIIS   ORB.
    1      0.000D+00      0.000D+00       -92.77212980    112.176436    0.00000    0.00000   -2.00459    0    start
    2      0.000D+00      0.913D-02       -92.78507479    110.418249    0.00000    0.00000   -0.95631    1    diag
    3      0.333D-01      0.776D-02       -92.80619748    111.347165    0.00000    0.00000   -1.44268    2    diag
    4      0.114D-01      0.562D-03       -92.80644316    111.301173    0.00000    0.00000   -1.43547    3    diag
    5      0.186D-02      0.122D-03       -92.80645718    111.307382    0.00000    0.00000   -1.43428    4    diag
    6      0.495D-03      0.313D-04       -92.80645785    111.303739    0.00000    0.00000   -1.43460    5    diag
    7      0.365D-04      0.109D-04       -92.80645792    111.304740    0.00000    0.00000   -1.43464    6    diag
    8      0.146D-04      0.219D-05       -92.80645793    111.304717    0.00000    0.00000   -1.43463    7    diag
    9      0.737D-05      0.244D-06       -92.80645793    111.304724    0.00000    0.00000   -1.43462    8    diag
   10      0.124D-05      0.281D-07       -92.80645793    111.304725    0.00000    0.00000   -1.43462    9    orth
   11      0.126D-06      0.363D-08       -92.80645793    111.304725    0.00000    0.00000   -1.43462    9    diag
   12      0.121D-07      0.376D-09       -92.80645793    111.304725    0.00000    0.00000   -1.43462    9    diag
   13      0.116D-08      0.480D-10       -92.80645793    111.304725    0.00000    0.00000   -1.43462    9    diag
   14      0.166D-09      0.690D-11       -92.80645793    111.304725    0.00000    0.00000   -1.43462    9    diag
   15      0.269D-10      0.144D-11       -92.80645793    111.304725    0.00000    0.00000   -1.43462    9    diag
   16      0.600D-11      0.399D-12       -92.80645793    111.304725    0.00000    0.00000   -1.43462    0    orth

 Final occupancy:   5   1   1   0

 !RHF STATE 1.1 Energy                -92.806457927263
 Nuclear energy                        24.13793647
 One-electron energy                 -172.59675712
 Two-electron energy                   55.65236273
 Virial quotient                       -1.00161274
 !RHF STATE 1.1 Dipole moment           0.00000000     0.00000000    -1.43462287
 Dipole moment /Debye                   0.00000000     0.00000000    -3.64620878

 Orbital energies:

         1.1          2.1          3.1          4.1          5.1          6.1          7.1
    -15.587775   -11.395512    -1.258945    -0.838596    -0.577855     0.032766     0.153715

         1.2          2.2          3.2
     -0.493666     0.135529     0.308776

         1.3          2.3          3.3
     -0.493666     0.135529     0.308776

         1.4          2.4
      0.682747     0.964847

 HOMO      1.2    -0.493666 =     -13.4333eV
 LUMO      6.1     0.032766 =       0.8916eV
 LUMO-HOMO         0.526433 =      14.3250eV


 **********************************************************************************************************************************
 DATASETS  * FILE   NREC   LENGTH (MB)   RECORD NAMES
              1      19      213.85       500      610      700      900      950      970     1000      129      960     1100   
                                          VAR    BASINP    GEOM    SYMINP    ZMAT    AOBASIS   BASIS     P2S    ABASIS      S 
                                         1400     1410     1200     1210     1080     1600     1650     1300     1700   
                                           T        V       H0       H01     AOSYM     SMH    MOLCAS    ERIS     OPER   

              2       4        2.98       700     1000      520     2100   
                                         GEOM     BASIS   MCVARS     RHF  

 PROGRAMS   *        TOTAL        HF       INT
 CPU TIMES  *         5.81      1.99      3.71
 REAL TIME  *         7.29 SEC
 DISK USED  *       642.73 MB      
 **********************************************************************************************************************************


 PROGRAM * CCSD (Closed-shell coupled cluster)     Authors: C. Hampel, H.-J. Werner, 1991, M. Deegan, P.J. Knowles, 1992


 Convergence thresholds:  THRVAR = 1.00D-08  THRDEN = 1.00D-12

 CCSD(T)     terms to be evaluated (factor= 1.000)


 Number of closed-shell orbitals:   7 (   5   1   1   0 )
 Number of external orbitals:     164 (  70  38  38  18 )

 Molecular orbitals read from record     2100.2  Type=RHF/CANONICAL (state 1.1)

 Number of N-1 electron functions:               7
 Number of N-2 electron functions:              28
 Number of singly external CSFs:               426
 Number of doubly external CSFs:            182374
 Total number of CSFs:                      182801

 Length of J-op  integral file:               0.00 MB
 Length of K-op  integral file:               0.65 MB
 Length of 3-ext integral record:             0.00 MB

 Memory could be reduced to 11.98 Mwords without degradation in triples

 Integral transformation finished. Total CPU:   0.38 sec, npass=  1  Memory used:   1.63 MW

 Reference energy:                    -92.80645793

 MP2 singlet pair energy:              -0.30508076
 MP2 triplet pair energy:              -0.13873560
 MP2 correlation energy:               -0.44381636
 MP2 total energy:                    -93.25027428

 SCS-MP2 correlation energy:           -0.45242128   (PS=  1.200000  PT=  0.333333)
 SCS-MP2 total energy:                -93.25887921

 ITER.      SQ.NORM     CORR.ENERGY   TOTAL ENERGY   ENERGY CHANGE        DEN1      VAR(S)    VAR(P)  DIIS     TIME  TIME/IT
   1      1.11042511    -0.45074456   -93.25720249    -0.00692821     0.00541222  0.24D-02  0.25D-02  1  1     0.77     0.43
   2      1.11895368    -0.45103172   -93.25748964    -0.00028715    -0.00992839  0.53D-04  0.34D-03  2  2     1.16     0.44
   3      1.12246626    -0.45119323   -93.25765116    -0.00016152    -0.00173688  0.17D-04  0.47D-04  3  3     1.57     0.45
   4      1.12467598    -0.45120547   -93.25766339    -0.00001223    -0.00099076  0.90D-06  0.46D-05  4  4     1.99     0.45
   5      1.12519074    -0.45120968   -93.25766761    -0.00000422    -0.00014553  0.16D-06  0.37D-06  5  5     2.38     0.45
   6      1.12526423    -0.45121276   -93.25767069    -0.00000308    -0.00000364  0.79D-08  0.32D-07  6  6     2.79     0.45
   7      1.12527755    -0.45121347   -93.25767140    -0.00000071    -0.00000346  0.17D-08  0.26D-08  6  1     3.20     0.45
   8      1.12528022    -0.45121360   -93.25767153    -0.00000013    -0.00000112  0.22D-09  0.16D-09  6  2     3.62     0.45
   9      1.12528019    -0.45121367   -93.25767159    -0.00000006     0.00000017  0.24D-10  0.19D-10  6  3     4.03     0.45
  10      1.12528036    -0.45121368   -93.25767161    -0.00000002    -0.00000001  0.49D-11  0.21D-11  6  4     4.45     0.46
  11      1.12528036    -0.45121369   -93.25767162    -0.00000001     0.00000002  0.58D-12  0.46D-12  6  5     4.87     0.46
  12      1.12528032    -0.45121369   -93.25767162     0.00000000     0.00000003  0.35D-13  0.85D-13  6  6     5.27     0.46
  13      1.12528029    -0.45121369   -93.25767162    -0.00000000     0.00000001  0.17D-14  0.12D-13  6  1     5.69     0.46
  14      1.12528027    -0.45121369   -93.25767162    -0.00000000     0.00000001  0.44D-15  0.18D-14  6  2     6.09     0.45
  15      1.12528027    -0.45121369   -93.25767162    -0.00000000     0.00000000  0.31D-16  0.12D-15  6  4     6.51     0.45
  16      1.12528026    -0.45121369   -93.25767162    -0.00000000     0.00000000  0.64D-17  0.74D-17  6  3     6.91     0.45
  17      1.12528026    -0.45121369   -93.25767162    -0.00000000     0.00000000  0.12D-17  0.99D-18  6  5     7.32     0.45
  18      1.12528026    -0.45121369   -93.25767162    -0.00000000     0.00000000  0.11D-18  0.85D-19  6  6     7.73     0.45
  19      1.12528026    -0.45121369   -93.25767162    -0.00000000     0.00000000  0.27D-19  0.88D-20  6  1     8.12     0.45
  20      1.12528026    -0.45121369   -93.25767162    -0.00000000     0.00000000  0.31D-20  0.29D-20  6  2     8.51     0.45
  21      1.12528026    -0.45121369   -93.25767162    -0.00000000    -0.00000000  0.40D-21  0.54D-21  6  4     8.91     0.45
  22      1.12528026    -0.45121369   -93.25767162     0.00000000    -0.00000000  0.17D-22  0.74D-22  6  3     9.33     0.45

 Norm of t1 vector:      0.06229022      S-energy:    -0.00000000      T1 diagnostic:  0.01177175
                                                                       D1 diagnostic:  0.02753565

 Doubles amplitudes (print threshold =  0.500E-01):

         I         J         SYM. A    SYM. B    A         B      T(IJ, AB)

         6         6         2         2         1         1     -0.05617054
         7         7         3         3         1         1     -0.05617054


 Total CPU time for triples:      5.51 sec


 RESULTS
 =======

  Reference energy                    -92.806457927263

  Correlated core orbitals:             1.1       2.1
  Orbital energies:                   -15.5878  -11.3955
 
  CCSD core-core energy                -0.079683872944
  CCSD core-valence energy             -0.029459978272
  CCSD valence correlation energy      -0.342069838100
 
  CCSD singlet pair energy             -0.330072699319
  CCSD triplet pair energy             -0.121140989997
  CCSD correlation energy              -0.451213689316

  Triples (T) contribution             -0.017667389080
  Total correlation energy             -0.468881078397

  CCSD total energy                   -93.257671616580
  CCSD[T] energy                      -93.276075144229
  CCSD-T energy                       -93.274988306216
 !CCSD(T) total energy                -93.275339005660

 Timing summary (sec):

 STEP                 CPU(USER)    SYS     CPU(TOT)    WALL
 Transformation          0.38      0.07      0.45      0.47
 CCSD iterations         8.95      0.98      9.93      9.94
 Triples                 5.51      0.21      5.72      5.72

 Program statistics:

 Available memory in ccsd:               994999704
 Min. memory needed in ccsd:                607983
 Max. memory used in ccsd:                  763562
 Max. memory used in cckext:                768329 (22 integral passes)



 **********************************************************************************************************************************
 DATASETS  * FILE   NREC   LENGTH (MB)   RECORD NAMES
              1      20      250.00       500      610      700      900      950      970     1000      129      960     1100   
                                          VAR    BASINP    GEOM    SYMINP    ZMAT    AOBASIS   BASIS     P2S    ABASIS      S 
                                         1400     1410     1200     1210     1080     1600     1650     1300     1700     1380   
                                           T        V       H0       H01     AOSYM     SMH    MOLCAS    ERIS     OPER     JKOP   

              2       4        2.98       700     1000      520     2100   
                                         GEOM     BASIS   MCVARS     RHF  

 PROGRAMS   *        TOTAL   CCSD(T)        HF       INT
 CPU TIMES  *        20.69     14.88      1.99      3.71
 REAL TIME  *        23.47 SEC
 DISK USED  *       642.73 MB      
 **********************************************************************************************************************************

 CCSD(T)/USERDEF energy=    -93.275339005660

        CCSD(T)         HF-SCF  
    -93.27533901    -92.80645793
 **********************************************************************************************************************************
 Molpro calculation terminated
 Variable memory released
