
 Primary working directories    : /tmp/r2666/232757.maple
 Secondary working directories  : /tmp/r2666/232757.maple
 Wavefunction directory         : /ddn/home4/r2666/wfu/
 Main file repository           : /tmp/r2666/232757.maple/

 SHA1      : d5ffa45e93fdbca01ffc919aa182cfdae0147319
 NAME      : 2015.1.35
 ARCHNAME  : linux/x86_64
 FC        : /opt/intel/composer_xe_2015.1.133/bin/intel64/ifort
 BLASLIB   : -Wl,-_start-group /opt/intel/mkl/lib/intel64/libmkl_intel_ilp64.a /opt/intel/mkl/lib/intel64/libmkl_intel_thread.a /opt/intel/mkl/lib/intel64/libmkl_core.a -Wl,-_end-group
 id        : olemiss

 Nodes     nprocs
 cn078        1

 Using customized tuning parameters: mindgm=1; mindgv=20; mindgc=4; mindgr=1; noblas=0; minvec=7
 default implementation of scratch files=df  

 ***,hcn CCSD(T)/TZ-F12 QFF
 memory, 995, m;
 gthresh,energy=1.d-12,zero=1.d-22,oneint=1.d-22,twoint=1.d-22;
 gthresh,optgrad=1.d-8,optstep=1.d-8;
 nocompress;
 geomtyp=xyz
 bohr
 geometry={
 3
         36        36
 N        0.0000000000        0.0000000000        1.1215518477
 C        0.0000000000        0.0000000000       -1.0667464493
 H        0.0000000000        0.0000000000       -3.0518753804
 }
 
 basis={
 default=aug-cc-pvtz
 s,C,8236.0,1235.0,280.8, 79.27,25.59, 8.997,3.319
 s,C,0.9059,0.3643,0.1285000
 p,C,56.0,18.71,4.133,0.2827,0.3827,0.1209
 d,C,30.0,10.0,3.3,1.097,0.318
 f,C,7.0,2.3,0.7610
 s,N,11420.0,1712.0,389.3,110.0,35.57,12.54,4.644
 s,N,1.293,0.5118,0.1787
 p,N,79.89,26.63,5.948,1.742,0.555,0.1725
 d,N,45.0,15.0,5.0,1.654,0.469
 f,N,9.9,3.3,1.093
 s,O,15330.0,2299.0,522.4,147.3,47.55,16.76,6.207
 s,O,1.752,0.6882,0.2384
 p,O,103.5,34.46,7.749,2.28,0.7156,0.214
 d,O,63.0,21.0,7.0,2.314,0.645
 f,O,12.9,4.3,1.428
 s,mg,164900.0,24710.0,5628.0,1596.0,521.0;
 s,mg,188.0,73.01,29.90,12.54,4.306,1.826;
 s,mg,0.7417,0.0761,0.145,0.033,0.0129;
 p,mg,950.70,316.90,74.86,23.72,8.669,3.363;
 p,mg,1.310,0.4911,0.2364,0.08733,0.03237,0.00745;
 d,mg,1.601,0.686,0.126,0.294,0.0468;
 f,mg,1.372,0.588,0.094,0.252;
 }
   {hf,maxit=500;accu,20;}
 {ccsd(t),nocheck,maxit=250;orbital,IGNORE_ERROR;core}

 Variables initialized (889), CPU time= 0.00 sec
 Commands  initialized (702), CPU time= 0.01 sec, 572 directives.
 Default parameters read. Elapsed time= 0.04 sec

 Checking input...
 Passed
1


                                         ***  PROGRAM SYSTEM MOLPRO  ***
                                       Copyright, TTI GmbH Stuttgart, 2015
                                    Version 2015.1 linked Jul  9 2018 13:16:40


 **********************************************************************************************************************************
 LABEL *   hcn CCSD(T)/TZ-F12 QFF                                                        
  64 bit serial version                                                                  DATE: 06-Feb-20          TIME: 09:55:23  
 **********************************************************************************************************************************

 SHA1:             d5ffa45e93fdbca01ffc919aa182cfdae0147319
 **********************************************************************************************************************************

 THRESHOLDS:

 ZERO    =  1.00D-22  ONEINT  =  1.00D-22  TWOINT  =  1.00D-22  PREFAC  =  1.00D-14  LOCALI  =  1.00D-09  EORDER  =  1.00D-04
 ENERGY  =  1.00D-12  ETEST   =  0.00D+00  EDENS   =  0.00D+00  THRDEDEF=  1.00D-06  GRADIENT=  1.00D-02  STEP    =  1.00D-03
 ORBITAL =  1.00D-05  CIVEC   =  1.00D-05  COEFF   =  1.00D-04  PRINTCI =  5.00D-02  PUNCHCI =  9.90D+01  OPTGRAD =  3.00D-04
 OPTENERG=  1.00D-06  OPTSTEP =  3.00D-04  THRGRAD =  1.00D-10  COMPRESS=  1.00D-11  VARMIN  =  1.00D-07  VARMAX  =  1.00D-03
 THRDOUB =  0.00D+00  THRDIV  =  1.00D-05  THRRED  =  1.00D-07  THRPSP  =  1.00D+00  THRDC   =  1.00D-10  THRCS   =  1.00D-10
 THRNRM  =  1.00D-08  THREQ   =  0.00D+00  THRDE   =  1.00D+00  THRREF  =  1.00D-05  SPARFAC =  1.00D+00  THRDLP  =  1.00D-07
 THRDIA  =  1.00D-10  THRDLS  =  1.00D-07  THRGPS  =  0.00D+00  THRKEX  =  0.00D+00  THRDIS  =  2.00D-01  THRVAR  =  1.00D-10
 THRLOC  =  1.00D-06  THRGAP  =  1.00D-06  THRLOCT = -1.00D+00  THRGAPT = -1.00D+00  THRORB  =  1.00D-06  THRMLTP =  0.00D+00
 THRCPQCI=  1.00D-10  KEXTA   =  0.00D+00  THRCOARS=  0.00D+00  SYMTOL  =  1.00D-06  GRADTOL =  1.00D-06  THROVL  =  1.00D-08
 THRORTH =  1.00D-08  GRID    =  1.00D-06  GRIDMAX =  1.00D-03  DTMAX   =  0.00D+00  THROCCDE=  1.00D-01  THROCCDE=  1.00D-01



 THRESHOLDS:

 ZERO    =  1.00D-22  ONEINT  =  1.00D-22  TWOINT  =  1.00D-22  PREFAC  =  1.00D-14  LOCALI  =  1.00D-09  EORDER  =  1.00D-04
 ENERGY  =  1.00D-12  ETEST   =  0.00D+00  EDENS   =  0.00D+00  THRDEDEF=  1.00D-06  GRADIENT=  1.00D-02  STEP    =  1.00D-03
 ORBITAL =  1.00D-05  CIVEC   =  1.00D-05  COEFF   =  1.00D-04  PRINTCI =  5.00D-02  PUNCHCI =  9.90D+01  OPTGRAD =  1.00D-08
 OPTENERG=  1.00D-06  OPTSTEP =  1.00D-08  THRGRAD =  1.00D-10  COMPRESS=  1.00D-11  VARMIN  =  1.00D-07  VARMAX  =  1.00D-03
 THRDOUB =  0.00D+00  THRDIV  =  1.00D-05  THRRED  =  1.00D-07  THRPSP  =  1.00D+00  THRDC   =  1.00D-10  THRCS   =  1.00D-10
 THRNRM  =  1.00D-08  THREQ   =  0.00D+00  THRDE   =  1.00D+00  THRREF  =  1.00D-05  SPARFAC =  1.00D+00  THRDLP  =  1.00D-07
 THRDIA  =  1.00D-10  THRDLS  =  1.00D-07  THRGPS  =  0.00D+00  THRKEX  =  0.00D+00  THRDIS  =  2.00D-01  THRVAR  =  1.00D-10
 THRLOC  =  1.00D-06  THRGAP  =  1.00D-06  THRLOCT = -1.00D+00  THRGAPT = -1.00D+00  THRORB  =  1.00D-06  THRMLTP =  0.00D+00
 THRCPQCI=  1.00D-10  KEXTA   =  0.00D+00  THRCOARS=  0.00D+00  SYMTOL  =  1.00D-06  GRADTOL =  1.00D-06  THROVL  =  1.00D-08
 THRORTH =  1.00D-08  GRID    =  1.00D-06  GRIDMAX =  1.00D-03  DTMAX   =  0.00D+00  THROCCDE=  1.00D-01  THROCCDE=  1.00D-01



 Input parameters for SORTINT:

 COMPRESS =    0.000000
 C_FINAL  =    1.000000
 DEBUG    =   -1.000000
 C_SORT1  =    0.000000
 C_SEWARD =    0.000000
 THRESH   =    0.000000
 IO       =  molpro                                                          
 SPRI     =    0.000000
 SETTING GEOMTYP        =    XYZ
 ZUNIT=BOHR
 

 Variable memory set to  995000000 words,  buffer space   230000 words

 SETTING BASIS          =    USERDEF


 Recomputing integrals since basis changed


 Using spherical harmonics

 Library entry H      S aug-cc-pVTZ          selected for orbital group  3
 Library entry H      P aug-cc-pVTZ          selected for orbital group  3
 Library entry H      D aug-cc-pVTZ          selected for orbital group  3


 PROGRAM * SEWARD (Integral evaluation for generally contracted gaussian basis sets)     Author: Roland Lindh, 1990

 Geometry written to block  1 of record 700


 Point group  C2v 



 ATOMIC COORDINATES

 NR  ATOM    CHARGE       X              Y              Z

   1  N       7.00    0.000000000    0.000000000    1.121551848
   2  C       6.00    0.000000000    0.000000000   -1.066746449
   3  H       1.00    0.000000000    0.000000000   -3.051875380

 Bond lengths in Bohr (Angstrom)

 1-2  2.188298297  2-3  1.985128931
     ( 1.157997589)     ( 1.050484991)

 Bond angles

  1-2-3  179.99999829

 NUCLEAR CHARGE:                   14
 NUMBER OF PRIMITIVE AOS:         203
 NUMBER OF SYMMETRY AOS:          173
 NUMBER OF CONTRACTIONS:          171   (  75A1  +  39B1  +  39B2  +  18A2  )
 NUMBER OF CORE ORBITALS:           2   (   2A1  +   0B1  +   0B2  +   0A2  )
 NUMBER OF VALENCE ORBITALS:        9   (   5A1  +   2B1  +   2B2  +   0A2  )


 NUCLEAR REPULSION ENERGY   23.89274805

 EXTRA SYMMETRY OF AOS IN SYMMETRY 1:   1 1 1 1 1 1 1 1 1 1   1 1 1 1 1 1 1 2 1 2   1 2 1 2 1 2 1 2 1 2   1 2 1 1 1 1 1 1 1 1
                                        1 1 1 1 1 1 1 1 1 2   1 2 1 2 1 2 1 2 1 2   1 2 1 2 1 1 1 1 1 1   1 1 2 1 2
 EXTRA SYMMETRY OF AOS IN SYMMETRY 2:   1 1 1 1 1 1 1 1 1 1   1 1 2 1 2 1 2 1 1 1   1 1 1 1 1 1 1 1 1 2   1 2 1 2 1 1 1 1 1
 EXTRA SYMMETRY OF AOS IN SYMMETRY 3:   1 1 1 1 1 1 1 1 1 1   1 1 2 1 2 1 2 1 1 1   1 1 1 1 1 1 1 1 1 2   1 2 1 2 1 1 1 1 1

 Eigenvalues of metric

         1 0.231E-03 0.529E-03 0.883E-03 0.135E-02 0.317E-02 0.726E-02 0.971E-02 0.131E-01
         2 0.541E-02 0.155E-01 0.213E-01 0.338E-01 0.954E-01 0.112E+00 0.125E+00 0.188E+00
         3 0.541E-02 0.155E-01 0.213E-01 0.338E-01 0.954E-01 0.112E+00 0.125E+00 0.188E+00
         4 0.124E+00 0.140E+00 0.195E+00 0.254E+00 0.314E+00 0.379E+00 0.484E+00 0.597E+00


 Contracted 2-electron integrals neglected if value below      1.0D-22

       21713195. INTEGRALS WRITTEN OUT IN    5303 BLOCKS ON RECORD 1290 OF FILE 1


 NUMBER OF SORTED TWO-ELECTRON INTEGRALS:   28272141.     BUFFER LENGTH:  32768
 NUMBER OF SEGMENTS:   2  SEGMENT LENGTH:   15998211      RECORD LENGTH: 524288

 Memory used in sort:      16.56 MW

 SORT1 READ    21713195. AND WROTE    22111099. INTEGRALS IN     65 RECORDS. CPU TIME:     0.52 SEC, REAL TIME:     0.64 SEC
 SORT2 READ    22111099. AND WROTE    28272141. INTEGRALS IN      2 RECORDS. CPU TIME:     0.37 SEC, REAL TIME:     0.50 SEC

 FILE SIZES:   FILE 1:   368.2 MBYTE,  FILE 4:   272.7 MBYTE,   TOTAL:    640.8 MBYTE

 OPERATOR DM      FOR CENTER  0  COORDINATES:    0.000000    0.000000    0.000000


 **********************************************************************************************************************************
 DATASETS  * FILE   NREC   LENGTH (MB)   RECORD NAMES
              1      19      213.32       500      610      700      900      950      970     1000      129      960     1100   
                                          VAR    BASINP    GEOM    SYMINP    ZMAT    AOBASIS   BASIS     P2S    ABASIS      S 
                                         1400     1410     1200     1210     1080     1600     1650     1300     1700   
                                           T        V       H0       H01     AOSYM     SMH    MOLCAS    ERIS     OPER   

 PROGRAMS   *        TOTAL       INT
 CPU TIMES  *         3.24      3.16
 REAL TIME  *         4.18 SEC
 DISK USED  *       641.16 MB      
 **********************************************************************************************************************************


 PROGRAM * RHF-SCF (CLOSED SHELL)       Authors: W. Meyer, H.-J. Werner


 NUMBER OF ELECTRONS:       7+    7-
 CONVERGENCE THRESHOLDS:    1.00E-10 (Density)    1.00E-13 (Energy)
 MAX. NUMBER OF ITERATIONS:      500
 INTERPOLATION TYPE:            DIIS
 INTERPOLATION STEPS:              2 (START)      1 (STEP)
 LEVEL SHIFTS:                  0.00 (CLOSED)  0.00 (OPEN) 



 Orbital guess generated from atomic densities. Full valence occupancy:    7   2   2   0

 Molecular orbital dump at record        2100.2

 Initial occupancy:   5   1   1   0

 ITERATION    DDIFF          GRAD             ENERGY        2-EL.EN.            DIPOLE MOMENTS         DIIS   ORB.
    1      0.000D+00      0.000D+00       -92.77113795    111.606400    0.00000    0.00000   -2.01040    0    start
    2      0.000D+00      0.901D-02       -92.78307627    109.945347    0.00000    0.00000   -0.93669    1    diag
    3      0.339D-01      0.783D-02       -92.80480995    110.861384    0.00000    0.00000   -1.44211    2    diag
    4      0.117D-01      0.574D-03       -92.80506455    110.808528    0.00000    0.00000   -1.43499    3    diag
    5      0.190D-02      0.128D-03       -92.80507909    110.817472    0.00000    0.00000   -1.43366    4    diag
    6      0.519D-03      0.332D-04       -92.80507991    110.813086    0.00000    0.00000   -1.43389    5    diag
    7      0.441D-04      0.118D-04       -92.80508000    110.814022    0.00000    0.00000   -1.43396    6    diag
    8      0.160D-04      0.237D-05       -92.80508000    110.814008    0.00000    0.00000   -1.43394    7    diag
    9      0.827D-05      0.261D-06       -92.80508000    110.814016    0.00000    0.00000   -1.43393    8    diag
   10      0.138D-05      0.292D-07       -92.80508000    110.814017    0.00000    0.00000   -1.43393    9    orth
   11      0.137D-06      0.380D-08       -92.80508000    110.814017    0.00000    0.00000   -1.43393    9    diag
   12      0.125D-07      0.393D-09       -92.80508000    110.814017    0.00000    0.00000   -1.43393    9    diag
   13      0.120D-08      0.508D-10       -92.80508000    110.814017    0.00000    0.00000   -1.43393    9    diag
   14      0.171D-09      0.684D-11       -92.80508000    110.814017    0.00000    0.00000   -1.43393    9    diag
   15      0.267D-10      0.142D-11       -92.80508000    110.814017    0.00000    0.00000   -1.43393    9    diag
   16      0.641D-11      0.358D-12       -92.80508000    110.814017    0.00000    0.00000   -1.43393    9    diag
   17      0.866D-12      0.364D-12       -92.80508000    110.814017    0.00000    0.00000   -1.43393    9    diag
   18      0.304D-12      0.360D-12       -92.80508000    110.814017    0.00000    0.00000   -1.43393    0    orth

 Final occupancy:   5   1   1   0

 !RHF STATE 1.1 Energy                -92.805080001816
 Nuclear energy                        23.89274805
 One-electron energy                 -172.10483669
 Two-electron energy                   55.40700863
 Virial quotient                       -1.00242401
 !RHF STATE 1.1 Dipole moment           0.00000000     0.00000000    -1.43393445
 Dipole moment /Debye                   0.00000000     0.00000000    -3.64445913

 Orbital energies:

         1.1          2.1          3.1          4.1          5.1          6.1          7.1
    -15.593138   -11.400537    -1.251690    -0.842526    -0.578814     0.032696     0.153867

         1.2          2.2          3.2
     -0.489352     0.132611     0.305311

         1.3          2.3          3.3
     -0.489352     0.132611     0.305311

         1.4          2.4
      0.682306     0.965192

 HOMO      1.2    -0.489352 =     -13.3159eV
 LUMO      6.1     0.032696 =       0.8897eV
 LUMO-HOMO         0.522048 =      14.2056eV


 **********************************************************************************************************************************
 DATASETS  * FILE   NREC   LENGTH (MB)   RECORD NAMES
              1      19      213.32       500      610      700      900      950      970     1000      129      960     1100   
                                          VAR    BASINP    GEOM    SYMINP    ZMAT    AOBASIS   BASIS     P2S    ABASIS      S 
                                         1400     1410     1200     1210     1080     1600     1650     1300     1700   
                                           T        V       H0       H01     AOSYM     SMH    MOLCAS    ERIS     OPER   

              2       4        2.98       700     1000      520     2100   
                                         GEOM     BASIS   MCVARS     RHF  

 PROGRAMS   *        TOTAL        HF       INT
 CPU TIMES  *         5.15      1.91      3.16
 REAL TIME  *         6.46 SEC
 DISK USED  *       641.16 MB      
 **********************************************************************************************************************************


 PROGRAM * CCSD (Closed-shell coupled cluster)     Authors: C. Hampel, H.-J. Werner, 1991, M. Deegan, P.J. Knowles, 1992


 Convergence thresholds:  THRVAR = 1.00D-08  THRDEN = 1.00D-12

 CCSD(T)     terms to be evaluated (factor= 1.000)


 Number of closed-shell orbitals:   7 (   5   1   1   0 )
 Number of external orbitals:     164 (  70  38  38  18 )

 Molecular orbitals read from record     2100.2  Type=RHF/CANONICAL (state 1.1)

 Number of N-1 electron functions:               7
 Number of N-2 electron functions:              28
 Number of singly external CSFs:               426
 Number of doubly external CSFs:            182374
 Total number of CSFs:                      182801

 Length of J-op  integral file:               0.00 MB
 Length of K-op  integral file:               0.65 MB
 Length of 3-ext integral record:             0.00 MB

 Memory could be reduced to 11.98 Mwords without degradation in triples

 Integral transformation finished. Total CPU:   0.26 sec, npass=  1  Memory used:   1.63 MW

 Reference energy:                    -92.80508000

 MP2 singlet pair energy:              -0.30641322
 MP2 triplet pair energy:              -0.13972948
 MP2 correlation energy:               -0.44614270
 MP2 total energy:                    -93.25122270

 SCS-MP2 correlation energy:           -0.45463865   (PS=  1.200000  PT=  0.333333)
 SCS-MP2 total energy:                -93.25971865

 ITER.      SQ.NORM     CORR.ENERGY   TOTAL ENERGY   ENERGY CHANGE        DEN1      VAR(S)    VAR(P)  DIIS     TIME  TIME/IT
   1      1.11208898    -0.45243220   -93.25751221    -0.00628951     0.00655884  0.26D-02  0.27D-02  1  1     0.59     0.34
   2      1.12095728    -0.45262356   -93.25770356    -0.00019136    -0.01024913  0.57D-04  0.36D-03  2  2     0.92     0.35
   3      1.12463460    -0.45279378   -93.25787378    -0.00017022    -0.00178113  0.18D-04  0.51D-04  3  3     1.24     0.35
   4      1.12699808    -0.45280978   -93.25788979    -0.00001600    -0.00103742  0.92D-06  0.51D-05  4  4     1.58     0.36
   5      1.12756176    -0.45281426   -93.25789426    -0.00000447    -0.00015859  0.17D-06  0.43D-06  5  5     1.89     0.36
   6      1.12764345    -0.45281782   -93.25789782    -0.00000356    -0.00000413  0.76D-08  0.37D-07  6  6     2.20     0.36
   7      1.12765827    -0.45281872   -93.25789872    -0.00000090    -0.00000375  0.16D-08  0.30D-08  6  1     2.52     0.36
   8      1.12766116    -0.45281889   -93.25789889    -0.00000018    -0.00000124  0.18D-09  0.18D-09  6  2     2.86     0.36
   9      1.12766108    -0.45281896   -93.25789897    -0.00000007     0.00000019  0.16D-10  0.18D-10  6  3     3.19     0.36
  10      1.12766124    -0.45281899   -93.25789899    -0.00000002    -0.00000002  0.34D-11  0.16D-11  6  4     3.52     0.36
  11      1.12766123    -0.45281899   -93.25789899    -0.00000001     0.00000002  0.51D-12  0.33D-12  6  5     3.86     0.36
  12      1.12766118    -0.45281899   -93.25789900    -0.00000000     0.00000003  0.44D-13  0.67D-13  6  6     4.20     0.36
  13      1.12766116    -0.45281899   -93.25789900    -0.00000000     0.00000001  0.20D-14  0.93D-14  6  1     4.54     0.36
  14      1.12766114    -0.45281899   -93.25789900    -0.00000000     0.00000001  0.23D-15  0.14D-14  6  2     4.87     0.37
  15      1.12766114    -0.45281899   -93.25789900    -0.00000000     0.00000000  0.19D-16  0.93D-16  6  4     5.20     0.37
  16      1.12766114    -0.45281899   -93.25789900    -0.00000000     0.00000000  0.65D-17  0.64D-17  6  3     5.54     0.37
  17      1.12766113    -0.45281899   -93.25789900    -0.00000000     0.00000000  0.12D-17  0.10D-17  6  5     5.86     0.37
  18      1.12766113    -0.45281899   -93.25789900    -0.00000000     0.00000000  0.11D-18  0.77D-19  6  6     6.16     0.37
  19      1.12766113    -0.45281899   -93.25789900    -0.00000000     0.00000000  0.21D-19  0.67D-20  6  1     6.50     0.37
  20      1.12766113    -0.45281899   -93.25789900    -0.00000000     0.00000000  0.24D-20  0.20D-20  6  2     6.82     0.37
  21      1.12766113    -0.45281899   -93.25789900    -0.00000000     0.00000000  0.40D-21  0.35D-21  6  4     7.15     0.37
  22      1.12766113    -0.45281899   -93.25789900     0.00000000    -0.00000000  0.11D-22  0.53D-22  6  3     7.47     0.37

 Norm of t1 vector:      0.06411770      S-energy:    -0.00000000      T1 diagnostic:  0.01211711
                                                                       D1 diagnostic:  0.02844499

 Doubles amplitudes (print threshold =  0.500E-01):

         I         J         SYM. A    SYM. B    A         B      T(IJ, AB)

         6         6         2         2         1         1     -0.05938357
         7         7         3         3         1         1     -0.05938357


 Total CPU time for triples:      4.00 sec


 RESULTS
 =======

  Reference energy                    -92.805080001816

  Correlated core orbitals:             1.1       2.1
  Orbital energies:                   -15.5931  -11.4005
 
  CCSD core-core energy                -0.079713782990
  CCSD core-valence energy             -0.029267450044
  CCSD valence correlation energy      -0.343837761433
 
  CCSD singlet pair energy             -0.331470741071
  CCSD triplet pair energy             -0.121348253396
  CCSD correlation energy              -0.452818994466

  Triples (T) contribution             -0.018081958162
  Total correlation energy             -0.470900952629

  CCSD total energy                   -93.257898996283
  CCSD[T] energy                      -93.276765278616
  CCSD-T energy                       -93.275608148769
 !CCSD(T) total energy                -93.275980954445

 Timing summary (sec):

 STEP                 CPU(USER)    SYS     CPU(TOT)    WALL
 Transformation          0.26      0.09      0.35      0.39
 CCSD iterations         7.22      0.94      8.16      8.14
 Triples                 4.00      0.19      4.19      4.19

 Program statistics:

 Available memory in ccsd:               994999704
 Min. memory needed in ccsd:                607983
 Max. memory used in ccsd:                  763562
 Max. memory used in cckext:                768329 (22 integral passes)



 **********************************************************************************************************************************
 DATASETS  * FILE   NREC   LENGTH (MB)   RECORD NAMES
              1      20      249.47       500      610      700      900      950      970     1000      129      960     1100   
                                          VAR    BASINP    GEOM    SYMINP    ZMAT    AOBASIS   BASIS     P2S    ABASIS      S 
                                         1400     1410     1200     1210     1080     1600     1650     1300     1700     1380   
                                           T        V       H0       H01     AOSYM     SMH    MOLCAS    ERIS     OPER     JKOP   

              2       4        2.98       700     1000      520     2100   
                                         GEOM     BASIS   MCVARS     RHF  

 PROGRAMS   *        TOTAL   CCSD(T)        HF       INT
 CPU TIMES  *        16.66     11.51      1.91      3.16
 REAL TIME  *        19.24 SEC
 DISK USED  *       641.16 MB      
 **********************************************************************************************************************************

 CCSD(T)/USERDEF energy=    -93.275980954445

        CCSD(T)         HF-SCF  
    -93.27598095    -92.80508000
 **********************************************************************************************************************************
 Molpro calculation terminated
 Variable memory released
