
 Primary working directories    : /tmp/r2666/232769.maple
 Secondary working directories  : /tmp/r2666/232769.maple
 Wavefunction directory         : /ddn/home4/r2666/wfu/
 Main file repository           : /tmp/r2666/232769.maple/

 SHA1      : d5ffa45e93fdbca01ffc919aa182cfdae0147319
 NAME      : 2015.1.35
 ARCHNAME  : linux/x86_64
 FC        : /opt/intel/composer_xe_2015.1.133/bin/intel64/ifort
 BLASLIB   : -Wl,-_start-group /opt/intel/mkl/lib/intel64/libmkl_intel_ilp64.a /opt/intel/mkl/lib/intel64/libmkl_intel_thread.a /opt/intel/mkl/lib/intel64/libmkl_core.a -Wl,-_end-group
 id        : olemiss

 Nodes     nprocs
 cn087        1

 Using customized tuning parameters: mindgm=1; mindgv=20; mindgc=4; mindgr=1; noblas=0; minvec=7
 default implementation of scratch files=df  

 ***,hcn CCSD(T)/TZ-F12 QFF
 memory, 995, m;
 gthresh,energy=1.d-12,zero=1.d-22,oneint=1.d-22,twoint=1.d-22;
 gthresh,optgrad=1.d-8,optstep=1.d-8;
 nocompress;
 geomtyp=xyz
 bohr
 geometry={
 3
         48        48
 N        0.0000000000        0.0000000000        1.1372995643
 C        0.0000000000        0.0000000000       -1.0604473626
 H        0.0000000000        0.0000000000       -3.0739221836
 }
 
 basis={
 default=aug-cc-pvtz
 s,C,8236.0,1235.0,280.8, 79.27,25.59, 8.997,3.319
 s,C,0.9059,0.3643,0.1285000
 p,C,56.0,18.71,4.133,0.2827,0.3827,0.1209
 d,C,30.0,10.0,3.3,1.097,0.318
 f,C,7.0,2.3,0.7610
 s,N,11420.0,1712.0,389.3,110.0,35.57,12.54,4.644
 s,N,1.293,0.5118,0.1787
 p,N,79.89,26.63,5.948,1.742,0.555,0.1725
 d,N,45.0,15.0,5.0,1.654,0.469
 f,N,9.9,3.3,1.093
 s,O,15330.0,2299.0,522.4,147.3,47.55,16.76,6.207
 s,O,1.752,0.6882,0.2384
 p,O,103.5,34.46,7.749,2.28,0.7156,0.214
 d,O,63.0,21.0,7.0,2.314,0.645
 f,O,12.9,4.3,1.428
 s,mg,164900.0,24710.0,5628.0,1596.0,521.0;
 s,mg,188.0,73.01,29.90,12.54,4.306,1.826;
 s,mg,0.7417,0.0761,0.145,0.033,0.0129;
 p,mg,950.70,316.90,74.86,23.72,8.669,3.363;
 p,mg,1.310,0.4911,0.2364,0.08733,0.03237,0.00745;
 d,mg,1.601,0.686,0.126,0.294,0.0468;
 f,mg,1.372,0.588,0.094,0.252;
 }
   {hf,maxit=500;accu,20;}
 {ccsd(t),nocheck,maxit=250;orbital,IGNORE_ERROR;core}

 Variables initialized (889), CPU time= 0.01 sec
 Commands  initialized (702), CPU time= 0.01 sec, 572 directives.
 Default parameters read. Elapsed time= 0.06 sec

 Checking input...
 Passed
1


                                         ***  PROGRAM SYSTEM MOLPRO  ***
                                       Copyright, TTI GmbH Stuttgart, 2015
                                    Version 2015.1 linked Jul  9 2018 13:16:40


 **********************************************************************************************************************************
 LABEL *   hcn CCSD(T)/TZ-F12 QFF                                                        
  64 bit serial version                                                                  DATE: 06-Feb-20          TIME: 09:55:40  
 **********************************************************************************************************************************

 SHA1:             d5ffa45e93fdbca01ffc919aa182cfdae0147319
 **********************************************************************************************************************************

 THRESHOLDS:

 ZERO    =  1.00D-22  ONEINT  =  1.00D-22  TWOINT  =  1.00D-22  PREFAC  =  1.00D-14  LOCALI  =  1.00D-09  EORDER  =  1.00D-04
 ENERGY  =  1.00D-12  ETEST   =  0.00D+00  EDENS   =  0.00D+00  THRDEDEF=  1.00D-06  GRADIENT=  1.00D-02  STEP    =  1.00D-03
 ORBITAL =  1.00D-05  CIVEC   =  1.00D-05  COEFF   =  1.00D-04  PRINTCI =  5.00D-02  PUNCHCI =  9.90D+01  OPTGRAD =  3.00D-04
 OPTENERG=  1.00D-06  OPTSTEP =  3.00D-04  THRGRAD =  1.00D-10  COMPRESS=  1.00D-11  VARMIN  =  1.00D-07  VARMAX  =  1.00D-03
 THRDOUB =  0.00D+00  THRDIV  =  1.00D-05  THRRED  =  1.00D-07  THRPSP  =  1.00D+00  THRDC   =  1.00D-10  THRCS   =  1.00D-10
 THRNRM  =  1.00D-08  THREQ   =  0.00D+00  THRDE   =  1.00D+00  THRREF  =  1.00D-05  SPARFAC =  1.00D+00  THRDLP  =  1.00D-07
 THRDIA  =  1.00D-10  THRDLS  =  1.00D-07  THRGPS  =  0.00D+00  THRKEX  =  0.00D+00  THRDIS  =  2.00D-01  THRVAR  =  1.00D-10
 THRLOC  =  1.00D-06  THRGAP  =  1.00D-06  THRLOCT = -1.00D+00  THRGAPT = -1.00D+00  THRORB  =  1.00D-06  THRMLTP =  0.00D+00
 THRCPQCI=  1.00D-10  KEXTA   =  0.00D+00  THRCOARS=  0.00D+00  SYMTOL  =  1.00D-06  GRADTOL =  1.00D-06  THROVL  =  1.00D-08
 THRORTH =  1.00D-08  GRID    =  1.00D-06  GRIDMAX =  1.00D-03  DTMAX   =  0.00D+00  THROCCDE=  1.00D-01  THROCCDE=  1.00D-01



 THRESHOLDS:

 ZERO    =  1.00D-22  ONEINT  =  1.00D-22  TWOINT  =  1.00D-22  PREFAC  =  1.00D-14  LOCALI  =  1.00D-09  EORDER  =  1.00D-04
 ENERGY  =  1.00D-12  ETEST   =  0.00D+00  EDENS   =  0.00D+00  THRDEDEF=  1.00D-06  GRADIENT=  1.00D-02  STEP    =  1.00D-03
 ORBITAL =  1.00D-05  CIVEC   =  1.00D-05  COEFF   =  1.00D-04  PRINTCI =  5.00D-02  PUNCHCI =  9.90D+01  OPTGRAD =  1.00D-08
 OPTENERG=  1.00D-06  OPTSTEP =  1.00D-08  THRGRAD =  1.00D-10  COMPRESS=  1.00D-11  VARMIN  =  1.00D-07  VARMAX  =  1.00D-03
 THRDOUB =  0.00D+00  THRDIV  =  1.00D-05  THRRED  =  1.00D-07  THRPSP  =  1.00D+00  THRDC   =  1.00D-10  THRCS   =  1.00D-10
 THRNRM  =  1.00D-08  THREQ   =  0.00D+00  THRDE   =  1.00D+00  THRREF  =  1.00D-05  SPARFAC =  1.00D+00  THRDLP  =  1.00D-07
 THRDIA  =  1.00D-10  THRDLS  =  1.00D-07  THRGPS  =  0.00D+00  THRKEX  =  0.00D+00  THRDIS  =  2.00D-01  THRVAR  =  1.00D-10
 THRLOC  =  1.00D-06  THRGAP  =  1.00D-06  THRLOCT = -1.00D+00  THRGAPT = -1.00D+00  THRORB  =  1.00D-06  THRMLTP =  0.00D+00
 THRCPQCI=  1.00D-10  KEXTA   =  0.00D+00  THRCOARS=  0.00D+00  SYMTOL  =  1.00D-06  GRADTOL =  1.00D-06  THROVL  =  1.00D-08
 THRORTH =  1.00D-08  GRID    =  1.00D-06  GRIDMAX =  1.00D-03  DTMAX   =  0.00D+00  THROCCDE=  1.00D-01  THROCCDE=  1.00D-01



 Input parameters for SORTINT:

 COMPRESS =    0.000000
 C_FINAL  =    1.000000
 DEBUG    =   -1.000000
 C_SORT1  =    0.000000
 C_SEWARD =    0.000000
 THRESH   =    0.000000
 IO       =  molpro                                                          
 SPRI     =    0.000000
 SETTING GEOMTYP        =    XYZ
 ZUNIT=BOHR
 

 Variable memory set to  995000000 words,  buffer space   230000 words

 SETTING BASIS          =    USERDEF


 Recomputing integrals since basis changed


 Using spherical harmonics

 Library entry H      S aug-cc-pVTZ          selected for orbital group  3
 Library entry H      P aug-cc-pVTZ          selected for orbital group  3
 Library entry H      D aug-cc-pVTZ          selected for orbital group  3


 PROGRAM * SEWARD (Integral evaluation for generally contracted gaussian basis sets)     Author: Roland Lindh, 1990

 Geometry written to block  1 of record 700


 Point group  C2v 



 ATOMIC COORDINATES

 NR  ATOM    CHARGE       X              Y              Z

   1  N       7.00    0.000000000    0.000000000    1.137299564
   2  C       6.00    0.000000000    0.000000000   -1.060447363
   3  H       1.00    0.000000000    0.000000000   -3.073922184

 Bond lengths in Bohr (Angstrom)

 1-2  2.197746927  2-3  2.013474821
     ( 1.162997589)     ( 1.065484990)

 Bond angles

  1-2-3  180.00000000

 NUCLEAR CHARGE:                   14
 NUMBER OF PRIMITIVE AOS:         203
 NUMBER OF SYMMETRY AOS:          173
 NUMBER OF CONTRACTIONS:          171   (  75A1  +  39B1  +  39B2  +  18A2  )
 NUMBER OF CORE ORBITALS:           2   (   2A1  +   0B1  +   0B2  +   0A2  )
 NUMBER OF VALENCE ORBITALS:        9   (   5A1  +   2B1  +   2B2  +   0A2  )


 NUCLEAR REPULSION ENERGY   23.75262909

 EXTRA SYMMETRY OF AOS IN SYMMETRY 1:   1 1 1 1 1 1 1 1 1 1   1 1 1 1 1 1 1 2 1 2   1 2 1 2 1 2 1 2 1 2   1 2 1 1 1 1 1 1 1 1
                                        1 1 1 1 1 1 1 1 1 2   1 2 1 2 1 2 1 2 1 2   1 2 1 2 1 1 1 1 1 1   1 1 2 1 2
 EXTRA SYMMETRY OF AOS IN SYMMETRY 2:   1 1 1 1 1 1 1 1 1 1   1 1 2 1 2 1 2 1 1 1   1 1 1 1 1 1 1 1 1 2   1 2 1 2 1 1 1 1 1
 EXTRA SYMMETRY OF AOS IN SYMMETRY 3:   1 1 1 1 1 1 1 1 1 1   1 1 2 1 2 1 2 1 1 1   1 1 1 1 1 1 1 1 1 2   1 2 1 2 1 1 1 1 1

 Eigenvalues of metric

         1 0.245E-03 0.549E-03 0.925E-03 0.138E-02 0.319E-02 0.763E-02 0.101E-01 0.132E-01
         2 0.547E-02 0.160E-01 0.227E-01 0.350E-01 0.966E-01 0.113E+00 0.126E+00 0.189E+00
         3 0.547E-02 0.160E-01 0.227E-01 0.350E-01 0.966E-01 0.113E+00 0.126E+00 0.189E+00
         4 0.125E+00 0.140E+00 0.197E+00 0.257E+00 0.315E+00 0.379E+00 0.485E+00 0.601E+00


 Contracted 2-electron integrals neglected if value below      1.0D-22

       21692748. INTEGRALS WRITTEN OUT IN    5298 BLOCKS ON RECORD 1290 OF FILE 1


 NUMBER OF SORTED TWO-ELECTRON INTEGRALS:   28272141.     BUFFER LENGTH:  32768
 NUMBER OF SEGMENTS:   2  SEGMENT LENGTH:   15998211      RECORD LENGTH: 524288

 Memory used in sort:      16.56 MW

 SORT1 READ    21692748. AND WROTE    22090074. INTEGRALS IN     64 RECORDS. CPU TIME:     0.48 SEC, REAL TIME:     0.60 SEC
 SORT2 READ    22090074. AND WROTE    28272141. INTEGRALS IN      2 RECORDS. CPU TIME:     0.36 SEC, REAL TIME:     0.48 SEC

 FILE SIZES:   FILE 1:   367.8 MBYTE,  FILE 4:   268.5 MBYTE,   TOTAL:    636.3 MBYTE

 OPERATOR DM      FOR CENTER  0  COORDINATES:    0.000000    0.000000    0.000000


 **********************************************************************************************************************************
 DATASETS  * FILE   NREC   LENGTH (MB)   RECORD NAMES
              1      19      213.20       500      610      700      900      950      970     1000      129      960     1100   
                                          VAR    BASINP    GEOM    SYMINP    ZMAT    AOBASIS   BASIS     P2S    ABASIS      S 
                                         1400     1410     1200     1210     1080     1600     1650     1300     1700   
                                           T        V       H0       H01     AOSYM     SMH    MOLCAS    ERIS     OPER   

 PROGRAMS   *        TOTAL       INT
 CPU TIMES  *         3.10      3.00
 REAL TIME  *         3.99 SEC
 DISK USED  *       636.64 MB      
 **********************************************************************************************************************************


 PROGRAM * RHF-SCF (CLOSED SHELL)       Authors: W. Meyer, H.-J. Werner


 NUMBER OF ELECTRONS:       7+    7-
 CONVERGENCE THRESHOLDS:    1.00E-10 (Density)    1.00E-13 (Energy)
 MAX. NUMBER OF ITERATIONS:      500
 INTERPOLATION TYPE:            DIIS
 INTERPOLATION STEPS:              2 (START)      1 (STEP)
 LEVEL SHIFTS:                  0.00 (CLOSED)  0.00 (OPEN) 



 Orbital guess generated from atomic densities. Full valence occupancy:    7   2   2   0

 Molecular orbital dump at record        2100.2

 Initial occupancy:   5   1   1   0

 ITERATION    DDIFF          GRAD             ENERGY        2-EL.EN.            DIPOLE MOMENTS         DIIS   ORB.
    1      0.000D+00      0.000D+00       -92.77060229    111.348142    0.00000    0.00000   -2.03297    0    start
    2      0.000D+00      0.907D-02       -92.78226645    109.688623    0.00000    0.00000   -0.93285    1    diag
    3      0.348D-01      0.796D-02       -92.80482199    110.613398    0.00000    0.00000   -1.45114    2    diag
    4      0.120D-01      0.573D-03       -92.80507707    110.559314    0.00000    0.00000   -1.44396    3    diag
    5      0.190D-02      0.131D-03       -92.80509206    110.569225    0.00000    0.00000   -1.44262    4    diag
    6      0.543D-03      0.342D-04       -92.80509296    110.564588    0.00000    0.00000   -1.44282    5    diag
    7      0.486D-04      0.123D-04       -92.80509306    110.565530    0.00000    0.00000   -1.44290    6    diag
    8      0.167D-04      0.247D-05       -92.80509306    110.565518    0.00000    0.00000   -1.44289    7    diag
    9      0.886D-05      0.270D-06       -92.80509306    110.565526    0.00000    0.00000   -1.44288    8    diag
   10      0.149D-05      0.293D-07       -92.80509306    110.565527    0.00000    0.00000   -1.44288    9    orth
   11      0.143D-06      0.383D-08       -92.80509306    110.565527    0.00000    0.00000   -1.44288    9    diag
   12      0.123D-07      0.403D-09       -92.80509306    110.565527    0.00000    0.00000   -1.44288    9    diag
   13      0.120D-08      0.522D-10       -92.80509306    110.565527    0.00000    0.00000   -1.44288    9    diag
   14      0.176D-09      0.758D-11       -92.80509306    110.565527    0.00000    0.00000   -1.44288    9    diag
   15      0.273D-10      0.154D-11       -92.80509306    110.565527    0.00000    0.00000   -1.44288    9    diag
   16      0.602D-11      0.489D-12       -92.80509306    110.565527    0.00000    0.00000   -1.44288    9    diag
   17      0.173D-11      0.619D-12       -92.80509306    110.565527    0.00000    0.00000   -1.44288    0    orth

 Final occupancy:   5   1   1   0

 !RHF STATE 1.1 Energy                -92.805093061923
 Nuclear energy                        23.75262909
 One-electron energy                 -171.84048560
 Two-electron energy                   55.28276345
 Virial quotient                       -1.00296848
 !RHF STATE 1.1 Dipole moment           0.00000000     0.00000000    -1.44288380
 Dipole moment /Debye                   0.00000000     0.00000000    -3.66720460

 Orbital energies:

         1.1          2.1          3.1          4.1          5.1          6.1          7.1
    -15.594524   -11.402989    -1.248924    -0.837317    -0.578544     0.032596     0.151534

         1.2          2.2          3.2
     -0.487591     0.131634     0.304085

         1.3          2.3          3.3
     -0.487591     0.131634     0.304085

         1.4          2.4
      0.682335     0.963146

 HOMO      1.2    -0.487591 =     -13.2680eV
 LUMO      6.1     0.032596 =       0.8870eV
 LUMO-HOMO         0.520188 =      14.1550eV


 **********************************************************************************************************************************
 DATASETS  * FILE   NREC   LENGTH (MB)   RECORD NAMES
              1      19      213.20       500      610      700      900      950      970     1000      129      960     1100   
                                          VAR    BASINP    GEOM    SYMINP    ZMAT    AOBASIS   BASIS     P2S    ABASIS      S 
                                         1400     1410     1200     1210     1080     1600     1650     1300     1700   
                                           T        V       H0       H01     AOSYM     SMH    MOLCAS    ERIS     OPER   

              2       4        2.98       700     1000      520     2100   
                                         GEOM     BASIS   MCVARS     RHF  

 PROGRAMS   *        TOTAL        HF       INT
 CPU TIMES  *         4.79      1.69      3.00
 REAL TIME  *         6.05 SEC
 DISK USED  *       636.64 MB      
 **********************************************************************************************************************************


 PROGRAM * CCSD (Closed-shell coupled cluster)     Authors: C. Hampel, H.-J. Werner, 1991, M. Deegan, P.J. Knowles, 1992


 Convergence thresholds:  THRVAR = 1.00D-08  THRDEN = 1.00D-12

 CCSD(T)     terms to be evaluated (factor= 1.000)


 Number of closed-shell orbitals:   7 (   5   1   1   0 )
 Number of external orbitals:     164 (  70  38  38  18 )

 Molecular orbitals read from record     2100.2  Type=RHF/CANONICAL (state 1.1)

 Number of N-1 electron functions:               7
 Number of N-2 electron functions:              28
 Number of singly external CSFs:               426
 Number of doubly external CSFs:            182374
 Total number of CSFs:                      182801

 Length of J-op  integral file:               0.00 MB
 Length of K-op  integral file:               0.65 MB
 Length of 3-ext integral record:             0.00 MB

 Memory could be reduced to 11.98 Mwords without degradation in triples

 Integral transformation finished. Total CPU:   0.26 sec, npass=  1  Memory used:   1.63 MW

 Reference energy:                    -92.80509306

 MP2 singlet pair energy:              -0.30697524
 MP2 triplet pair energy:              -0.14010706
 MP2 correlation energy:               -0.44708230
 MP2 total energy:                    -93.25217536

 SCS-MP2 correlation energy:           -0.45554801   (PS=  1.200000  PT=  0.333333)
 SCS-MP2 total energy:                -93.26064107

 ITER.      SQ.NORM     CORR.ENERGY   TOTAL ENERGY   ENERGY CHANGE        DEN1      VAR(S)    VAR(P)  DIIS     TIME  TIME/IT
   1      1.11294190    -0.45315935   -93.25825241    -0.00607705     0.00698778  0.26D-02  0.28D-02  1  1     0.60     0.33
   2      1.12198264    -0.45332826   -93.25842133    -0.00016892    -0.01039078  0.58D-04  0.37D-03  2  2     0.90     0.33
   3      1.12575616    -0.45350523   -93.25859829    -0.00017696    -0.00181242  0.19D-04  0.53D-04  3  3     1.18     0.34
   4      1.12819502    -0.45352313   -93.25861620    -0.00001791    -0.00106153  0.95D-06  0.54D-05  4  4     1.48     0.34
   5      1.12877902    -0.45352794   -93.25862100    -0.00000480    -0.00016345  0.19D-06  0.45D-06  5  5     1.78     0.34
   6      1.12886729    -0.45353159   -93.25862465    -0.00000366    -0.00000523  0.84D-08  0.39D-07  6  6     2.05     0.34
   7      1.12888279    -0.45353254   -93.25862561    -0.00000095    -0.00000377  0.17D-08  0.33D-08  6  1     2.35     0.34
   8      1.12888607    -0.45353271   -93.25862577    -0.00000017    -0.00000139  0.21D-09  0.20D-09  6  2     2.65     0.34
   9      1.12888598    -0.45353278   -93.25862584    -0.00000007     0.00000021  0.19D-10  0.21D-10  6  3     2.96     0.34
  10      1.12888617    -0.45353280   -93.25862587    -0.00000002    -0.00000002  0.43D-11  0.19D-11  6  4     3.26     0.34
  11      1.12888616    -0.45353281   -93.25862587    -0.00000001     0.00000002  0.61D-12  0.41D-12  6  5     3.56     0.34
  12      1.12888611    -0.45353281   -93.25862587    -0.00000000     0.00000003  0.51D-13  0.86D-13  6  6     3.85     0.34
  13      1.12888607    -0.45353281   -93.25862588    -0.00000000     0.00000001  0.22D-14  0.12D-13  6  1     4.13     0.34
  14      1.12888606    -0.45353281   -93.25862588    -0.00000000     0.00000001  0.31D-15  0.19D-14  6  2     4.41     0.34
  15      1.12888605    -0.45353281   -93.25862588    -0.00000000     0.00000000  0.26D-16  0.12D-15  6  4     4.72     0.34
  16      1.12888605    -0.45353281   -93.25862588    -0.00000000     0.00000000  0.87D-17  0.10D-16  6  1     5.01     0.34
  17      1.12888605    -0.45353281   -93.25862588    -0.00000000     0.00000000  0.68D-18  0.96D-18  6  3     5.31     0.34
  18      1.12888605    -0.45353281   -93.25862588    -0.00000000     0.00000000  0.35D-19  0.60D-19  6  5     5.62     0.34
  19      1.12888605    -0.45353281   -93.25862588    -0.00000000     0.00000000  0.36D-20  0.71D-20  6  6     5.92     0.34
  20      1.12888605    -0.45353281   -93.25862588    -0.00000000     0.00000000  0.34D-21  0.44D-21  6  1     6.23     0.34
  21      1.12888605    -0.45353281   -93.25862588    -0.00000000     0.00000000  0.75D-22  0.54D-22  6  2     6.53     0.34
  22      1.12888605    -0.45353281   -93.25862588     0.00000000     0.00000000  0.13D-22  0.80D-23  6  4     6.84     0.34

 Norm of t1 vector:      0.06493425      S-energy:    -0.00000000      T1 diagnostic:  0.01227142
                                                                       D1 diagnostic:  0.02873689

 Doubles amplitudes (print threshold =  0.500E-01):

         I         J         SYM. A    SYM. B    A         B      T(IJ, AB)

         6         6         2         2         1         1     -0.06023919
         7         7         3         3         1         1     -0.06023919


 Total CPU time for triples:      2.90 sec


 RESULTS
 =======

  Reference energy                    -92.805093061922

  Correlated core orbitals:             1.1       2.1
  Orbital energies:                   -15.5945  -11.4030
 
  CCSD core-core energy                -0.079731519493
  CCSD core-valence energy             -0.029170138134
  CCSD valence correlation energy      -0.344631156052
 
  CCSD singlet pair energy             -0.332123549957
  CCSD triplet pair energy             -0.121409263723
  CCSD correlation energy              -0.453532813680

  Triples (T) contribution             -0.018263039619
  Total correlation energy             -0.471795853298

  CCSD total energy                   -93.258625875602
  CCSD[T] energy                      -93.277692740805
  CCSD-T energy                       -93.276507792489
 !CCSD(T) total energy                -93.276888915221

 Timing summary (sec):

 STEP                 CPU(USER)    SYS     CPU(TOT)    WALL
 Transformation          0.27      0.07      0.34      0.36
 CCSD iterations         6.57      0.97      7.54      7.51
 Triples                 2.90      0.13      3.03      3.04

 Program statistics:

 Available memory in ccsd:               994999704
 Min. memory needed in ccsd:                607983
 Max. memory used in ccsd:                  763562
 Max. memory used in cckext:                768329 (22 integral passes)



 **********************************************************************************************************************************
 DATASETS  * FILE   NREC   LENGTH (MB)   RECORD NAMES
              1      20      249.35       500      610      700      900      950      970     1000      129      960     1100   
                                          VAR    BASINP    GEOM    SYMINP    ZMAT    AOBASIS   BASIS     P2S    ABASIS      S 
                                         1400     1410     1200     1210     1080     1600     1650     1300     1700     1380   
                                           T        V       H0       H01     AOSYM     SMH    MOLCAS    ERIS     OPER     JKOP   

              2       4        2.98       700     1000      520     2100   
                                         GEOM     BASIS   MCVARS     RHF  

 PROGRAMS   *        TOTAL   CCSD(T)        HF       INT
 CPU TIMES  *        14.56      9.76      1.69      3.00
 REAL TIME  *        17.02 SEC
 DISK USED  *       636.64 MB      
 **********************************************************************************************************************************

 CCSD(T)/USERDEF energy=    -93.276888915221

        CCSD(T)         HF-SCF  
    -93.27688892    -92.80509306
 **********************************************************************************************************************************
 Molpro calculation terminated
 Variable memory released
