
 Primary working directories    : /tmp/r2666/232730.maple
 Secondary working directories  : /tmp/r2666/232730.maple
 Wavefunction directory         : /ddn/home4/r2666/wfu/
 Main file repository           : /tmp/r2666/232730.maple/

 SHA1      : d5ffa45e93fdbca01ffc919aa182cfdae0147319
 NAME      : 2015.1.35
 ARCHNAME  : linux/x86_64
 FC        : /opt/intel/composer_xe_2015.1.133/bin/intel64/ifort
 BLASLIB   : -Wl,-_start-group /opt/intel/mkl/lib/intel64/libmkl_intel_ilp64.a /opt/intel/mkl/lib/intel64/libmkl_intel_thread.a /opt/intel/mkl/lib/intel64/libmkl_core.a -Wl,-_end-group
 id        : olemiss

 Nodes     nprocs
 cn042        1

 Using customized tuning parameters: mindgm=1; mindgv=20; mindgc=4; mindgr=1; noblas=0; minvec=7
 default implementation of scratch files=df  

 ***,hcn CCSD(T)/TZ-F12 QFF
 memory, 995, m;
 gthresh,energy=1.d-12,zero=1.d-22,oneint=1.d-22,twoint=1.d-22;
 gthresh,optgrad=1.d-8,optstep=1.d-8;
 nocompress;
 geomtyp=xyz
 bohr
 geometry={
 3
          9         9
 N        0.0000000000        0.0000000000        1.1152527611
 C        0.0000000000        0.0000000000       -1.0446996461
 H        0.0000000000        0.0000000000       -3.0676230970
 }
 
 basis={
 default=aug-cc-pvtz
 s,C,8236.0,1235.0,280.8, 79.27,25.59, 8.997,3.319
 s,C,0.9059,0.3643,0.1285000
 p,C,56.0,18.71,4.133,0.2827,0.3827,0.1209
 d,C,30.0,10.0,3.3,1.097,0.318
 f,C,7.0,2.3,0.7610
 s,N,11420.0,1712.0,389.3,110.0,35.57,12.54,4.644
 s,N,1.293,0.5118,0.1787
 p,N,79.89,26.63,5.948,1.742,0.555,0.1725
 d,N,45.0,15.0,5.0,1.654,0.469
 f,N,9.9,3.3,1.093
 s,O,15330.0,2299.0,522.4,147.3,47.55,16.76,6.207
 s,O,1.752,0.6882,0.2384
 p,O,103.5,34.46,7.749,2.28,0.7156,0.214
 d,O,63.0,21.0,7.0,2.314,0.645
 f,O,12.9,4.3,1.428
 s,mg,164900.0,24710.0,5628.0,1596.0,521.0;
 s,mg,188.0,73.01,29.90,12.54,4.306,1.826;
 s,mg,0.7417,0.0761,0.145,0.033,0.0129;
 p,mg,950.70,316.90,74.86,23.72,8.669,3.363;
 p,mg,1.310,0.4911,0.2364,0.08733,0.03237,0.00745;
 d,mg,1.601,0.686,0.126,0.294,0.0468;
 f,mg,1.372,0.588,0.094,0.252;
 }
   {hf,maxit=500;accu,20;}
 {ccsd(t),nocheck,maxit=250;orbital,IGNORE_ERROR;core}

 Variables initialized (889), CPU time= 0.00 sec
 Commands  initialized (702), CPU time= 0.01 sec, 572 directives.
 Default parameters read. Elapsed time= 0.08 sec

 Checking input...
 Passed
1


                                         ***  PROGRAM SYSTEM MOLPRO  ***
                                       Copyright, TTI GmbH Stuttgart, 2015
                                    Version 2015.1 linked Jul  9 2018 13:16:40


 **********************************************************************************************************************************
 LABEL *   hcn CCSD(T)/TZ-F12 QFF                                                        
  64 bit serial version                                                                  DATE: 06-Feb-20          TIME: 09:55:11  
 **********************************************************************************************************************************

 SHA1:             d5ffa45e93fdbca01ffc919aa182cfdae0147319
 **********************************************************************************************************************************

 THRESHOLDS:

 ZERO    =  1.00D-22  ONEINT  =  1.00D-22  TWOINT  =  1.00D-22  PREFAC  =  1.00D-14  LOCALI  =  1.00D-09  EORDER  =  1.00D-04
 ENERGY  =  1.00D-12  ETEST   =  0.00D+00  EDENS   =  0.00D+00  THRDEDEF=  1.00D-06  GRADIENT=  1.00D-02  STEP    =  1.00D-03
 ORBITAL =  1.00D-05  CIVEC   =  1.00D-05  COEFF   =  1.00D-04  PRINTCI =  5.00D-02  PUNCHCI =  9.90D+01  OPTGRAD =  3.00D-04
 OPTENERG=  1.00D-06  OPTSTEP =  3.00D-04  THRGRAD =  1.00D-10  COMPRESS=  1.00D-11  VARMIN  =  1.00D-07  VARMAX  =  1.00D-03
 THRDOUB =  0.00D+00  THRDIV  =  1.00D-05  THRRED  =  1.00D-07  THRPSP  =  1.00D+00  THRDC   =  1.00D-10  THRCS   =  1.00D-10
 THRNRM  =  1.00D-08  THREQ   =  0.00D+00  THRDE   =  1.00D+00  THRREF  =  1.00D-05  SPARFAC =  1.00D+00  THRDLP  =  1.00D-07
 THRDIA  =  1.00D-10  THRDLS  =  1.00D-07  THRGPS  =  0.00D+00  THRKEX  =  0.00D+00  THRDIS  =  2.00D-01  THRVAR  =  1.00D-10
 THRLOC  =  1.00D-06  THRGAP  =  1.00D-06  THRLOCT = -1.00D+00  THRGAPT = -1.00D+00  THRORB  =  1.00D-06  THRMLTP =  0.00D+00
 THRCPQCI=  1.00D-10  KEXTA   =  0.00D+00  THRCOARS=  0.00D+00  SYMTOL  =  1.00D-06  GRADTOL =  1.00D-06  THROVL  =  1.00D-08
 THRORTH =  1.00D-08  GRID    =  1.00D-06  GRIDMAX =  1.00D-03  DTMAX   =  0.00D+00  THROCCDE=  1.00D-01  THROCCDE=  1.00D-01



 THRESHOLDS:

 ZERO    =  1.00D-22  ONEINT  =  1.00D-22  TWOINT  =  1.00D-22  PREFAC  =  1.00D-14  LOCALI  =  1.00D-09  EORDER  =  1.00D-04
 ENERGY  =  1.00D-12  ETEST   =  0.00D+00  EDENS   =  0.00D+00  THRDEDEF=  1.00D-06  GRADIENT=  1.00D-02  STEP    =  1.00D-03
 ORBITAL =  1.00D-05  CIVEC   =  1.00D-05  COEFF   =  1.00D-04  PRINTCI =  5.00D-02  PUNCHCI =  9.90D+01  OPTGRAD =  1.00D-08
 OPTENERG=  1.00D-06  OPTSTEP =  1.00D-08  THRGRAD =  1.00D-10  COMPRESS=  1.00D-11  VARMIN  =  1.00D-07  VARMAX  =  1.00D-03
 THRDOUB =  0.00D+00  THRDIV  =  1.00D-05  THRRED  =  1.00D-07  THRPSP  =  1.00D+00  THRDC   =  1.00D-10  THRCS   =  1.00D-10
 THRNRM  =  1.00D-08  THREQ   =  0.00D+00  THRDE   =  1.00D+00  THRREF  =  1.00D-05  SPARFAC =  1.00D+00  THRDLP  =  1.00D-07
 THRDIA  =  1.00D-10  THRDLS  =  1.00D-07  THRGPS  =  0.00D+00  THRKEX  =  0.00D+00  THRDIS  =  2.00D-01  THRVAR  =  1.00D-10
 THRLOC  =  1.00D-06  THRGAP  =  1.00D-06  THRLOCT = -1.00D+00  THRGAPT = -1.00D+00  THRORB  =  1.00D-06  THRMLTP =  0.00D+00
 THRCPQCI=  1.00D-10  KEXTA   =  0.00D+00  THRCOARS=  0.00D+00  SYMTOL  =  1.00D-06  GRADTOL =  1.00D-06  THROVL  =  1.00D-08
 THRORTH =  1.00D-08  GRID    =  1.00D-06  GRIDMAX =  1.00D-03  DTMAX   =  0.00D+00  THROCCDE=  1.00D-01  THROCCDE=  1.00D-01



 Input parameters for SORTINT:

 COMPRESS =    0.000000
 C_FINAL  =    1.000000
 DEBUG    =   -1.000000
 C_SORT1  =    0.000000
 C_SEWARD =    0.000000
 THRESH   =    0.000000
 IO       =  molpro                                                          
 SPRI     =    0.000000
 SETTING GEOMTYP        =    XYZ
 ZUNIT=BOHR
 

 Variable memory set to  995000000 words,  buffer space   230000 words

 SETTING BASIS          =    USERDEF


 Recomputing integrals since basis changed


 Using spherical harmonics

 Library entry H      S aug-cc-pVTZ          selected for orbital group  3
 Library entry H      P aug-cc-pVTZ          selected for orbital group  3
 Library entry H      D aug-cc-pVTZ          selected for orbital group  3


 PROGRAM * SEWARD (Integral evaluation for generally contracted gaussian basis sets)     Author: Roland Lindh, 1990

 Geometry written to block  1 of record 700


 Point group  C2v 



 ATOMIC COORDINATES

 NR  ATOM    CHARGE       X              Y              Z

   1  N       7.00    0.000000000    0.000000000    1.115252761
   2  C       6.00    0.000000000    0.000000000   -1.044699646
   3  H       1.00    0.000000000    0.000000000   -3.067623097

 Bond lengths in Bohr (Angstrom)

 1-2  2.159952407  2-3  2.022923451
     ( 1.142997591)     ( 1.070484990)

 Bond angles

  1-2-3  180.00000000

 NUCLEAR CHARGE:                   14
 NUMBER OF PRIMITIVE AOS:         203
 NUMBER OF SYMMETRY AOS:          173
 NUMBER OF CONTRACTIONS:          171   (  75A1  +  39B1  +  39B2  +  18A2  )
 NUMBER OF CORE ORBITALS:           2   (   2A1  +   0B1  +   0B2  +   0A2  )
 NUMBER OF VALENCE ORBITALS:        9   (   5A1  +   2B1  +   2B2  +   0A2  )


 NUCLEAR REPULSION ENERGY   24.08436714

 EXTRA SYMMETRY OF AOS IN SYMMETRY 1:   1 1 1 1 1 1 1 1 1 1   1 1 1 1 1 1 1 2 1 2   1 2 1 2 1 2 1 2 1 2   1 2 1 1 1 1 1 1 1 1
                                        1 1 1 1 1 1 1 1 1 2   1 2 1 2 1 2 1 2 1 2   1 2 1 2 1 1 1 1 1 1   1 1 2 1 2
 EXTRA SYMMETRY OF AOS IN SYMMETRY 2:   1 1 1 1 1 1 1 1 1 1   1 1 2 1 2 1 2 1 1 1   1 1 1 1 1 1 1 1 1 2   1 2 1 2 1 1 1 1 1
 EXTRA SYMMETRY OF AOS IN SYMMETRY 3:   1 1 1 1 1 1 1 1 1 1   1 1 2 1 2 1 2 1 1 1   1 1 1 1 1 1 1 1 1 2   1 2 1 2 1 1 1 1 1

 Eigenvalues of metric

         1 0.246E-03 0.500E-03 0.906E-03 0.139E-02 0.316E-02 0.761E-02 0.101E-01 0.132E-01
         2 0.537E-02 0.155E-01 0.218E-01 0.344E-01 0.967E-01 0.112E+00 0.125E+00 0.188E+00
         3 0.537E-02 0.155E-01 0.218E-01 0.344E-01 0.967E-01 0.112E+00 0.125E+00 0.188E+00
         4 0.124E+00 0.139E+00 0.192E+00 0.257E+00 0.313E+00 0.379E+00 0.484E+00 0.595E+00


 Contracted 2-electron integrals neglected if value below      1.0D-22

       21807554. INTEGRALS WRITTEN OUT IN    5326 BLOCKS ON RECORD 1290 OF FILE 1


 NUMBER OF SORTED TWO-ELECTRON INTEGRALS:   28272141.     BUFFER LENGTH:  32768
 NUMBER OF SEGMENTS:   2  SEGMENT LENGTH:   15998211      RECORD LENGTH: 524288

 Memory used in sort:      16.56 MW

 SORT1 READ    21807554. AND WROTE    22207038. INTEGRALS IN     65 RECORDS. CPU TIME:     0.94 SEC, REAL TIME:     1.14 SEC
 SORT2 READ    22207038. AND WROTE    28272141. INTEGRALS IN      2 RECORDS. CPU TIME:     0.66 SEC, REAL TIME:     0.82 SEC

 FILE SIZES:   FILE 1:   369.7 MBYTE,  FILE 4:   272.7 MBYTE,   TOTAL:    642.3 MBYTE

 OPERATOR DM      FOR CENTER  0  COORDINATES:    0.000000    0.000000    0.000000


 **********************************************************************************************************************************
 DATASETS  * FILE   NREC   LENGTH (MB)   RECORD NAMES
              1      19      213.82       500      610      700      900      950      970     1000      129      960     1100   
                                          VAR    BASINP    GEOM    SYMINP    ZMAT    AOBASIS   BASIS     P2S    ABASIS      S 
                                         1400     1410     1200     1210     1080     1600     1650     1300     1700   
                                           T        V       H0       H01     AOSYM     SMH    MOLCAS    ERIS     OPER   

 PROGRAMS   *        TOTAL       INT
 CPU TIMES  *         5.32      5.21
 REAL TIME  *         6.70 SEC
 DISK USED  *       642.67 MB      
 **********************************************************************************************************************************


 PROGRAM * RHF-SCF (CLOSED SHELL)       Authors: W. Meyer, H.-J. Werner


 NUMBER OF ELECTRONS:       7+    7-
 CONVERGENCE THRESHOLDS:    1.00E-10 (Density)    1.00E-13 (Energy)
 MAX. NUMBER OF ITERATIONS:      500
 INTERPOLATION TYPE:            DIIS
 INTERPOLATION STEPS:              2 (START)      1 (STEP)
 LEVEL SHIFTS:                  0.00 (CLOSED)  0.00 (OPEN) 



 Orbital guess generated from atomic densities. Full valence occupancy:    7   2   2   0

 Molecular orbital dump at record        2100.2

 Initial occupancy:   5   1   1   0

 ITERATION    DDIFF          GRAD             ENERGY        2-EL.EN.            DIPOLE MOMENTS         DIIS   ORB.
    1      0.000D+00      0.000D+00       -92.77203196    112.112131    0.00000    0.00000   -2.02269    0    start
    2      0.000D+00      0.921D-02       -92.78506010    110.327874    0.00000    0.00000   -0.95961    1    diag
    3      0.338D-01      0.784D-02       -92.80667259    111.267573    0.00000    0.00000   -1.45101    2    diag
    4      0.116D-01      0.558D-03       -92.80691632    111.222585    0.00000    0.00000   -1.44370    3    diag
    5      0.185D-02      0.122D-03       -92.80693057    111.228836    0.00000    0.00000   -1.44251    4    diag
    6      0.507D-03      0.316D-04       -92.80693126    111.225159    0.00000    0.00000   -1.44284    5    diag
    7      0.372D-04      0.110D-04       -92.80693134    111.226186    0.00000    0.00000   -1.44289    6    diag
    8      0.149D-04      0.223D-05       -92.80693134    111.226162    0.00000    0.00000   -1.44287    7    diag
    9      0.758D-05      0.246D-06       -92.80693134    111.226169    0.00000    0.00000   -1.44287    8    diag
   10      0.128D-05      0.279D-07       -92.80693134    111.226171    0.00000    0.00000   -1.44287    9    orth
   11      0.128D-06      0.361D-08       -92.80693134    111.226171    0.00000    0.00000   -1.44287    9    diag
   12      0.118D-07      0.381D-09       -92.80693134    111.226171    0.00000    0.00000   -1.44287    9    diag
   13      0.115D-08      0.486D-10       -92.80693134    111.226171    0.00000    0.00000   -1.44287    9    diag
   14      0.171D-09      0.745D-11       -92.80693134    111.226171    0.00000    0.00000   -1.44287    9    diag
   15      0.280D-10      0.155D-11       -92.80693134    111.226171    0.00000    0.00000   -1.44287    9    diag
   16      0.676D-11      0.443D-12       -92.80693134    111.226171    0.00000    0.00000   -1.44287    9    diag
   17      0.183D-11      0.354D-12       -92.80693134    111.226171    0.00000    0.00000   -1.44287    9    diag
   18      0.137D-11      0.228D-12       -92.80693134    111.226171    0.00000    0.00000   -1.44287    9    diag
   19      0.936D-12      0.407D-12       -92.80693134    111.226171    0.00000    0.00000   -1.44287    9    fixocc
   20      0.311D-12      0.371D-12       -92.80693134    111.226171    0.00000    0.00000   -1.44287    9    orth
   21      0.211D-12      0.217D-12       -92.80693134    111.226171    0.00000    0.00000   -1.44287    9    diag
   22      0.856D-12      0.373D-12       -92.80693134    111.226171    0.00000    0.00000   -1.44287    9    diag
   23      0.119D-11      0.112D-12       -92.80693134    111.226171    0.00000    0.00000   -1.44287    0    orth

 Final occupancy:   5   1   1   0

 !RHF STATE 1.1 Energy                -92.806931341734
 Nuclear energy                        24.08436714
 One-electron energy                 -172.50438381
 Two-electron energy                   55.61308533
 Virial quotient                       -1.00186556
 !RHF STATE 1.1 Dipole moment           0.00000000     0.00000000    -1.44286971
 Dipole moment /Debye                   0.00000000     0.00000000    -3.66716879

 Orbital energies:

         1.1          2.1          3.1          4.1          5.1          6.1          7.1
    -15.587434   -11.396231    -1.258644    -0.832732    -0.577360     0.032695     0.151557

         1.2          2.2          3.2
     -0.493353     0.135530     0.308667

         1.3          2.3          3.3
     -0.493353     0.135530     0.308667

         1.4          2.4
      0.682908     0.962891

 HOMO      1.2    -0.493353 =     -13.4248eV
 LUMO      6.1     0.032695 =       0.8897eV
 LUMO-HOMO         0.526048 =      14.3145eV


 **********************************************************************************************************************************
 DATASETS  * FILE   NREC   LENGTH (MB)   RECORD NAMES
              1      19      213.82       500      610      700      900      950      970     1000      129      960     1100   
                                          VAR    BASINP    GEOM    SYMINP    ZMAT    AOBASIS   BASIS     P2S    ABASIS      S 
                                         1400     1410     1200     1210     1080     1600     1650     1300     1700   
                                           T        V       H0       H01     AOSYM     SMH    MOLCAS    ERIS     OPER   

              2       4        2.98       700     1000      520     2100   
                                         GEOM     BASIS   MCVARS     RHF  

 PROGRAMS   *        TOTAL        HF       INT
 CPU TIMES  *         8.47      3.15      5.21
 REAL TIME  *        10.58 SEC
 DISK USED  *       642.67 MB      
 **********************************************************************************************************************************


 PROGRAM * CCSD (Closed-shell coupled cluster)     Authors: C. Hampel, H.-J. Werner, 1991, M. Deegan, P.J. Knowles, 1992


 Convergence thresholds:  THRVAR = 1.00D-08  THRDEN = 1.00D-12

 CCSD(T)     terms to be evaluated (factor= 1.000)


 Number of closed-shell orbitals:   7 (   5   1   1   0 )
 Number of external orbitals:     164 (  70  38  38  18 )

 Molecular orbitals read from record     2100.2  Type=RHF/CANONICAL (state 1.1)

 Number of N-1 electron functions:               7
 Number of N-2 electron functions:              28
 Number of singly external CSFs:               426
 Number of doubly external CSFs:            182374
 Total number of CSFs:                      182801

 Length of J-op  integral file:               0.00 MB
 Length of K-op  integral file:               0.65 MB
 Length of 3-ext integral record:             0.00 MB

 Memory could be reduced to 11.98 Mwords without degradation in triples

 Integral transformation finished. Total CPU:   0.43 sec, npass=  1  Memory used:   1.63 MW

 Reference energy:                    -92.80693134

 MP2 singlet pair energy:              -0.30518086
 MP2 triplet pair energy:              -0.13876635
 MP2 correlation energy:               -0.44394721
 MP2 total energy:                    -93.25087855

 SCS-MP2 correlation energy:           -0.45256054   (PS=  1.200000  PT=  0.333333)
 SCS-MP2 total energy:                -93.25949188

 ITER.      SQ.NORM     CORR.ENERGY   TOTAL ENERGY   ENERGY CHANGE        DEN1      VAR(S)    VAR(P)  DIIS     TIME  TIME/IT
   1      1.11069156    -0.45088477   -93.25781611    -0.00693756     0.00543824  0.24D-02  0.25D-02  1  1     0.95     0.56
   2      1.11927022    -0.45118351   -93.25811485    -0.00029874    -0.00995608  0.53D-04  0.35D-03  2  2     1.48     0.58
   3      1.12281854    -0.45134852   -93.25827986    -0.00016501    -0.00175178  0.18D-04  0.48D-04  3  3     2.01     0.58
   4      1.12504800    -0.45136125   -93.25829260    -0.00001274    -0.00099817  0.91D-06  0.46D-05  4  4     2.54     0.58
   5      1.12556567    -0.45136568   -93.25829703    -0.00000443    -0.00014586  0.17D-06  0.38D-06  5  5     3.06     0.59
   6      1.12564212    -0.45136870   -93.25830004    -0.00000302    -0.00000436  0.88D-08  0.32D-07  6  6     3.60     0.59
   7      1.12565565    -0.45136940   -93.25830075    -0.00000070    -0.00000341  0.19D-08  0.26D-08  6  1     4.14     0.59
   8      1.12565857    -0.45136951   -93.25830085    -0.00000011    -0.00000121  0.27D-09  0.17D-09  6  2     4.67     0.59
   9      1.12565857    -0.45136957   -93.25830091    -0.00000006     0.00000017  0.31D-10  0.21D-10  6  3     5.19     0.59
  10      1.12565876    -0.45136959   -93.25830093    -0.00000002    -0.00000001  0.63D-11  0.26D-11  6  4     5.70     0.59
  11      1.12565878    -0.45136959   -93.25830093    -0.00000000     0.00000002  0.64D-12  0.60D-12  6  5     6.23     0.59
  12      1.12565873    -0.45136959   -93.25830093     0.00000000     0.00000003  0.35D-13  0.11D-12  6  6     6.77     0.59
  13      1.12565870    -0.45136959   -93.25830093    -0.00000000     0.00000001  0.22D-14  0.15D-13  6  1     7.29     0.59
  14      1.12565867    -0.45136959   -93.25830093    -0.00000000     0.00000001  0.62D-15  0.24D-14  6  2     7.83     0.59
  15      1.12565867    -0.45136959   -93.25830093    -0.00000000     0.00000000  0.41D-16  0.15D-15  6  4     8.35     0.59
  16      1.12565866    -0.45136959   -93.25830093    -0.00000000     0.00000000  0.70D-17  0.89D-17  6  3     8.90     0.59
  17      1.12565866    -0.45136959   -93.25830093     0.00000000     0.00000000  0.13D-17  0.11D-17  6  5     9.43     0.59
  18      1.12565866    -0.45136959   -93.25830093    -0.00000000     0.00000000  0.14D-18  0.10D-18  6  6     9.95     0.59
  19      1.12565866    -0.45136959   -93.25830093    -0.00000000     0.00000000  0.32D-19  0.11D-19  6  1    10.49     0.59
  20      1.12565866    -0.45136959   -93.25830093    -0.00000000     0.00000000  0.36D-20  0.37D-20  6  2    11.02     0.59
  21      1.12565866    -0.45136959   -93.25830093    -0.00000000    -0.00000000  0.42D-21  0.71D-21  6  4    11.58     0.59
  22      1.12565866    -0.45136959   -93.25830093     0.00000000    -0.00000000  0.24D-22  0.94D-22  6  3    12.12     0.59

 Norm of t1 vector:      0.06247156      S-energy:    -0.00000000      T1 diagnostic:  0.01180602
                                                                       D1 diagnostic:  0.02752168

 Doubles amplitudes (print threshold =  0.500E-01):

         I         J         SYM. A    SYM. B    A         B      T(IJ, AB)

         6         6         2         2         1         1     -0.05596900
         7         7         3         3         1         1     -0.05596900


 Total CPU time for triples:      8.08 sec


 RESULTS
 =======

  Reference energy                    -92.806931341734

  Correlated core orbitals:             1.1       2.1
  Orbital energies:                   -15.5874  -11.3962
 
  CCSD core-core energy                -0.079691247105
  CCSD core-valence energy             -0.029428663946
  CCSD valence correlation energy      -0.342249681536
 
  CCSD singlet pair energy             -0.330238321561
  CCSD triplet pair energy             -0.121131271026
  CCSD correlation energy              -0.451369592587

  Triples (T) contribution             -0.017703117451
  Total correlation energy             -0.469072710038

  CCSD total energy                   -93.258300934322
  CCSD[T] energy                      -93.276742576127
  CCSD-T energy                       -93.275652739851
 !CCSD(T) total energy                -93.276004051772

 Timing summary (sec):

 STEP                 CPU(USER)    SYS     CPU(TOT)    WALL
 Transformation          0.44      0.14      0.58      0.58
 CCSD iterations        11.70      1.41     13.11     13.10
 Triples                 8.08      0.23      8.31      8.32

 Program statistics:

 Available memory in ccsd:               994999704
 Min. memory needed in ccsd:                607983
 Max. memory used in ccsd:                  763562
 Max. memory used in cckext:                768329 (22 integral passes)



 **********************************************************************************************************************************
 DATASETS  * FILE   NREC   LENGTH (MB)   RECORD NAMES
              1      20      249.98       500      610      700      900      950      970     1000      129      960     1100   
                                          VAR    BASINP    GEOM    SYMINP    ZMAT    AOBASIS   BASIS     P2S    ABASIS      S 
                                         1400     1410     1200     1210     1080     1600     1650     1300     1700     1380   
                                           T        V       H0       H01     AOSYM     SMH    MOLCAS    ERIS     OPER     JKOP   

              2       4        2.98       700     1000      520     2100   
                                         GEOM     BASIS   MCVARS     RHF  

 PROGRAMS   *        TOTAL   CCSD(T)        HF       INT
 CPU TIMES  *        28.72     20.25      3.15      5.21
 REAL TIME  *        32.72 SEC
 DISK USED  *       642.67 MB      
 **********************************************************************************************************************************

 CCSD(T)/USERDEF energy=    -93.276004051772

        CCSD(T)         HF-SCF  
    -93.27600405    -92.80693134
 **********************************************************************************************************************************
 Molpro calculation terminated
 Variable memory released
