
 Primary working directories    : /tmp/r2666/232774.maple
 Secondary working directories  : /tmp/r2666/232774.maple
 Wavefunction directory         : /ddn/home4/r2666/wfu/
 Main file repository           : /tmp/r2666/232774.maple/

 SHA1      : d5ffa45e93fdbca01ffc919aa182cfdae0147319
 NAME      : 2015.1.35
 ARCHNAME  : linux/x86_64
 FC        : /opt/intel/composer_xe_2015.1.133/bin/intel64/ifort
 BLASLIB   : -Wl,-_start-group /opt/intel/mkl/lib/intel64/libmkl_intel_ilp64.a /opt/intel/mkl/lib/intel64/libmkl_intel_thread.a /opt/intel/mkl/lib/intel64/libmkl_core.a -Wl,-_end-group
 id        : olemiss

 Nodes     nprocs
 cn075        1

 Using customized tuning parameters: mindgm=1; mindgv=20; mindgc=4; mindgr=1; noblas=0; minvec=7
 default implementation of scratch files=df  

 ***,hcn CCSD(T)/TZ-F12 QFF
 memory, 995, m;
 gthresh,energy=1.d-12,zero=1.d-22,oneint=1.d-22,twoint=1.d-22;
 gthresh,optgrad=1.d-8,optstep=1.d-8;
 nocompress;
 geomtyp=xyz
 bohr
 geometry={
 3
         53        53
 N        0.0000000000        0.0000000000        1.1435986509
 C        0.0000000000        0.0000000000       -1.0635969059
 H        0.0000000000        0.0000000000       -3.0770717269
 }
 
 basis={
 default=aug-cc-pvtz
 s,C,8236.0,1235.0,280.8, 79.27,25.59, 8.997,3.319
 s,C,0.9059,0.3643,0.1285000
 p,C,56.0,18.71,4.133,0.2827,0.3827,0.1209
 d,C,30.0,10.0,3.3,1.097,0.318
 f,C,7.0,2.3,0.7610
 s,N,11420.0,1712.0,389.3,110.0,35.57,12.54,4.644
 s,N,1.293,0.5118,0.1787
 p,N,79.89,26.63,5.948,1.742,0.555,0.1725
 d,N,45.0,15.0,5.0,1.654,0.469
 f,N,9.9,3.3,1.093
 s,O,15330.0,2299.0,522.4,147.3,47.55,16.76,6.207
 s,O,1.752,0.6882,0.2384
 p,O,103.5,34.46,7.749,2.28,0.7156,0.214
 d,O,63.0,21.0,7.0,2.314,0.645
 f,O,12.9,4.3,1.428
 s,mg,164900.0,24710.0,5628.0,1596.0,521.0;
 s,mg,188.0,73.01,29.90,12.54,4.306,1.826;
 s,mg,0.7417,0.0761,0.145,0.033,0.0129;
 p,mg,950.70,316.90,74.86,23.72,8.669,3.363;
 p,mg,1.310,0.4911,0.2364,0.08733,0.03237,0.00745;
 d,mg,1.601,0.686,0.126,0.294,0.0468;
 f,mg,1.372,0.588,0.094,0.252;
 }
   {hf,maxit=500;accu,20;}
 {ccsd(t),nocheck,maxit=250;orbital,IGNORE_ERROR;core}

 Variables initialized (889), CPU time= 0.00 sec
 Commands  initialized (702), CPU time= 0.01 sec, 572 directives.
 Default parameters read. Elapsed time= 0.05 sec

 Checking input...
 Passed
1


                                         ***  PROGRAM SYSTEM MOLPRO  ***
                                       Copyright, TTI GmbH Stuttgart, 2015
                                    Version 2015.1 linked Jul  9 2018 13:16:40


 **********************************************************************************************************************************
 LABEL *   hcn CCSD(T)/TZ-F12 QFF                                                        
  64 bit serial version                                                                  DATE: 06-Feb-20          TIME: 09:55:39  
 **********************************************************************************************************************************

 SHA1:             d5ffa45e93fdbca01ffc919aa182cfdae0147319
 **********************************************************************************************************************************

 THRESHOLDS:

 ZERO    =  1.00D-22  ONEINT  =  1.00D-22  TWOINT  =  1.00D-22  PREFAC  =  1.00D-14  LOCALI  =  1.00D-09  EORDER  =  1.00D-04
 ENERGY  =  1.00D-12  ETEST   =  0.00D+00  EDENS   =  0.00D+00  THRDEDEF=  1.00D-06  GRADIENT=  1.00D-02  STEP    =  1.00D-03
 ORBITAL =  1.00D-05  CIVEC   =  1.00D-05  COEFF   =  1.00D-04  PRINTCI =  5.00D-02  PUNCHCI =  9.90D+01  OPTGRAD =  3.00D-04
 OPTENERG=  1.00D-06  OPTSTEP =  3.00D-04  THRGRAD =  1.00D-10  COMPRESS=  1.00D-11  VARMIN  =  1.00D-07  VARMAX  =  1.00D-03
 THRDOUB =  0.00D+00  THRDIV  =  1.00D-05  THRRED  =  1.00D-07  THRPSP  =  1.00D+00  THRDC   =  1.00D-10  THRCS   =  1.00D-10
 THRNRM  =  1.00D-08  THREQ   =  0.00D+00  THRDE   =  1.00D+00  THRREF  =  1.00D-05  SPARFAC =  1.00D+00  THRDLP  =  1.00D-07
 THRDIA  =  1.00D-10  THRDLS  =  1.00D-07  THRGPS  =  0.00D+00  THRKEX  =  0.00D+00  THRDIS  =  2.00D-01  THRVAR  =  1.00D-10
 THRLOC  =  1.00D-06  THRGAP  =  1.00D-06  THRLOCT = -1.00D+00  THRGAPT = -1.00D+00  THRORB  =  1.00D-06  THRMLTP =  0.00D+00
 THRCPQCI=  1.00D-10  KEXTA   =  0.00D+00  THRCOARS=  0.00D+00  SYMTOL  =  1.00D-06  GRADTOL =  1.00D-06  THROVL  =  1.00D-08
 THRORTH =  1.00D-08  GRID    =  1.00D-06  GRIDMAX =  1.00D-03  DTMAX   =  0.00D+00  THROCCDE=  1.00D-01  THROCCDE=  1.00D-01



 THRESHOLDS:

 ZERO    =  1.00D-22  ONEINT  =  1.00D-22  TWOINT  =  1.00D-22  PREFAC  =  1.00D-14  LOCALI  =  1.00D-09  EORDER  =  1.00D-04
 ENERGY  =  1.00D-12  ETEST   =  0.00D+00  EDENS   =  0.00D+00  THRDEDEF=  1.00D-06  GRADIENT=  1.00D-02  STEP    =  1.00D-03
 ORBITAL =  1.00D-05  CIVEC   =  1.00D-05  COEFF   =  1.00D-04  PRINTCI =  5.00D-02  PUNCHCI =  9.90D+01  OPTGRAD =  1.00D-08
 OPTENERG=  1.00D-06  OPTSTEP =  1.00D-08  THRGRAD =  1.00D-10  COMPRESS=  1.00D-11  VARMIN  =  1.00D-07  VARMAX  =  1.00D-03
 THRDOUB =  0.00D+00  THRDIV  =  1.00D-05  THRRED  =  1.00D-07  THRPSP  =  1.00D+00  THRDC   =  1.00D-10  THRCS   =  1.00D-10
 THRNRM  =  1.00D-08  THREQ   =  0.00D+00  THRDE   =  1.00D+00  THRREF  =  1.00D-05  SPARFAC =  1.00D+00  THRDLP  =  1.00D-07
 THRDIA  =  1.00D-10  THRDLS  =  1.00D-07  THRGPS  =  0.00D+00  THRKEX  =  0.00D+00  THRDIS  =  2.00D-01  THRVAR  =  1.00D-10
 THRLOC  =  1.00D-06  THRGAP  =  1.00D-06  THRLOCT = -1.00D+00  THRGAPT = -1.00D+00  THRORB  =  1.00D-06  THRMLTP =  0.00D+00
 THRCPQCI=  1.00D-10  KEXTA   =  0.00D+00  THRCOARS=  0.00D+00  SYMTOL  =  1.00D-06  GRADTOL =  1.00D-06  THROVL  =  1.00D-08
 THRORTH =  1.00D-08  GRID    =  1.00D-06  GRIDMAX =  1.00D-03  DTMAX   =  0.00D+00  THROCCDE=  1.00D-01  THROCCDE=  1.00D-01



 Input parameters for SORTINT:

 COMPRESS =    0.000000
 C_FINAL  =    1.000000
 DEBUG    =   -1.000000
 C_SORT1  =    0.000000
 C_SEWARD =    0.000000
 THRESH   =    0.000000
 IO       =  molpro                                                          
 SPRI     =    0.000000
 SETTING GEOMTYP        =    XYZ
 ZUNIT=BOHR
 

 Variable memory set to  995000000 words,  buffer space   230000 words

 SETTING BASIS          =    USERDEF


 Recomputing integrals since basis changed


 Using spherical harmonics

 Library entry H      S aug-cc-pVTZ          selected for orbital group  3
 Library entry H      P aug-cc-pVTZ          selected for orbital group  3
 Library entry H      D aug-cc-pVTZ          selected for orbital group  3


 PROGRAM * SEWARD (Integral evaluation for generally contracted gaussian basis sets)     Author: Roland Lindh, 1990

 Geometry written to block  1 of record 700


 Point group  C2v 



 ATOMIC COORDINATES

 NR  ATOM    CHARGE       X              Y              Z

   1  N       7.00    0.000000000    0.000000000    1.143598651
   2  C       6.00    0.000000000    0.000000000   -1.063596906
   3  H       1.00    0.000000000    0.000000000   -3.077071727

 Bond lengths in Bohr (Angstrom)

 1-2  2.207195557  2-3  2.013474821
     ( 1.167997589)     ( 1.065484990)

 Bond angles

  1-2-3  179.99999829

 NUCLEAR CHARGE:                   14
 NUMBER OF PRIMITIVE AOS:         203
 NUMBER OF SYMMETRY AOS:          173
 NUMBER OF CONTRACTIONS:          171   (  75A1  +  39B1  +  39B2  +  18A2  )
 NUMBER OF CORE ORBITALS:           2   (   2A1  +   0B1  +   0B2  +   0A2  )
 NUMBER OF VALENCE ORBITALS:        9   (   5A1  +   2B1  +   2B2  +   0A2  )


 NUCLEAR REPULSION ENERGY   23.66709921

 EXTRA SYMMETRY OF AOS IN SYMMETRY 1:   1 1 1 1 1 1 1 1 1 1   1 1 1 1 1 1 1 2 1 2   1 2 1 2 1 2 1 2 1 2   1 2 1 1 1 1 1 1 1 1
                                        1 1 1 1 1 1 1 1 1 2   1 2 1 2 1 2 1 2 1 2   1 2 1 2 1 1 1 1 1 1   1 1 2 1 2
 EXTRA SYMMETRY OF AOS IN SYMMETRY 2:   1 1 1 1 1 1 1 1 1 1   1 1 2 1 2 1 2 1 1 1   1 1 1 1 1 1 1 1 1 2   1 2 1 2 1 1 1 1 1
 EXTRA SYMMETRY OF AOS IN SYMMETRY 3:   1 1 1 1 1 1 1 1 1 1   1 1 2 1 2 1 2 1 1 1   1 1 1 1 1 1 1 1 1 2   1 2 1 2 1 1 1 1 1

 Eigenvalues of metric

         1 0.247E-03 0.562E-03 0.933E-03 0.138E-02 0.320E-02 0.766E-02 0.101E-01 0.133E-01
         2 0.549E-02 0.161E-01 0.230E-01 0.353E-01 0.966E-01 0.113E+00 0.126E+00 0.189E+00
         3 0.549E-02 0.161E-01 0.230E-01 0.353E-01 0.966E-01 0.113E+00 0.126E+00 0.189E+00
         4 0.125E+00 0.140E+00 0.198E+00 0.257E+00 0.315E+00 0.379E+00 0.486E+00 0.603E+00


 Contracted 2-electron integrals neglected if value below      1.0D-22

       21681351. INTEGRALS WRITTEN OUT IN    5295 BLOCKS ON RECORD 1290 OF FILE 1


 NUMBER OF SORTED TWO-ELECTRON INTEGRALS:   28272141.     BUFFER LENGTH:  32768
 NUMBER OF SEGMENTS:   2  SEGMENT LENGTH:   15998211      RECORD LENGTH: 524288

 Memory used in sort:      16.56 MW

 SORT1 READ    21681351. AND WROTE    22078378. INTEGRALS IN     64 RECORDS. CPU TIME:     0.59 SEC, REAL TIME:     0.76 SEC
 SORT2 READ    22078378. AND WROTE    28272141. INTEGRALS IN      2 RECORDS. CPU TIME:     0.41 SEC, REAL TIME:     0.53 SEC

 FILE SIZES:   FILE 1:   367.6 MBYTE,  FILE 4:   268.5 MBYTE,   TOTAL:    636.1 MBYTE

 OPERATOR DM      FOR CENTER  0  COORDINATES:    0.000000    0.000000    0.000000


 **********************************************************************************************************************************
 DATASETS  * FILE   NREC   LENGTH (MB)   RECORD NAMES
              1      19      213.12       500      610      700      900      950      970     1000      129      960     1100   
                                          VAR    BASINP    GEOM    SYMINP    ZMAT    AOBASIS   BASIS     P2S    ABASIS      S 
                                         1400     1410     1200     1210     1080     1600     1650     1300     1700   
                                           T        V       H0       H01     AOSYM     SMH    MOLCAS    ERIS     OPER   

 PROGRAMS   *        TOTAL       INT
 CPU TIMES  *         4.56      4.45
 REAL TIME  *         5.95 SEC
 DISK USED  *       636.44 MB      
 **********************************************************************************************************************************


 PROGRAM * RHF-SCF (CLOSED SHELL)       Authors: W. Meyer, H.-J. Werner


 NUMBER OF ELECTRONS:       7+    7-
 CONVERGENCE THRESHOLDS:    1.00E-10 (Density)    1.00E-13 (Energy)
 MAX. NUMBER OF ITERATIONS:      500
 INTERPOLATION TYPE:            DIIS
 INTERPOLATION STEPS:              2 (START)      1 (STEP)
 LEVEL SHIFTS:                  0.00 (CLOSED)  0.00 (OPEN) 



 Orbital guess generated from atomic densities. Full valence occupancy:    7   2   2   0

 Molecular orbital dump at record        2100.2

 Initial occupancy:   5   1   1   0

 ITERATION    DDIFF          GRAD             ENERGY        2-EL.EN.            DIPOLE MOMENTS         DIIS   ORB.
    1      0.000D+00      0.000D+00       -92.76993897    111.156209    0.00000    0.00000   -2.03714    0    start
    2      0.000D+00      0.904D-02       -92.78126992    109.523963    0.00000    0.00000   -0.92621    1    diag
    3      0.351D-01      0.800D-02       -92.80412276    110.446572    0.00000    0.00000   -1.45198    2    diag
    4      0.121D-01      0.577D-03       -92.80438066    110.390189    0.00000    0.00000   -1.44477    3    diag
    5      0.191D-02      0.133D-03       -92.80439588    110.400952    0.00000    0.00000   -1.44342    4    diag
    6      0.553D-03      0.347D-04       -92.80439684    110.396139    0.00000    0.00000   -1.44357    5    diag
    7      0.524D-04      0.125D-04       -92.80439694    110.397062    0.00000    0.00000   -1.44366    6    diag
    8      0.172D-04      0.254D-05       -92.80439694    110.397052    0.00000    0.00000   -1.44364    7    diag
    9      0.920D-05      0.277D-06       -92.80439694    110.397061    0.00000    0.00000   -1.44364    8    diag
   10      0.155D-05      0.296D-07       -92.80439694    110.397062    0.00000    0.00000   -1.44364    9    orth
   11      0.148D-06      0.389D-08       -92.80439694    110.397062    0.00000    0.00000   -1.44364    9    diag
   12      0.125D-07      0.410D-09       -92.80439694    110.397062    0.00000    0.00000   -1.44364    9    diag
   13      0.121D-08      0.532D-10       -92.80439694    110.397062    0.00000    0.00000   -1.44364    9    diag
   14      0.181D-09      0.774D-11       -92.80439694    110.397062    0.00000    0.00000   -1.44364    9    diag
   15      0.277D-10      0.161D-11       -92.80439694    110.397062    0.00000    0.00000   -1.44364    9    diag
   16      0.973D-11      0.494D-12       -92.80439694    110.397062    0.00000    0.00000   -1.44364    9    diag
   17      0.328D-11      0.387D-12       -92.80439694    110.397062    0.00000    0.00000   -1.44364    9    diag
   18      0.278D-12      0.203D-12       -92.80439694    110.397062    0.00000    0.00000   -1.44364    0    orth

 Final occupancy:   5   1   1   0

 !RHF STATE 1.1 Energy                -92.804396942793
 Nuclear energy                        23.66709921
 One-electron energy                 -171.67002697
 Two-electron energy                   55.19853082
 Virial quotient                       -1.00324884
 !RHF STATE 1.1 Dipole moment           0.00000000     0.00000000    -1.44364109
 Dipole moment /Debye                   0.00000000     0.00000000    -3.66912933

 Orbital energies:

         1.1          2.1          3.1          4.1          5.1          6.1          7.1
    -15.596237   -11.404706    -1.246477    -0.837984    -0.578773     0.032565     0.151338

         1.2          2.2          3.2
     -0.486153     0.130638     0.302970

         1.3          2.3          3.3
     -0.486153     0.130638     0.302970

         1.4          2.4
      0.682206     0.963060

 HOMO      1.2    -0.486153 =     -13.2289eV
 LUMO      6.1     0.032565 =       0.8861eV
 LUMO-HOMO         0.518718 =      14.1150eV


 **********************************************************************************************************************************
 DATASETS  * FILE   NREC   LENGTH (MB)   RECORD NAMES
              1      19      213.12       500      610      700      900      950      970     1000      129      960     1100   
                                          VAR    BASINP    GEOM    SYMINP    ZMAT    AOBASIS   BASIS     P2S    ABASIS      S 
                                         1400     1410     1200     1210     1080     1600     1650     1300     1700   
                                           T        V       H0       H01     AOSYM     SMH    MOLCAS    ERIS     OPER   

              2       4        2.98       700     1000      520     2100   
                                         GEOM     BASIS   MCVARS     RHF  

 PROGRAMS   *        TOTAL        HF       INT
 CPU TIMES  *         6.80      2.24      4.45
 REAL TIME  *         8.76 SEC
 DISK USED  *       636.44 MB      
 **********************************************************************************************************************************


 PROGRAM * CCSD (Closed-shell coupled cluster)     Authors: C. Hampel, H.-J. Werner, 1991, M. Deegan, P.J. Knowles, 1992


 Convergence thresholds:  THRVAR = 1.00D-08  THRDEN = 1.00D-12

 CCSD(T)     terms to be evaluated (factor= 1.000)


 Number of closed-shell orbitals:   7 (   5   1   1   0 )
 Number of external orbitals:     164 (  70  38  38  18 )

 Molecular orbitals read from record     2100.2  Type=RHF/CANONICAL (state 1.1)

 Number of N-1 electron functions:               7
 Number of N-2 electron functions:              28
 Number of singly external CSFs:               426
 Number of doubly external CSFs:            182374
 Total number of CSFs:                      182801

 Length of J-op  integral file:               0.00 MB
 Length of K-op  integral file:               0.65 MB
 Length of 3-ext integral record:             0.00 MB

 Memory could be reduced to 11.98 Mwords without degradation in triples

 Integral transformation finished. Total CPU:   0.43 sec, npass=  1  Memory used:   1.63 MW

 Reference energy:                    -92.80439694

 MP2 singlet pair energy:              -0.30744581
 MP2 triplet pair energy:              -0.14045849
 MP2 correlation energy:               -0.44790430
 MP2 total energy:                    -93.25230124

 SCS-MP2 correlation energy:           -0.45633136   (PS=  1.200000  PT=  0.333333)
 SCS-MP2 total energy:                -93.26072831

 ITER.      SQ.NORM     CORR.ENERGY   TOTAL ENERGY   ENERGY CHANGE        DEN1      VAR(S)    VAR(P)  DIIS     TIME  TIME/IT
   1      1.11353350    -0.45375762   -93.25815456    -0.00585332     0.00739610  0.27D-02  0.29D-02  1  1     0.93     0.53
   2      1.12269931    -0.45389192   -93.25828887    -0.00013431    -0.01050694  0.59D-04  0.38D-03  2  2     1.45     0.55
   3      1.12653451    -0.45407221   -93.25846916    -0.00018029    -0.00182922  0.19D-04  0.55D-04  3  3     1.95     0.55
   4      1.12903042    -0.45409162   -93.25848856    -0.00001941    -0.00107856  0.96D-06  0.56D-05  4  4     2.44     0.56
   5      1.12963250    -0.45409655   -93.25849349    -0.00000493    -0.00016816  0.19D-06  0.48D-06  5  5     2.93     0.56
   6      1.12972433    -0.45410037   -93.25849732    -0.00000382    -0.00000555  0.85D-08  0.41D-07  6  6     3.46     0.56
   7      1.12974042    -0.45410139   -93.25849834    -0.00000102    -0.00000386  0.17D-08  0.35D-08  6  1     3.97     0.56
   8      1.12974382    -0.45410157   -93.25849852    -0.00000018    -0.00000145  0.20D-09  0.21D-09  6  2     4.47     0.56
   9      1.12974372    -0.45410165   -93.25849859    -0.00000008     0.00000022  0.17D-10  0.21D-10  6  3     4.96     0.56
  10      1.12974391    -0.45410167   -93.25849862    -0.00000002    -0.00000002  0.39D-11  0.18D-11  6  4     5.46     0.56
  11      1.12974389    -0.45410168   -93.25849862    -0.00000001     0.00000002  0.57D-12  0.37D-12  6  5     5.96     0.57
  12      1.12974384    -0.45410168   -93.25849863    -0.00000000     0.00000003  0.54D-13  0.80D-13  6  6     6.48     0.57
  13      1.12974381    -0.45410168   -93.25849863    -0.00000000     0.00000001  0.25D-14  0.11D-13  6  1     6.98     0.57
  14      1.12974379    -0.45410168   -93.25849863    -0.00000000     0.00000001  0.26D-15  0.17D-14  6  2     7.42     0.56
  15      1.12974379    -0.45410168   -93.25849863    -0.00000000     0.00000000  0.21D-16  0.11D-15  6  4     7.83     0.55
  16      1.12974378    -0.45410168   -93.25849863    -0.00000000     0.00000000  0.78D-17  0.78D-17  6  3     8.21     0.55
  17      1.12974378    -0.45410168   -93.25849863    -0.00000000     0.00000000  0.14D-17  0.12D-17  6  5     8.63     0.54
  18      1.12974378    -0.45410168   -93.25849863    -0.00000000     0.00000000  0.14D-18  0.91D-19  6  6     9.03     0.54
  19      1.12974378    -0.45410168   -93.25849863    -0.00000000     0.00000000  0.25D-19  0.81D-20  6  1     9.41     0.53
  20      1.12974378    -0.45410168   -93.25849863    -0.00000000     0.00000000  0.30D-20  0.24D-20  6  2     9.80     0.53
  21      1.12974378    -0.45410168   -93.25849863    -0.00000000     0.00000000  0.49D-21  0.42D-21  6  4    10.19     0.52
  22      1.12974378    -0.45410168   -93.25849863     0.00000000    -0.00000000  0.14D-22  0.65D-22  6  3    10.58     0.52

 Norm of t1 vector:      0.06557443      S-energy:    -0.00000000      T1 diagnostic:  0.01239240
                                                                       D1 diagnostic:  0.02904467

 Doubles amplitudes (print threshold =  0.500E-01):

         I         J         SYM. A    SYM. B    A         B      T(IJ, AB)

         6         6         2         2         1         1     -0.06131148
         7         7         3         3         1         1     -0.06131148


 Total CPU time for triples:      8.19 sec


 RESULTS
 =======

  Reference energy                    -92.804396942793

  Correlated core orbitals:             1.1       2.1
  Orbital energies:                   -15.5962  -11.4047
 
  CCSD core-core energy                -0.079741532533
  CCSD core-valence energy             -0.029105960278
  CCSD valence correlation energy      -0.345254190330
 
  CCSD singlet pair energy             -0.332621116717
  CCSD triplet pair energy             -0.121480566424
  CCSD correlation energy              -0.454101683141

  Triples (T) contribution             -0.018409421654
  Total correlation energy             -0.472511104794

  CCSD total energy                   -93.258498625934
  CCSD[T] energy                      -93.277729218382
  CCSD-T energy                       -93.276519138310
 !CCSD(T) total energy                -93.276908047588

 Timing summary (sec):

 STEP                 CPU(USER)    SYS     CPU(TOT)    WALL
 Transformation          0.44      0.14      0.58      0.67
 CCSD iterations        10.14      1.34     11.48     11.49
 Triples                 8.19      0.29      8.48      8.47

 Program statistics:

 Available memory in ccsd:               994999704
 Min. memory needed in ccsd:                607983
 Max. memory used in ccsd:                  763562
 Max. memory used in cckext:                768329 (22 integral passes)



 **********************************************************************************************************************************
 DATASETS  * FILE   NREC   LENGTH (MB)   RECORD NAMES
              1      20      249.27       500      610      700      900      950      970     1000      129      960     1100   
                                          VAR    BASINP    GEOM    SYMINP    ZMAT    AOBASIS   BASIS     P2S    ABASIS      S 
                                         1400     1410     1200     1210     1080     1600     1650     1300     1700     1380   
                                           T        V       H0       H01     AOSYM     SMH    MOLCAS    ERIS     OPER     JKOP   

              2       4        2.98       700     1000      520     2100   
                                         GEOM     BASIS   MCVARS     RHF  

 PROGRAMS   *        TOTAL   CCSD(T)        HF       INT
 CPU TIMES  *        25.62     18.81      2.24      4.45
 REAL TIME  *        29.51 SEC
 DISK USED  *       636.44 MB      
 **********************************************************************************************************************************

 CCSD(T)/USERDEF energy=    -93.276908047588

        CCSD(T)         HF-SCF  
    -93.27690805    -92.80439694
 **********************************************************************************************************************************
 Molpro calculation terminated
 Variable memory released
