
 Primary working directories    : /tmp/r2666/233471.maple
 Secondary working directories  : /tmp/r2666/233471.maple
 Wavefunction directory         : /ddn/home4/r2666/wfu/
 Main file repository           : /tmp/r2666/233471.maple/

 SHA1      : d5ffa45e93fdbca01ffc919aa182cfdae0147319
 NAME      : 2015.1.35
 ARCHNAME  : linux/x86_64
 FC        : /opt/intel/composer_xe_2015.1.133/bin/intel64/ifort
 BLASLIB   : -Wl,-_start-group /opt/intel/mkl/lib/intel64/libmkl_intel_ilp64.a /opt/intel/mkl/lib/intel64/libmkl_intel_thread.a /opt/intel/mkl/lib/intel64/libmkl_core.a -Wl,-_end-group
 id        : olemiss

 Nodes     nprocs
 cn094        1

 Using customized tuning parameters: mindgm=1; mindgv=20; mindgc=4; mindgr=1; noblas=0; minvec=7
 default implementation of scratch files=df  

 ***,hcn CCSD(T)/TZ-F12 QFF
 memory, 995, m;
 gthresh,energy=1.d-12,zero=1.d-22,oneint=1.d-22,twoint=1.d-22;
 gthresh,optgrad=1.d-8,optstep=1.d-8;
 nocompress;
 geomtyp=xyz
 bohr
 geometry={
 3
         16        16
 N       -0.0046066808       -0.0000000631        1.1183537398
 C        0.0095917471        0.0000000016       -1.0510008334
 H       -0.0049850663        0.0000000614       -3.0644228884
 }
 
 basis={
 default=aug-cc-pvtz
 s,C,8236.0,1235.0,280.8, 79.27,25.59, 8.997,3.319
 s,C,0.9059,0.3643,0.1285000
 p,C,56.0,18.71,4.133,0.2827,0.3827,0.1209
 d,C,30.0,10.0,3.3,1.097,0.318
 f,C,7.0,2.3,0.7610
 s,N,11420.0,1712.0,389.3,110.0,35.57,12.54,4.644
 s,N,1.293,0.5118,0.1787
 p,N,79.89,26.63,5.948,1.742,0.555,0.1725
 d,N,45.0,15.0,5.0,1.654,0.469
 f,N,9.9,3.3,1.093
 s,O,15330.0,2299.0,522.4,147.3,47.55,16.76,6.207
 s,O,1.752,0.6882,0.2384
 p,O,103.5,34.46,7.749,2.28,0.7156,0.214
 d,O,63.0,21.0,7.0,2.314,0.645
 f,O,12.9,4.3,1.428
 s,mg,164900.0,24710.0,5628.0,1596.0,521.0;
 s,mg,188.0,73.01,29.90,12.54,4.306,1.826;
 s,mg,0.7417,0.0761,0.145,0.033,0.0129;
 p,mg,950.70,316.90,74.86,23.72,8.669,3.363;
 p,mg,1.310,0.4911,0.2364,0.08733,0.03237,0.00745;
 d,mg,1.601,0.686,0.126,0.294,0.0468;
 f,mg,1.372,0.588,0.094,0.252;
 }
   {hf,maxit=500;accu,20;}
 {ccsd(t),nocheck,maxit=250;orbital,IGNORE_ERROR;core}

 Variables initialized (889), CPU time= 0.00 sec
 Commands  initialized (702), CPU time= 0.02 sec, 572 directives.
 Default parameters read. Elapsed time= 0.05 sec

 Checking input...
 Passed
1


                                         ***  PROGRAM SYSTEM MOLPRO  ***
                                       Copyright, TTI GmbH Stuttgart, 2015
                                    Version 2015.1 linked Jul  9 2018 13:16:40


 **********************************************************************************************************************************
 LABEL *   hcn CCSD(T)/TZ-F12 QFF                                                        
  64 bit serial version                                                                  DATE: 06-Feb-20          TIME: 21:38:09  
 **********************************************************************************************************************************

 SHA1:             d5ffa45e93fdbca01ffc919aa182cfdae0147319
 **********************************************************************************************************************************

 THRESHOLDS:

 ZERO    =  1.00D-22  ONEINT  =  1.00D-22  TWOINT  =  1.00D-22  PREFAC  =  1.00D-14  LOCALI  =  1.00D-09  EORDER  =  1.00D-04
 ENERGY  =  1.00D-12  ETEST   =  0.00D+00  EDENS   =  0.00D+00  THRDEDEF=  1.00D-06  GRADIENT=  1.00D-02  STEP    =  1.00D-03
 ORBITAL =  1.00D-05  CIVEC   =  1.00D-05  COEFF   =  1.00D-04  PRINTCI =  5.00D-02  PUNCHCI =  9.90D+01  OPTGRAD =  3.00D-04
 OPTENERG=  1.00D-06  OPTSTEP =  3.00D-04  THRGRAD =  1.00D-10  COMPRESS=  1.00D-11  VARMIN  =  1.00D-07  VARMAX  =  1.00D-03
 THRDOUB =  0.00D+00  THRDIV  =  1.00D-05  THRRED  =  1.00D-07  THRPSP  =  1.00D+00  THRDC   =  1.00D-10  THRCS   =  1.00D-10
 THRNRM  =  1.00D-08  THREQ   =  0.00D+00  THRDE   =  1.00D+00  THRREF  =  1.00D-05  SPARFAC =  1.00D+00  THRDLP  =  1.00D-07
 THRDIA  =  1.00D-10  THRDLS  =  1.00D-07  THRGPS  =  0.00D+00  THRKEX  =  0.00D+00  THRDIS  =  2.00D-01  THRVAR  =  1.00D-10
 THRLOC  =  1.00D-06  THRGAP  =  1.00D-06  THRLOCT = -1.00D+00  THRGAPT = -1.00D+00  THRORB  =  1.00D-06  THRMLTP =  0.00D+00
 THRCPQCI=  1.00D-10  KEXTA   =  0.00D+00  THRCOARS=  0.00D+00  SYMTOL  =  1.00D-06  GRADTOL =  1.00D-06  THROVL  =  1.00D-08
 THRORTH =  1.00D-08  GRID    =  1.00D-06  GRIDMAX =  1.00D-03  DTMAX   =  0.00D+00  THROCCDE=  1.00D-01  THROCCDE=  1.00D-01



 THRESHOLDS:

 ZERO    =  1.00D-22  ONEINT  =  1.00D-22  TWOINT  =  1.00D-22  PREFAC  =  1.00D-14  LOCALI  =  1.00D-09  EORDER  =  1.00D-04
 ENERGY  =  1.00D-12  ETEST   =  0.00D+00  EDENS   =  0.00D+00  THRDEDEF=  1.00D-06  GRADIENT=  1.00D-02  STEP    =  1.00D-03
 ORBITAL =  1.00D-05  CIVEC   =  1.00D-05  COEFF   =  1.00D-04  PRINTCI =  5.00D-02  PUNCHCI =  9.90D+01  OPTGRAD =  1.00D-08
 OPTENERG=  1.00D-06  OPTSTEP =  1.00D-08  THRGRAD =  1.00D-10  COMPRESS=  1.00D-11  VARMIN  =  1.00D-07  VARMAX  =  1.00D-03
 THRDOUB =  0.00D+00  THRDIV  =  1.00D-05  THRRED  =  1.00D-07  THRPSP  =  1.00D+00  THRDC   =  1.00D-10  THRCS   =  1.00D-10
 THRNRM  =  1.00D-08  THREQ   =  0.00D+00  THRDE   =  1.00D+00  THRREF  =  1.00D-05  SPARFAC =  1.00D+00  THRDLP  =  1.00D-07
 THRDIA  =  1.00D-10  THRDLS  =  1.00D-07  THRGPS  =  0.00D+00  THRKEX  =  0.00D+00  THRDIS  =  2.00D-01  THRVAR  =  1.00D-10
 THRLOC  =  1.00D-06  THRGAP  =  1.00D-06  THRLOCT = -1.00D+00  THRGAPT = -1.00D+00  THRORB  =  1.00D-06  THRMLTP =  0.00D+00
 THRCPQCI=  1.00D-10  KEXTA   =  0.00D+00  THRCOARS=  0.00D+00  SYMTOL  =  1.00D-06  GRADTOL =  1.00D-06  THROVL  =  1.00D-08
 THRORTH =  1.00D-08  GRID    =  1.00D-06  GRIDMAX =  1.00D-03  DTMAX   =  0.00D+00  THROCCDE=  1.00D-01  THROCCDE=  1.00D-01



 Input parameters for SORTINT:

 COMPRESS =    0.000000
 C_FINAL  =    1.000000
 DEBUG    =   -1.000000
 C_SORT1  =    0.000000
 C_SEWARD =    0.000000
 THRESH   =    0.000000
 IO       =  molpro                                                          
 SPRI     =    0.000000
 SETTING GEOMTYP        =    XYZ
 ZUNIT=BOHR
 

 Variable memory set to  995000000 words,  buffer space   230000 words

 SETTING BASIS          =    USERDEF


 Recomputing integrals since basis changed


 Using spherical harmonics

 Library entry H      S aug-cc-pVTZ          selected for orbital group  3
 Library entry H      P aug-cc-pVTZ          selected for orbital group  3
 Library entry H      D aug-cc-pVTZ          selected for orbital group  3


 PROGRAM * SEWARD (Integral evaluation for generally contracted gaussian basis sets)     Author: Roland Lindh, 1990

 Geometry written to block  1 of record 700


 Point group  Cs  



 ATOMIC COORDINATES

 NR  ATOM    CHARGE       X              Y              Z

   1  N       7.00   -0.004606681    0.000000000    1.118353740
   2  C       6.00    0.009591747    0.000000000   -1.051000833
   3  H       1.00   -0.004985066    0.000000000   -3.064422888

 Bond lengths in Bohr (Angstrom)

 1-2  2.169401037  2-3  2.013474821
     ( 1.147997590)     ( 1.065484990)

 Bond angles

  1-2-3  179.21020053

 NUCLEAR CHARGE:                   14
 NUMBER OF PRIMITIVE AOS:         203
 NUMBER OF SYMMETRY AOS:          173
 NUMBER OF CONTRACTIONS:          171   ( 114A'  +  57A"  )
 NUMBER OF CORE ORBITALS:           2   (   2A'  +   0A"  )
 NUMBER OF VALENCE ORBITALS:        9   (   7A'  +   2A"  )


 NUCLEAR REPULSION ENERGY   24.01363501


 Eigenvalues of metric

         1 0.242E-03 0.510E-03 0.902E-03 0.138E-02 0.317E-02 0.539E-02 0.753E-02 0.100E-01
         2 0.539E-02 0.156E-01 0.217E-01 0.343E-01 0.964E-01 0.112E+00 0.124E+00 0.125E+00


 Contracted 2-electron integrals neglected if value below      1.0D-22

       48067942. INTEGRALS WRITTEN OUT IN   11739 BLOCKS ON RECORD 1290 OF FILE 1


 NUMBER OF SORTED TWO-ELECTRON INTEGRALS:   55360566.     BUFFER LENGTH:  32768
 NUMBER OF SEGMENTS:   4  SEGMENT LENGTH:   15997996      RECORD LENGTH: 524288

 Memory used in sort:      16.56 MW

 SORT1 READ    48067942. AND WROTE    48523806. INTEGRALS IN    141 RECORDS. CPU TIME:     0.84 SEC, REAL TIME:     1.24 SEC
 SORT2 READ    48523806. AND WROTE    55360566. INTEGRALS IN      4 RECORDS. CPU TIME:     0.75 SEC, REAL TIME:     0.98 SEC

 FILE SIZES:   FILE 1:   790.1 MBYTE,  FILE 4:   591.4 MBYTE,   TOTAL:   1381.5 MBYTE

 OPERATOR DM      FOR CENTER  0  COORDINATES:    0.000000    0.000000    0.000000


 **********************************************************************************************************************************
 DATASETS  * FILE   NREC   LENGTH (MB)   RECORD NAMES
              1      19      433.09       500      610      700      900      950      970     1000      129      960     1100   
                                          VAR    BASINP    GEOM    SYMINP    ZMAT    AOBASIS   BASIS     P2S    ABASIS      S 
                                         1400     1410     1200     1210     1080     1600     1650     1300     1700   
                                           T        V       H0       H01     AOSYM     SMH    MOLCAS    ERIS     OPER   

 PROGRAMS   *        TOTAL       INT
 CPU TIMES  *         4.92      4.82
 REAL TIME  *         6.57 SEC
 DISK USED  *         1.38 GB      
 **********************************************************************************************************************************


 PROGRAM * RHF-SCF (CLOSED SHELL)       Authors: W. Meyer, H.-J. Werner


 NUMBER OF ELECTRONS:       7+    7-
 CONVERGENCE THRESHOLDS:    1.00E-10 (Density)    1.00E-13 (Energy)
 MAX. NUMBER OF ITERATIONS:      500
 INTERPOLATION TYPE:            DIIS
 INTERPOLATION STEPS:              2 (START)      1 (STEP)
 LEVEL SHIFTS:                  0.00 (CLOSED)  0.00 (OPEN) 



 Orbital guess generated from atomic densities. Full valence occupancy:    9   2

 Molecular orbital dump at record        2100.2

 Initial occupancy:   6   1

 ITERATION    DDIFF          GRAD             ENERGY        2-EL.EN.            DIPOLE MOMENTS         DIIS   ORB.
    1      0.000D+00      0.000D+00       -92.77189078    111.934421    0.00837    0.00000   -2.02062    0    start
    2      0.000D+00      0.712D-02       -92.78455596    110.188886   -0.00315    0.00000   -0.95212    1    diag
    3      0.254D-01      0.611D-02       -92.80627166    111.121788    0.00165    0.00000   -1.44880    2    diag
    4      0.873D-02      0.438D-03       -92.80651865    111.074346    0.00129    0.00000   -1.44159    3    diag
    5      0.139D-02      0.967D-04       -92.80653301    111.081544    0.00118    0.00000   -1.44035    4    diag
    6      0.384D-03      0.251D-04       -92.80653375    111.077593    0.00117    0.00000   -1.44065    5    diag
    7      0.294D-04      0.885D-05       -92.80653383    111.078593    0.00116    0.00000   -1.44071    6    diag
    8      0.114D-04      0.177D-05       -92.80653383    111.078573    0.00116    0.00000   -1.44069    7    diag
    9      0.586D-05      0.196D-06       -92.80653383    111.078581    0.00116    0.00000   -1.44068    8    diag
   10      0.989D-06      0.226D-07       -92.80653383    111.078582    0.00116    0.00000   -1.44068    9    orth
   11      0.994D-07      0.396D-08       -92.80653383    111.078582    0.00116    0.00000   -1.44068    9    diag
   12      0.131D-07      0.143D-08       -92.80653383    111.078582    0.00116    0.00000   -1.44068    9    diag
   13      0.603D-08      0.658D-09       -92.80653383    111.078582    0.00116    0.00000   -1.44068    9    diag
   14      0.423D-08      0.167D-09       -92.80653383    111.078582    0.00116    0.00000   -1.44068    9    diag
   15      0.103D-08      0.621D-10       -92.80653383    111.078582    0.00116    0.00000   -1.44068    9    diag
   16      0.296D-09      0.152D-10       -92.80653383    111.078582    0.00116    0.00000   -1.44068    9    diag
   17      0.763D-10      0.370D-11       -92.80653383    111.078582    0.00116    0.00000   -1.44068    0    orth

 Final occupancy:   6   1

 !RHF STATE 1.1 Energy                -92.806533833256
 Nuclear energy                        24.01363501
 One-electron energy                 -172.35945977
 Two-electron energy                   55.53929092
 Virial quotient                       -1.00208885
 !RHF STATE 1.1 Dipole moment           0.00116033     0.00000000    -1.44068458
 Dipole moment /Debye                   0.00294907     0.00000000    -3.66161511

 Orbital energies:

         1.1          2.1          3.1          4.1          5.1          6.1          7.1          8.1
    -15.589314   -11.397764    -1.256288    -0.835323    -0.577797    -0.491975     0.032691     0.134506

         1.2          2.2          3.2
     -0.491977     0.134571     0.307519

 HOMO      6.1    -0.491975 =     -13.3873eV
 LUMO      7.1     0.032691 =       0.8896eV
 LUMO-HOMO         0.524667 =      14.2769eV


 **********************************************************************************************************************************
 DATASETS  * FILE   NREC   LENGTH (MB)   RECORD NAMES
              1      19      433.09       500      610      700      900      950      970     1000      129      960     1100   
                                          VAR    BASINP    GEOM    SYMINP    ZMAT    AOBASIS   BASIS     P2S    ABASIS      S 
                                         1400     1410     1200     1210     1080     1600     1650     1300     1700   
                                           T        V       H0       H01     AOSYM     SMH    MOLCAS    ERIS     OPER   

              2       4        3.13       700     1000      520     2100   
                                         GEOM     BASIS   MCVARS     RHF  

 PROGRAMS   *        TOTAL        HF       INT
 CPU TIMES  *        10.25      5.33      4.82
 REAL TIME  *        12.95 SEC
 DISK USED  *         1.38 GB      
 **********************************************************************************************************************************


 PROGRAM * CCSD (Closed-shell coupled cluster)     Authors: C. Hampel, H.-J. Werner, 1991, M. Deegan, P.J. Knowles, 1992


 Convergence thresholds:  THRVAR = 1.00D-08  THRDEN = 1.00D-12

 CCSD(T)     terms to be evaluated (factor= 1.000)


 Number of closed-shell orbitals:   7 (   6   1 )
 Number of external orbitals:     164 ( 108  56 )

 Molecular orbitals read from record     2100.2  Type=RHF/CANONICAL (state 1.1)

 Number of N-1 electron functions:               7
 Number of N-2 electron functions:              28
 Number of singly external CSFs:               704
 Number of doubly external CSFs:            346950
 Total number of CSFs:                      347655

 Length of J-op  integral file:               0.00 MB
 Length of K-op  integral file:               1.15 MB
 Length of 3-ext integral record:             0.00 MB

 Memory could be reduced to 22.83 Mwords without degradation in triples

 Integral transformation finished. Total CPU:   1.03 sec, npass=  1  Memory used:   5.99 MW

 Reference energy:                    -92.80653383

 MP2 singlet pair energy:              -0.30559683
 MP2 triplet pair energy:              -0.13908587
 MP2 correlation energy:               -0.44468270
 MP2 total energy:                    -93.25121653

 SCS-MP2 correlation energy:           -0.45325851   (PS=  1.200000  PT=  0.333333)
 SCS-MP2 total energy:                -93.25979235

 ITER.      SQ.NORM     CORR.ENERGY   TOTAL ENERGY   ENERGY CHANGE        DEN1      VAR(S)    VAR(P)  DIIS     TIME  TIME/IT
   1      1.11118443    -0.45140813   -93.25794196    -0.00672542     0.00580851  0.25D-02  0.26D-02  1  1     2.08     1.08
   2      1.11986311    -0.45167328   -93.25820711    -0.00026515    -0.01005492  0.54D-04  0.35D-03  2  2     3.11     1.11
   3      1.12345742    -0.45184037   -93.25837420    -0.00016709    -0.00176298  0.18D-04  0.49D-04  3  3     4.12     1.11
   4      1.12573260    -0.45185418   -93.25838801    -0.00001381    -0.00101183  0.92D-06  0.48D-05  4  4     5.14     1.12
   5      1.12626543    -0.45185864   -93.25839247    -0.00000446    -0.00015003  0.17D-06  0.39D-06  5  5     6.17     1.12
   6      1.12634388    -0.45186182   -93.25839566    -0.00000318    -0.00000437  0.85D-08  0.34D-07  6  6     7.20     1.12
   7      1.12635781    -0.45186258   -93.25839642    -0.00000076    -0.00000351  0.18D-08  0.28D-08  6  1     8.21     1.12
   8      1.12636075    -0.45186271   -93.25839655    -0.00000013    -0.00000123  0.24D-09  0.17D-09  6  2     9.20     1.12
   9      1.12636072    -0.45186278   -93.25839661    -0.00000006     0.00000018  0.26D-10  0.20D-10  6  3    10.21     1.12
  10      1.12636090    -0.45186279   -93.25839663    -0.00000002    -0.00000001  0.55D-11  0.23D-11  6  4    11.24     1.12
  11      1.12636091    -0.45186280   -93.25839663    -0.00000001     0.00000002  0.65D-12  0.53D-12  6  5    12.29     1.12
  12      1.12636086    -0.45186280   -93.25839663     0.00000000     0.00000003  0.41D-13  0.99D-13  6  6    13.30     1.12
  13      1.12636083    -0.45186280   -93.25839663    -0.00000000     0.00000001  0.25D-14  0.14D-13  6  1    14.35     1.12
  14      1.12636081    -0.45186280   -93.25839663    -0.00000000     0.00000001  0.64D-15  0.22D-14  6  2    15.41     1.13
  15      1.12636080    -0.45186280   -93.25839663    -0.00000000     0.00000000  0.55D-16  0.14D-15  6  4    16.48     1.13
  16      1.12636080    -0.45186280   -93.25839663    -0.00000000     0.00000000  0.12D-16  0.92D-17  6  3    17.57     1.13
  17      1.12636080    -0.45186280   -93.25839663    -0.00000000     0.00000000  0.28D-17  0.14D-17  6  5    18.63     1.13
  18      1.12636080    -0.45186280   -93.25839663    -0.00000000     0.00000000  0.41D-18  0.18D-18  6  6    19.64     1.13
  19      1.12636080    -0.45186280   -93.25839663    -0.00000000     0.00000000  0.79D-19  0.32D-19  6  1    20.74     1.14
  20      1.12636080    -0.45186280   -93.25839663    -0.00000000     0.00000000  0.81D-20  0.89D-20  6  2    21.82     1.14
  21      1.12636080    -0.45186280   -93.25839663     0.00000000    -0.00000000  0.73D-21  0.17D-20  6  4    22.90     1.14
  22      1.12636080    -0.45186280   -93.25839663     0.00000000    -0.00000000  0.10D-21  0.24D-21  6  3    23.96     1.14

 Norm of t1 vector:      0.06303582      S-energy:     0.00000000      T1 diagnostic:  0.01191265
                                                                       D1 diagnostic:  0.02782683

 Doubles amplitudes (print threshold =  0.500E-01):

         I         J         SYM. A    SYM. B    A         B      T(IJ, AB)

         6         6         1         1         2         2     -0.05697473
         7         7         2         2         1         1     -0.05707508


 Total CPU time for triples:     13.89 sec


 RESULTS
 =======

  Reference energy                    -92.806533833256

  Correlated core orbitals:             1.1       2.1
  Orbital energies:                   -15.5893  -11.3978
 
  CCSD core-core energy                -0.079699906213
  CCSD core-valence energy             -0.029369834855
  CCSD valence correlation energy      -0.342793059213
 
  CCSD singlet pair energy             -0.330661425569
  CCSD triplet pair energy             -0.121201374712
  CCSD correlation energy              -0.451862800281

  Triples (T) contribution             -0.017832339654
  Total correlation energy             -0.469695139935

  CCSD total energy                   -93.258396633537
  CCSD[T] energy                      -93.276982748164
  CCSD-T energy                       -93.275870528868
 !CCSD(T) total energy                -93.276228973191

 Timing summary (sec):

 STEP                 CPU(USER)    SYS     CPU(TOT)    WALL
 Transformation          1.05      0.15      1.20      1.21
 CCSD iterations        22.91      2.24     25.15     25.15
 Triples                13.89      0.36     14.25     14.24

 Program statistics:

 Available memory in ccsd:               994999704
 Min. memory needed in ccsd:               1130392
 Max. memory used in ccsd:                 1422657
 Max. memory used in cckext:               1758571 (22 integral passes)



 **********************************************************************************************************************************
 DATASETS  * FILE   NREC   LENGTH (MB)   RECORD NAMES
              1      20      502.64       500      610      700      900      950      970     1000      129      960     1100   
                                          VAR    BASINP    GEOM    SYMINP    ZMAT    AOBASIS   BASIS     P2S    ABASIS      S 
                                         1400     1410     1200     1210     1080     1600     1650     1300     1700     1380   
                                           T        V       H0       H01     AOSYM     SMH    MOLCAS    ERIS     OPER     JKOP   

              2       4        3.13       700     1000      520     2100   
                                         GEOM     BASIS   MCVARS     RHF  

 PROGRAMS   *        TOTAL   CCSD(T)        HF       INT
 CPU TIMES  *        48.13     37.87      5.33      4.82
 REAL TIME  *        53.59 SEC
 DISK USED  *         1.38 GB      
 **********************************************************************************************************************************

 CCSD(T)/USERDEF energy=    -93.276228973191

        CCSD(T)         HF-SCF  
    -93.27622897    -92.80653383
 **********************************************************************************************************************************
 Molpro calculation terminated
 Variable memory released
