
 Primary working directories    : /tmp/r2666/232755.maple
 Secondary working directories  : /tmp/r2666/232755.maple
 Wavefunction directory         : /ddn/home4/r2666/wfu/
 Main file repository           : /tmp/r2666/232755.maple/

 SHA1      : d5ffa45e93fdbca01ffc919aa182cfdae0147319
 NAME      : 2015.1.35
 ARCHNAME  : linux/x86_64
 FC        : /opt/intel/composer_xe_2015.1.133/bin/intel64/ifort
 BLASLIB   : -Wl,-_start-group /opt/intel/mkl/lib/intel64/libmkl_intel_ilp64.a /opt/intel/mkl/lib/intel64/libmkl_intel_thread.a /opt/intel/mkl/lib/intel64/libmkl_core.a -Wl,-_end-group
 id        : olemiss

 Nodes     nprocs
 cn080        1

 Using customized tuning parameters: mindgm=1; mindgv=20; mindgc=4; mindgr=1; noblas=0; minvec=7
 default implementation of scratch files=df  

 ***,hcn CCSD(T)/TZ-F12 QFF
 memory, 995, m;
 gthresh,energy=1.d-12,zero=1.d-22,oneint=1.d-22,twoint=1.d-22;
 gthresh,optgrad=1.d-8,optstep=1.d-8;
 nocompress;
 geomtyp=xyz
 bohr
 geometry={
 3
         34        34
 N        0.0000000000        0.0000000000        1.1341500209
 C        0.0000000000        0.0000000000       -1.0446996461
 H        0.0000000000        0.0000000000       -3.0865203569
 }
 
 basis={
 default=aug-cc-pvtz
 s,C,8236.0,1235.0,280.8, 79.27,25.59, 8.997,3.319
 s,C,0.9059,0.3643,0.1285000
 p,C,56.0,18.71,4.133,0.2827,0.3827,0.1209
 d,C,30.0,10.0,3.3,1.097,0.318
 f,C,7.0,2.3,0.7610
 s,N,11420.0,1712.0,389.3,110.0,35.57,12.54,4.644
 s,N,1.293,0.5118,0.1787
 p,N,79.89,26.63,5.948,1.742,0.555,0.1725
 d,N,45.0,15.0,5.0,1.654,0.469
 f,N,9.9,3.3,1.093
 s,O,15330.0,2299.0,522.4,147.3,47.55,16.76,6.207
 s,O,1.752,0.6882,0.2384
 p,O,103.5,34.46,7.749,2.28,0.7156,0.214
 d,O,63.0,21.0,7.0,2.314,0.645
 f,O,12.9,4.3,1.428
 s,mg,164900.0,24710.0,5628.0,1596.0,521.0;
 s,mg,188.0,73.01,29.90,12.54,4.306,1.826;
 s,mg,0.7417,0.0761,0.145,0.033,0.0129;
 p,mg,950.70,316.90,74.86,23.72,8.669,3.363;
 p,mg,1.310,0.4911,0.2364,0.08733,0.03237,0.00745;
 d,mg,1.601,0.686,0.126,0.294,0.0468;
 f,mg,1.372,0.588,0.094,0.252;
 }
   {hf,maxit=500;accu,20;}
 {ccsd(t),nocheck,maxit=250;orbital,IGNORE_ERROR;core}

 Variables initialized (889), CPU time= 0.01 sec
 Commands  initialized (702), CPU time= 0.01 sec, 572 directives.
 Default parameters read. Elapsed time= 0.05 sec

 Checking input...
 Passed
1


                                         ***  PROGRAM SYSTEM MOLPRO  ***
                                       Copyright, TTI GmbH Stuttgart, 2015
                                    Version 2015.1 linked Jul  9 2018 13:16:40


 **********************************************************************************************************************************
 LABEL *   hcn CCSD(T)/TZ-F12 QFF                                                        
  64 bit serial version                                                                  DATE: 06-Feb-20          TIME: 09:55:22  
 **********************************************************************************************************************************

 SHA1:             d5ffa45e93fdbca01ffc919aa182cfdae0147319
 **********************************************************************************************************************************

 THRESHOLDS:

 ZERO    =  1.00D-22  ONEINT  =  1.00D-22  TWOINT  =  1.00D-22  PREFAC  =  1.00D-14  LOCALI  =  1.00D-09  EORDER  =  1.00D-04
 ENERGY  =  1.00D-12  ETEST   =  0.00D+00  EDENS   =  0.00D+00  THRDEDEF=  1.00D-06  GRADIENT=  1.00D-02  STEP    =  1.00D-03
 ORBITAL =  1.00D-05  CIVEC   =  1.00D-05  COEFF   =  1.00D-04  PRINTCI =  5.00D-02  PUNCHCI =  9.90D+01  OPTGRAD =  3.00D-04
 OPTENERG=  1.00D-06  OPTSTEP =  3.00D-04  THRGRAD =  1.00D-10  COMPRESS=  1.00D-11  VARMIN  =  1.00D-07  VARMAX  =  1.00D-03
 THRDOUB =  0.00D+00  THRDIV  =  1.00D-05  THRRED  =  1.00D-07  THRPSP  =  1.00D+00  THRDC   =  1.00D-10  THRCS   =  1.00D-10
 THRNRM  =  1.00D-08  THREQ   =  0.00D+00  THRDE   =  1.00D+00  THRREF  =  1.00D-05  SPARFAC =  1.00D+00  THRDLP  =  1.00D-07
 THRDIA  =  1.00D-10  THRDLS  =  1.00D-07  THRGPS  =  0.00D+00  THRKEX  =  0.00D+00  THRDIS  =  2.00D-01  THRVAR  =  1.00D-10
 THRLOC  =  1.00D-06  THRGAP  =  1.00D-06  THRLOCT = -1.00D+00  THRGAPT = -1.00D+00  THRORB  =  1.00D-06  THRMLTP =  0.00D+00
 THRCPQCI=  1.00D-10  KEXTA   =  0.00D+00  THRCOARS=  0.00D+00  SYMTOL  =  1.00D-06  GRADTOL =  1.00D-06  THROVL  =  1.00D-08
 THRORTH =  1.00D-08  GRID    =  1.00D-06  GRIDMAX =  1.00D-03  DTMAX   =  0.00D+00  THROCCDE=  1.00D-01  THROCCDE=  1.00D-01



 THRESHOLDS:

 ZERO    =  1.00D-22  ONEINT  =  1.00D-22  TWOINT  =  1.00D-22  PREFAC  =  1.00D-14  LOCALI  =  1.00D-09  EORDER  =  1.00D-04
 ENERGY  =  1.00D-12  ETEST   =  0.00D+00  EDENS   =  0.00D+00  THRDEDEF=  1.00D-06  GRADIENT=  1.00D-02  STEP    =  1.00D-03
 ORBITAL =  1.00D-05  CIVEC   =  1.00D-05  COEFF   =  1.00D-04  PRINTCI =  5.00D-02  PUNCHCI =  9.90D+01  OPTGRAD =  1.00D-08
 OPTENERG=  1.00D-06  OPTSTEP =  1.00D-08  THRGRAD =  1.00D-10  COMPRESS=  1.00D-11  VARMIN  =  1.00D-07  VARMAX  =  1.00D-03
 THRDOUB =  0.00D+00  THRDIV  =  1.00D-05  THRRED  =  1.00D-07  THRPSP  =  1.00D+00  THRDC   =  1.00D-10  THRCS   =  1.00D-10
 THRNRM  =  1.00D-08  THREQ   =  0.00D+00  THRDE   =  1.00D+00  THRREF  =  1.00D-05  SPARFAC =  1.00D+00  THRDLP  =  1.00D-07
 THRDIA  =  1.00D-10  THRDLS  =  1.00D-07  THRGPS  =  0.00D+00  THRKEX  =  0.00D+00  THRDIS  =  2.00D-01  THRVAR  =  1.00D-10
 THRLOC  =  1.00D-06  THRGAP  =  1.00D-06  THRLOCT = -1.00D+00  THRGAPT = -1.00D+00  THRORB  =  1.00D-06  THRMLTP =  0.00D+00
 THRCPQCI=  1.00D-10  KEXTA   =  0.00D+00  THRCOARS=  0.00D+00  SYMTOL  =  1.00D-06  GRADTOL =  1.00D-06  THROVL  =  1.00D-08
 THRORTH =  1.00D-08  GRID    =  1.00D-06  GRIDMAX =  1.00D-03  DTMAX   =  0.00D+00  THROCCDE=  1.00D-01  THROCCDE=  1.00D-01



 Input parameters for SORTINT:

 COMPRESS =    0.000000
 C_FINAL  =    1.000000
 DEBUG    =   -1.000000
 C_SORT1  =    0.000000
 C_SEWARD =    0.000000
 THRESH   =    0.000000
 IO       =  molpro                                                          
 SPRI     =    0.000000
 SETTING GEOMTYP        =    XYZ
 ZUNIT=BOHR
 

 Variable memory set to  995000000 words,  buffer space   230000 words

 SETTING BASIS          =    USERDEF


 Recomputing integrals since basis changed


 Using spherical harmonics

 Library entry H      S aug-cc-pVTZ          selected for orbital group  3
 Library entry H      P aug-cc-pVTZ          selected for orbital group  3
 Library entry H      D aug-cc-pVTZ          selected for orbital group  3


 PROGRAM * SEWARD (Integral evaluation for generally contracted gaussian basis sets)     Author: Roland Lindh, 1990

 Geometry written to block  1 of record 700


 Point group  C2v 



 ATOMIC COORDINATES

 NR  ATOM    CHARGE       X              Y              Z

   1  N       7.00    0.000000000    0.000000000    1.134150021
   2  C       6.00    0.000000000    0.000000000   -1.044699646
   3  H       1.00    0.000000000    0.000000000   -3.086520357

 Bond lengths in Bohr (Angstrom)

 1-2  2.178849667  2-3  2.041820711
     ( 1.152997590)     ( 1.080484989)

 Bond angles

  1-2-3  180.00000000

 NUCLEAR CHARGE:                   14
 NUMBER OF PRIMITIVE AOS:         203
 NUMBER OF SYMMETRY AOS:          173
 NUMBER OF CONTRACTIONS:          171   (  75A1  +  39B1  +  39B2  +  18A2  )
 NUMBER OF CORE ORBITALS:           2   (   2A1  +   0B1  +   0B2  +   0A2  )
 NUMBER OF VALENCE ORBITALS:        9   (   5A1  +   2B1  +   2B2  +   0A2  )


 NUCLEAR REPULSION ENERGY   23.87328474

 EXTRA SYMMETRY OF AOS IN SYMMETRY 1:   1 1 1 1 1 1 1 1 1 1   1 1 1 1 1 1 1 2 1 2   1 2 1 2 1 2 1 2 1 2   1 2 1 1 1 1 1 1 1 1
                                        1 1 1 1 1 1 1 1 1 2   1 2 1 2 1 2 1 2 1 2   1 2 1 2 1 1 1 1 1 1   1 1 2 1 2
 EXTRA SYMMETRY OF AOS IN SYMMETRY 2:   1 1 1 1 1 1 1 1 1 1   1 1 2 1 2 1 2 1 1 1   1 1 1 1 1 1 1 1 1 2   1 2 1 2 1 1 1 1 1
 EXTRA SYMMETRY OF AOS IN SYMMETRY 3:   1 1 1 1 1 1 1 1 1 1   1 1 2 1 2 1 2 1 1 1   1 1 1 1 1 1 1 1 1 2   1 2 1 2 1 1 1 1 1

 Eigenvalues of metric

         1 0.258E-03 0.529E-03 0.944E-03 0.142E-02 0.320E-02 0.790E-02 0.103E-01 0.133E-01
         2 0.545E-02 0.160E-01 0.231E-01 0.355E-01 0.975E-01 0.114E+00 0.126E+00 0.189E+00
         3 0.545E-02 0.160E-01 0.231E-01 0.355E-01 0.975E-01 0.114E+00 0.126E+00 0.189E+00
         4 0.125E+00 0.140E+00 0.196E+00 0.259E+00 0.314E+00 0.379E+00 0.485E+00 0.600E+00


 Contracted 2-electron integrals neglected if value below      1.0D-22

       21743820. INTEGRALS WRITTEN OUT IN    5310 BLOCKS ON RECORD 1290 OF FILE 1


 NUMBER OF SORTED TWO-ELECTRON INTEGRALS:   28272141.     BUFFER LENGTH:  32768
 NUMBER OF SEGMENTS:   2  SEGMENT LENGTH:   15998211      RECORD LENGTH: 524288

 Memory used in sort:      16.56 MW

 SORT1 READ    21743820. AND WROTE    22142007. INTEGRALS IN     65 RECORDS. CPU TIME:     0.49 SEC, REAL TIME:     0.64 SEC
 SORT2 READ    22142007. AND WROTE    28272141. INTEGRALS IN      2 RECORDS. CPU TIME:     0.39 SEC, REAL TIME:     0.50 SEC

 FILE SIZES:   FILE 1:   368.6 MBYTE,  FILE 4:   272.7 MBYTE,   TOTAL:    641.3 MBYTE

 OPERATOR DM      FOR CENTER  0  COORDINATES:    0.000000    0.000000    0.000000


 **********************************************************************************************************************************
 DATASETS  * FILE   NREC   LENGTH (MB)   RECORD NAMES
              1      19      213.49       500      610      700      900      950      970     1000      129      960     1100   
                                          VAR    BASINP    GEOM    SYMINP    ZMAT    AOBASIS   BASIS     P2S    ABASIS      S 
                                         1400     1410     1200     1210     1080     1600     1650     1300     1700   
                                           T        V       H0       H01     AOSYM     SMH    MOLCAS    ERIS     OPER   

 PROGRAMS   *        TOTAL       INT
 CPU TIMES  *         3.30      3.21
 REAL TIME  *         4.19 SEC
 DISK USED  *       641.62 MB      
 **********************************************************************************************************************************


 PROGRAM * RHF-SCF (CLOSED SHELL)       Authors: W. Meyer, H.-J. Werner


 NUMBER OF ELECTRONS:       7+    7-
 CONVERGENCE THRESHOLDS:    1.00E-10 (Density)    1.00E-13 (Energy)
 MAX. NUMBER OF ITERATIONS:      500
 INTERPOLATION TYPE:            DIIS
 INTERPOLATION STEPS:              2 (START)      1 (STEP)
 LEVEL SHIFTS:                  0.00 (CLOSED)  0.00 (OPEN) 



 Orbital guess generated from atomic densities. Full valence occupancy:    7   2   2   0

 Molecular orbital dump at record        2100.2

 Initial occupancy:   5   1   1   0

 ITERATION    DDIFF          GRAD             ENERGY        2-EL.EN.            DIPOLE MOMENTS         DIIS   ORB.
    1      0.000D+00      0.000D+00       -92.77129622    111.674511    0.00000    0.00000   -2.04298    0    start
    2      0.000D+00      0.920D-02       -92.78369070    109.932322    0.00000    0.00000   -0.94923    1    diag
    3      0.346D-01      0.797D-02       -92.80618039    110.872918    0.00000    0.00000   -1.45813    2    diag
    4      0.120D-01      0.562D-03       -92.80642802    110.824325    0.00000    0.00000   -1.45086    3    diag
    5      0.185D-02      0.127D-03       -92.80644279    110.832493    0.00000    0.00000   -1.44958    4    diag
    6      0.534D-03      0.334D-04       -92.80644361    110.828247    0.00000    0.00000   -1.44985    5    diag
    7      0.428D-04      0.119D-04       -92.80644370    110.829254    0.00000    0.00000   -1.44993    6    diag
    8      0.160D-04      0.238D-05       -92.80644370    110.829236    0.00000    0.00000   -1.44991    7    diag
    9      0.836D-05      0.260D-06       -92.80644370    110.829243    0.00000    0.00000   -1.44991    8    diag
   10      0.142D-05      0.284D-07       -92.80644370    110.829245    0.00000    0.00000   -1.44991    9    orth
   11      0.137D-06      0.369D-08       -92.80644370    110.829245    0.00000    0.00000   -1.44991    9    diag
   12      0.119D-07      0.393D-09       -92.80644370    110.829245    0.00000    0.00000   -1.44991    9    diag
   13      0.116D-08      0.509D-10       -92.80644370    110.829245    0.00000    0.00000   -1.44991    9    diag
   14      0.177D-09      0.789D-11       -92.80644370    110.829245    0.00000    0.00000   -1.44991    9    diag
   15      0.301D-10      0.161D-11       -92.80644370    110.829245    0.00000    0.00000   -1.44991    9    diag
   16      0.492D-11      0.517D-12       -92.80644370    110.829245    0.00000    0.00000   -1.44991    0    orth

 Final occupancy:   5   1   1   0

 !RHF STATE 1.1 Energy                -92.806443701901
 Nuclear energy                        23.87328474
 One-electron energy                 -172.09435073
 Two-electron energy                   55.41462228
 Virial quotient                       -1.00263225
 !RHF STATE 1.1 Dipole moment           0.00000000     0.00000000    -1.44991242
 Dipole moment /Debye                   0.00000000     0.00000000    -3.68506842

 Orbital energies:

         1.1          2.1          3.1          4.1          5.1          6.1          7.1
    -15.590711   -11.400209    -1.253517    -0.830214    -0.577541     0.032578     0.149670

         1.2          2.2          3.2
     -0.490181     0.133612     0.306221

         1.3          2.3          3.3
     -0.490181     0.133612     0.306221

         1.4          2.4
      0.682758     0.961389

 HOMO      1.2    -0.490181 =     -13.3385eV
 LUMO      6.1     0.032578 =       0.8865eV
 LUMO-HOMO         0.522759 =      14.2250eV


 **********************************************************************************************************************************
 DATASETS  * FILE   NREC   LENGTH (MB)   RECORD NAMES
              1      19      213.49       500      610      700      900      950      970     1000      129      960     1100   
                                          VAR    BASINP    GEOM    SYMINP    ZMAT    AOBASIS   BASIS     P2S    ABASIS      S 
                                         1400     1410     1200     1210     1080     1600     1650     1300     1700   
                                           T        V       H0       H01     AOSYM     SMH    MOLCAS    ERIS     OPER   

              2       4        2.98       700     1000      520     2100   
                                         GEOM     BASIS   MCVARS     RHF  

 PROGRAMS   *        TOTAL        HF       INT
 CPU TIMES  *         4.95      1.65      3.21
 REAL TIME  *         6.19 SEC
 DISK USED  *       641.62 MB      
 **********************************************************************************************************************************


 PROGRAM * CCSD (Closed-shell coupled cluster)     Authors: C. Hampel, H.-J. Werner, 1991, M. Deegan, P.J. Knowles, 1992


 Convergence thresholds:  THRVAR = 1.00D-08  THRDEN = 1.00D-12

 CCSD(T)     terms to be evaluated (factor= 1.000)


 Number of closed-shell orbitals:   7 (   5   1   1   0 )
 Number of external orbitals:     164 (  70  38  38  18 )

 Molecular orbitals read from record     2100.2  Type=RHF/CANONICAL (state 1.1)

 Number of N-1 electron functions:               7
 Number of N-2 electron functions:              28
 Number of singly external CSFs:               426
 Number of doubly external CSFs:            182374
 Total number of CSFs:                      182801

 Length of J-op  integral file:               0.00 MB
 Length of K-op  integral file:               0.65 MB
 Length of 3-ext integral record:             0.00 MB

 Memory could be reduced to 11.98 Mwords without degradation in triples

 Integral transformation finished. Total CPU:   0.28 sec, npass=  1  Memory used:   1.63 MW

 Reference energy:                    -92.80644370

 MP2 singlet pair energy:              -0.30615586
 MP2 triplet pair energy:              -0.13945571
 MP2 correlation energy:               -0.44561157
 MP2 total energy:                    -93.25205527

 SCS-MP2 correlation energy:           -0.45415947   (PS=  1.200000  PT=  0.333333)
 SCS-MP2 total energy:                -93.26060318

 ITER.      SQ.NORM     CORR.ENERGY   TOTAL ENERGY   ENERGY CHANGE        DEN1      VAR(S)    VAR(P)  DIIS     TIME  TIME/IT
   1      1.11203827    -0.45213350   -93.25857721    -0.00652193     0.00622210  0.25D-02  0.27D-02  1  1     0.61     0.34
   2      1.12088727    -0.45237943   -93.25882314    -0.00024593    -0.01019339  0.56D-04  0.36D-03  2  2     0.91     0.35
   3      1.12457776    -0.45255350   -93.25899720    -0.00017407    -0.00179460  0.19D-04  0.51D-04  3  3     1.23     0.35
   4      1.12692732    -0.45256914   -93.25901284    -0.00001564    -0.00103594  0.94D-06  0.50D-05  4  4     1.55     0.35
   5      1.12747974    -0.45257394   -93.25901764    -0.00000480    -0.00015473  0.19D-06  0.42D-06  5  5     1.88     0.35
   6      1.12756466    -0.45257720   -93.25902091    -0.00000327    -0.00000545  0.95D-08  0.36D-07  6  6     2.19     0.35
   7      1.12757929    -0.45257802   -93.25902172    -0.00000081    -0.00000352  0.20D-08  0.30D-08  6  1     2.53     0.35
   8      1.12758262    -0.45257813   -93.25902184    -0.00000012    -0.00000138  0.28D-09  0.19D-09  6  2     2.85     0.35
   9      1.12758260    -0.45257820   -93.25902190    -0.00000006     0.00000019  0.32D-10  0.23D-10  6  3     3.15     0.35
  10      1.12758280    -0.45257821   -93.25902192    -0.00000002    -0.00000001  0.67D-11  0.28D-11  6  4     3.46     0.35
  11      1.12758282    -0.45257822   -93.25902192    -0.00000001     0.00000002  0.73D-12  0.65D-12  6  5     3.78     0.36
  12      1.12758277    -0.45257822   -93.25902192     0.00000000     0.00000003  0.44D-13  0.12D-12  6  6     4.09     0.36
  13      1.12758272    -0.45257822   -93.25902192    -0.00000000     0.00000001  0.38D-14  0.81D-14  6  2     4.41     0.36
  14      1.12758270    -0.45257822   -93.25902192    -0.00000000     0.00000001  0.24D-15  0.39D-15  6  1     4.73     0.36
  15      1.12758269    -0.45257822   -93.25902192    -0.00000000     0.00000000  0.44D-16  0.47D-16  6  3     5.07     0.36
  16      1.12758269    -0.45257822   -93.25902192    -0.00000000     0.00000000  0.75D-17  0.33D-17  6  4     5.40     0.36
  17      1.12758269    -0.45257822   -93.25902192    -0.00000000     0.00000000  0.10D-17  0.50D-18  6  5     5.72     0.36
  18      1.12758269    -0.45257822   -93.25902192     0.00000000    -0.00000000  0.14D-18  0.52D-19  6  6     6.07     0.36
  19      1.12758269    -0.45257822   -93.25902192     0.00000000    -0.00000000  0.84D-20  0.46D-20  6  1     6.39     0.36
  20      1.12758269    -0.45257822   -93.25902192    -0.00000000     0.00000000  0.34D-21  0.53D-21  6  2     6.69     0.36
  21      1.12758269    -0.45257822   -93.25902192    -0.00000000     0.00000000  0.74D-22  0.97D-22  6  3     7.00     0.36

 Norm of t1 vector:      0.06385666      S-energy:     0.00000000      T1 diagnostic:  0.01206778
                                                                       D1 diagnostic:  0.02811444

 Doubles amplitudes (print threshold =  0.500E-01):

         I         J         SYM. A    SYM. B    A         B      T(IJ, AB)

         6         6         2         2         1         1     -0.05790519
         7         7         3         3         1         1     -0.05790519


 Total CPU time for triples:      3.48 sec


 RESULTS
 =======

  Reference energy                    -92.806443701901

  Correlated core orbitals:             1.1       2.1
  Orbital energies:                   -15.5907  -11.4002
 
  CCSD core-core energy                -0.079717744494
  CCSD core-valence energy             -0.029271918737
  CCSD valence correlation energy      -0.343588556559
 
  CCSD singlet pair energy             -0.331315553862
  CCSD triplet pair energy             -0.121262665928
  CCSD correlation energy              -0.452578219790

  Triples (T) contribution             -0.018011459190
  Total correlation energy             -0.470589678979

  CCSD total energy                   -93.259021921691
  CCSD[T] energy                      -93.277806074811
  CCSD-T energy                       -93.276666834707
 !CCSD(T) total energy                -93.277033380880

 Timing summary (sec):

 STEP                 CPU(USER)    SYS     CPU(TOT)    WALL
 Transformation          0.29      0.06      0.35      0.35
 CCSD iterations         6.72      0.83      7.55      7.53
 Triples                 3.48      0.15      3.63      3.64

 Program statistics:

 Available memory in ccsd:               994999704
 Min. memory needed in ccsd:                607983
 Max. memory used in ccsd:                  763562
 Max. memory used in cckext:                768329 (21 integral passes)



 **********************************************************************************************************************************
 DATASETS  * FILE   NREC   LENGTH (MB)   RECORD NAMES
              1      20      249.64       500      610      700      900      950      970     1000      129      960     1100   
                                          VAR    BASINP    GEOM    SYMINP    ZMAT    AOBASIS   BASIS     P2S    ABASIS      S 
                                         1400     1410     1200     1210     1080     1600     1650     1300     1700     1380   
                                           T        V       H0       H01     AOSYM     SMH    MOLCAS    ERIS     OPER     JKOP   

              2       4        2.98       700     1000      520     2100   
                                         GEOM     BASIS   MCVARS     RHF  

 PROGRAMS   *        TOTAL   CCSD(T)        HF       INT
 CPU TIMES  *        15.46     10.50      1.65      3.21
 REAL TIME  *        17.78 SEC
 DISK USED  *       641.62 MB      
 **********************************************************************************************************************************

 CCSD(T)/USERDEF energy=    -93.277033380880

        CCSD(T)         HF-SCF  
    -93.27703338    -92.80644370
 **********************************************************************************************************************************
 Molpro calculation terminated
 Variable memory released
