
 Primary working directories    : /tmp/r2666/232768.maple
 Secondary working directories  : /tmp/r2666/232768.maple
 Wavefunction directory         : /ddn/home4/r2666/wfu/
 Main file repository           : /tmp/r2666/232768.maple/

 SHA1      : d5ffa45e93fdbca01ffc919aa182cfdae0147319
 NAME      : 2015.1.35
 ARCHNAME  : linux/x86_64
 FC        : /opt/intel/composer_xe_2015.1.133/bin/intel64/ifort
 BLASLIB   : -Wl,-_start-group /opt/intel/mkl/lib/intel64/libmkl_intel_ilp64.a /opt/intel/mkl/lib/intel64/libmkl_intel_thread.a /opt/intel/mkl/lib/intel64/libmkl_core.a -Wl,-_end-group
 id        : olemiss

 Nodes     nprocs
 cn090        1

 Using customized tuning parameters: mindgm=1; mindgv=20; mindgc=4; mindgr=1; noblas=0; minvec=7
 default implementation of scratch files=df  

 ***,hcn CCSD(T)/TZ-F12 QFF
 memory, 995, m;
 gthresh,energy=1.d-12,zero=1.d-22,oneint=1.d-22,twoint=1.d-22;
 gthresh,optgrad=1.d-8,optstep=1.d-8;
 nocompress;
 geomtyp=xyz
 bohr
 geometry={
 3
         47        47
 N        0.0000000000        0.0000000000        1.1341500209
 C        0.0000000000        0.0000000000       -1.0635969059
 H        0.0000000000        0.0000000000       -3.0676230970
 }
 
 basis={
 default=aug-cc-pvtz
 s,C,8236.0,1235.0,280.8, 79.27,25.59, 8.997,3.319
 s,C,0.9059,0.3643,0.1285000
 p,C,56.0,18.71,4.133,0.2827,0.3827,0.1209
 d,C,30.0,10.0,3.3,1.097,0.318
 f,C,7.0,2.3,0.7610
 s,N,11420.0,1712.0,389.3,110.0,35.57,12.54,4.644
 s,N,1.293,0.5118,0.1787
 p,N,79.89,26.63,5.948,1.742,0.555,0.1725
 d,N,45.0,15.0,5.0,1.654,0.469
 f,N,9.9,3.3,1.093
 s,O,15330.0,2299.0,522.4,147.3,47.55,16.76,6.207
 s,O,1.752,0.6882,0.2384
 p,O,103.5,34.46,7.749,2.28,0.7156,0.214
 d,O,63.0,21.0,7.0,2.314,0.645
 f,O,12.9,4.3,1.428
 s,mg,164900.0,24710.0,5628.0,1596.0,521.0;
 s,mg,188.0,73.01,29.90,12.54,4.306,1.826;
 s,mg,0.7417,0.0761,0.145,0.033,0.0129;
 p,mg,950.70,316.90,74.86,23.72,8.669,3.363;
 p,mg,1.310,0.4911,0.2364,0.08733,0.03237,0.00745;
 d,mg,1.601,0.686,0.126,0.294,0.0468;
 f,mg,1.372,0.588,0.094,0.252;
 }
   {hf,maxit=500;accu,20;}
 {ccsd(t),nocheck,maxit=250;orbital,IGNORE_ERROR;core}

 Variables initialized (889), CPU time= 0.01 sec
 Commands  initialized (702), CPU time= 0.01 sec, 572 directives.
 Default parameters read. Elapsed time= 0.05 sec

 Checking input...
 Passed
1


                                         ***  PROGRAM SYSTEM MOLPRO  ***
                                       Copyright, TTI GmbH Stuttgart, 2015
                                    Version 2015.1 linked Jul  9 2018 13:16:40


 **********************************************************************************************************************************
 LABEL *   hcn CCSD(T)/TZ-F12 QFF                                                        
  64 bit serial version                                                                  DATE: 06-Feb-20          TIME: 09:55:38  
 **********************************************************************************************************************************

 SHA1:             d5ffa45e93fdbca01ffc919aa182cfdae0147319
 **********************************************************************************************************************************

 THRESHOLDS:

 ZERO    =  1.00D-22  ONEINT  =  1.00D-22  TWOINT  =  1.00D-22  PREFAC  =  1.00D-14  LOCALI  =  1.00D-09  EORDER  =  1.00D-04
 ENERGY  =  1.00D-12  ETEST   =  0.00D+00  EDENS   =  0.00D+00  THRDEDEF=  1.00D-06  GRADIENT=  1.00D-02  STEP    =  1.00D-03
 ORBITAL =  1.00D-05  CIVEC   =  1.00D-05  COEFF   =  1.00D-04  PRINTCI =  5.00D-02  PUNCHCI =  9.90D+01  OPTGRAD =  3.00D-04
 OPTENERG=  1.00D-06  OPTSTEP =  3.00D-04  THRGRAD =  1.00D-10  COMPRESS=  1.00D-11  VARMIN  =  1.00D-07  VARMAX  =  1.00D-03
 THRDOUB =  0.00D+00  THRDIV  =  1.00D-05  THRRED  =  1.00D-07  THRPSP  =  1.00D+00  THRDC   =  1.00D-10  THRCS   =  1.00D-10
 THRNRM  =  1.00D-08  THREQ   =  0.00D+00  THRDE   =  1.00D+00  THRREF  =  1.00D-05  SPARFAC =  1.00D+00  THRDLP  =  1.00D-07
 THRDIA  =  1.00D-10  THRDLS  =  1.00D-07  THRGPS  =  0.00D+00  THRKEX  =  0.00D+00  THRDIS  =  2.00D-01  THRVAR  =  1.00D-10
 THRLOC  =  1.00D-06  THRGAP  =  1.00D-06  THRLOCT = -1.00D+00  THRGAPT = -1.00D+00  THRORB  =  1.00D-06  THRMLTP =  0.00D+00
 THRCPQCI=  1.00D-10  KEXTA   =  0.00D+00  THRCOARS=  0.00D+00  SYMTOL  =  1.00D-06  GRADTOL =  1.00D-06  THROVL  =  1.00D-08
 THRORTH =  1.00D-08  GRID    =  1.00D-06  GRIDMAX =  1.00D-03  DTMAX   =  0.00D+00  THROCCDE=  1.00D-01  THROCCDE=  1.00D-01



 THRESHOLDS:

 ZERO    =  1.00D-22  ONEINT  =  1.00D-22  TWOINT  =  1.00D-22  PREFAC  =  1.00D-14  LOCALI  =  1.00D-09  EORDER  =  1.00D-04
 ENERGY  =  1.00D-12  ETEST   =  0.00D+00  EDENS   =  0.00D+00  THRDEDEF=  1.00D-06  GRADIENT=  1.00D-02  STEP    =  1.00D-03
 ORBITAL =  1.00D-05  CIVEC   =  1.00D-05  COEFF   =  1.00D-04  PRINTCI =  5.00D-02  PUNCHCI =  9.90D+01  OPTGRAD =  1.00D-08
 OPTENERG=  1.00D-06  OPTSTEP =  1.00D-08  THRGRAD =  1.00D-10  COMPRESS=  1.00D-11  VARMIN  =  1.00D-07  VARMAX  =  1.00D-03
 THRDOUB =  0.00D+00  THRDIV  =  1.00D-05  THRRED  =  1.00D-07  THRPSP  =  1.00D+00  THRDC   =  1.00D-10  THRCS   =  1.00D-10
 THRNRM  =  1.00D-08  THREQ   =  0.00D+00  THRDE   =  1.00D+00  THRREF  =  1.00D-05  SPARFAC =  1.00D+00  THRDLP  =  1.00D-07
 THRDIA  =  1.00D-10  THRDLS  =  1.00D-07  THRGPS  =  0.00D+00  THRKEX  =  0.00D+00  THRDIS  =  2.00D-01  THRVAR  =  1.00D-10
 THRLOC  =  1.00D-06  THRGAP  =  1.00D-06  THRLOCT = -1.00D+00  THRGAPT = -1.00D+00  THRORB  =  1.00D-06  THRMLTP =  0.00D+00
 THRCPQCI=  1.00D-10  KEXTA   =  0.00D+00  THRCOARS=  0.00D+00  SYMTOL  =  1.00D-06  GRADTOL =  1.00D-06  THROVL  =  1.00D-08
 THRORTH =  1.00D-08  GRID    =  1.00D-06  GRIDMAX =  1.00D-03  DTMAX   =  0.00D+00  THROCCDE=  1.00D-01  THROCCDE=  1.00D-01



 Input parameters for SORTINT:

 COMPRESS =    0.000000
 C_FINAL  =    1.000000
 DEBUG    =   -1.000000
 C_SORT1  =    0.000000
 C_SEWARD =    0.000000
 THRESH   =    0.000000
 IO       =  molpro                                                          
 SPRI     =    0.000000
 SETTING GEOMTYP        =    XYZ
 ZUNIT=BOHR
 

 Variable memory set to  995000000 words,  buffer space   230000 words

 SETTING BASIS          =    USERDEF


 Recomputing integrals since basis changed


 Using spherical harmonics

 Library entry H      S aug-cc-pVTZ          selected for orbital group  3
 Library entry H      P aug-cc-pVTZ          selected for orbital group  3
 Library entry H      D aug-cc-pVTZ          selected for orbital group  3


 PROGRAM * SEWARD (Integral evaluation for generally contracted gaussian basis sets)     Author: Roland Lindh, 1990

 Geometry written to block  1 of record 700


 Point group  C2v 



 ATOMIC COORDINATES

 NR  ATOM    CHARGE       X              Y              Z

   1  N       7.00    0.000000000    0.000000000    1.134150021
   2  C       6.00    0.000000000    0.000000000   -1.063596906
   3  H       1.00    0.000000000    0.000000000   -3.067623097

 Bond lengths in Bohr (Angstrom)

 1-2  2.197746927  2-3  2.004026191
     ( 1.162997589)     ( 1.060484990)

 Bond angles

  1-2-3  180.00000000

 NUCLEAR CHARGE:                   14
 NUMBER OF PRIMITIVE AOS:         203
 NUMBER OF SYMMETRY AOS:          173
 NUMBER OF CONTRACTIONS:          171   (  75A1  +  39B1  +  39B2  +  18A2  )
 NUMBER OF CORE ORBITALS:           2   (   2A1  +   0B1  +   0B2  +   0A2  )
 NUMBER OF VALENCE ORBITALS:        9   (   5A1  +   2B1  +   2B2  +   0A2  )


 NUCLEAR REPULSION ENERGY   23.77041679

 EXTRA SYMMETRY OF AOS IN SYMMETRY 1:   1 1 1 1 1 1 1 1 1 1   1 1 1 1 1 1 1 2 1 2   1 2 1 2 1 2 1 2 1 2   1 2 1 1 1 1 1 1 1 1
                                        1 1 1 1 1 1 1 1 1 2   1 2 1 2 1 2 1 2 1 2   1 2 1 2 1 1 1 1 1 1   1 1 2 1 2
 EXTRA SYMMETRY OF AOS IN SYMMETRY 2:   1 1 1 1 1 1 1 1 1 1   1 1 2 1 2 1 2 1 1 1   1 1 1 1 1 1 1 1 1 2   1 2 1 2 1 1 1 1 1
 EXTRA SYMMETRY OF AOS IN SYMMETRY 3:   1 1 1 1 1 1 1 1 1 1   1 1 2 1 2 1 2 1 1 1   1 1 1 1 1 1 1 1 1 2   1 2 1 2 1 1 1 1 1

 Eigenvalues of metric

         1 0.241E-03 0.546E-03 0.914E-03 0.137E-02 0.319E-02 0.751E-02 0.996E-02 0.132E-01
         2 0.546E-02 0.159E-01 0.223E-01 0.347E-01 0.962E-01 0.113E+00 0.125E+00 0.188E+00
         3 0.546E-02 0.159E-01 0.223E-01 0.347E-01 0.962E-01 0.113E+00 0.125E+00 0.188E+00
         4 0.124E+00 0.140E+00 0.197E+00 0.256E+00 0.315E+00 0.379E+00 0.485E+00 0.600E+00


 Contracted 2-electron integrals neglected if value below      1.0D-22

       21693632. INTEGRALS WRITTEN OUT IN    5298 BLOCKS ON RECORD 1290 OF FILE 1


 NUMBER OF SORTED TWO-ELECTRON INTEGRALS:   28272141.     BUFFER LENGTH:  32768
 NUMBER OF SEGMENTS:   2  SEGMENT LENGTH:   15998211      RECORD LENGTH: 524288

 Memory used in sort:      16.56 MW

 SORT1 READ    21693632. AND WROTE    22090884. INTEGRALS IN     64 RECORDS. CPU TIME:     0.51 SEC, REAL TIME:     0.65 SEC
 SORT2 READ    22090884. AND WROTE    28272141. INTEGRALS IN      2 RECORDS. CPU TIME:     0.37 SEC, REAL TIME:     0.51 SEC

 FILE SIZES:   FILE 1:   367.8 MBYTE,  FILE 4:   268.5 MBYTE,   TOTAL:    636.3 MBYTE

 OPERATOR DM      FOR CENTER  0  COORDINATES:    0.000000    0.000000    0.000000


 **********************************************************************************************************************************
 DATASETS  * FILE   NREC   LENGTH (MB)   RECORD NAMES
              1      19      213.20       500      610      700      900      950      970     1000      129      960     1100   
                                          VAR    BASINP    GEOM    SYMINP    ZMAT    AOBASIS   BASIS     P2S    ABASIS      S 
                                         1400     1410     1200     1210     1080     1600     1650     1300     1700   
                                           T        V       H0       H01     AOSYM     SMH    MOLCAS    ERIS     OPER   

 PROGRAMS   *        TOTAL       INT
 CPU TIMES  *         3.31      3.21
 REAL TIME  *         4.87 SEC
 DISK USED  *       636.64 MB      
 **********************************************************************************************************************************


 PROGRAM * RHF-SCF (CLOSED SHELL)       Authors: W. Meyer, H.-J. Werner


 NUMBER OF ELECTRONS:       7+    7-
 CONVERGENCE THRESHOLDS:    1.00E-10 (Density)    1.00E-13 (Energy)
 MAX. NUMBER OF ITERATIONS:      500
 INTERPOLATION TYPE:            DIIS
 INTERPOLATION STEPS:              2 (START)      1 (STEP)
 LEVEL SHIFTS:                  0.00 (CLOSED)  0.00 (OPEN) 



 Orbital guess generated from atomic densities. Full valence occupancy:    7   2   2   0

 Molecular orbital dump at record        2100.2

 Initial occupancy:   5   1   1   0

 ITERATION    DDIFF          GRAD             ENERGY        2-EL.EN.            DIPOLE MOMENTS         DIIS   ORB.
    1      0.000D+00      0.000D+00       -92.77062915    111.369387    0.00000    0.00000   -2.02680    0    start
    2      0.000D+00      0.904D-02       -92.78227708    109.718676    0.00000    0.00000   -0.93193    1    diag
    3      0.346D-01      0.793D-02       -92.80465256    110.639746    0.00000    0.00000   -1.44836    2    diag
    4      0.119D-01      0.574D-03       -92.80490841    110.585316    0.00000    0.00000   -1.44119    3    diag
    5      0.190D-02      0.131D-03       -92.80492332    110.595198    0.00000    0.00000   -1.43985    4    diag
    6      0.539D-03      0.341D-04       -92.80492422    110.590578    0.00000    0.00000   -1.44004    5    diag
    7      0.483D-04      0.122D-04       -92.80492431    110.591512    0.00000    0.00000   -1.44012    6    diag
    8      0.167D-04      0.246D-05       -92.80492432    110.591500    0.00000    0.00000   -1.44011    7    diag
    9      0.878D-05      0.269D-06       -92.80492432    110.591508    0.00000    0.00000   -1.44010    8    diag
   10      0.147D-05      0.294D-07       -92.80492432    110.591510    0.00000    0.00000   -1.44011    9    orth
   11      0.143D-06      0.384D-08       -92.80492432    110.591510    0.00000    0.00000   -1.44011    9    diag
   12      0.124D-07      0.402D-09       -92.80492432    110.591510    0.00000    0.00000   -1.44011    9    diag
   13      0.120D-08      0.521D-10       -92.80492432    110.591510    0.00000    0.00000   -1.44011    9    diag
   14      0.177D-09      0.740D-11       -92.80492432    110.591510    0.00000    0.00000   -1.44011    9    diag
   15      0.267D-10      0.153D-11       -92.80492432    110.591510    0.00000    0.00000   -1.44011    0    orth

 Final occupancy:   5   1   1   0

 !RHF STATE 1.1 Energy                -92.804924315112
 Nuclear energy                        23.77041679
 One-electron energy                 -171.87109586
 Two-electron energy                   55.29575476
 Virial quotient                       -1.00288416
 !RHF STATE 1.1 Dipole moment           0.00000000     0.00000000    -1.44010511
 Dipole moment /Debye                   0.00000000     0.00000000    -3.66014235

 Orbital energies:

         1.1          2.1          3.1          4.1          5.1          6.1          7.1
    -15.594639   -11.402754    -1.249031    -0.839260    -0.578717     0.032621     0.152263

         1.2          2.2          3.2
     -0.487696     0.131629     0.304122

         1.3          2.3          3.3
     -0.487696     0.131629     0.304122

         1.4          2.4
      0.682282     0.963796

 HOMO      1.2    -0.487696 =     -13.2709eV
 LUMO      6.1     0.032621 =       0.8877eV
 LUMO-HOMO         0.520317 =      14.1586eV


 **********************************************************************************************************************************
 DATASETS  * FILE   NREC   LENGTH (MB)   RECORD NAMES
              1      19      213.20       500      610      700      900      950      970     1000      129      960     1100   
                                          VAR    BASINP    GEOM    SYMINP    ZMAT    AOBASIS   BASIS     P2S    ABASIS      S 
                                         1400     1410     1200     1210     1080     1600     1650     1300     1700   
                                           T        V       H0       H01     AOSYM     SMH    MOLCAS    ERIS     OPER   

              2       4        2.98       700     1000      520     2100   
                                         GEOM     BASIS   MCVARS     RHF  

 PROGRAMS   *        TOTAL        HF       INT
 CPU TIMES  *         4.81      1.49      3.21
 REAL TIME  *         6.70 SEC
 DISK USED  *       636.64 MB      
 **********************************************************************************************************************************


 PROGRAM * CCSD (Closed-shell coupled cluster)     Authors: C. Hampel, H.-J. Werner, 1991, M. Deegan, P.J. Knowles, 1992


 Convergence thresholds:  THRVAR = 1.00D-08  THRDEN = 1.00D-12

 CCSD(T)     terms to be evaluated (factor= 1.000)


 Number of closed-shell orbitals:   7 (   5   1   1   0 )
 Number of external orbitals:     164 (  70  38  38  18 )

 Molecular orbitals read from record     2100.2  Type=RHF/CANONICAL (state 1.1)

 Number of N-1 electron functions:               7
 Number of N-2 electron functions:              28
 Number of singly external CSFs:               426
 Number of doubly external CSFs:            182374
 Total number of CSFs:                      182801

 Length of J-op  integral file:               0.00 MB
 Length of K-op  integral file:               0.65 MB
 Length of 3-ext integral record:             0.00 MB

 Memory could be reduced to 11.98 Mwords without degradation in triples

 Integral transformation finished. Total CPU:   0.25 sec, npass=  1  Memory used:   1.63 MW

 Reference energy:                    -92.80492432

 MP2 singlet pair energy:              -0.30694194
 MP2 triplet pair energy:              -0.14009573
 MP2 correlation energy:               -0.44703767
 MP2 total energy:                    -93.25196199

 SCS-MP2 correlation energy:           -0.45550101   (PS=  1.200000  PT=  0.333333)
 SCS-MP2 total energy:                -93.26042532

 ITER.      SQ.NORM     CORR.ENERGY   TOTAL ENERGY   ENERGY CHANGE        DEN1      VAR(S)    VAR(P)  DIIS     TIME  TIME/IT
   1      1.11285306    -0.45311233   -93.25803664    -0.00607466     0.00697799  0.26D-02  0.28D-02  1  1     0.52     0.32
   2      1.12187698    -0.45327762   -93.25820193    -0.00016529    -0.01038141  0.58D-04  0.37D-03  2  2     0.82     0.33
   3      1.12563839    -0.45345340   -93.25837772    -0.00017579    -0.00180747  0.19D-04  0.53D-04  3  3     1.11     0.33
   4      1.12807051    -0.45347115   -93.25839546    -0.00001775    -0.00105903  0.94D-06  0.54D-05  4  4     1.41     0.34
   5      1.12865358    -0.45347588   -93.25840019    -0.00000473    -0.00016336  0.18D-06  0.45D-06  5  5     1.73     0.34
   6      1.12874073    -0.45347956   -93.25840387    -0.00000368    -0.00000495  0.82D-08  0.39D-07  6  6     2.03     0.34
   7      1.12875619    -0.45348051   -93.25840483    -0.00000095    -0.00000379  0.17D-08  0.33D-08  6  1     2.34     0.34
   8      1.12875937    -0.45348069   -93.25840500    -0.00000017    -0.00000136  0.19D-09  0.19D-09  6  2     2.65     0.34
   9      1.12875928    -0.45348076   -93.25840508    -0.00000007     0.00000021  0.17D-10  0.20D-10  6  3     2.95     0.34
  10      1.12875946    -0.45348078   -93.25840510    -0.00000002    -0.00000002  0.38D-11  0.18D-11  6  4     3.25     0.34
  11      1.12875945    -0.45348079   -93.25840511    -0.00000001     0.00000002  0.56D-12  0.37D-12  6  5     3.54     0.34
  12      1.12875940    -0.45348079   -93.25840511    -0.00000000     0.00000003  0.50D-13  0.77D-13  6  6     3.84     0.34
  13      1.12875937    -0.45348079   -93.25840511    -0.00000000     0.00000001  0.23D-14  0.11D-13  6  1     4.15     0.34
  14      1.12875935    -0.45348079   -93.25840511    -0.00000000     0.00000001  0.26D-15  0.16D-14  6  2     4.45     0.34
  15      1.12875934    -0.45348079   -93.25840511    -0.00000000     0.00000000  0.22D-16  0.11D-15  6  4     4.76     0.34
  16      1.12875934    -0.45348079   -93.25840511    -0.00000000     0.00000000  0.81D-17  0.89D-17  6  1     5.05     0.34
  17      1.12875934    -0.45348079   -93.25840511    -0.00000000     0.00000000  0.63D-18  0.88D-18  6  3     5.34     0.34
  18      1.12875934    -0.45348079   -93.25840511    -0.00000000     0.00000000  0.34D-19  0.55D-19  6  5     5.63     0.34
  19      1.12875934    -0.45348079   -93.25840511    -0.00000000     0.00000000  0.34D-20  0.66D-20  6  6     5.93     0.34
  20      1.12875934    -0.45348079   -93.25840511    -0.00000000     0.00000000  0.33D-21  0.41D-21  6  1     6.23     0.34
  21      1.12875934    -0.45348079   -93.25840511    -0.00000000     0.00000000  0.76D-22  0.50D-22  6  2     6.54     0.34
  22      1.12875934    -0.45348079   -93.25840511     0.00000000     0.00000000  0.13D-22  0.76D-23  6  4     6.86     0.34

 Norm of t1 vector:      0.06487259      S-energy:     0.00000000      T1 diagnostic:  0.01225977
                                                                       D1 diagnostic:  0.02874131

 Doubles amplitudes (print threshold =  0.500E-01):

         I         J         SYM. A    SYM. B    A         B      T(IJ, AB)

         6         6         2         2         1         1     -0.06031087
         7         7         3         3         1         1     -0.06031087


 Total CPU time for triples:      3.13 sec


 RESULTS
 =======

  Reference energy                    -92.804924315112

  Correlated core orbitals:             1.1       2.1
  Orbital energies:                   -15.5946  -11.4028
 
  CCSD core-core energy                -0.079729089842
  CCSD core-valence energy             -0.029180565543
  CCSD valence correlation energy      -0.344571137185
 
  CCSD singlet pair energy             -0.332068931405
  CCSD triplet pair energy             -0.121411861165
  CCSD correlation energy              -0.453480792569

  Triples (T) contribution             -0.018250787101
  Total correlation energy             -0.471731579670

  CCSD total energy                   -93.258405107681
  CCSD[T] energy                      -93.277458859856
  CCSD-T energy                       -93.276274993992
 !CCSD(T) total energy                -93.276655894782

 Timing summary (sec):

 STEP                 CPU(USER)    SYS     CPU(TOT)    WALL
 Transformation          0.25      0.08      0.33      0.33
 CCSD iterations         6.61      0.94      7.55      7.56
 Triples                 3.13      0.14      3.27      3.27

 Program statistics:

 Available memory in ccsd:               994999704
 Min. memory needed in ccsd:                607983
 Max. memory used in ccsd:                  763562
 Max. memory used in cckext:                768329 (22 integral passes)



 **********************************************************************************************************************************
 DATASETS  * FILE   NREC   LENGTH (MB)   RECORD NAMES
              1      20      249.35       500      610      700      900      950      970     1000      129      960     1100   
                                          VAR    BASINP    GEOM    SYMINP    ZMAT    AOBASIS   BASIS     P2S    ABASIS      S 
                                         1400     1410     1200     1210     1080     1600     1650     1300     1700     1380   
                                           T        V       H0       H01     AOSYM     SMH    MOLCAS    ERIS     OPER     JKOP   

              2       4        2.98       700     1000      520     2100   
                                         GEOM     BASIS   MCVARS     RHF  

 PROGRAMS   *        TOTAL   CCSD(T)        HF       INT
 CPU TIMES  *        14.84     10.04      1.49      3.21
 REAL TIME  *        17.96 SEC
 DISK USED  *       636.64 MB      
 **********************************************************************************************************************************

 CCSD(T)/USERDEF energy=    -93.276655894782

        CCSD(T)         HF-SCF  
    -93.27665589    -92.80492432
 **********************************************************************************************************************************
 Molpro calculation terminated
 Variable memory released
