
 Primary working directories    : /tmp/r2666/232756.maple
 Secondary working directories  : /tmp/r2666/232756.maple
 Wavefunction directory         : /ddn/home4/r2666/wfu/
 Main file repository           : /tmp/r2666/232756.maple/

 SHA1      : d5ffa45e93fdbca01ffc919aa182cfdae0147319
 NAME      : 2015.1.35
 ARCHNAME  : linux/x86_64
 FC        : /opt/intel/composer_xe_2015.1.133/bin/intel64/ifort
 BLASLIB   : -Wl,-_start-group /opt/intel/mkl/lib/intel64/libmkl_intel_ilp64.a /opt/intel/mkl/lib/intel64/libmkl_intel_thread.a /opt/intel/mkl/lib/intel64/libmkl_core.a -Wl,-_end-group
 id        : olemiss

 Nodes     nprocs
 cn090        1

 Using customized tuning parameters: mindgm=1; mindgv=20; mindgc=4; mindgr=1; noblas=0; minvec=7
 default implementation of scratch files=df  

 ***,hcn CCSD(T)/TZ-F12 QFF
 memory, 995, m;
 gthresh,energy=1.d-12,zero=1.d-22,oneint=1.d-22,twoint=1.d-22;
 gthresh,optgrad=1.d-8,optstep=1.d-8;
 nocompress;
 geomtyp=xyz
 bohr
 geometry={
 3
         35        35
 N        0.0000000000        0.0000000000        1.1372995643
 C        0.0000000000        0.0000000000       -1.0415501027
 H        0.0000000000        0.0000000000       -3.0928194435
 }
 
 basis={
 default=aug-cc-pvtz
 s,C,8236.0,1235.0,280.8, 79.27,25.59, 8.997,3.319
 s,C,0.9059,0.3643,0.1285000
 p,C,56.0,18.71,4.133,0.2827,0.3827,0.1209
 d,C,30.0,10.0,3.3,1.097,0.318
 f,C,7.0,2.3,0.7610
 s,N,11420.0,1712.0,389.3,110.0,35.57,12.54,4.644
 s,N,1.293,0.5118,0.1787
 p,N,79.89,26.63,5.948,1.742,0.555,0.1725
 d,N,45.0,15.0,5.0,1.654,0.469
 f,N,9.9,3.3,1.093
 s,O,15330.0,2299.0,522.4,147.3,47.55,16.76,6.207
 s,O,1.752,0.6882,0.2384
 p,O,103.5,34.46,7.749,2.28,0.7156,0.214
 d,O,63.0,21.0,7.0,2.314,0.645
 f,O,12.9,4.3,1.428
 s,mg,164900.0,24710.0,5628.0,1596.0,521.0;
 s,mg,188.0,73.01,29.90,12.54,4.306,1.826;
 s,mg,0.7417,0.0761,0.145,0.033,0.0129;
 p,mg,950.70,316.90,74.86,23.72,8.669,3.363;
 p,mg,1.310,0.4911,0.2364,0.08733,0.03237,0.00745;
 d,mg,1.601,0.686,0.126,0.294,0.0468;
 f,mg,1.372,0.588,0.094,0.252;
 }
   {hf,maxit=500;accu,20;}
 {ccsd(t),nocheck,maxit=250;orbital,IGNORE_ERROR;core}

 Variables initialized (889), CPU time= 0.00 sec
 Commands  initialized (702), CPU time= 0.01 sec, 572 directives.
 Default parameters read. Elapsed time= 0.04 sec

 Checking input...
 Passed
1


                                         ***  PROGRAM SYSTEM MOLPRO  ***
                                       Copyright, TTI GmbH Stuttgart, 2015
                                    Version 2015.1 linked Jul  9 2018 13:16:40


 **********************************************************************************************************************************
 LABEL *   hcn CCSD(T)/TZ-F12 QFF                                                        
  64 bit serial version                                                                  DATE: 06-Feb-20          TIME: 09:55:23  
 **********************************************************************************************************************************

 SHA1:             d5ffa45e93fdbca01ffc919aa182cfdae0147319
 **********************************************************************************************************************************

 THRESHOLDS:

 ZERO    =  1.00D-22  ONEINT  =  1.00D-22  TWOINT  =  1.00D-22  PREFAC  =  1.00D-14  LOCALI  =  1.00D-09  EORDER  =  1.00D-04
 ENERGY  =  1.00D-12  ETEST   =  0.00D+00  EDENS   =  0.00D+00  THRDEDEF=  1.00D-06  GRADIENT=  1.00D-02  STEP    =  1.00D-03
 ORBITAL =  1.00D-05  CIVEC   =  1.00D-05  COEFF   =  1.00D-04  PRINTCI =  5.00D-02  PUNCHCI =  9.90D+01  OPTGRAD =  3.00D-04
 OPTENERG=  1.00D-06  OPTSTEP =  3.00D-04  THRGRAD =  1.00D-10  COMPRESS=  1.00D-11  VARMIN  =  1.00D-07  VARMAX  =  1.00D-03
 THRDOUB =  0.00D+00  THRDIV  =  1.00D-05  THRRED  =  1.00D-07  THRPSP  =  1.00D+00  THRDC   =  1.00D-10  THRCS   =  1.00D-10
 THRNRM  =  1.00D-08  THREQ   =  0.00D+00  THRDE   =  1.00D+00  THRREF  =  1.00D-05  SPARFAC =  1.00D+00  THRDLP  =  1.00D-07
 THRDIA  =  1.00D-10  THRDLS  =  1.00D-07  THRGPS  =  0.00D+00  THRKEX  =  0.00D+00  THRDIS  =  2.00D-01  THRVAR  =  1.00D-10
 THRLOC  =  1.00D-06  THRGAP  =  1.00D-06  THRLOCT = -1.00D+00  THRGAPT = -1.00D+00  THRORB  =  1.00D-06  THRMLTP =  0.00D+00
 THRCPQCI=  1.00D-10  KEXTA   =  0.00D+00  THRCOARS=  0.00D+00  SYMTOL  =  1.00D-06  GRADTOL =  1.00D-06  THROVL  =  1.00D-08
 THRORTH =  1.00D-08  GRID    =  1.00D-06  GRIDMAX =  1.00D-03  DTMAX   =  0.00D+00  THROCCDE=  1.00D-01  THROCCDE=  1.00D-01



 THRESHOLDS:

 ZERO    =  1.00D-22  ONEINT  =  1.00D-22  TWOINT  =  1.00D-22  PREFAC  =  1.00D-14  LOCALI  =  1.00D-09  EORDER  =  1.00D-04
 ENERGY  =  1.00D-12  ETEST   =  0.00D+00  EDENS   =  0.00D+00  THRDEDEF=  1.00D-06  GRADIENT=  1.00D-02  STEP    =  1.00D-03
 ORBITAL =  1.00D-05  CIVEC   =  1.00D-05  COEFF   =  1.00D-04  PRINTCI =  5.00D-02  PUNCHCI =  9.90D+01  OPTGRAD =  1.00D-08
 OPTENERG=  1.00D-06  OPTSTEP =  1.00D-08  THRGRAD =  1.00D-10  COMPRESS=  1.00D-11  VARMIN  =  1.00D-07  VARMAX  =  1.00D-03
 THRDOUB =  0.00D+00  THRDIV  =  1.00D-05  THRRED  =  1.00D-07  THRPSP  =  1.00D+00  THRDC   =  1.00D-10  THRCS   =  1.00D-10
 THRNRM  =  1.00D-08  THREQ   =  0.00D+00  THRDE   =  1.00D+00  THRREF  =  1.00D-05  SPARFAC =  1.00D+00  THRDLP  =  1.00D-07
 THRDIA  =  1.00D-10  THRDLS  =  1.00D-07  THRGPS  =  0.00D+00  THRKEX  =  0.00D+00  THRDIS  =  2.00D-01  THRVAR  =  1.00D-10
 THRLOC  =  1.00D-06  THRGAP  =  1.00D-06  THRLOCT = -1.00D+00  THRGAPT = -1.00D+00  THRORB  =  1.00D-06  THRMLTP =  0.00D+00
 THRCPQCI=  1.00D-10  KEXTA   =  0.00D+00  THRCOARS=  0.00D+00  SYMTOL  =  1.00D-06  GRADTOL =  1.00D-06  THROVL  =  1.00D-08
 THRORTH =  1.00D-08  GRID    =  1.00D-06  GRIDMAX =  1.00D-03  DTMAX   =  0.00D+00  THROCCDE=  1.00D-01  THROCCDE=  1.00D-01



 Input parameters for SORTINT:

 COMPRESS =    0.000000
 C_FINAL  =    1.000000
 DEBUG    =   -1.000000
 C_SORT1  =    0.000000
 C_SEWARD =    0.000000
 THRESH   =    0.000000
 IO       =  molpro                                                          
 SPRI     =    0.000000
 SETTING GEOMTYP        =    XYZ
 ZUNIT=BOHR
 

 Variable memory set to  995000000 words,  buffer space   230000 words

 SETTING BASIS          =    USERDEF


 Recomputing integrals since basis changed


 Using spherical harmonics

 Library entry H      S aug-cc-pVTZ          selected for orbital group  3
 Library entry H      P aug-cc-pVTZ          selected for orbital group  3
 Library entry H      D aug-cc-pVTZ          selected for orbital group  3


 PROGRAM * SEWARD (Integral evaluation for generally contracted gaussian basis sets)     Author: Roland Lindh, 1990

 Geometry written to block  1 of record 700


 Point group  C2v 



 ATOMIC COORDINATES

 NR  ATOM    CHARGE       X              Y              Z

   1  N       7.00    0.000000000    0.000000000    1.137299564
   2  C       6.00    0.000000000    0.000000000   -1.041550103
   3  H       1.00    0.000000000    0.000000000   -3.092819443

 Bond lengths in Bohr (Angstrom)

 1-2  2.178849667  2-3  2.051269341
     ( 1.152997590)     ( 1.085484989)

 Bond angles

  1-2-3  180.00000000

 NUCLEAR CHARGE:                   14
 NUMBER OF PRIMITIVE AOS:         203
 NUMBER OF SYMMETRY AOS:          173
 NUMBER OF CONTRACTIONS:          171   (  75A1  +  39B1  +  39B2  +  18A2  )
 NUMBER OF CORE ORBITALS:           2   (   2A1  +   0B1  +   0B2  +   0A2  )
 NUMBER OF VALENCE ORBITALS:        9   (   5A1  +   2B1  +   2B2  +   0A2  )


 NUCLEAR REPULSION ENERGY   23.85604455

 EXTRA SYMMETRY OF AOS IN SYMMETRY 1:   1 1 1 1 1 1 1 1 1 1   1 1 1 1 1 1 1 2 1 2   1 2 1 2 1 2 1 2 1 2   1 2 1 1 1 1 1 1 1 1
                                        1 1 1 1 1 1 1 1 1 2   1 2 1 2 1 2 1 2 1 2   1 2 1 2 1 1 1 1 1 1   1 1 2 1 2
 EXTRA SYMMETRY OF AOS IN SYMMETRY 2:   1 1 1 1 1 1 1 1 1 1   1 1 2 1 2 1 2 1 1 1   1 1 1 1 1 1 1 1 1 2   1 2 1 2 1 1 1 1 1
 EXTRA SYMMETRY OF AOS IN SYMMETRY 3:   1 1 1 1 1 1 1 1 1 1   1 1 2 1 2 1 2 1 1 1   1 1 1 1 1 1 1 1 1 2   1 2 1 2 1 1 1 1 1

 Eigenvalues of metric

         1 0.263E-03 0.531E-03 0.956E-03 0.143E-02 0.320E-02 0.801E-02 0.104E-01 0.134E-01
         2 0.547E-02 0.161E-01 0.235E-01 0.359E-01 0.978E-01 0.114E+00 0.126E+00 0.189E+00
         3 0.547E-02 0.161E-01 0.235E-01 0.359E-01 0.978E-01 0.114E+00 0.126E+00 0.189E+00
         4 0.125E+00 0.140E+00 0.196E+00 0.260E+00 0.314E+00 0.380E+00 0.486E+00 0.600E+00


 Contracted 2-electron integrals neglected if value below      1.0D-22

       21741889. INTEGRALS WRITTEN OUT IN    5310 BLOCKS ON RECORD 1290 OF FILE 1


 NUMBER OF SORTED TWO-ELECTRON INTEGRALS:   28272141.     BUFFER LENGTH:  32768
 NUMBER OF SEGMENTS:   2  SEGMENT LENGTH:   15998211      RECORD LENGTH: 524288

 Memory used in sort:      16.56 MW

 SORT1 READ    21741889. AND WROTE    22140004. INTEGRALS IN     65 RECORDS. CPU TIME:     0.51 SEC, REAL TIME:     0.64 SEC
 SORT2 READ    22140004. AND WROTE    28272141. INTEGRALS IN      2 RECORDS. CPU TIME:     0.41 SEC, REAL TIME:     0.50 SEC

 FILE SIZES:   FILE 1:   368.6 MBYTE,  FILE 4:   272.7 MBYTE,   TOTAL:    641.3 MBYTE

 OPERATOR DM      FOR CENTER  0  COORDINATES:    0.000000    0.000000    0.000000


 **********************************************************************************************************************************
 DATASETS  * FILE   NREC   LENGTH (MB)   RECORD NAMES
              1      19      213.47       500      610      700      900      950      970     1000      129      960     1100   
                                          VAR    BASINP    GEOM    SYMINP    ZMAT    AOBASIS   BASIS     P2S    ABASIS      S 
                                         1400     1410     1200     1210     1080     1600     1650     1300     1700   
                                           T        V       H0       H01     AOSYM     SMH    MOLCAS    ERIS     OPER   

 PROGRAMS   *        TOTAL       INT
 CPU TIMES  *         3.27      3.18
 REAL TIME  *         4.14 SEC
 DISK USED  *       641.62 MB      
 **********************************************************************************************************************************


 PROGRAM * RHF-SCF (CLOSED SHELL)       Authors: W. Meyer, H.-J. Werner


 NUMBER OF ELECTRONS:       7+    7-
 CONVERGENCE THRESHOLDS:    1.00E-10 (Density)    1.00E-13 (Energy)
 MAX. NUMBER OF ITERATIONS:      500
 INTERPOLATION TYPE:            DIIS
 INTERPOLATION STEPS:              2 (START)      1 (STEP)
 LEVEL SHIFTS:                  0.00 (CLOSED)  0.00 (OPEN) 



 Orbital guess generated from atomic densities. Full valence occupancy:    7   2   2   0

 Molecular orbital dump at record        2100.2

 Initial occupancy:   5   1   1   0

 ITERATION    DDIFF          GRAD             ENERGY        2-EL.EN.            DIPOLE MOMENTS         DIIS   ORB.
    1      0.000D+00      0.000D+00       -92.77112970    111.654022    0.00000    0.00000   -2.04905    0    start
    2      0.000D+00      0.923D-02       -92.78354438    109.903210    0.00000    0.00000   -0.95048    1    diag
    3      0.347D-01      0.800D-02       -92.80619825    110.847289    0.00000    0.00000   -1.46104    2    diag
    4      0.120D-01      0.561D-03       -92.80644527    110.799034    0.00000    0.00000   -1.45373    3    diag
    5      0.184D-02      0.127D-03       -92.80646011    110.807209    0.00000    0.00000   -1.45245    4    diag
    6      0.536D-03      0.335D-04       -92.80646093    110.802951    0.00000    0.00000   -1.45273    5    diag
    7      0.430D-04      0.119D-04       -92.80646102    110.803966    0.00000    0.00000   -1.45281    6    diag
    8      0.161D-04      0.239D-05       -92.80646103    110.803948    0.00000    0.00000   -1.45279    7    diag
    9      0.840D-05      0.261D-06       -92.80646103    110.803956    0.00000    0.00000   -1.45279    8    diag
   10      0.143D-05      0.283D-07       -92.80646103    110.803957    0.00000    0.00000   -1.45279    9    orth
   11      0.137D-06      0.368D-08       -92.80646103    110.803957    0.00000    0.00000   -1.45279    9    diag
   12      0.118D-07      0.394D-09       -92.80646103    110.803957    0.00000    0.00000   -1.45279    9    diag
   13      0.116D-08      0.511D-10       -92.80646103    110.803957    0.00000    0.00000   -1.45279    9    diag
   14      0.179D-09      0.807D-11       -92.80646103    110.803957    0.00000    0.00000   -1.45279    9    diag
   15      0.296D-10      0.175D-11       -92.80646103    110.803957    0.00000    0.00000   -1.45279    9    diag
   16      0.826D-11      0.581D-12       -92.80646103    110.803957    0.00000    0.00000   -1.45279    0    orth

 Final occupancy:   5   1   1   0

 !RHF STATE 1.1 Energy                -92.806461027388
 Nuclear energy                        23.85604455
 One-electron energy                 -172.06448395
 Two-electron energy                   55.40197838
 Virial quotient                       -1.00271039
 !RHF STATE 1.1 Dipole moment           0.00000000     0.00000000    -1.45279188
 Dipole moment /Debye                   0.00000000     0.00000000    -3.69238679

 Orbital energies:

         1.1          2.1          3.1          4.1          5.1          6.1          7.1
    -15.590593   -11.400436    -1.253414    -0.828310    -0.577367     0.032549     0.148896

         1.2          2.2          3.2
     -0.490072     0.133617     0.306163

         1.3          2.3          3.3
     -0.490072     0.133617     0.306163

         1.4          2.4
      0.682814     0.960743

 HOMO      1.2    -0.490072 =     -13.3355eV
 LUMO      6.1     0.032549 =       0.8857eV
 LUMO-HOMO         0.522621 =      14.2212eV


 **********************************************************************************************************************************
 DATASETS  * FILE   NREC   LENGTH (MB)   RECORD NAMES
              1      19      213.47       500      610      700      900      950      970     1000      129      960     1100   
                                          VAR    BASINP    GEOM    SYMINP    ZMAT    AOBASIS   BASIS     P2S    ABASIS      S 
                                         1400     1410     1200     1210     1080     1600     1650     1300     1700   
                                           T        V       H0       H01     AOSYM     SMH    MOLCAS    ERIS     OPER   

              2       4        2.98       700     1000      520     2100   
                                         GEOM     BASIS   MCVARS     RHF  

 PROGRAMS   *        TOTAL        HF       INT
 CPU TIMES  *         4.92      1.65      3.18
 REAL TIME  *         6.17 SEC
 DISK USED  *       641.62 MB      
 **********************************************************************************************************************************


 PROGRAM * CCSD (Closed-shell coupled cluster)     Authors: C. Hampel, H.-J. Werner, 1991, M. Deegan, P.J. Knowles, 1992


 Convergence thresholds:  THRVAR = 1.00D-08  THRDEN = 1.00D-12

 CCSD(T)     terms to be evaluated (factor= 1.000)


 Number of closed-shell orbitals:   7 (   5   1   1   0 )
 Number of external orbitals:     164 (  70  38  38  18 )

 Molecular orbitals read from record     2100.2  Type=RHF/CANONICAL (state 1.1)

 Number of N-1 electron functions:               7
 Number of N-2 electron functions:              28
 Number of singly external CSFs:               426
 Number of doubly external CSFs:            182374
 Total number of CSFs:                      182801

 Length of J-op  integral file:               0.00 MB
 Length of K-op  integral file:               0.65 MB
 Length of 3-ext integral record:             0.00 MB

 Memory could be reduced to 11.98 Mwords without degradation in triples

 Integral transformation finished. Total CPU:   0.28 sec, npass=  1  Memory used:   1.63 MW

 Reference energy:                    -92.80646103

 MP2 singlet pair energy:              -0.30619285
 MP2 triplet pair energy:              -0.13946834
 MP2 correlation energy:               -0.44566119
 MP2 total energy:                    -93.25212221

 SCS-MP2 correlation energy:           -0.45421172   (PS=  1.200000  PT=  0.333333)
 SCS-MP2 total energy:                -93.26067275

 ITER.      SQ.NORM     CORR.ENERGY   TOTAL ENERGY   ENERGY CHANGE        DEN1      VAR(S)    VAR(P)  DIIS     TIME  TIME/IT
   1      1.11213063    -0.45218619   -93.25864722    -0.00652501     0.00623172  0.25D-02  0.27D-02  1  1     0.59     0.33
   2      1.12099752    -0.45243613   -93.25889716    -0.00024994    -0.01020322  0.56D-04  0.36D-03  2  2     0.90     0.34
   3      1.12470103    -0.45261150   -93.25907253    -0.00017537    -0.00179986  0.19D-04  0.51D-04  3  3     1.19     0.34
   4      1.12705803    -0.45262733   -93.25908835    -0.00001583    -0.00103866  0.95D-06  0.50D-05  4  4     1.48     0.34
   5      1.12761155    -0.45263221   -93.25909323    -0.00000488    -0.00015485  0.19D-06  0.42D-06  5  5     1.78     0.34
   6      1.12769765    -0.45263545   -93.25909648    -0.00000325    -0.00000574  0.99D-08  0.36D-07  6  6     2.08     0.34
   7      1.12771235    -0.45263626   -93.25909729    -0.00000081    -0.00000350  0.21D-08  0.30D-08  6  1     2.39     0.34
   8      1.12771579    -0.45263637   -93.25909740    -0.00000011    -0.00000141  0.30D-09  0.19D-09  6  2     2.71     0.34
   9      1.12771578    -0.45263643   -93.25909746    -0.00000006     0.00000019  0.35D-10  0.24D-10  6  3     2.99     0.34
  10      1.12771599    -0.45263645   -93.25909748    -0.00000002    -0.00000001  0.73D-11  0.30D-11  6  4     3.31     0.34
  11      1.12771601    -0.45263645   -93.25909748    -0.00000001     0.00000002  0.74D-12  0.71D-12  6  5     3.61     0.34
  12      1.12771596    -0.45263645   -93.25909748     0.00000000     0.00000003  0.43D-13  0.13D-12  6  6     3.93     0.34
  13      1.12771590    -0.45263645   -93.25909748    -0.00000000     0.00000001  0.40D-14  0.87D-14  6  2     4.23     0.34
  14      1.12771588    -0.45263645   -93.25909748    -0.00000000     0.00000001  0.26D-15  0.41D-15  6  1     4.54     0.34
  15      1.12771588    -0.45263645   -93.25909748    -0.00000000     0.00000000  0.46D-16  0.50D-16  6  3     4.85     0.34
  16      1.12771588    -0.45263645   -93.25909748    -0.00000000     0.00000000  0.80D-17  0.35D-17  6  4     5.17     0.34
  17      1.12771588    -0.45263645   -93.25909748    -0.00000000     0.00000000  0.11D-17  0.54D-18  6  5     5.47     0.34
  18      1.12771588    -0.45263645   -93.25909748     0.00000000    -0.00000000  0.15D-18  0.56D-19  6  6     5.75     0.34
  19      1.12771588    -0.45263645   -93.25909748     0.00000000    -0.00000000  0.91D-20  0.51D-20  6  1     6.05     0.34
  20      1.12771588    -0.45263645   -93.25909748    -0.00000000     0.00000000  0.33D-21  0.59D-21  6  2     6.35     0.34
  21      1.12771588    -0.45263645   -93.25909748    -0.00000000     0.00000000  0.71D-22  0.11D-21  6  3     6.67     0.34

 Norm of t1 vector:      0.06392371      S-energy:     0.00000000      T1 diagnostic:  0.01208044
                                                                       D1 diagnostic:  0.02811026

 Doubles amplitudes (print threshold =  0.500E-01):

         I         J         SYM. A    SYM. B    A         B      T(IJ, AB)

         6         6         2         2         1         1     -0.05783143
         7         7         3         3         1         1     -0.05783143


 Total CPU time for triples:      3.76 sec


 RESULTS
 =======

  Reference energy                    -92.806461027388

  Correlated core orbitals:             1.1       2.1
  Orbital energies:                   -15.5906  -11.4004
 
  CCSD core-core energy                -0.079719989712
  CCSD core-valence energy             -0.029262203788
  CCSD valence correlation energy      -0.343654261241
 
  CCSD singlet pair energy             -0.331375560076
  CCSD triplet pair energy             -0.121260894665
  CCSD correlation energy              -0.452636454741

  Triples (T) contribution             -0.018024122709
  Total correlation energy             -0.470660577450

  CCSD total energy                   -93.259097482129
  CCSD[T] energy                      -93.277895183861
  CCSD-T energy                       -93.276754832915
 !CCSD(T) total energy                -93.277121604838

 Timing summary (sec):

 STEP                 CPU(USER)    SYS     CPU(TOT)    WALL
 Transformation          0.28      0.08      0.36      0.37
 CCSD iterations         6.40      0.86      7.26      7.26
 Triples                 3.76      0.19      3.95      3.95

 Program statistics:

 Available memory in ccsd:               994999704
 Min. memory needed in ccsd:                607983
 Max. memory used in ccsd:                  763562
 Max. memory used in cckext:                768329 (21 integral passes)



 **********************************************************************************************************************************
 DATASETS  * FILE   NREC   LENGTH (MB)   RECORD NAMES
              1      20      249.62       500      610      700      900      950      970     1000      129      960     1100   
                                          VAR    BASINP    GEOM    SYMINP    ZMAT    AOBASIS   BASIS     P2S    ABASIS      S 
                                         1400     1410     1200     1210     1080     1600     1650     1300     1700     1380   
                                           T        V       H0       H01     AOSYM     SMH    MOLCAS    ERIS     OPER     JKOP   

              2       4        2.98       700     1000      520     2100   
                                         GEOM     BASIS   MCVARS     RHF  

 PROGRAMS   *        TOTAL   CCSD(T)        HF       INT
 CPU TIMES  *        15.39     10.47      1.65      3.18
 REAL TIME  *        19.18 SEC
 DISK USED  *       641.62 MB      
 **********************************************************************************************************************************

 CCSD(T)/USERDEF energy=    -93.277121604838

        CCSD(T)         HF-SCF  
    -93.27712160    -92.80646103
 **********************************************************************************************************************************
 Molpro calculation terminated
 Variable memory released
