
 Primary working directories    : /tmp/r2666/232775.maple
 Secondary working directories  : /tmp/r2666/232775.maple
 Wavefunction directory         : /ddn/home4/r2666/wfu/
 Main file repository           : /tmp/r2666/232775.maple/

 SHA1      : d5ffa45e93fdbca01ffc919aa182cfdae0147319
 NAME      : 2015.1.35
 ARCHNAME  : linux/x86_64
 FC        : /opt/intel/composer_xe_2015.1.133/bin/intel64/ifort
 BLASLIB   : -Wl,-_start-group /opt/intel/mkl/lib/intel64/libmkl_intel_ilp64.a /opt/intel/mkl/lib/intel64/libmkl_intel_thread.a /opt/intel/mkl/lib/intel64/libmkl_core.a -Wl,-_end-group
 id        : olemiss

 Nodes     nprocs
 cn064        1

 Using customized tuning parameters: mindgm=1; mindgv=20; mindgc=4; mindgr=1; noblas=0; minvec=7
 default implementation of scratch files=df  

 ***,hcn CCSD(T)/TZ-F12 QFF
 memory, 995, m;
 gthresh,energy=1.d-12,zero=1.d-22,oneint=1.d-22,twoint=1.d-22;
 gthresh,optgrad=1.d-8,optstep=1.d-8;
 nocompress;
 geomtyp=xyz
 bohr
 geometry={
 3
         54        54
 N        0.0000000000        0.0000000000        1.1467481942
 C        0.0000000000        0.0000000000       -1.0604473626
 H        0.0000000000        0.0000000000       -3.0833708136
 }
 
 basis={
 default=aug-cc-pvtz
 s,C,8236.0,1235.0,280.8, 79.27,25.59, 8.997,3.319
 s,C,0.9059,0.3643,0.1285000
 p,C,56.0,18.71,4.133,0.2827,0.3827,0.1209
 d,C,30.0,10.0,3.3,1.097,0.318
 f,C,7.0,2.3,0.7610
 s,N,11420.0,1712.0,389.3,110.0,35.57,12.54,4.644
 s,N,1.293,0.5118,0.1787
 p,N,79.89,26.63,5.948,1.742,0.555,0.1725
 d,N,45.0,15.0,5.0,1.654,0.469
 f,N,9.9,3.3,1.093
 s,O,15330.0,2299.0,522.4,147.3,47.55,16.76,6.207
 s,O,1.752,0.6882,0.2384
 p,O,103.5,34.46,7.749,2.28,0.7156,0.214
 d,O,63.0,21.0,7.0,2.314,0.645
 f,O,12.9,4.3,1.428
 s,mg,164900.0,24710.0,5628.0,1596.0,521.0;
 s,mg,188.0,73.01,29.90,12.54,4.306,1.826;
 s,mg,0.7417,0.0761,0.145,0.033,0.0129;
 p,mg,950.70,316.90,74.86,23.72,8.669,3.363;
 p,mg,1.310,0.4911,0.2364,0.08733,0.03237,0.00745;
 d,mg,1.601,0.686,0.126,0.294,0.0468;
 f,mg,1.372,0.588,0.094,0.252;
 }
   {hf,maxit=500;accu,20;}
 {ccsd(t),nocheck,maxit=250;orbital,IGNORE_ERROR;core}

 Variables initialized (889), CPU time= 0.00 sec
 Commands  initialized (702), CPU time= 0.01 sec, 572 directives.
 Default parameters read. Elapsed time= 0.06 sec

 Checking input...
 Passed
1


                                         ***  PROGRAM SYSTEM MOLPRO  ***
                                       Copyright, TTI GmbH Stuttgart, 2015
                                    Version 2015.1 linked Jul  9 2018 13:16:40


 **********************************************************************************************************************************
 LABEL *   hcn CCSD(T)/TZ-F12 QFF                                                        
  64 bit serial version                                                                  DATE: 06-Feb-20          TIME: 09:55:40  
 **********************************************************************************************************************************

 SHA1:             d5ffa45e93fdbca01ffc919aa182cfdae0147319
 **********************************************************************************************************************************

 THRESHOLDS:

 ZERO    =  1.00D-22  ONEINT  =  1.00D-22  TWOINT  =  1.00D-22  PREFAC  =  1.00D-14  LOCALI  =  1.00D-09  EORDER  =  1.00D-04
 ENERGY  =  1.00D-12  ETEST   =  0.00D+00  EDENS   =  0.00D+00  THRDEDEF=  1.00D-06  GRADIENT=  1.00D-02  STEP    =  1.00D-03
 ORBITAL =  1.00D-05  CIVEC   =  1.00D-05  COEFF   =  1.00D-04  PRINTCI =  5.00D-02  PUNCHCI =  9.90D+01  OPTGRAD =  3.00D-04
 OPTENERG=  1.00D-06  OPTSTEP =  3.00D-04  THRGRAD =  1.00D-10  COMPRESS=  1.00D-11  VARMIN  =  1.00D-07  VARMAX  =  1.00D-03
 THRDOUB =  0.00D+00  THRDIV  =  1.00D-05  THRRED  =  1.00D-07  THRPSP  =  1.00D+00  THRDC   =  1.00D-10  THRCS   =  1.00D-10
 THRNRM  =  1.00D-08  THREQ   =  0.00D+00  THRDE   =  1.00D+00  THRREF  =  1.00D-05  SPARFAC =  1.00D+00  THRDLP  =  1.00D-07
 THRDIA  =  1.00D-10  THRDLS  =  1.00D-07  THRGPS  =  0.00D+00  THRKEX  =  0.00D+00  THRDIS  =  2.00D-01  THRVAR  =  1.00D-10
 THRLOC  =  1.00D-06  THRGAP  =  1.00D-06  THRLOCT = -1.00D+00  THRGAPT = -1.00D+00  THRORB  =  1.00D-06  THRMLTP =  0.00D+00
 THRCPQCI=  1.00D-10  KEXTA   =  0.00D+00  THRCOARS=  0.00D+00  SYMTOL  =  1.00D-06  GRADTOL =  1.00D-06  THROVL  =  1.00D-08
 THRORTH =  1.00D-08  GRID    =  1.00D-06  GRIDMAX =  1.00D-03  DTMAX   =  0.00D+00  THROCCDE=  1.00D-01  THROCCDE=  1.00D-01



 THRESHOLDS:

 ZERO    =  1.00D-22  ONEINT  =  1.00D-22  TWOINT  =  1.00D-22  PREFAC  =  1.00D-14  LOCALI  =  1.00D-09  EORDER  =  1.00D-04
 ENERGY  =  1.00D-12  ETEST   =  0.00D+00  EDENS   =  0.00D+00  THRDEDEF=  1.00D-06  GRADIENT=  1.00D-02  STEP    =  1.00D-03
 ORBITAL =  1.00D-05  CIVEC   =  1.00D-05  COEFF   =  1.00D-04  PRINTCI =  5.00D-02  PUNCHCI =  9.90D+01  OPTGRAD =  1.00D-08
 OPTENERG=  1.00D-06  OPTSTEP =  1.00D-08  THRGRAD =  1.00D-10  COMPRESS=  1.00D-11  VARMIN  =  1.00D-07  VARMAX  =  1.00D-03
 THRDOUB =  0.00D+00  THRDIV  =  1.00D-05  THRRED  =  1.00D-07  THRPSP  =  1.00D+00  THRDC   =  1.00D-10  THRCS   =  1.00D-10
 THRNRM  =  1.00D-08  THREQ   =  0.00D+00  THRDE   =  1.00D+00  THRREF  =  1.00D-05  SPARFAC =  1.00D+00  THRDLP  =  1.00D-07
 THRDIA  =  1.00D-10  THRDLS  =  1.00D-07  THRGPS  =  0.00D+00  THRKEX  =  0.00D+00  THRDIS  =  2.00D-01  THRVAR  =  1.00D-10
 THRLOC  =  1.00D-06  THRGAP  =  1.00D-06  THRLOCT = -1.00D+00  THRGAPT = -1.00D+00  THRORB  =  1.00D-06  THRMLTP =  0.00D+00
 THRCPQCI=  1.00D-10  KEXTA   =  0.00D+00  THRCOARS=  0.00D+00  SYMTOL  =  1.00D-06  GRADTOL =  1.00D-06  THROVL  =  1.00D-08
 THRORTH =  1.00D-08  GRID    =  1.00D-06  GRIDMAX =  1.00D-03  DTMAX   =  0.00D+00  THROCCDE=  1.00D-01  THROCCDE=  1.00D-01



 Input parameters for SORTINT:

 COMPRESS =    0.000000
 C_FINAL  =    1.000000
 DEBUG    =   -1.000000
 C_SORT1  =    0.000000
 C_SEWARD =    0.000000
 THRESH   =    0.000000
 IO       =  molpro                                                          
 SPRI     =    0.000000
 SETTING GEOMTYP        =    XYZ
 ZUNIT=BOHR
 

 Variable memory set to  995000000 words,  buffer space   230000 words

 SETTING BASIS          =    USERDEF


 Recomputing integrals since basis changed


 Using spherical harmonics

 Library entry H      S aug-cc-pVTZ          selected for orbital group  3
 Library entry H      P aug-cc-pVTZ          selected for orbital group  3
 Library entry H      D aug-cc-pVTZ          selected for orbital group  3


 PROGRAM * SEWARD (Integral evaluation for generally contracted gaussian basis sets)     Author: Roland Lindh, 1990

 Geometry written to block  1 of record 700


 Point group  C2v 



 ATOMIC COORDINATES

 NR  ATOM    CHARGE       X              Y              Z

   1  N       7.00    0.000000000    0.000000000    1.146748194
   2  C       6.00    0.000000000    0.000000000   -1.060447363
   3  H       1.00    0.000000000    0.000000000   -3.083370814

 Bond lengths in Bohr (Angstrom)

 1-2  2.207195557  2-3  2.022923451
     ( 1.167997589)     ( 1.070484990)

 Bond angles

  1-2-3  179.99999829

 NUCLEAR CHARGE:                   14
 NUMBER OF PRIMITIVE AOS:         203
 NUMBER OF SYMMETRY AOS:          173
 NUMBER OF CONTRACTIONS:          171   (  75A1  +  39B1  +  39B2  +  18A2  )
 NUMBER OF CORE ORBITALS:           2   (   2A1  +   0B1  +   0B2  +   0A2  )
 NUMBER OF VALENCE ORBITALS:        9   (   5A1  +   2B1  +   2B2  +   0A2  )


 NUCLEAR REPULSION ENERGY   23.64947612

 EXTRA SYMMETRY OF AOS IN SYMMETRY 1:   1 1 1 1 1 1 1 1 1 1   1 1 1 1 1 1 1 2 1 2   1 2 1 2 1 2 1 2 1 2   1 2 1 1 1 1 1 1 1 1
                                        1 1 1 1 1 1 1 1 1 2   1 2 1 2 1 2 1 2 1 2   1 2 1 2 1 1 1 1 1 1   1 1 2 1 2
 EXTRA SYMMETRY OF AOS IN SYMMETRY 2:   1 1 1 1 1 1 1 1 1 1   1 1 2 1 2 1 2 1 1 1   1 1 1 1 1 1 1 1 1 2   1 2 1 2 1 1 1 1 1
 EXTRA SYMMETRY OF AOS IN SYMMETRY 3:   1 1 1 1 1 1 1 1 1 1   1 1 2 1 2 1 2 1 1 1   1 1 1 1 1 1 1 1 1 2   1 2 1 2 1 1 1 1 1

 Eigenvalues of metric

         1 0.251E-03 0.565E-03 0.944E-03 0.140E-02 0.321E-02 0.777E-02 0.102E-01 0.133E-01
         2 0.551E-02 0.162E-01 0.234E-01 0.356E-01 0.970E-01 0.114E+00 0.126E+00 0.189E+00
         3 0.551E-02 0.162E-01 0.234E-01 0.356E-01 0.970E-01 0.114E+00 0.126E+00 0.189E+00
         4 0.125E+00 0.140E+00 0.199E+00 0.258E+00 0.315E+00 0.379E+00 0.486E+00 0.604E+00


 Contracted 2-electron integrals neglected if value below      1.0D-22

       21680425. INTEGRALS WRITTEN OUT IN    5295 BLOCKS ON RECORD 1290 OF FILE 1


 NUMBER OF SORTED TWO-ELECTRON INTEGRALS:   28272141.     BUFFER LENGTH:  32768
 NUMBER OF SEGMENTS:   2  SEGMENT LENGTH:   15998211      RECORD LENGTH: 524288

 Memory used in sort:      16.56 MW

 SORT1 READ    21680425. AND WROTE    22077328. INTEGRALS IN     64 RECORDS. CPU TIME:     0.79 SEC, REAL TIME:     1.02 SEC
 SORT2 READ    22077328. AND WROTE    28272141. INTEGRALS IN      2 RECORDS. CPU TIME:     0.57 SEC, REAL TIME:     0.72 SEC

 FILE SIZES:   FILE 1:   367.6 MBYTE,  FILE 4:   268.5 MBYTE,   TOTAL:    636.1 MBYTE

 OPERATOR DM      FOR CENTER  0  COORDINATES:    0.000000    0.000000    0.000000


 **********************************************************************************************************************************
 DATASETS  * FILE   NREC   LENGTH (MB)   RECORD NAMES
              1      19      213.11       500      610      700      900      950      970     1000      129      960     1100   
                                          VAR    BASINP    GEOM    SYMINP    ZMAT    AOBASIS   BASIS     P2S    ABASIS      S 
                                         1400     1410     1200     1210     1080     1600     1650     1300     1700   
                                           T        V       H0       H01     AOSYM     SMH    MOLCAS    ERIS     OPER   

 PROGRAMS   *        TOTAL       INT
 CPU TIMES  *         4.92      4.83
 REAL TIME  *         6.58 SEC
 DISK USED  *       636.44 MB      
 **********************************************************************************************************************************


 PROGRAM * RHF-SCF (CLOSED SHELL)       Authors: W. Meyer, H.-J. Werner


 NUMBER OF ELECTRONS:       7+    7-
 CONVERGENCE THRESHOLDS:    1.00E-10 (Density)    1.00E-13 (Energy)
 MAX. NUMBER OF ITERATIONS:      500
 INTERPOLATION TYPE:            DIIS
 INTERPOLATION STEPS:              2 (START)      1 (STEP)
 LEVEL SHIFTS:                  0.00 (CLOSED)  0.00 (OPEN) 



 Orbital guess generated from atomic densities. Full valence occupancy:    7   2   2   0

 Molecular orbital dump at record        2100.2

 Initial occupancy:   5   1   1   0

 ITERATION    DDIFF          GRAD             ENERGY        2-EL.EN.            DIPOLE MOMENTS         DIIS   ORB.
    1      0.000D+00      0.000D+00       -92.76987969    111.135239    0.00000    0.00000   -2.04333    0    start
    2      0.000D+00      0.907D-02       -92.78122336    109.494185    0.00000    0.00000   -0.92714    1    diag
    3      0.352D-01      0.803D-02       -92.80425872    110.420483    0.00000    0.00000   -1.45480    2    diag
    4      0.122D-01      0.575D-03       -92.80451585    110.364448    0.00000    0.00000   -1.44757    3    diag
    5      0.190D-02      0.133D-03       -92.80453113    110.375240    0.00000    0.00000   -1.44623    4    diag
    6      0.556D-03      0.349D-04       -92.80453211    110.370409    0.00000    0.00000   -1.44638    5    diag
    7      0.528D-04      0.126D-04       -92.80453221    110.371340    0.00000    0.00000   -1.44648    6    diag
    8      0.172D-04      0.255D-05       -92.80453221    110.371330    0.00000    0.00000   -1.44646    7    diag
    9      0.928D-05      0.278D-06       -92.80453221    110.371338    0.00000    0.00000   -1.44646    8    diag
   10      0.156D-05      0.296D-07       -92.80453221    110.371339    0.00000    0.00000   -1.44646    9    orth
   11      0.148D-06      0.388D-08       -92.80453221    110.371339    0.00000    0.00000   -1.44646    9    diag
   12      0.124D-07      0.411D-09       -92.80453221    110.371339    0.00000    0.00000   -1.44646    9    diag
   13      0.121D-08      0.534D-10       -92.80453221    110.371339    0.00000    0.00000   -1.44646    9    diag
   14      0.183D-09      0.795D-11       -92.80453221    110.371339    0.00000    0.00000   -1.44646    9    diag
   15      0.285D-10      0.159D-11       -92.80453221    110.371339    0.00000    0.00000   -1.44646    9    diag
   16      0.631D-11      0.597D-12       -92.80453221    110.371339    0.00000    0.00000   -1.44646    0    orth

 Final occupancy:   5   1   1   0

 !RHF STATE 1.1 Energy                -92.804532212147
 Nuclear energy                        23.64947612
 One-electron energy                 -171.63967800
 Two-electron energy                   55.18566967
 Virial quotient                       -1.00333158
 !RHF STATE 1.1 Dipole moment           0.00000000     0.00000000    -1.44645871
 Dipole moment /Debye                   0.00000000     0.00000000    -3.67629052

 Orbital energies:

         1.1          2.1          3.1          4.1          5.1          6.1          7.1
    -15.596121   -11.404935    -1.246368    -0.836056    -0.578596     0.032539     0.150595

         1.2          2.2          3.2
     -0.486046     0.130646     0.302926

         1.3          2.3          3.3
     -0.486046     0.130646     0.302926

         1.4          2.4
      0.682260     0.962413

 HOMO      1.2    -0.486046 =     -13.2260eV
 LUMO      6.1     0.032539 =       0.8854eV
 LUMO-HOMO         0.518585 =      14.1114eV


 **********************************************************************************************************************************
 DATASETS  * FILE   NREC   LENGTH (MB)   RECORD NAMES
              1      19      213.11       500      610      700      900      950      970     1000      129      960     1100   
                                          VAR    BASINP    GEOM    SYMINP    ZMAT    AOBASIS   BASIS     P2S    ABASIS      S 
                                         1400     1410     1200     1210     1080     1600     1650     1300     1700   
                                           T        V       H0       H01     AOSYM     SMH    MOLCAS    ERIS     OPER   

              2       4        2.98       700     1000      520     2100   
                                         GEOM     BASIS   MCVARS     RHF  

 PROGRAMS   *        TOTAL        HF       INT
 CPU TIMES  *         6.86      1.94      4.83
 REAL TIME  *         9.03 SEC
 DISK USED  *       636.44 MB      
 **********************************************************************************************************************************


 PROGRAM * CCSD (Closed-shell coupled cluster)     Authors: C. Hampel, H.-J. Werner, 1991, M. Deegan, P.J. Knowles, 1992


 Convergence thresholds:  THRVAR = 1.00D-08  THRDEN = 1.00D-12

 CCSD(T)     terms to be evaluated (factor= 1.000)


 Number of closed-shell orbitals:   7 (   5   1   1   0 )
 Number of external orbitals:     164 (  70  38  38  18 )

 Molecular orbitals read from record     2100.2  Type=RHF/CANONICAL (state 1.1)

 Number of N-1 electron functions:               7
 Number of N-2 electron functions:              28
 Number of singly external CSFs:               426
 Number of doubly external CSFs:            182374
 Total number of CSFs:                      182801

 Length of J-op  integral file:               0.00 MB
 Length of K-op  integral file:               0.65 MB
 Length of 3-ext integral record:             0.00 MB

 Memory could be reduced to 11.98 Mwords without degradation in triples

 Integral transformation finished. Total CPU:   0.41 sec, npass=  1  Memory used:   1.63 MW

 Reference energy:                    -92.80453221

 MP2 singlet pair energy:              -0.30748009
 MP2 triplet pair energy:              -0.14047060
 MP2 correlation energy:               -0.44795069
 MP2 total energy:                    -93.25248290

 SCS-MP2 correlation energy:           -0.45638004   (PS=  1.200000  PT=  0.333333)
 SCS-MP2 total energy:                -93.26091225

 ITER.      SQ.NORM     CORR.ENERGY   TOTAL ENERGY   ENERGY CHANGE        DEN1      VAR(S)    VAR(P)  DIIS     TIME  TIME/IT
   1      1.11362323    -0.45380630   -93.25833851    -0.00585560     0.00740628  0.27D-02  0.29D-02  1  1     0.83     0.48
   2      1.12280615    -0.45394423   -93.25847644    -0.00013793    -0.01051648  0.59D-04  0.38D-03  2  2     1.29     0.49
   3      1.12665376    -0.45412573   -93.25865795    -0.00018150    -0.00183424  0.19D-04  0.55D-04  3  3     1.74     0.50
   4      1.12915664    -0.45414531   -93.25867752    -0.00001957    -0.00108113  0.96D-06  0.56D-05  4  4     2.20     0.50
   5      1.12975967    -0.45415031   -93.25868252    -0.00000500    -0.00016825  0.19D-06  0.48D-06  5  5     2.65     0.50
   6      1.12985269    -0.45415411   -93.25868632    -0.00000380    -0.00000585  0.87D-08  0.42D-07  6  6     3.10     0.50
   7      1.12986882    -0.45415513   -93.25868734    -0.00000102    -0.00000383  0.17D-08  0.35D-08  6  1     3.53     0.50
   8      1.12987232    -0.45415530   -93.25868751    -0.00000017    -0.00000148  0.21D-09  0.21D-09  6  2     3.98     0.50
   9      1.12987222    -0.45415537   -93.25868758    -0.00000008     0.00000022  0.19D-10  0.22D-10  6  3     4.44     0.50
  10      1.12987242    -0.45415539   -93.25868761    -0.00000002    -0.00000002  0.43D-11  0.20D-11  6  4     4.90     0.51
  11      1.12987240    -0.45415540   -93.25868761    -0.00000001     0.00000002  0.63D-12  0.42D-12  6  5     5.34     0.51
  12      1.12987235    -0.45415540   -93.25868762    -0.00000000     0.00000003  0.56D-13  0.89D-13  6  6     5.81     0.51
  13      1.12987232    -0.45415540   -93.25868762    -0.00000000     0.00000001  0.25D-14  0.13D-13  6  1     6.26     0.51
  14      1.12987230    -0.45415540   -93.25868762    -0.00000000     0.00000001  0.30D-15  0.19D-14  6  2     6.70     0.51
  15      1.12987229    -0.45415540   -93.25868762    -0.00000000     0.00000000  0.25D-16  0.13D-15  6  4     7.11     0.51
  16      1.12987229    -0.45415540   -93.25868762    -0.00000000     0.00000000  0.92D-17  0.11D-16  6  1     7.54     0.51
  17      1.12987229    -0.45415540   -93.25868762    -0.00000000     0.00000000  0.74D-18  0.10D-17  6  3     8.01     0.51
  18      1.12987229    -0.45415540   -93.25868762    -0.00000000     0.00000000  0.38D-19  0.68D-19  6  5     8.46     0.51
  19      1.12987229    -0.45415540   -93.25868762    -0.00000000     0.00000000  0.41D-20  0.81D-20  6  6     8.90     0.51
  20      1.12987229    -0.45415540   -93.25868762    -0.00000000     0.00000000  0.35D-21  0.49D-21  6  1     9.37     0.51
  21      1.12987229    -0.45415540   -93.25868762    -0.00000000     0.00000000  0.71D-22  0.62D-22  6  2     9.82     0.51
  22      1.12987229    -0.45415540   -93.25868762    -0.00000000     0.00000000  0.12D-22  0.82D-23  6  4    10.26     0.51

 Norm of t1 vector:      0.06563779      S-energy:    -0.00000000      T1 diagnostic:  0.01240438
                                                                       D1 diagnostic:  0.02904043

 Doubles amplitudes (print threshold =  0.500E-01):

         I         J         SYM. A    SYM. B    A         B      T(IJ, AB)

         6         6         2         2         1         1     -0.06123761
         7         7         3         3         1         1     -0.06123761


 Total CPU time for triples:      6.28 sec


 RESULTS
 =======

  Reference energy                    -92.804532212147

  Correlated core orbitals:             1.1       2.1
  Orbital energies:                   -15.5961  -11.4049
 
  CCSD core-core energy                -0.079743904386
  CCSD core-valence energy             -0.029095737648
  CCSD valence correlation energy      -0.345315762345
 
  CCSD singlet pair energy             -0.332676944452
  CCSD triplet pair energy             -0.121478459927
  CCSD correlation energy              -0.454155404378

  Triples (T) contribution             -0.018421911919
  Total correlation energy             -0.472577316297

  CCSD total energy                   -93.258687616525
  CCSD[T] energy                      -93.277931591995
  CCSD-T energy                       -93.276720389552
 !CCSD(T) total energy                -93.277109528444

 Timing summary (sec):

 STEP                 CPU(USER)    SYS     CPU(TOT)    WALL
 Transformation          0.41      0.10      0.51      0.51
 CCSD iterations         9.85      1.36     11.21     11.22
 Triples                 6.28      0.23      6.51      6.51

 Program statistics:

 Available memory in ccsd:               994999704
 Min. memory needed in ccsd:                607983
 Max. memory used in ccsd:                  763562
 Max. memory used in cckext:                768329 (22 integral passes)



 **********************************************************************************************************************************
 DATASETS  * FILE   NREC   LENGTH (MB)   RECORD NAMES
              1      20      249.26       500      610      700      900      950      970     1000      129      960     1100   
                                          VAR    BASINP    GEOM    SYMINP    ZMAT    AOBASIS   BASIS     P2S    ABASIS      S 
                                         1400     1410     1200     1210     1080     1600     1650     1300     1700     1380   
                                           T        V       H0       H01     AOSYM     SMH    MOLCAS    ERIS     OPER     JKOP   

              2       4        2.98       700     1000      520     2100   
                                         GEOM     BASIS   MCVARS     RHF  

 PROGRAMS   *        TOTAL   CCSD(T)        HF       INT
 CPU TIMES  *        23.43     16.57      1.94      4.83
 REAL TIME  *        27.32 SEC
 DISK USED  *       636.44 MB      
 **********************************************************************************************************************************

 CCSD(T)/USERDEF energy=    -93.277109528444

        CCSD(T)         HF-SCF  
    -93.27710953    -92.80453221
 **********************************************************************************************************************************
 Molpro calculation terminated
 Variable memory released
