
 Primary working directories    : /tmp/r2666/232770.maple
 Secondary working directories  : /tmp/r2666/232770.maple
 Wavefunction directory         : /ddn/home4/r2666/wfu/
 Main file repository           : /tmp/r2666/232770.maple/

 SHA1      : d5ffa45e93fdbca01ffc919aa182cfdae0147319
 NAME      : 2015.1.35
 ARCHNAME  : linux/x86_64
 FC        : /opt/intel/composer_xe_2015.1.133/bin/intel64/ifort
 BLASLIB   : -Wl,-_start-group /opt/intel/mkl/lib/intel64/libmkl_intel_ilp64.a /opt/intel/mkl/lib/intel64/libmkl_intel_thread.a /opt/intel/mkl/lib/intel64/libmkl_core.a -Wl,-_end-group
 id        : olemiss

 Nodes     nprocs
 cn084        1

 Using customized tuning parameters: mindgm=1; mindgv=20; mindgc=4; mindgr=1; noblas=0; minvec=7
 default implementation of scratch files=df  

 ***,hcn CCSD(T)/TZ-F12 QFF
 memory, 995, m;
 gthresh,energy=1.d-12,zero=1.d-22,oneint=1.d-22,twoint=1.d-22;
 gthresh,optgrad=1.d-8,optstep=1.d-8;
 nocompress;
 geomtyp=xyz
 bohr
 geometry={
 3
         49        49
 N       -0.0046350011        0.0000001318        1.1372508040
 C        0.0096508443       -0.0000000034       -1.0604496918
 H       -0.0050158432       -0.0000001284       -3.0738710941
 }
 
 basis={
 default=aug-cc-pvtz
 s,C,8236.0,1235.0,280.8, 79.27,25.59, 8.997,3.319
 s,C,0.9059,0.3643,0.1285000
 p,C,56.0,18.71,4.133,0.2827,0.3827,0.1209
 d,C,30.0,10.0,3.3,1.097,0.318
 f,C,7.0,2.3,0.7610
 s,N,11420.0,1712.0,389.3,110.0,35.57,12.54,4.644
 s,N,1.293,0.5118,0.1787
 p,N,79.89,26.63,5.948,1.742,0.555,0.1725
 d,N,45.0,15.0,5.0,1.654,0.469
 f,N,9.9,3.3,1.093
 s,O,15330.0,2299.0,522.4,147.3,47.55,16.76,6.207
 s,O,1.752,0.6882,0.2384
 p,O,103.5,34.46,7.749,2.28,0.7156,0.214
 d,O,63.0,21.0,7.0,2.314,0.645
 f,O,12.9,4.3,1.428
 s,mg,164900.0,24710.0,5628.0,1596.0,521.0;
 s,mg,188.0,73.01,29.90,12.54,4.306,1.826;
 s,mg,0.7417,0.0761,0.145,0.033,0.0129;
 p,mg,950.70,316.90,74.86,23.72,8.669,3.363;
 p,mg,1.310,0.4911,0.2364,0.08733,0.03237,0.00745;
 d,mg,1.601,0.686,0.126,0.294,0.0468;
 f,mg,1.372,0.588,0.094,0.252;
 }
   {hf,maxit=500;accu,20;}
 {ccsd(t),nocheck,maxit=250;orbital,IGNORE_ERROR;core}

 Variables initialized (889), CPU time= 0.01 sec
 Commands  initialized (702), CPU time= 0.01 sec, 572 directives.
 Default parameters read. Elapsed time= 0.04 sec

 Checking input...
 Passed
1


                                         ***  PROGRAM SYSTEM MOLPRO  ***
                                       Copyright, TTI GmbH Stuttgart, 2015
                                    Version 2015.1 linked Jul  9 2018 13:16:40


 **********************************************************************************************************************************
 LABEL *   hcn CCSD(T)/TZ-F12 QFF                                                        
  64 bit serial version                                                                  DATE: 06-Feb-20          TIME: 09:55:39  
 **********************************************************************************************************************************

 SHA1:             d5ffa45e93fdbca01ffc919aa182cfdae0147319
 **********************************************************************************************************************************

 THRESHOLDS:

 ZERO    =  1.00D-22  ONEINT  =  1.00D-22  TWOINT  =  1.00D-22  PREFAC  =  1.00D-14  LOCALI  =  1.00D-09  EORDER  =  1.00D-04
 ENERGY  =  1.00D-12  ETEST   =  0.00D+00  EDENS   =  0.00D+00  THRDEDEF=  1.00D-06  GRADIENT=  1.00D-02  STEP    =  1.00D-03
 ORBITAL =  1.00D-05  CIVEC   =  1.00D-05  COEFF   =  1.00D-04  PRINTCI =  5.00D-02  PUNCHCI =  9.90D+01  OPTGRAD =  3.00D-04
 OPTENERG=  1.00D-06  OPTSTEP =  3.00D-04  THRGRAD =  1.00D-10  COMPRESS=  1.00D-11  VARMIN  =  1.00D-07  VARMAX  =  1.00D-03
 THRDOUB =  0.00D+00  THRDIV  =  1.00D-05  THRRED  =  1.00D-07  THRPSP  =  1.00D+00  THRDC   =  1.00D-10  THRCS   =  1.00D-10
 THRNRM  =  1.00D-08  THREQ   =  0.00D+00  THRDE   =  1.00D+00  THRREF  =  1.00D-05  SPARFAC =  1.00D+00  THRDLP  =  1.00D-07
 THRDIA  =  1.00D-10  THRDLS  =  1.00D-07  THRGPS  =  0.00D+00  THRKEX  =  0.00D+00  THRDIS  =  2.00D-01  THRVAR  =  1.00D-10
 THRLOC  =  1.00D-06  THRGAP  =  1.00D-06  THRLOCT = -1.00D+00  THRGAPT = -1.00D+00  THRORB  =  1.00D-06  THRMLTP =  0.00D+00
 THRCPQCI=  1.00D-10  KEXTA   =  0.00D+00  THRCOARS=  0.00D+00  SYMTOL  =  1.00D-06  GRADTOL =  1.00D-06  THROVL  =  1.00D-08
 THRORTH =  1.00D-08  GRID    =  1.00D-06  GRIDMAX =  1.00D-03  DTMAX   =  0.00D+00  THROCCDE=  1.00D-01  THROCCDE=  1.00D-01



 THRESHOLDS:

 ZERO    =  1.00D-22  ONEINT  =  1.00D-22  TWOINT  =  1.00D-22  PREFAC  =  1.00D-14  LOCALI  =  1.00D-09  EORDER  =  1.00D-04
 ENERGY  =  1.00D-12  ETEST   =  0.00D+00  EDENS   =  0.00D+00  THRDEDEF=  1.00D-06  GRADIENT=  1.00D-02  STEP    =  1.00D-03
 ORBITAL =  1.00D-05  CIVEC   =  1.00D-05  COEFF   =  1.00D-04  PRINTCI =  5.00D-02  PUNCHCI =  9.90D+01  OPTGRAD =  1.00D-08
 OPTENERG=  1.00D-06  OPTSTEP =  1.00D-08  THRGRAD =  1.00D-10  COMPRESS=  1.00D-11  VARMIN  =  1.00D-07  VARMAX  =  1.00D-03
 THRDOUB =  0.00D+00  THRDIV  =  1.00D-05  THRRED  =  1.00D-07  THRPSP  =  1.00D+00  THRDC   =  1.00D-10  THRCS   =  1.00D-10
 THRNRM  =  1.00D-08  THREQ   =  0.00D+00  THRDE   =  1.00D+00  THRREF  =  1.00D-05  SPARFAC =  1.00D+00  THRDLP  =  1.00D-07
 THRDIA  =  1.00D-10  THRDLS  =  1.00D-07  THRGPS  =  0.00D+00  THRKEX  =  0.00D+00  THRDIS  =  2.00D-01  THRVAR  =  1.00D-10
 THRLOC  =  1.00D-06  THRGAP  =  1.00D-06  THRLOCT = -1.00D+00  THRGAPT = -1.00D+00  THRORB  =  1.00D-06  THRMLTP =  0.00D+00
 THRCPQCI=  1.00D-10  KEXTA   =  0.00D+00  THRCOARS=  0.00D+00  SYMTOL  =  1.00D-06  GRADTOL =  1.00D-06  THROVL  =  1.00D-08
 THRORTH =  1.00D-08  GRID    =  1.00D-06  GRIDMAX =  1.00D-03  DTMAX   =  0.00D+00  THROCCDE=  1.00D-01  THROCCDE=  1.00D-01



 Input parameters for SORTINT:

 COMPRESS =    0.000000
 C_FINAL  =    1.000000
 DEBUG    =   -1.000000
 C_SORT1  =    0.000000
 C_SEWARD =    0.000000
 THRESH   =    0.000000
 IO       =  molpro                                                          
 SPRI     =    0.000000
 SETTING GEOMTYP        =    XYZ
 ZUNIT=BOHR
 

 Variable memory set to  995000000 words,  buffer space   230000 words

 SETTING BASIS          =    USERDEF


 Recomputing integrals since basis changed


 Using spherical harmonics

 Library entry H      S aug-cc-pVTZ          selected for orbital group  3
 Library entry H      P aug-cc-pVTZ          selected for orbital group  3
 Library entry H      D aug-cc-pVTZ          selected for orbital group  3


 PROGRAM * SEWARD (Integral evaluation for generally contracted gaussian basis sets)     Author: Roland Lindh, 1990

 Geometry written to block  1 of record 700


 Point group  Cs  



 ATOMIC COORDINATES

 NR  ATOM    CHARGE       X              Y              Z

   1  N       7.00   -0.004635001    0.000000000    1.137250804
   2  C       6.00    0.009650844    0.000000000   -1.060449692
   3  H       1.00   -0.005015843    0.000000000   -3.073871094

 Bond lengths in Bohr (Angstrom)

 1-2  2.197746927  2-3  2.013474821
     ( 1.162997589)     ( 1.065484990)

 Bond angles

  1-2-3  179.21020060

 NUCLEAR CHARGE:                   14
 NUMBER OF PRIMITIVE AOS:         203
 NUMBER OF SYMMETRY AOS:          173
 NUMBER OF CONTRACTIONS:          171   ( 114A'  +  57A"  )
 NUMBER OF CORE ORBITALS:           2   (   2A'  +   0A"  )
 NUMBER OF VALENCE ORBITALS:        9   (   7A'  +   2A"  )


 NUCLEAR REPULSION ENERGY   23.75266850


 Eigenvalues of metric

         1 0.245E-03 0.549E-03 0.925E-03 0.138E-02 0.319E-02 0.547E-02 0.762E-02 0.101E-01
         2 0.547E-02 0.160E-01 0.227E-01 0.350E-01 0.966E-01 0.113E+00 0.125E+00 0.126E+00


 Contracted 2-electron integrals neglected if value below      1.0D-22

       47893142. INTEGRALS WRITTEN OUT IN   11696 BLOCKS ON RECORD 1290 OF FILE 1


 NUMBER OF SORTED TWO-ELECTRON INTEGRALS:   55360566.     BUFFER LENGTH:  32768
 NUMBER OF SEGMENTS:   4  SEGMENT LENGTH:   15997996      RECORD LENGTH: 524288

 Memory used in sort:      16.56 MW

 SORT1 READ    47893142. AND WROTE    48347297. INTEGRALS IN    141 RECORDS. CPU TIME:     0.77 SEC, REAL TIME:     1.02 SEC
 SORT2 READ    48347297. AND WROTE    55360566. INTEGRALS IN      4 RECORDS. CPU TIME:     0.56 SEC, REAL TIME:     0.85 SEC

 FILE SIZES:   FILE 1:   787.2 MBYTE,  FILE 4:   591.4 MBYTE,   TOTAL:   1378.7 MBYTE

 OPERATOR DM      FOR CENTER  0  COORDINATES:    0.000000    0.000000    0.000000


 **********************************************************************************************************************************
 DATASETS  * FILE   NREC   LENGTH (MB)   RECORD NAMES
              1      19      432.05       500      610      700      900      950      970     1000      129      960     1100   
                                          VAR    BASINP    GEOM    SYMINP    ZMAT    AOBASIS   BASIS     P2S    ABASIS      S 
                                         1400     1410     1200     1210     1080     1600     1650     1300     1700   
                                           T        V       H0       H01     AOSYM     SMH    MOLCAS    ERIS     OPER   

 PROGRAMS   *        TOTAL       INT
 CPU TIMES  *         4.07      3.97
 REAL TIME  *         5.50 SEC
 DISK USED  *         1.38 GB      
 **********************************************************************************************************************************


 PROGRAM * RHF-SCF (CLOSED SHELL)       Authors: W. Meyer, H.-J. Werner


 NUMBER OF ELECTRONS:       7+    7-
 CONVERGENCE THRESHOLDS:    1.00E-10 (Density)    1.00E-13 (Energy)
 MAX. NUMBER OF ITERATIONS:      500
 INTERPOLATION TYPE:            DIIS
 INTERPOLATION STEPS:              2 (START)      1 (STEP)
 LEVEL SHIFTS:                  0.00 (CLOSED)  0.00 (OPEN) 



 Orbital guess generated from atomic densities. Full valence occupancy:    9   2

 Molecular orbital dump at record        2100.2

 Initial occupancy:   6   1

 ITERATION    DDIFF          GRAD             ENERGY        2-EL.EN.            DIPOLE MOMENTS         DIIS   ORB.
    1      0.000D+00      0.000D+00       -92.77058768    111.348182    0.00838    0.00000   -2.03290    0    start
    2      0.000D+00      0.705D-02       -92.78225166    109.688635   -0.00341    0.00000   -0.93278    1    diag
    3      0.260D-01      0.619D-02       -92.80480818    110.613424    0.00156    0.00000   -1.45107    2    diag
    4      0.898D-02      0.446D-03       -92.80506330    110.559340    0.00119    0.00000   -1.44389    3    diag
    5      0.142D-02      0.102D-03       -92.80507829    110.569253    0.00107    0.00000   -1.44255    4    diag
    6      0.406D-03      0.266D-04       -92.80507920    110.564615    0.00105    0.00000   -1.44275    5    diag
    7      0.363D-04      0.954D-05       -92.80507929    110.565558    0.00105    0.00000   -1.44283    6    diag
    8      0.125D-04      0.192D-05       -92.80507930    110.565546    0.00104    0.00000   -1.44281    7    diag
    9      0.662D-05      0.211D-06       -92.80507930    110.565554    0.00104    0.00000   -1.44281    8    diag
   10      0.111D-05      0.238D-07       -92.80507930    110.565555    0.00104    0.00000   -1.44281    9    orth
   11      0.109D-06      0.455D-08       -92.80507930    110.565555    0.00104    0.00000   -1.44281    9    diag
   12      0.151D-07      0.175D-08       -92.80507930    110.565555    0.00104    0.00000   -1.44281    9    diag
   13      0.771D-08      0.763D-09       -92.80507930    110.565555    0.00104    0.00000   -1.44281    9    diag
   14      0.481D-08      0.222D-09       -92.80507930    110.565555    0.00104    0.00000   -1.44281    9    diag
   15      0.138D-08      0.866D-10       -92.80507930    110.565555    0.00104    0.00000   -1.44281    9    diag
   16      0.482D-09      0.179D-10       -92.80507930    110.565555    0.00104    0.00000   -1.44281    9    diag
   17      0.931D-10      0.493D-11       -92.80507930    110.565555    0.00104    0.00000   -1.44281    9    diag
   18      0.148D-10      0.116D-11       -92.80507930    110.565555    0.00104    0.00000   -1.44281    9    diag
   19      0.347D-11      0.232D-12       -92.80507930    110.565555    0.00104    0.00000   -1.44281    9    fixocc
   20      0.111D-11      0.206D-12       -92.80507930    110.565555    0.00104    0.00000   -1.44281    0    orth

 Final occupancy:   6   1

 !RHF STATE 1.1 Energy                -92.805079296632
 Nuclear energy                        23.75266850
 One-electron energy                 -171.84052517
 Two-electron energy                   55.28277738
 Virial quotient                       -1.00296821
 !RHF STATE 1.1 Dipole moment           0.00104414     0.00000000    -1.44281259
 Dipole moment /Debye                   0.00265376     0.00000000    -3.66702362

 Orbital energies:

         1.1          2.1          3.1          4.1          5.1          6.1          7.1          8.1
    -15.594528   -11.402991    -1.248927    -0.837308    -0.578545    -0.487592     0.032598     0.131576

         1.2          2.2          3.2
     -0.487594     0.131637     0.304076

 HOMO      6.1    -0.487592 =     -13.2681eV
 LUMO      7.1     0.032598 =       0.8870eV
 LUMO-HOMO         0.520191 =      14.1551eV


 **********************************************************************************************************************************
 DATASETS  * FILE   NREC   LENGTH (MB)   RECORD NAMES
              1      19      432.05       500      610      700      900      950      970     1000      129      960     1100   
                                          VAR    BASINP    GEOM    SYMINP    ZMAT    AOBASIS   BASIS     P2S    ABASIS      S 
                                         1400     1410     1200     1210     1080     1600     1650     1300     1700   
                                           T        V       H0       H01     AOSYM     SMH    MOLCAS    ERIS     OPER   

              2       4        3.13       700     1000      520     2100   
                                         GEOM     BASIS   MCVARS     RHF  

 PROGRAMS   *        TOTAL        HF       INT
 CPU TIMES  *         9.03      4.95      3.97
 REAL TIME  *        11.54 SEC
 DISK USED  *         1.38 GB      
 **********************************************************************************************************************************


 PROGRAM * CCSD (Closed-shell coupled cluster)     Authors: C. Hampel, H.-J. Werner, 1991, M. Deegan, P.J. Knowles, 1992


 Convergence thresholds:  THRVAR = 1.00D-08  THRDEN = 1.00D-12

 CCSD(T)     terms to be evaluated (factor= 1.000)


 Number of closed-shell orbitals:   7 (   6   1 )
 Number of external orbitals:     164 ( 108  56 )

 Molecular orbitals read from record     2100.2  Type=RHF/CANONICAL (state 1.1)

 Number of N-1 electron functions:               7
 Number of N-2 electron functions:              28
 Number of singly external CSFs:               704
 Number of doubly external CSFs:            346950
 Total number of CSFs:                      347655

 Length of J-op  integral file:               0.00 MB
 Length of K-op  integral file:               1.15 MB
 Length of 3-ext integral record:             0.00 MB

 Memory could be reduced to 22.83 Mwords without degradation in triples

 Integral transformation finished. Total CPU:   0.73 sec, npass=  1  Memory used:   5.99 MW

 Reference energy:                    -92.80507930

 MP2 singlet pair energy:              -0.30697645
 MP2 triplet pair energy:              -0.14010760
 MP2 correlation energy:               -0.44708405
 MP2 total energy:                    -93.25216335

 SCS-MP2 correlation energy:           -0.45554980   (PS=  1.200000  PT=  0.333333)
 SCS-MP2 total energy:                -93.26062910

 ITER.      SQ.NORM     CORR.ENERGY   TOTAL ENERGY   ENERGY CHANGE        DEN1      VAR(S)    VAR(P)  DIIS     TIME  TIME/IT
   1      1.11294354    -0.45316089   -93.25824018    -0.00607684     0.00698830  0.26D-02  0.28D-02  1  1     1.49     0.79
   2      1.12198463    -0.45332980   -93.25840910    -0.00016892    -0.01039098  0.58D-04  0.37D-03  2  2     2.23     0.81
   3      1.12575836    -0.45350679   -93.25858608    -0.00017698    -0.00181247  0.19D-04  0.53D-04  3  3     2.98     0.82
   4      1.12819743    -0.45352470   -93.25860400    -0.00001791    -0.00106158  0.95D-06  0.54D-05  4  4     3.71     0.83
   5      1.12878149    -0.45352951   -93.25860880    -0.00000481    -0.00016347  0.19D-06  0.45D-06  5  5     4.48     0.83
   6      1.12886977    -0.45353316   -93.25861246    -0.00000366    -0.00000522  0.84D-08  0.39D-07  6  6     5.22     0.83
   7      1.12888528    -0.45353411   -93.25861341    -0.00000095    -0.00000377  0.17D-08  0.33D-08  6  1     5.98     0.83
   8      1.12888855    -0.45353428   -93.25861357    -0.00000017    -0.00000139  0.21D-09  0.20D-09  6  2     6.71     0.83
   9      1.12888847    -0.45353435   -93.25861365    -0.00000007     0.00000021  0.19D-10  0.21D-10  6  3     7.43     0.83
  10      1.12888865    -0.45353437   -93.25861367    -0.00000002    -0.00000002  0.43D-11  0.19D-11  6  4     8.18     0.83
  11      1.12888865    -0.45353438   -93.25861368    -0.00000001     0.00000002  0.63D-12  0.42D-12  6  5     8.94     0.84
  12      1.12888860    -0.45353438   -93.25861368    -0.00000000     0.00000003  0.53D-13  0.87D-13  6  6     9.70     0.83
  13      1.12888856    -0.45353438   -93.25861368    -0.00000000     0.00000001  0.27D-14  0.12D-13  6  1    10.43     0.83
  14      1.12888855    -0.45353438   -93.25861368    -0.00000000     0.00000001  0.44D-15  0.19D-14  6  2    11.18     0.83
  15      1.12888854    -0.45353438   -93.25861368    -0.00000000     0.00000000  0.47D-16  0.12D-15  6  4    11.92     0.83
  16      1.12888854    -0.45353438   -93.25861368    -0.00000000     0.00000000  0.14D-16  0.11D-16  6  1    12.69     0.84
  17      1.12888854    -0.45353438   -93.25861368    -0.00000000     0.00000000  0.18D-17  0.12D-17  6  3    13.42     0.83
  18      1.12888854    -0.45353438   -93.25861368    -0.00000000     0.00000000  0.27D-18  0.12D-18  6  5    14.16     0.83
  19      1.12888854    -0.45353438   -93.25861368    -0.00000000     0.00000000  0.71D-19  0.28D-19  6  6    14.92     0.83
  20      1.12888854    -0.45353438   -93.25861368    -0.00000000     0.00000000  0.14D-19  0.64D-20  6  2    15.69     0.83
  21      1.12888854    -0.45353438   -93.25861368     0.00000000    -0.00000000  0.75D-21  0.87D-21  6  4    16.45     0.83
  22      1.12888854    -0.45353438   -93.25861368     0.00000000    -0.00000000  0.55D-22  0.16D-21  6  1    17.23     0.83

 Norm of t1 vector:      0.06493464      S-energy:    -0.00000000      T1 diagnostic:  0.01227149
                                                                       D1 diagnostic:  0.02873767

 Doubles amplitudes (print threshold =  0.500E-01):

         I         J         SYM. A    SYM. B    A         B      T(IJ, AB)

         6         6         1         1         2         2     -0.06016061
         7         7         2         2         1         1     -0.06024028


 Total CPU time for triples:     11.39 sec


 RESULTS
 =======

  Reference energy                    -92.805079296632

  Correlated core orbitals:             1.1       2.1
  Orbital energies:                   -15.5945  -11.4030
 
  CCSD core-core energy                -0.079731511991
  CCSD core-valence energy             -0.029170107890
  CCSD valence correlation energy      -0.344632762179
 
  CCSD singlet pair energy             -0.332125106211
  CCSD triplet pair energy             -0.121409275849
  CCSD correlation energy              -0.453534382061

  Triples (T) contribution             -0.018263353647
  Total correlation energy             -0.471797735707

  CCSD total energy                   -93.258613678692
  CCSD[T] energy                      -93.277680870934
  CCSD-T energy                       -93.276495906123
 !CCSD(T) total energy                -93.276877032339

 Timing summary (sec):

 STEP                 CPU(USER)    SYS     CPU(TOT)    WALL
 Transformation          0.76      0.15      0.91      0.90
 CCSD iterations        16.48      1.91     18.39     18.39
 Triples                11.39      0.33     11.72     11.73

 Program statistics:

 Available memory in ccsd:               994999704
 Min. memory needed in ccsd:               1130392
 Max. memory used in ccsd:                 1422657
 Max. memory used in cckext:               1758571 (22 integral passes)



 **********************************************************************************************************************************
 DATASETS  * FILE   NREC   LENGTH (MB)   RECORD NAMES
              1      20      501.60       500      610      700      900      950      970     1000      129      960     1100   
                                          VAR    BASINP    GEOM    SYMINP    ZMAT    AOBASIS   BASIS     P2S    ABASIS      S 
                                         1400     1410     1200     1210     1080     1600     1650     1300     1700     1380   
                                           T        V       H0       H01     AOSYM     SMH    MOLCAS    ERIS     OPER     JKOP   

              2       4        3.13       700     1000      520     2100   
                                         GEOM     BASIS   MCVARS     RHF  

 PROGRAMS   *        TOTAL   CCSD(T)        HF       INT
 CPU TIMES  *        37.69     28.67      4.95      3.97
 REAL TIME  *        42.65 SEC
 DISK USED  *         1.38 GB      
 **********************************************************************************************************************************

 CCSD(T)/USERDEF energy=    -93.276877032339

        CCSD(T)         HF-SCF  
    -93.27687703    -92.80507930
 **********************************************************************************************************************************
 Molpro calculation terminated
 Variable memory released
