
 Primary working directories    : /tmp/r2666/232772.maple
 Secondary working directories  : /tmp/r2666/232772.maple
 Wavefunction directory         : /ddn/home4/r2666/wfu/
 Main file repository           : /tmp/r2666/232772.maple/

 SHA1      : d5ffa45e93fdbca01ffc919aa182cfdae0147319
 NAME      : 2015.1.35
 ARCHNAME  : linux/x86_64
 FC        : /opt/intel/composer_xe_2015.1.133/bin/intel64/ifort
 BLASLIB   : -Wl,-_start-group /opt/intel/mkl/lib/intel64/libmkl_intel_ilp64.a /opt/intel/mkl/lib/intel64/libmkl_intel_thread.a /opt/intel/mkl/lib/intel64/libmkl_core.a -Wl,-_end-group
 id        : olemiss

 Nodes     nprocs
 cn076        1

 Using customized tuning parameters: mindgm=1; mindgv=20; mindgc=4; mindgr=1; noblas=0; minvec=7
 default implementation of scratch files=df  

 ***,hcn CCSD(T)/TZ-F12 QFF
 memory, 995, m;
 gthresh,energy=1.d-12,zero=1.d-22,oneint=1.d-22,twoint=1.d-22;
 gthresh,optgrad=1.d-8,optstep=1.d-8;
 nocompress;
 geomtyp=xyz
 bohr
 geometry={
 3
         51        51
 N        0.0000000000        0.0000000000        1.1435986509
 C        0.0000000000        0.0000000000       -1.0541482760
 H        0.0000000000        0.0000000000       -3.0865203569
 }
 
 basis={
 default=aug-cc-pvtz
 s,C,8236.0,1235.0,280.8, 79.27,25.59, 8.997,3.319
 s,C,0.9059,0.3643,0.1285000
 p,C,56.0,18.71,4.133,0.2827,0.3827,0.1209
 d,C,30.0,10.0,3.3,1.097,0.318
 f,C,7.0,2.3,0.7610
 s,N,11420.0,1712.0,389.3,110.0,35.57,12.54,4.644
 s,N,1.293,0.5118,0.1787
 p,N,79.89,26.63,5.948,1.742,0.555,0.1725
 d,N,45.0,15.0,5.0,1.654,0.469
 f,N,9.9,3.3,1.093
 s,O,15330.0,2299.0,522.4,147.3,47.55,16.76,6.207
 s,O,1.752,0.6882,0.2384
 p,O,103.5,34.46,7.749,2.28,0.7156,0.214
 d,O,63.0,21.0,7.0,2.314,0.645
 f,O,12.9,4.3,1.428
 s,mg,164900.0,24710.0,5628.0,1596.0,521.0;
 s,mg,188.0,73.01,29.90,12.54,4.306,1.826;
 s,mg,0.7417,0.0761,0.145,0.033,0.0129;
 p,mg,950.70,316.90,74.86,23.72,8.669,3.363;
 p,mg,1.310,0.4911,0.2364,0.08733,0.03237,0.00745;
 d,mg,1.601,0.686,0.126,0.294,0.0468;
 f,mg,1.372,0.588,0.094,0.252;
 }
   {hf,maxit=500;accu,20;}
 {ccsd(t),nocheck,maxit=250;orbital,IGNORE_ERROR;core}

 Variables initialized (889), CPU time= 0.01 sec
 Commands  initialized (702), CPU time= 0.01 sec, 572 directives.
 Default parameters read. Elapsed time= 0.04 sec

 Checking input...
 Passed
1


                                         ***  PROGRAM SYSTEM MOLPRO  ***
                                       Copyright, TTI GmbH Stuttgart, 2015
                                    Version 2015.1 linked Jul  9 2018 13:16:40


 **********************************************************************************************************************************
 LABEL *   hcn CCSD(T)/TZ-F12 QFF                                                        
  64 bit serial version                                                                  DATE: 06-Feb-20          TIME: 09:55:39  
 **********************************************************************************************************************************

 SHA1:             d5ffa45e93fdbca01ffc919aa182cfdae0147319
 **********************************************************************************************************************************

 THRESHOLDS:

 ZERO    =  1.00D-22  ONEINT  =  1.00D-22  TWOINT  =  1.00D-22  PREFAC  =  1.00D-14  LOCALI  =  1.00D-09  EORDER  =  1.00D-04
 ENERGY  =  1.00D-12  ETEST   =  0.00D+00  EDENS   =  0.00D+00  THRDEDEF=  1.00D-06  GRADIENT=  1.00D-02  STEP    =  1.00D-03
 ORBITAL =  1.00D-05  CIVEC   =  1.00D-05  COEFF   =  1.00D-04  PRINTCI =  5.00D-02  PUNCHCI =  9.90D+01  OPTGRAD =  3.00D-04
 OPTENERG=  1.00D-06  OPTSTEP =  3.00D-04  THRGRAD =  1.00D-10  COMPRESS=  1.00D-11  VARMIN  =  1.00D-07  VARMAX  =  1.00D-03
 THRDOUB =  0.00D+00  THRDIV  =  1.00D-05  THRRED  =  1.00D-07  THRPSP  =  1.00D+00  THRDC   =  1.00D-10  THRCS   =  1.00D-10
 THRNRM  =  1.00D-08  THREQ   =  0.00D+00  THRDE   =  1.00D+00  THRREF  =  1.00D-05  SPARFAC =  1.00D+00  THRDLP  =  1.00D-07
 THRDIA  =  1.00D-10  THRDLS  =  1.00D-07  THRGPS  =  0.00D+00  THRKEX  =  0.00D+00  THRDIS  =  2.00D-01  THRVAR  =  1.00D-10
 THRLOC  =  1.00D-06  THRGAP  =  1.00D-06  THRLOCT = -1.00D+00  THRGAPT = -1.00D+00  THRORB  =  1.00D-06  THRMLTP =  0.00D+00
 THRCPQCI=  1.00D-10  KEXTA   =  0.00D+00  THRCOARS=  0.00D+00  SYMTOL  =  1.00D-06  GRADTOL =  1.00D-06  THROVL  =  1.00D-08
 THRORTH =  1.00D-08  GRID    =  1.00D-06  GRIDMAX =  1.00D-03  DTMAX   =  0.00D+00  THROCCDE=  1.00D-01  THROCCDE=  1.00D-01



 THRESHOLDS:

 ZERO    =  1.00D-22  ONEINT  =  1.00D-22  TWOINT  =  1.00D-22  PREFAC  =  1.00D-14  LOCALI  =  1.00D-09  EORDER  =  1.00D-04
 ENERGY  =  1.00D-12  ETEST   =  0.00D+00  EDENS   =  0.00D+00  THRDEDEF=  1.00D-06  GRADIENT=  1.00D-02  STEP    =  1.00D-03
 ORBITAL =  1.00D-05  CIVEC   =  1.00D-05  COEFF   =  1.00D-04  PRINTCI =  5.00D-02  PUNCHCI =  9.90D+01  OPTGRAD =  1.00D-08
 OPTENERG=  1.00D-06  OPTSTEP =  1.00D-08  THRGRAD =  1.00D-10  COMPRESS=  1.00D-11  VARMIN  =  1.00D-07  VARMAX  =  1.00D-03
 THRDOUB =  0.00D+00  THRDIV  =  1.00D-05  THRRED  =  1.00D-07  THRPSP  =  1.00D+00  THRDC   =  1.00D-10  THRCS   =  1.00D-10
 THRNRM  =  1.00D-08  THREQ   =  0.00D+00  THRDE   =  1.00D+00  THRREF  =  1.00D-05  SPARFAC =  1.00D+00  THRDLP  =  1.00D-07
 THRDIA  =  1.00D-10  THRDLS  =  1.00D-07  THRGPS  =  0.00D+00  THRKEX  =  0.00D+00  THRDIS  =  2.00D-01  THRVAR  =  1.00D-10
 THRLOC  =  1.00D-06  THRGAP  =  1.00D-06  THRLOCT = -1.00D+00  THRGAPT = -1.00D+00  THRORB  =  1.00D-06  THRMLTP =  0.00D+00
 THRCPQCI=  1.00D-10  KEXTA   =  0.00D+00  THRCOARS=  0.00D+00  SYMTOL  =  1.00D-06  GRADTOL =  1.00D-06  THROVL  =  1.00D-08
 THRORTH =  1.00D-08  GRID    =  1.00D-06  GRIDMAX =  1.00D-03  DTMAX   =  0.00D+00  THROCCDE=  1.00D-01  THROCCDE=  1.00D-01



 Input parameters for SORTINT:

 COMPRESS =    0.000000
 C_FINAL  =    1.000000
 DEBUG    =   -1.000000
 C_SORT1  =    0.000000
 C_SEWARD =    0.000000
 THRESH   =    0.000000
 IO       =  molpro                                                          
 SPRI     =    0.000000
 SETTING GEOMTYP        =    XYZ
 ZUNIT=BOHR
 

 Variable memory set to  995000000 words,  buffer space   230000 words

 SETTING BASIS          =    USERDEF


 Recomputing integrals since basis changed


 Using spherical harmonics

 Library entry H      S aug-cc-pVTZ          selected for orbital group  3
 Library entry H      P aug-cc-pVTZ          selected for orbital group  3
 Library entry H      D aug-cc-pVTZ          selected for orbital group  3


 PROGRAM * SEWARD (Integral evaluation for generally contracted gaussian basis sets)     Author: Roland Lindh, 1990

 Geometry written to block  1 of record 700


 Point group  C2v 



 ATOMIC COORDINATES

 NR  ATOM    CHARGE       X              Y              Z

   1  N       7.00    0.000000000    0.000000000    1.143598651
   2  C       6.00    0.000000000    0.000000000   -1.054148276
   3  H       1.00    0.000000000    0.000000000   -3.086520357

 Bond lengths in Bohr (Angstrom)

 1-2  2.197746927  2-3  2.032372081
     ( 1.162997589)     ( 1.075484989)

 Bond angles

  1-2-3  180.00000000

 NUCLEAR CHARGE:                   14
 NUMBER OF PRIMITIVE AOS:         203
 NUMBER OF SYMMETRY AOS:          173
 NUMBER OF CONTRACTIONS:          171   (  75A1  +  39B1  +  39B2  +  18A2  )
 NUMBER OF CORE ORBITALS:           2   (   2A1  +   0B1  +   0B2  +   0A2  )
 NUMBER OF VALENCE ORBITALS:        9   (   5A1  +   2B1  +   2B2  +   0A2  )


 NUCLEAR REPULSION ENERGY   23.71749570

 EXTRA SYMMETRY OF AOS IN SYMMETRY 1:   1 1 1 1 1 1 1 1 1 1   1 1 1 1 1 1 1 2 1 2   1 2 1 2 1 2 1 2 1 2   1 2 1 1 1 1 1 1 1 1
                                        1 1 1 1 1 1 1 1 1 2   1 2 1 2 1 2 1 2 1 2   1 2 1 2 1 1 1 1 1 1   1 1 2 1 2
 EXTRA SYMMETRY OF AOS IN SYMMETRY 2:   1 1 1 1 1 1 1 1 1 1   1 1 2 1 2 1 2 1 1 1   1 1 1 1 1 1 1 1 1 2   1 2 1 2 1 1 1 1 1
 EXTRA SYMMETRY OF AOS IN SYMMETRY 3:   1 1 1 1 1 1 1 1 1 1   1 1 2 1 2 1 2 1 1 1   1 1 1 1 1 1 1 1 1 2   1 2 1 2 1 1 1 1 1

 Eigenvalues of metric

         1 0.255E-03 0.554E-03 0.948E-03 0.141E-02 0.321E-02 0.785E-02 0.103E-01 0.133E-01
         2 0.550E-02 0.162E-01 0.234E-01 0.357E-01 0.973E-01 0.114E+00 0.126E+00 0.189E+00
         3 0.550E-02 0.162E-01 0.234E-01 0.357E-01 0.973E-01 0.114E+00 0.126E+00 0.189E+00
         4 0.125E+00 0.140E+00 0.198E+00 0.259E+00 0.315E+00 0.379E+00 0.486E+00 0.603E+00


 Contracted 2-electron integrals neglected if value below      1.0D-22

       21689528. INTEGRALS WRITTEN OUT IN    5297 BLOCKS ON RECORD 1290 OF FILE 1


 NUMBER OF SORTED TWO-ELECTRON INTEGRALS:   28272141.     BUFFER LENGTH:  32768
 NUMBER OF SEGMENTS:   2  SEGMENT LENGTH:   15998211      RECORD LENGTH: 524288

 Memory used in sort:      16.56 MW

 SORT1 READ    21689528. AND WROTE    22086769. INTEGRALS IN     64 RECORDS. CPU TIME:     0.46 SEC, REAL TIME:     0.60 SEC
 SORT2 READ    22086769. AND WROTE    28272141. INTEGRALS IN      2 RECORDS. CPU TIME:     0.37 SEC, REAL TIME:     0.48 SEC

 FILE SIZES:   FILE 1:   367.8 MBYTE,  FILE 4:   268.5 MBYTE,   TOTAL:    636.2 MBYTE

 OPERATOR DM      FOR CENTER  0  COORDINATES:    0.000000    0.000000    0.000000


 **********************************************************************************************************************************
 DATASETS  * FILE   NREC   LENGTH (MB)   RECORD NAMES
              1      19      213.17       500      610      700      900      950      970     1000      129      960     1100   
                                          VAR    BASINP    GEOM    SYMINP    ZMAT    AOBASIS   BASIS     P2S    ABASIS      S 
                                         1400     1410     1200     1210     1080     1600     1650     1300     1700   
                                           T        V       H0       H01     AOSYM     SMH    MOLCAS    ERIS     OPER   

 PROGRAMS   *        TOTAL       INT
 CPU TIMES  *         3.07      2.98
 REAL TIME  *         4.07 SEC
 DISK USED  *       636.57 MB      
 **********************************************************************************************************************************


 PROGRAM * RHF-SCF (CLOSED SHELL)       Authors: W. Meyer, H.-J. Werner


 NUMBER OF ELECTRONS:       7+    7-
 CONVERGENCE THRESHOLDS:    1.00E-10 (Density)    1.00E-13 (Energy)
 MAX. NUMBER OF ITERATIONS:      500
 INTERPOLATION TYPE:            DIIS
 INTERPOLATION STEPS:              2 (START)      1 (STEP)
 LEVEL SHIFTS:                  0.00 (CLOSED)  0.00 (OPEN) 



 Orbital guess generated from atomic densities. Full valence occupancy:    7   2   2   0

 Molecular orbital dump at record        2100.2

 Initial occupancy:   5   1   1   0

 ITERATION    DDIFF          GRAD             ENERGY        2-EL.EN.            DIPOLE MOMENTS         DIIS   ORB.
    1      0.000D+00      0.000D+00       -92.77044718    111.306323    0.00000    0.00000   -2.04527    0    start
    2      0.000D+00      0.912D-02       -92.78214245    109.629287    0.00000    0.00000   -0.93487    1    diag
    3      0.351D-01      0.802D-02       -92.80505220    110.561337    0.00000    0.00000   -1.45681    2    diag
    4      0.121D-01      0.570D-03       -92.80530582    110.507943    0.00000    0.00000   -1.44959    3    diag
    5      0.188D-02      0.131D-03       -92.80532095    110.517901    0.00000    0.00000   -1.44826    4    diag
    6      0.550D-03      0.345D-04       -92.80532187    110.513231    0.00000    0.00000   -1.44846    5    diag
    7      0.493D-04      0.124D-04       -92.80532197    110.514190    0.00000    0.00000   -1.44855    6    diag
    8      0.169D-04      0.250D-05       -92.80532197    110.514177    0.00000    0.00000   -1.44854    7    diag
    9      0.900D-05      0.272D-06       -92.80532197    110.514185    0.00000    0.00000   -1.44853    8    diag
   10      0.152D-05      0.291D-07       -92.80532197    110.514186    0.00000    0.00000   -1.44853    9    orth
   11      0.145D-06      0.381D-08       -92.80532197    110.514186    0.00000    0.00000   -1.44853    9    diag
   12      0.122D-07      0.405D-09       -92.80532197    110.514186    0.00000    0.00000   -1.44853    9    diag
   13      0.119D-08      0.525D-10       -92.80532197    110.514186    0.00000    0.00000   -1.44853    9    diag
   14      0.182D-09      0.799D-11       -92.80532197    110.514186    0.00000    0.00000   -1.44853    9    diag
   15      0.290D-10      0.160D-11       -92.80532197    110.514186    0.00000    0.00000   -1.44853    0    orth

 Final occupancy:   5   1   1   0

 !RHF STATE 1.1 Energy                -92.805321973802
 Nuclear energy                        23.71749570
 One-electron energy                 -171.77991085
 Two-electron energy                   55.25709317
 Virial quotient                       -1.00313240
 !RHF STATE 1.1 Dipole moment           0.00000000     0.00000000    -1.44853371
 Dipole moment /Debye                   0.00000000     0.00000000    -3.68156431

 Orbital energies:

         1.1          2.1          3.1          4.1          5.1          6.1          7.1
    -15.594290   -11.403447    -1.248710    -0.833466    -0.578194     0.032543     0.150040

         1.2          2.2          3.2
     -0.487377     0.131647     0.303994

         1.3          2.3          3.3
     -0.487377     0.131647     0.303994

         1.4          2.4
      0.682443     0.961851

 HOMO      1.2    -0.487377 =     -13.2622eV
 LUMO      6.1     0.032543 =       0.8855eV
 LUMO-HOMO         0.519921 =      14.1478eV


 **********************************************************************************************************************************
 DATASETS  * FILE   NREC   LENGTH (MB)   RECORD NAMES
              1      19      213.17       500      610      700      900      950      970     1000      129      960     1100   
                                          VAR    BASINP    GEOM    SYMINP    ZMAT    AOBASIS   BASIS     P2S    ABASIS      S 
                                         1400     1410     1200     1210     1080     1600     1650     1300     1700   
                                           T        V       H0       H01     AOSYM     SMH    MOLCAS    ERIS     OPER   

              2       4        2.98       700     1000      520     2100   
                                         GEOM     BASIS   MCVARS     RHF  

 PROGRAMS   *        TOTAL        HF       INT
 CPU TIMES  *         4.58      1.49      2.98
 REAL TIME  *         5.90 SEC
 DISK USED  *       636.57 MB      
 **********************************************************************************************************************************


 PROGRAM * CCSD (Closed-shell coupled cluster)     Authors: C. Hampel, H.-J. Werner, 1991, M. Deegan, P.J. Knowles, 1992


 Convergence thresholds:  THRVAR = 1.00D-08  THRDEN = 1.00D-12

 CCSD(T)     terms to be evaluated (factor= 1.000)


 Number of closed-shell orbitals:   7 (   5   1   1   0 )
 Number of external orbitals:     164 (  70  38  38  18 )

 Molecular orbitals read from record     2100.2  Type=RHF/CANONICAL (state 1.1)

 Number of N-1 electron functions:               7
 Number of N-2 electron functions:              28
 Number of singly external CSFs:               426
 Number of doubly external CSFs:            182374
 Total number of CSFs:                      182801

 Length of J-op  integral file:               0.00 MB
 Length of K-op  integral file:               0.65 MB
 Length of 3-ext integral record:             0.00 MB

 Memory could be reduced to 11.98 Mwords without degradation in triples

 Integral transformation finished. Total CPU:   0.26 sec, npass=  1  Memory used:   1.63 MW

 Reference energy:                    -92.80532197

 MP2 singlet pair energy:              -0.30704479
 MP2 triplet pair energy:              -0.14013122
 MP2 correlation energy:               -0.44717601
 MP2 total energy:                    -93.25249798

 SCS-MP2 correlation energy:           -0.45564651   (PS=  1.200000  PT=  0.333333)
 SCS-MP2 total energy:                -93.26096848

 ITER.      SQ.NORM     CORR.ENERGY   TOTAL ENERGY   ENERGY CHANGE        DEN1      VAR(S)    VAR(P)  DIIS     TIME  TIME/IT
   1      1.11312223    -0.45325807   -93.25858004    -0.00608206     0.00700767  0.26D-02  0.28D-02  1  1     0.55     0.32
   2      1.12219744    -0.45343443   -93.25875640    -0.00017636    -0.01040992  0.58D-04  0.38D-03  2  2     0.85     0.33
   3      1.12599591    -0.45361385   -93.25893582    -0.00017942    -0.00182254  0.19D-04  0.53D-04  3  3     1.14     0.34
   4      1.12844883    -0.45363209   -93.25895407    -0.00001825    -0.00106670  0.96D-06  0.54D-05  4  4     1.45     0.34
   5      1.12903479    -0.45363705   -93.25895902    -0.00000496    -0.00016366  0.19D-06  0.46D-06  5  5     1.75     0.34
   6      1.12912540    -0.45364065   -93.25896263    -0.00000360    -0.00000581  0.91D-08  0.40D-07  6  6     2.04     0.34
   7      1.12914101    -0.45364160   -93.25896357    -0.00000095    -0.00000371  0.18D-08  0.33D-08  6  1     2.34     0.34
   8      1.12914448    -0.45364175   -93.25896372    -0.00000015    -0.00000146  0.24D-09  0.20D-09  6  2     2.65     0.34
   9      1.12914441    -0.45364182   -93.25896379    -0.00000007     0.00000021  0.24D-10  0.22D-10  6  3     2.96     0.34
  10      1.12914460    -0.45364184   -93.25896381    -0.00000002    -0.00000002  0.53D-11  0.23D-11  6  4     3.26     0.34
  11      1.12914460    -0.45364185   -93.25896382    -0.00000001     0.00000002  0.70D-12  0.52D-12  6  5     3.56     0.34
  12      1.12914455    -0.45364185   -93.25896382    -0.00000000     0.00000003  0.53D-13  0.10D-12  6  6     3.88     0.34
  13      1.12914452    -0.45364185   -93.25896382    -0.00000000     0.00000001  0.23D-14  0.15D-13  6  1     4.17     0.34
  14      1.12914450    -0.45364185   -93.25896382    -0.00000000     0.00000001  0.43D-15  0.23D-14  6  2     4.48     0.34
  15      1.12914449    -0.45364185   -93.25896382    -0.00000000     0.00000000  0.35D-16  0.15D-15  6  4     4.80     0.34
  16      1.12914449    -0.45364185   -93.25896382    -0.00000000     0.00000000  0.91D-17  0.10D-16  6  3     5.11     0.34
  17      1.12914448    -0.45364185   -93.25896382    -0.00000000     0.00000000  0.16D-17  0.14D-17  6  5     5.42     0.34
  18      1.12914448    -0.45364185   -93.25896382    -0.00000000     0.00000000  0.16D-18  0.11D-18  6  6     5.72     0.34
  19      1.12914448    -0.45364185   -93.25896382    -0.00000000     0.00000000  0.34D-19  0.11D-19  6  1     6.02     0.35
  20      1.12914448    -0.45364185   -93.25896382    -0.00000000     0.00000000  0.43D-20  0.36D-20  6  2     6.31     0.35
  21      1.12914448    -0.45364185   -93.25896382    -0.00000000     0.00000000  0.61D-21  0.68D-21  6  4     6.62     0.35
  22      1.12914448    -0.45364185   -93.25896382     0.00000000    -0.00000000  0.20D-22  0.97D-22  6  3     6.93     0.35

 Norm of t1 vector:      0.06506191      S-energy:     0.00000000      T1 diagnostic:  0.01229555
                                                                       D1 diagnostic:  0.02872837

 Doubles amplitudes (print threshold =  0.500E-01):

         I         J         SYM. A    SYM. B    A         B      T(IJ, AB)

         6         6         2         2         1         1     -0.06009253
         7         7         3         3         1         1     -0.06009253


 Total CPU time for triples:      3.66 sec


 RESULTS
 =======

  Reference energy                    -92.805321973802

  Correlated core orbitals:             1.1       2.1
  Orbital energies:                   -15.5943  -11.4034
 
  CCSD core-core energy                -0.079736227403
  CCSD core-valence energy             -0.029149875294
  CCSD valence correlation energy      -0.344755746588
 
  CCSD singlet pair energy             -0.332236823193
  CCSD triplet pair energy             -0.121405026092
  CCSD correlation energy              -0.453641849285

  Triples (T) contribution             -0.018287993097
  Total correlation energy             -0.471929842382

  CCSD total energy                   -93.258963823087
  CCSD[T] energy                      -93.278057407850
  CCSD-T energy                       -93.276870240027
 !CCSD(T) total energy                -93.277251816184

 Timing summary (sec):

 STEP                 CPU(USER)    SYS     CPU(TOT)    WALL
 Transformation          0.26      0.07      0.33      0.34
 CCSD iterations         6.68      0.95      7.63      7.63
 Triples                 3.66      0.14      3.80      3.80

 Program statistics:

 Available memory in ccsd:               994999704
 Min. memory needed in ccsd:                607983
 Max. memory used in ccsd:                  763562
 Max. memory used in cckext:                768329 (22 integral passes)



 **********************************************************************************************************************************
 DATASETS  * FILE   NREC   LENGTH (MB)   RECORD NAMES
              1      20      249.32       500      610      700      900      950      970     1000      129      960     1100   
                                          VAR    BASINP    GEOM    SYMINP    ZMAT    AOBASIS   BASIS     P2S    ABASIS      S 
                                         1400     1410     1200     1210     1080     1600     1650     1300     1700     1380   
                                           T        V       H0       H01     AOSYM     SMH    MOLCAS    ERIS     OPER     JKOP   

              2       4        2.98       700     1000      520     2100   
                                         GEOM     BASIS   MCVARS     RHF  

 PROGRAMS   *        TOTAL   CCSD(T)        HF       INT
 CPU TIMES  *        15.22     10.65      1.49      2.98
 REAL TIME  *        17.76 SEC
 DISK USED  *       636.57 MB      
 **********************************************************************************************************************************

 CCSD(T)/USERDEF energy=    -93.277251816184

        CCSD(T)         HF-SCF  
    -93.27725182    -92.80532197
 **********************************************************************************************************************************
 Molpro calculation terminated
 Variable memory released
