
 Primary working directories    : /tmp/r2666/232741.maple
 Secondary working directories  : /tmp/r2666/232741.maple
 Wavefunction directory         : /ddn/home4/r2666/wfu/
 Main file repository           : /tmp/r2666/232741.maple/

 SHA1      : d5ffa45e93fdbca01ffc919aa182cfdae0147319
 NAME      : 2015.1.35
 ARCHNAME  : linux/x86_64
 FC        : /opt/intel/composer_xe_2015.1.133/bin/intel64/ifort
 BLASLIB   : -Wl,-_start-group /opt/intel/mkl/lib/intel64/libmkl_intel_ilp64.a /opt/intel/mkl/lib/intel64/libmkl_intel_thread.a /opt/intel/mkl/lib/intel64/libmkl_core.a -Wl,-_end-group
 id        : olemiss

 Nodes     nprocs
 cn078        1

 Using customized tuning parameters: mindgm=1; mindgv=20; mindgc=4; mindgr=1; noblas=0; minvec=7
 default implementation of scratch files=df  

 ***,hcn CCSD(T)/TZ-F12 QFF
 memory, 995, m;
 gthresh,energy=1.d-12,zero=1.d-22,oneint=1.d-22,twoint=1.d-22;
 gthresh,optgrad=1.d-8,optstep=1.d-8;
 nocompress;
 geomtyp=xyz
 bohr
 geometry={
 3
         20        20
 N        0.0000000000        0.0000000000        1.1278509343
 C        0.0000000000        0.0000000000       -1.0415501027
 H        0.0000000000        0.0000000000       -3.0833708136
 }
 
 basis={
 default=aug-cc-pvtz
 s,C,8236.0,1235.0,280.8, 79.27,25.59, 8.997,3.319
 s,C,0.9059,0.3643,0.1285000
 p,C,56.0,18.71,4.133,0.2827,0.3827,0.1209
 d,C,30.0,10.0,3.3,1.097,0.318
 f,C,7.0,2.3,0.7610
 s,N,11420.0,1712.0,389.3,110.0,35.57,12.54,4.644
 s,N,1.293,0.5118,0.1787
 p,N,79.89,26.63,5.948,1.742,0.555,0.1725
 d,N,45.0,15.0,5.0,1.654,0.469
 f,N,9.9,3.3,1.093
 s,O,15330.0,2299.0,522.4,147.3,47.55,16.76,6.207
 s,O,1.752,0.6882,0.2384
 p,O,103.5,34.46,7.749,2.28,0.7156,0.214
 d,O,63.0,21.0,7.0,2.314,0.645
 f,O,12.9,4.3,1.428
 s,mg,164900.0,24710.0,5628.0,1596.0,521.0;
 s,mg,188.0,73.01,29.90,12.54,4.306,1.826;
 s,mg,0.7417,0.0761,0.145,0.033,0.0129;
 p,mg,950.70,316.90,74.86,23.72,8.669,3.363;
 p,mg,1.310,0.4911,0.2364,0.08733,0.03237,0.00745;
 d,mg,1.601,0.686,0.126,0.294,0.0468;
 f,mg,1.372,0.588,0.094,0.252;
 }
   {hf,maxit=500;accu,20;}
 {ccsd(t),nocheck,maxit=250;orbital,IGNORE_ERROR;core}

 Variables initialized (889), CPU time= 0.01 sec
 Commands  initialized (702), CPU time= 0.01 sec, 572 directives.
 Default parameters read. Elapsed time= 0.04 sec

 Checking input...
 Passed
1


                                         ***  PROGRAM SYSTEM MOLPRO  ***
                                       Copyright, TTI GmbH Stuttgart, 2015
                                    Version 2015.1 linked Jul  9 2018 13:16:40


 **********************************************************************************************************************************
 LABEL *   hcn CCSD(T)/TZ-F12 QFF                                                        
  64 bit serial version                                                                  DATE: 06-Feb-20          TIME: 09:55:19  
 **********************************************************************************************************************************

 SHA1:             d5ffa45e93fdbca01ffc919aa182cfdae0147319
 **********************************************************************************************************************************

 THRESHOLDS:

 ZERO    =  1.00D-22  ONEINT  =  1.00D-22  TWOINT  =  1.00D-22  PREFAC  =  1.00D-14  LOCALI  =  1.00D-09  EORDER  =  1.00D-04
 ENERGY  =  1.00D-12  ETEST   =  0.00D+00  EDENS   =  0.00D+00  THRDEDEF=  1.00D-06  GRADIENT=  1.00D-02  STEP    =  1.00D-03
 ORBITAL =  1.00D-05  CIVEC   =  1.00D-05  COEFF   =  1.00D-04  PRINTCI =  5.00D-02  PUNCHCI =  9.90D+01  OPTGRAD =  3.00D-04
 OPTENERG=  1.00D-06  OPTSTEP =  3.00D-04  THRGRAD =  1.00D-10  COMPRESS=  1.00D-11  VARMIN  =  1.00D-07  VARMAX  =  1.00D-03
 THRDOUB =  0.00D+00  THRDIV  =  1.00D-05  THRRED  =  1.00D-07  THRPSP  =  1.00D+00  THRDC   =  1.00D-10  THRCS   =  1.00D-10
 THRNRM  =  1.00D-08  THREQ   =  0.00D+00  THRDE   =  1.00D+00  THRREF  =  1.00D-05  SPARFAC =  1.00D+00  THRDLP  =  1.00D-07
 THRDIA  =  1.00D-10  THRDLS  =  1.00D-07  THRGPS  =  0.00D+00  THRKEX  =  0.00D+00  THRDIS  =  2.00D-01  THRVAR  =  1.00D-10
 THRLOC  =  1.00D-06  THRGAP  =  1.00D-06  THRLOCT = -1.00D+00  THRGAPT = -1.00D+00  THRORB  =  1.00D-06  THRMLTP =  0.00D+00
 THRCPQCI=  1.00D-10  KEXTA   =  0.00D+00  THRCOARS=  0.00D+00  SYMTOL  =  1.00D-06  GRADTOL =  1.00D-06  THROVL  =  1.00D-08
 THRORTH =  1.00D-08  GRID    =  1.00D-06  GRIDMAX =  1.00D-03  DTMAX   =  0.00D+00  THROCCDE=  1.00D-01  THROCCDE=  1.00D-01



 THRESHOLDS:

 ZERO    =  1.00D-22  ONEINT  =  1.00D-22  TWOINT  =  1.00D-22  PREFAC  =  1.00D-14  LOCALI  =  1.00D-09  EORDER  =  1.00D-04
 ENERGY  =  1.00D-12  ETEST   =  0.00D+00  EDENS   =  0.00D+00  THRDEDEF=  1.00D-06  GRADIENT=  1.00D-02  STEP    =  1.00D-03
 ORBITAL =  1.00D-05  CIVEC   =  1.00D-05  COEFF   =  1.00D-04  PRINTCI =  5.00D-02  PUNCHCI =  9.90D+01  OPTGRAD =  1.00D-08
 OPTENERG=  1.00D-06  OPTSTEP =  1.00D-08  THRGRAD =  1.00D-10  COMPRESS=  1.00D-11  VARMIN  =  1.00D-07  VARMAX  =  1.00D-03
 THRDOUB =  0.00D+00  THRDIV  =  1.00D-05  THRRED  =  1.00D-07  THRPSP  =  1.00D+00  THRDC   =  1.00D-10  THRCS   =  1.00D-10
 THRNRM  =  1.00D-08  THREQ   =  0.00D+00  THRDE   =  1.00D+00  THRREF  =  1.00D-05  SPARFAC =  1.00D+00  THRDLP  =  1.00D-07
 THRDIA  =  1.00D-10  THRDLS  =  1.00D-07  THRGPS  =  0.00D+00  THRKEX  =  0.00D+00  THRDIS  =  2.00D-01  THRVAR  =  1.00D-10
 THRLOC  =  1.00D-06  THRGAP  =  1.00D-06  THRLOCT = -1.00D+00  THRGAPT = -1.00D+00  THRORB  =  1.00D-06  THRMLTP =  0.00D+00
 THRCPQCI=  1.00D-10  KEXTA   =  0.00D+00  THRCOARS=  0.00D+00  SYMTOL  =  1.00D-06  GRADTOL =  1.00D-06  THROVL  =  1.00D-08
 THRORTH =  1.00D-08  GRID    =  1.00D-06  GRIDMAX =  1.00D-03  DTMAX   =  0.00D+00  THROCCDE=  1.00D-01  THROCCDE=  1.00D-01



 Input parameters for SORTINT:

 COMPRESS =    0.000000
 C_FINAL  =    1.000000
 DEBUG    =   -1.000000
 C_SORT1  =    0.000000
 C_SEWARD =    0.000000
 THRESH   =    0.000000
 IO       =  molpro                                                          
 SPRI     =    0.000000
 SETTING GEOMTYP        =    XYZ
 ZUNIT=BOHR
 

 Variable memory set to  995000000 words,  buffer space   230000 words

 SETTING BASIS          =    USERDEF


 Recomputing integrals since basis changed


 Using spherical harmonics

 Library entry H      S aug-cc-pVTZ          selected for orbital group  3
 Library entry H      P aug-cc-pVTZ          selected for orbital group  3
 Library entry H      D aug-cc-pVTZ          selected for orbital group  3


 PROGRAM * SEWARD (Integral evaluation for generally contracted gaussian basis sets)     Author: Roland Lindh, 1990

 Geometry written to block  1 of record 700


 Point group  C2v 



 ATOMIC COORDINATES

 NR  ATOM    CHARGE       X              Y              Z

   1  N       7.00    0.000000000    0.000000000    1.127850934
   2  C       6.00    0.000000000    0.000000000   -1.041550103
   3  H       1.00    0.000000000    0.000000000   -3.083370814

 Bond lengths in Bohr (Angstrom)

 1-2  2.169401037  2-3  2.041820711
     ( 1.147997590)     ( 1.080484989)

 Bond angles

  1-2-3  179.99999829

 NUCLEAR CHARGE:                   14
 NUMBER OF PRIMITIVE AOS:         203
 NUMBER OF SYMMETRY AOS:          173
 NUMBER OF CONTRACTIONS:          171   (  75A1  +  39B1  +  39B2  +  18A2  )
 NUMBER OF CORE ORBITALS:           2   (   2A1  +   0B1  +   0B2  +   0A2  )
 NUMBER OF VALENCE ORBITALS:        9   (   5A1  +   2B1  +   2B2  +   0A2  )


 NUCLEAR REPULSION ENERGY   23.96096176

 EXTRA SYMMETRY OF AOS IN SYMMETRY 1:   1 1 1 1 1 1 1 1 1 1   1 1 1 1 1 1 1 2 1 2   1 2 1 2 1 2 1 2 1 2   1 2 1 1 1 1 1 1 1 1
                                        1 1 1 1 1 1 1 1 1 2   1 2 1 2 1 2 1 2 1 2   1 2 1 2 1 1 1 1 1 1   1 1 2 1 2
 EXTRA SYMMETRY OF AOS IN SYMMETRY 2:   1 1 1 1 1 1 1 1 1 1   1 1 2 1 2 1 2 1 1 1   1 1 1 1 1 1 1 1 1 2   1 2 1 2 1 1 1 1 1
 EXTRA SYMMETRY OF AOS IN SYMMETRY 3:   1 1 1 1 1 1 1 1 1 1   1 1 2 1 2 1 2 1 1 1   1 1 1 1 1 1 1 1 1 2   1 2 1 2 1 1 1 1 1

 Eigenvalues of metric

         1 0.256E-03 0.516E-03 0.937E-03 0.141E-02 0.319E-02 0.787E-02 0.103E-01 0.133E-01
         2 0.542E-02 0.158E-01 0.228E-01 0.353E-01 0.975E-01 0.113E+00 0.125E+00 0.188E+00
         3 0.542E-02 0.158E-01 0.228E-01 0.353E-01 0.975E-01 0.113E+00 0.125E+00 0.188E+00
         4 0.125E+00 0.140E+00 0.194E+00 0.259E+00 0.314E+00 0.379E+00 0.485E+00 0.598E+00


 Contracted 2-electron integrals neglected if value below      1.0D-22

       21771317. INTEGRALS WRITTEN OUT IN    5317 BLOCKS ON RECORD 1290 OF FILE 1


 NUMBER OF SORTED TWO-ELECTRON INTEGRALS:   28272141.     BUFFER LENGTH:  32768
 NUMBER OF SEGMENTS:   2  SEGMENT LENGTH:   15998211      RECORD LENGTH: 524288

 Memory used in sort:      16.56 MW

 SORT1 READ    21771317. AND WROTE    22170063. INTEGRALS IN     65 RECORDS. CPU TIME:     0.50 SEC, REAL TIME:     0.65 SEC
 SORT2 READ    22170063. AND WROTE    28272141. INTEGRALS IN      2 RECORDS. CPU TIME:     0.44 SEC, REAL TIME:     0.57 SEC

 FILE SIZES:   FILE 1:   369.1 MBYTE,  FILE 4:   272.7 MBYTE,   TOTAL:    641.7 MBYTE

 OPERATOR DM      FOR CENTER  0  COORDINATES:    0.000000    0.000000    0.000000


 **********************************************************************************************************************************
 DATASETS  * FILE   NREC   LENGTH (MB)   RECORD NAMES
              1      19      213.63       500      610      700      900      950      970     1000      129      960     1100   
                                          VAR    BASINP    GEOM    SYMINP    ZMAT    AOBASIS   BASIS     P2S    ABASIS      S 
                                         1400     1410     1200     1210     1080     1600     1650     1300     1700   
                                           T        V       H0       H01     AOSYM     SMH    MOLCAS    ERIS     OPER   

 PROGRAMS   *        TOTAL       INT
 CPU TIMES  *         3.36      3.27
 REAL TIME  *         4.44 SEC
 DISK USED  *       642.08 MB      
 **********************************************************************************************************************************


 PROGRAM * RHF-SCF (CLOSED SHELL)       Authors: W. Meyer, H.-J. Werner


 NUMBER OF ELECTRONS:       7+    7-
 CONVERGENCE THRESHOLDS:    1.00E-10 (Density)    1.00E-13 (Energy)
 MAX. NUMBER OF ITERATIONS:      500
 INTERPOLATION TYPE:            DIIS
 INTERPOLATION STEPS:              2 (START)      1 (STEP)
 LEVEL SHIFTS:                  0.00 (CLOSED)  0.00 (OPEN) 



 Orbital guess generated from atomic densities. Full valence occupancy:    7   2   2   0

 Molecular orbital dump at record        2100.2

 Initial occupancy:   5   1   1   0

 ITERATION    DDIFF          GRAD             ENERGY        2-EL.EN.            DIPOLE MOMENTS         DIIS   ORB.
    1      0.000D+00      0.000D+00       -92.77160761    111.871544    0.00000    0.00000   -2.03883    0    start
    2      0.000D+00      0.923D-02       -92.78434488    110.100065    0.00000    0.00000   -0.95571    1    diag
    3      0.344D-01      0.794D-02       -92.80655049    111.043562    0.00000    0.00000   -1.45741    2    diag
    4      0.119D-01      0.559D-03       -92.80679555    110.997130    0.00000    0.00000   -1.45009    3    diag
    5      0.184D-02      0.125D-03       -92.80681013    111.004355    0.00000    0.00000   -1.44885    4    diag
    6      0.523D-03      0.326D-04       -92.80681089    111.000370    0.00000    0.00000   -1.44915    5    diag
    7      0.400D-04      0.115D-04       -92.80681098    111.001397    0.00000    0.00000   -1.44922    6    diag
    8      0.156D-04      0.231D-05       -92.80681098    111.001376    0.00000    0.00000   -1.44921    7    diag
    9      0.802D-05      0.254D-06       -92.80681098    111.001383    0.00000    0.00000   -1.44920    8    diag
   10      0.136D-05      0.280D-07       -92.80681098    111.001384    0.00000    0.00000   -1.44920    9    orth
   11      0.133D-06      0.364D-08       -92.80681098    111.001384    0.00000    0.00000   -1.44920    9    diag
   12      0.118D-07      0.388D-09       -92.80681098    111.001384    0.00000    0.00000   -1.44920    9    diag
   13      0.115D-08      0.500D-10       -92.80681098    111.001384    0.00000    0.00000   -1.44920    9    diag
   14      0.176D-09      0.784D-11       -92.80681098    111.001384    0.00000    0.00000   -1.44920    9    diag
   15      0.308D-10      0.164D-11       -92.80681098    111.001384    0.00000    0.00000   -1.44920    9    diag
   16      0.579D-11      0.488D-12       -92.80681098    111.001384    0.00000    0.00000   -1.44920    9    diag
   17      0.133D-11      0.254D-12       -92.80681098    111.001384    0.00000    0.00000   -1.44920    9    diag
   18      0.440D-12      0.426D-12       -92.80681098    111.001384    0.00000    0.00000   -1.44920    0    orth

 Final occupancy:   5   1   1   0

 !RHF STATE 1.1 Energy                -92.806810980264
 Nuclear energy                        23.96096176
 One-electron energy                 -172.26846495
 Two-electron energy                   55.50069222
 Virial quotient                       -1.00233261
 !RHF STATE 1.1 Dipole moment           0.00000000     0.00000000    -1.44920238
 Dipole moment /Debye                   0.00000000     0.00000000    -3.68326377

 Orbital energies:

         1.1          2.1          3.1          4.1          5.1          6.1          7.1
    -15.588962   -11.398458    -1.255979    -0.829546    -0.577288     0.032610     0.149864

         1.2          2.2          3.2
     -0.491654     0.134577     0.307386

         1.3          2.3          3.3
     -0.491654     0.134577     0.307386

         1.4          2.4
      0.682888     0.961488

 HOMO      1.2    -0.491654 =     -13.3786eV
 LUMO      6.1     0.032610 =       0.8874eV
 LUMO-HOMO         0.524264 =      14.2659eV


 **********************************************************************************************************************************
 DATASETS  * FILE   NREC   LENGTH (MB)   RECORD NAMES
              1      19      213.63       500      610      700      900      950      970     1000      129      960     1100   
                                          VAR    BASINP    GEOM    SYMINP    ZMAT    AOBASIS   BASIS     P2S    ABASIS      S 
                                         1400     1410     1200     1210     1080     1600     1650     1300     1700   
                                           T        V       H0       H01     AOSYM     SMH    MOLCAS    ERIS     OPER   

              2       4        2.98       700     1000      520     2100   
                                         GEOM     BASIS   MCVARS     RHF  

 PROGRAMS   *        TOTAL        HF       INT
 CPU TIMES  *         5.22      1.86      3.27
 REAL TIME  *         6.69 SEC
 DISK USED  *       642.08 MB      
 **********************************************************************************************************************************


 PROGRAM * CCSD (Closed-shell coupled cluster)     Authors: C. Hampel, H.-J. Werner, 1991, M. Deegan, P.J. Knowles, 1992


 Convergence thresholds:  THRVAR = 1.00D-08  THRDEN = 1.00D-12

 CCSD(T)     terms to be evaluated (factor= 1.000)


 Number of closed-shell orbitals:   7 (   5   1   1   0 )
 Number of external orbitals:     164 (  70  38  38  18 )

 Molecular orbitals read from record     2100.2  Type=RHF/CANONICAL (state 1.1)

 Number of N-1 electron functions:               7
 Number of N-2 electron functions:              28
 Number of singly external CSFs:               426
 Number of doubly external CSFs:            182374
 Total number of CSFs:                      182801

 Length of J-op  integral file:               0.00 MB
 Length of K-op  integral file:               0.65 MB
 Length of 3-ext integral record:             0.00 MB

 Memory could be reduced to 11.98 Mwords without degradation in triples

 Integral transformation finished. Total CPU:   0.27 sec, npass=  1  Memory used:   1.63 MW

 Reference energy:                    -92.80681098

 MP2 singlet pair energy:              -0.30570136
 MP2 triplet pair energy:              -0.13911972
 MP2 correlation energy:               -0.44482109
 MP2 total energy:                    -93.25163207

 SCS-MP2 correlation energy:           -0.45340502   (PS=  1.200000  PT=  0.333333)
 SCS-MP2 total energy:                -93.26021600

 ITER.      SQ.NORM     CORR.ENERGY   TOTAL ENERGY   ENERGY CHANGE        DEN1      VAR(S)    VAR(P)  DIIS     TIME  TIME/IT
   1      1.11145455    -0.45155602   -93.25836700    -0.00673493     0.00583542  0.25D-02  0.26D-02  1  1     0.60     0.34
   2      1.12018476    -0.45183298   -93.25864396    -0.00027695    -0.01008330  0.54D-04  0.36D-03  2  2     0.90     0.35
   3      1.12381624    -0.45200375   -93.25881473    -0.00017077    -0.00177827  0.18D-04  0.49D-04  3  3     1.23     0.35
   4      1.12611222    -0.45201809   -93.25882907    -0.00001434    -0.00101955  0.93D-06  0.48D-05  4  4     1.54     0.35
   5      1.12664808    -0.45202278   -93.25883376    -0.00000469    -0.00015037  0.19D-06  0.40D-06  5  5     1.86     0.35
   6      1.12672976    -0.45202590   -93.25883688    -0.00000312    -0.00000516  0.95D-08  0.34D-07  6  6     2.18     0.36
   7      1.12674391    -0.45202665   -93.25883763    -0.00000075    -0.00000345  0.20D-08  0.28D-08  6  1     2.50     0.36
   8      1.12674713    -0.45202676   -93.25883774    -0.00000010    -0.00000132  0.29D-09  0.18D-09  6  2     2.81     0.36
   9      1.12674713    -0.45202682   -93.25883780    -0.00000006     0.00000018  0.35D-10  0.23D-10  6  3     3.13     0.36
  10      1.12674734    -0.45202683   -93.25883781    -0.00000002    -0.00000001  0.70D-11  0.29D-11  6  4     3.45     0.36
  11      1.12674735    -0.45202684   -93.25883782    -0.00000000     0.00000002  0.70D-12  0.69D-12  6  5     3.76     0.36
  12      1.12674730    -0.45202684   -93.25883782     0.00000000     0.00000003  0.39D-13  0.12D-12  6  6     4.08     0.36
  13      1.12674725    -0.45202684   -93.25883782    -0.00000000     0.00000001  0.37D-14  0.81D-14  6  2     4.40     0.36
  14      1.12674723    -0.45202684   -93.25883782    -0.00000000     0.00000001  0.26D-15  0.38D-15  6  1     4.74     0.36
  15      1.12674723    -0.45202684   -93.25883782    -0.00000000     0.00000000  0.47D-16  0.46D-16  6  3     5.06     0.36
  16      1.12674723    -0.45202684   -93.25883782    -0.00000000     0.00000000  0.79D-17  0.33D-17  6  4     5.36     0.36
  17      1.12674723    -0.45202684   -93.25883782    -0.00000000     0.00000000  0.11D-17  0.52D-18  6  5     5.69     0.36
  18      1.12674723    -0.45202684   -93.25883782     0.00000000    -0.00000000  0.14D-18  0.56D-19  6  6     6.00     0.36
  19      1.12674723    -0.45202684   -93.25883782     0.00000000    -0.00000000  0.84D-20  0.49D-20  6  1     6.33     0.36
  20      1.12674723    -0.45202684   -93.25883782    -0.00000000     0.00000000  0.27D-21  0.53D-21  6  2     6.66     0.36
  21      1.12674723    -0.45202684   -93.25883782    -0.00000000     0.00000000  0.58D-22  0.94D-22  6  3     6.98     0.36

 Norm of t1 vector:      0.06322638      S-energy:     0.00000000      T1 diagnostic:  0.01194866
                                                                       D1 diagnostic:  0.02781262

 Doubles amplitudes (print threshold =  0.500E-01):

         I         J         SYM. A    SYM. B    A         B      T(IJ, AB)

         6         6         2         2         1         1     -0.05686245
         7         7         3         3         1         1     -0.05686245


 Total CPU time for triples:      4.33 sec


 RESULTS
 =======

  Reference energy                    -92.806810980264

  Correlated core orbitals:             1.1       2.1
  Orbital energies:                   -15.5890  -11.3985
 
  CCSD core-core energy                -0.079706964319
  CCSD core-valence energy             -0.029339699801
  CCSD valence correlation energy      -0.342980174151
 
  CCSD singlet pair energy             -0.330832929543
  CCSD triplet pair energy             -0.121193908728
  CCSD correlation energy              -0.452026838271

  Triples (T) contribution             -0.017868876085
  Total correlation energy             -0.469895714355

  CCSD total energy                   -93.258837818535
  CCSD[T] energy                      -93.277462973859
  CCSD-T energy                       -93.276347610145
 !CCSD(T) total energy                -93.276706694619

 Timing summary (sec):

 STEP                 CPU(USER)    SYS     CPU(TOT)    WALL
 Transformation          0.28      0.08      0.36      0.35
 CCSD iterations         6.70      0.88      7.58      7.60
 Triples                 4.33      0.20      4.53      4.53

 Program statistics:

 Available memory in ccsd:               994999704
 Min. memory needed in ccsd:                607983
 Max. memory used in ccsd:                  763562
 Max. memory used in cckext:                768329 (21 integral passes)



 **********************************************************************************************************************************
 DATASETS  * FILE   NREC   LENGTH (MB)   RECORD NAMES
              1      20      249.78       500      610      700      900      950      970     1000      129      960     1100   
                                          VAR    BASINP    GEOM    SYMINP    ZMAT    AOBASIS   BASIS     P2S    ABASIS      S 
                                         1400     1410     1200     1210     1080     1600     1650     1300     1700     1380   
                                           T        V       H0       H01     AOSYM     SMH    MOLCAS    ERIS     OPER     JKOP   

              2       4        2.98       700     1000      520     2100   
                                         GEOM     BASIS   MCVARS     RHF  

 PROGRAMS   *        TOTAL   CCSD(T)        HF       INT
 CPU TIMES  *        16.57     11.34      1.86      3.27
 REAL TIME  *        19.27 SEC
 DISK USED  *       642.08 MB      
 **********************************************************************************************************************************

 CCSD(T)/USERDEF energy=    -93.276706694619

        CCSD(T)         HF-SCF  
    -93.27670669    -92.80681098
 **********************************************************************************************************************************
 Molpro calculation terminated
 Variable memory released
