
 Primary working directories    : /tmp/r2666/235531.maple
 Secondary working directories  : /tmp/r2666/235531.maple
 Wavefunction directory         : /ddn/home4/r2666/wfu/
 Main file repository           : /tmp/r2666/235531.maple/

 SHA1      : d5ffa45e93fdbca01ffc919aa182cfdae0147319
 NAME      : 2015.1.35
 ARCHNAME  : linux/x86_64
 FC        : /opt/intel/composer_xe_2015.1.133/bin/intel64/ifort
 BLASLIB   : -Wl,-_start-group /opt/intel/mkl/lib/intel64/libmkl_intel_ilp64.a /opt/intel/mkl/lib/intel64/libmkl_intel_thread.a /opt/intel/mkl/lib/intel64/libmkl_core.a -Wl,-_end-group
 id        : olemiss

 Nodes     nprocs
 cn032        1

 Using customized tuning parameters: mindgm=1; mindgv=20; mindgc=4; mindgr=1; noblas=0; minvec=7
 default implementation of scratch files=df  

 ***,hno CCSD(T)/TZ-F12 QFF
 memory, 995, m;
 gthresh,energy=1.d-12,zero=1.d-22,oneint=1.d-22,twoint=1.d-22;
 gthresh,optgrad=1.d-8,optstep=1.d-8;
 nocompress;
 geomtyp=xyz
 bohr
 geometry={
 3
        128       128
 N        0.0000000000       -0.1759082017       -1.1446679504
 H        0.0000000000        1.6800258830       -1.9329487598
 O        0.0000000000        0.0376501087        1.1270271192
 }
 
 basis={
 default=aug-cc-pvtz
 s,C,8236.0,1235.0,280.8, 79.27,25.59, 8.997,3.319
 s,C,0.9059,0.3643,0.1285000
 p,C,56.0,18.71,4.133,0.2827,0.3827,0.1209
 d,C,30.0,10.0,3.3,1.097,0.318
 f,C,7.0,2.3,0.7610
 s,N,11420.0,1712.0,389.3,110.0,35.57,12.54,4.644
 s,N,1.293,0.5118,0.1787
 p,N,79.89,26.63,5.948,1.742,0.555,0.1725
 d,N,45.0,15.0,5.0,1.654,0.469
 f,N,9.9,3.3,1.093
 s,O,15330.0,2299.0,522.4,147.3,47.55,16.76,6.207
 s,O,1.752,0.6882,0.2384
 p,O,103.5,34.46,7.749,2.28,0.7156,0.214
 d,O,63.0,21.0,7.0,2.314,0.645
 f,O,12.9,4.3,1.428
 s,mg,164900.0,24710.0,5628.0,1596.0,521.0;
 s,mg,188.0,73.01,29.90,12.54,4.306,1.826;
 s,mg,0.7417,0.0761,0.145,0.033,0.0129;
 p,mg,950.70,316.90,74.86,23.72,8.669,3.363;
 p,mg,1.310,0.4911,0.2364,0.08733,0.03237,0.00745;
 d,mg,1.601,0.686,0.126,0.294,0.0468;
 f,mg,1.372,0.588,0.094,0.252;
 }
   {hf,maxit=500;accu,20;}
 {ccsd(t),nocheck,maxit=250;orbital,IGNORE_ERROR;core}

 Variables initialized (889), CPU time= 0.01 sec
 Commands  initialized (702), CPU time= 0.01 sec, 572 directives.
 Default parameters read. Elapsed time= 0.05 sec

 Checking input...
 Passed
1


                                         ***  PROGRAM SYSTEM MOLPRO  ***
                                       Copyright, TTI GmbH Stuttgart, 2015
                                    Version 2015.1 linked Jul  9 2018 13:16:40


 **********************************************************************************************************************************
 LABEL *   hno CCSD(T)/TZ-F12 QFF                                                        
  64 bit serial version                                                                  DATE: 08-Feb-20          TIME: 18:00:58  
 **********************************************************************************************************************************

 SHA1:             d5ffa45e93fdbca01ffc919aa182cfdae0147319
 **********************************************************************************************************************************

 THRESHOLDS:

 ZERO    =  1.00D-22  ONEINT  =  1.00D-22  TWOINT  =  1.00D-22  PREFAC  =  1.00D-14  LOCALI  =  1.00D-09  EORDER  =  1.00D-04
 ENERGY  =  1.00D-12  ETEST   =  0.00D+00  EDENS   =  0.00D+00  THRDEDEF=  1.00D-06  GRADIENT=  1.00D-02  STEP    =  1.00D-03
 ORBITAL =  1.00D-05  CIVEC   =  1.00D-05  COEFF   =  1.00D-04  PRINTCI =  5.00D-02  PUNCHCI =  9.90D+01  OPTGRAD =  3.00D-04
 OPTENERG=  1.00D-06  OPTSTEP =  3.00D-04  THRGRAD =  1.00D-10  COMPRESS=  1.00D-11  VARMIN  =  1.00D-07  VARMAX  =  1.00D-03
 THRDOUB =  0.00D+00  THRDIV  =  1.00D-05  THRRED  =  1.00D-07  THRPSP  =  1.00D+00  THRDC   =  1.00D-10  THRCS   =  1.00D-10
 THRNRM  =  1.00D-08  THREQ   =  0.00D+00  THRDE   =  1.00D+00  THRREF  =  1.00D-05  SPARFAC =  1.00D+00  THRDLP  =  1.00D-07
 THRDIA  =  1.00D-10  THRDLS  =  1.00D-07  THRGPS  =  0.00D+00  THRKEX  =  0.00D+00  THRDIS  =  2.00D-01  THRVAR  =  1.00D-10
 THRLOC  =  1.00D-06  THRGAP  =  1.00D-06  THRLOCT = -1.00D+00  THRGAPT = -1.00D+00  THRORB  =  1.00D-06  THRMLTP =  0.00D+00
 THRCPQCI=  1.00D-10  KEXTA   =  0.00D+00  THRCOARS=  0.00D+00  SYMTOL  =  1.00D-06  GRADTOL =  1.00D-06  THROVL  =  1.00D-08
 THRORTH =  1.00D-08  GRID    =  1.00D-06  GRIDMAX =  1.00D-03  DTMAX   =  0.00D+00  THROCCDE=  1.00D-01  THROCCDE=  1.00D-01



 THRESHOLDS:

 ZERO    =  1.00D-22  ONEINT  =  1.00D-22  TWOINT  =  1.00D-22  PREFAC  =  1.00D-14  LOCALI  =  1.00D-09  EORDER  =  1.00D-04
 ENERGY  =  1.00D-12  ETEST   =  0.00D+00  EDENS   =  0.00D+00  THRDEDEF=  1.00D-06  GRADIENT=  1.00D-02  STEP    =  1.00D-03
 ORBITAL =  1.00D-05  CIVEC   =  1.00D-05  COEFF   =  1.00D-04  PRINTCI =  5.00D-02  PUNCHCI =  9.90D+01  OPTGRAD =  1.00D-08
 OPTENERG=  1.00D-06  OPTSTEP =  1.00D-08  THRGRAD =  1.00D-10  COMPRESS=  1.00D-11  VARMIN  =  1.00D-07  VARMAX  =  1.00D-03
 THRDOUB =  0.00D+00  THRDIV  =  1.00D-05  THRRED  =  1.00D-07  THRPSP  =  1.00D+00  THRDC   =  1.00D-10  THRCS   =  1.00D-10
 THRNRM  =  1.00D-08  THREQ   =  0.00D+00  THRDE   =  1.00D+00  THRREF  =  1.00D-05  SPARFAC =  1.00D+00  THRDLP  =  1.00D-07
 THRDIA  =  1.00D-10  THRDLS  =  1.00D-07  THRGPS  =  0.00D+00  THRKEX  =  0.00D+00  THRDIS  =  2.00D-01  THRVAR  =  1.00D-10
 THRLOC  =  1.00D-06  THRGAP  =  1.00D-06  THRLOCT = -1.00D+00  THRGAPT = -1.00D+00  THRORB  =  1.00D-06  THRMLTP =  0.00D+00
 THRCPQCI=  1.00D-10  KEXTA   =  0.00D+00  THRCOARS=  0.00D+00  SYMTOL  =  1.00D-06  GRADTOL =  1.00D-06  THROVL  =  1.00D-08
 THRORTH =  1.00D-08  GRID    =  1.00D-06  GRIDMAX =  1.00D-03  DTMAX   =  0.00D+00  THROCCDE=  1.00D-01  THROCCDE=  1.00D-01



 Input parameters for SORTINT:

 COMPRESS =    0.000000
 C_FINAL  =    1.000000
 DEBUG    =   -1.000000
 C_SORT1  =    0.000000
 C_SEWARD =    0.000000
 THRESH   =    0.000000
 IO       =  molpro                                                          
 SPRI     =    0.000000
 SETTING GEOMTYP        =    XYZ
 ZUNIT=BOHR
 

 Variable memory set to  995000000 words,  buffer space   230000 words

 SETTING BASIS          =    USERDEF


 Recomputing integrals since basis changed


 Using spherical harmonics

 Library entry H      S aug-cc-pVTZ          selected for orbital group  2
 Library entry H      P aug-cc-pVTZ          selected for orbital group  2
 Library entry H      D aug-cc-pVTZ          selected for orbital group  2


 PROGRAM * SEWARD (Integral evaluation for generally contracted gaussian basis sets)     Author: Roland Lindh, 1990

 Geometry written to block  1 of record 700


 Point group  Cs  



 ATOMIC COORDINATES

 NR  ATOM    CHARGE       X              Y              Z

   1  N       7.00    0.000000000   -0.175908202   -1.144667950
   2  H       1.00    0.000000000    1.680025883   -1.932948760
   3  O       8.00    0.000000000    0.037650109    1.127027119

 Bond lengths in Bohr (Angstrom)

 1-2  2.016402232  1-3  2.281711121
     ( 1.067034109)     ( 1.207429527)

 Bond angles

  2-1-3  107.64214899

 NUCLEAR CHARGE:                   16
 NUMBER OF PRIMITIVE AOS:         203
 NUMBER OF SYMMETRY AOS:          173
 NUMBER OF CONTRACTIONS:          171   ( 114A'  +  57A"  )
 NUMBER OF CORE ORBITALS:           2   (   2A'  +   0A"  )
 NUMBER OF VALENCE ORBITALS:        9   (   7A'  +   2A"  )


 NUCLEAR REPULSION ENERGY   30.31808169


 Eigenvalues of metric

         1 0.107E-02 0.250E-02 0.339E-02 0.645E-02 0.104E-01 0.138E-01 0.145E-01 0.237E-01
         2 0.382E-01 0.533E-01 0.711E-01 0.941E-01 0.131E+00 0.135E+00 0.142E+00 0.142E+00


 Contracted 2-electron integrals neglected if value below      1.0D-22

       46155042. INTEGRALS WRITTEN OUT IN   11272 BLOCKS ON RECORD 1290 OF FILE 1


 NUMBER OF SORTED TWO-ELECTRON INTEGRALS:   55360566.     BUFFER LENGTH:  32768
 NUMBER OF SEGMENTS:   4  SEGMENT LENGTH:   15997996      RECORD LENGTH: 524288

 Memory used in sort:      16.56 MW

 SORT1 READ    46155042. AND WROTE    46592578. INTEGRALS IN    135 RECORDS. CPU TIME:     1.53 SEC, REAL TIME:     1.96 SEC
 SORT2 READ    46592578. AND WROTE    55360566. INTEGRALS IN      4 RECORDS. CPU TIME:     0.94 SEC, REAL TIME:     1.19 SEC

 FILE SIZES:   FILE 1:   759.5 MBYTE,  FILE 4:   566.3 MBYTE,   TOTAL:   1325.7 MBYTE

 OPERATOR DM      FOR CENTER  0  COORDINATES:    0.000000    0.000000    0.000000


 **********************************************************************************************************************************
 DATASETS  * FILE   NREC   LENGTH (MB)   RECORD NAMES
              1      19      421.32       500      610      700      900      950      970     1000      129      960     1100   
                                          VAR    BASINP    GEOM    SYMINP    ZMAT    AOBASIS   BASIS     P2S    ABASIS      S 
                                         1400     1410     1200     1210     1080     1600     1650     1300     1700   
                                           T        V       H0       H01     AOSYM     SMH    MOLCAS    ERIS     OPER   

 PROGRAMS   *        TOTAL       INT
 CPU TIMES  *         6.84      6.73
 REAL TIME  *         8.64 SEC
 DISK USED  *         1.33 GB      
 **********************************************************************************************************************************


 PROGRAM * RHF-SCF (CLOSED SHELL)       Authors: W. Meyer, H.-J. Werner


 NUMBER OF ELECTRONS:       8+    8-
 CONVERGENCE THRESHOLDS:    1.00E-10 (Density)    1.00E-13 (Energy)
 MAX. NUMBER OF ITERATIONS:      500
 INTERPOLATION TYPE:            DIIS
 INTERPOLATION STEPS:              2 (START)      1 (STEP)
 LEVEL SHIFTS:                  0.00 (CLOSED)  0.00 (OPEN) 



 Orbital guess generated from atomic densities. Full valence occupancy:    9   2

 Molecular orbital dump at record        2100.2

 Initial occupancy:   7   1

 ITERATION    DDIFF          GRAD             ENERGY        2-EL.EN.            DIPOLE MOMENTS         DIIS   ORB.
    1      0.000D+00      0.000D+00      -129.78800834    153.960043    0.00000    0.55427   -1.01204    0    start
    2      0.000D+00      0.884D-02      -129.81492242    155.151008    0.00000    0.59586   -0.18787    1    diag
    3      0.362D-02      0.676D-02      -129.83832810    155.266712    0.00000    0.53848   -0.57886    2    diag
    4      0.143D-02      0.104D-02      -129.83911214    154.990716    0.00000    0.54677   -0.51674    3    diag
    5      0.328D-03      0.339D-03      -129.83923543    155.079791    0.00000    0.55296   -0.51922    4    diag
    6      0.154D-03      0.100D-03      -129.83925577    155.063482    0.00000    0.55352   -0.51505    5    diag
    7      0.612D-04      0.502D-04      -129.83926172    155.066111    0.00000    0.55490   -0.51255    6    diag
    8      0.414D-04      0.172D-04      -129.83926236    155.065270    0.00000    0.55496   -0.51163    7    diag
    9      0.144D-04      0.323D-05      -129.83926239    155.065153    0.00000    0.55491   -0.51145    8    diag
   10      0.292D-05      0.733D-06      -129.83926239    155.065138    0.00000    0.55487   -0.51142    9    orth
   11      0.855D-06      0.147D-06      -129.83926239    155.065133    0.00000    0.55487   -0.51142    9    diag
   12      0.205D-06      0.306D-07      -129.83926239    155.065132    0.00000    0.55486   -0.51142    9    diag
   13      0.514D-07      0.816D-08      -129.83926239    155.065132    0.00000    0.55486   -0.51141    9    diag
   14      0.120D-07      0.145D-08      -129.83926239    155.065132    0.00000    0.55486   -0.51141    9    diag
   15      0.156D-08      0.394D-09      -129.83926239    155.065132    0.00000    0.55486   -0.51141    9    diag
   16      0.345D-09      0.118D-09      -129.83926239    155.065132    0.00000    0.55486   -0.51141    9    diag
   17      0.862D-10      0.346D-10      -129.83926239    155.065132    0.00000    0.55486   -0.51141    9    diag
   18      0.283D-10      0.116D-10      -129.83926239    155.065132    0.00000    0.55486   -0.51141    9    diag
   19      0.113D-10      0.283D-11      -129.83926239    155.065132    0.00000    0.55486   -0.51141    9    fixocc
   20      0.279D-11      0.687D-12      -129.83926239    155.065132    0.00000    0.55486   -0.51141    9    orth
   21      0.347D-12      0.540D-12      -129.83926239    155.065132    0.00000    0.55486   -0.51141    9    diag
   22      0.122D-12      0.319D-12      -129.83926239    155.065132    0.00000    0.55486   -0.51141    9    diag
   23      0.628D-13      0.438D-12      -129.83926239    155.065132    0.00000    0.55486   -0.51141    9    diag
   24      0.138D-12      0.351D-12      -129.83926239    155.065132    0.00000    0.55486   -0.51141    0    orth

 Final occupancy:   7   1

 !RHF STATE 1.1 Energy               -129.839262390250
 Nuclear energy                        30.31808169
 One-electron energy                 -237.68991006
 Two-electron energy                   77.53256598
 Virial quotient                       -1.00177531
 !RHF STATE 1.1 Dipole moment           0.00000000     0.55486272    -0.51141464
 Dipole moment /Debye                   0.00000000     1.41022798    -1.29980123

 Orbital energies:

         1.1          2.1          3.1          4.1          5.1          6.1          7.1          8.1          9.1
    -20.651420   -15.712651    -1.528622    -0.988798    -0.743748    -0.664310    -0.428056     0.039683     0.191472

         1.2          2.2          3.2
     -0.594784     0.079420     0.239361

 HOMO      7.1    -0.428056 =     -11.6480eV
 LUMO      8.1     0.039683 =       1.0798eV
 LUMO-HOMO         0.467739 =      12.7278eV


 **********************************************************************************************************************************
 DATASETS  * FILE   NREC   LENGTH (MB)   RECORD NAMES
              1      19      421.32       500      610      700      900      950      970     1000      129      960     1100   
                                          VAR    BASINP    GEOM    SYMINP    ZMAT    AOBASIS   BASIS     P2S    ABASIS      S 
                                         1400     1410     1200     1210     1080     1600     1650     1300     1700   
                                           T        V       H0       H01     AOSYM     SMH    MOLCAS    ERIS     OPER   

              2       4        3.13       700     1000      520     2100   
                                         GEOM     BASIS   MCVARS     RHF  

 PROGRAMS   *        TOTAL        HF       INT
 CPU TIMES  *        15.21      8.37      6.73
 REAL TIME  *        18.88 SEC
 DISK USED  *         1.33 GB      
 **********************************************************************************************************************************


 PROGRAM * CCSD (Closed-shell coupled cluster)     Authors: C. Hampel, H.-J. Werner, 1991, M. Deegan, P.J. Knowles, 1992


 Convergence thresholds:  THRVAR = 1.00D-08  THRDEN = 1.00D-12

 CCSD(T)     terms to be evaluated (factor= 1.000)


 Number of closed-shell orbitals:   8 (   7   1 )
 Number of external orbitals:     163 ( 107  56 )

 Molecular orbitals read from record     2100.2  Type=RHF/CANONICAL (state 1.1)

 Number of N-1 electron functions:               8
 Number of N-2 electron functions:              36
 Number of singly external CSFs:               805
 Number of doubly external CSFs:            449165
 Total number of CSFs:                      449971

 Length of J-op  integral file:               0.00 MB
 Length of K-op  integral file:               1.15 MB
 Length of 3-ext integral record:             0.00 MB

 Memory could be reduced to 24.90 Mwords without degradation in triples

 Integral transformation finished. Total CPU:   1.37 sec, npass=  1  Memory used:   6.89 MW

 Reference energy:                   -129.83926239

 MP2 singlet pair energy:              -0.37922089
 MP2 triplet pair energy:              -0.18677308
 MP2 correlation energy:               -0.56599397
 MP2 total energy:                   -130.40525636

 SCS-MP2 correlation energy:           -0.57127943   (PS=  1.200000  PT=  0.333333)
 SCS-MP2 total energy:               -130.41054182

 ITER.      SQ.NORM     CORR.ENERGY   TOTAL ENERGY   ENERGY CHANGE        DEN1      VAR(S)    VAR(P)  DIIS     TIME  TIME/IT
   1      1.12020633    -0.57070672  -130.40996911    -0.00471275     0.01309853  0.34D-02  0.31D-02  1  1     2.86     1.55
   2      1.13116215    -0.57040497  -130.40966736     0.00030174    -0.01377923  0.91D-04  0.51D-03  2  2     4.41     1.60
   3      1.13646927    -0.57073846  -130.41000085    -0.00033349    -0.00237981  0.57D-04  0.69D-04  3  3     5.93     1.61
   4      1.13993145    -0.57072916  -130.40999155     0.00000930    -0.00139740  0.47D-05  0.98D-05  4  4     7.47     1.62
   5      1.14099648    -0.57075407  -130.41001646    -0.00002491    -0.00025202  0.17D-05  0.18D-05  5  5     8.94     1.61
   6      1.14141004    -0.57074805  -130.41001044     0.00000603    -0.00004004  0.16D-06  0.40D-06  6  6    10.36     1.61
   7      1.14149552    -0.57074815  -130.41001054    -0.00000011     0.00000040  0.24D-07  0.90D-07  6  1    11.79     1.61
   8      1.14153033    -0.57074637  -130.41000877     0.00000178    -0.00000485  0.40D-08  0.14D-07  6  2    13.26     1.60
   9      1.14153549    -0.57074641  -130.41000880    -0.00000003     0.00000109  0.17D-08  0.18D-08  6  3    14.73     1.60
  10      1.14153732    -0.57074671  -130.41000910    -0.00000030    -0.00000066  0.39D-09  0.25D-09  6  4    16.21     1.60
  11      1.14153638    -0.57074685  -130.41000924    -0.00000014     0.00000034  0.98D-10  0.25D-10  6  5    17.66     1.60
  12      1.14153548    -0.57074698  -130.41000937    -0.00000014     0.00000035  0.10D-10  0.65D-11  6  6    19.14     1.60
  13      1.14153495    -0.57074699  -130.41000938    -0.00000001     0.00000011  0.44D-11  0.11D-11  6  1    20.59     1.59
  14      1.14153452    -0.57074702  -130.41000941    -0.00000003     0.00000011  0.45D-12  0.40D-12  6  3    22.03     1.59
  15      1.14153435    -0.57074702  -130.41000941    -0.00000000     0.00000002  0.12D-12  0.26D-13  6  2    23.45     1.59
  16      1.14153430    -0.57074702  -130.41000941    -0.00000000     0.00000001  0.26D-13  0.59D-14  6  4    24.87     1.59
  17      1.14153428    -0.57074702  -130.41000941    -0.00000000     0.00000001  0.44D-14  0.11D-14  6  5    26.32     1.58
  18      1.14153427    -0.57074702  -130.41000941    -0.00000000     0.00000000  0.44D-15  0.29D-15  6  6    27.80     1.58
  19      1.14153427    -0.57074702  -130.41000941     0.00000000    -0.00000000  0.55D-16  0.38D-16  6  1    29.25     1.58
  20      1.14153428    -0.57074702  -130.41000941     0.00000000    -0.00000000  0.23D-17  0.81D-17  6  3    30.69     1.58
  21      1.14153428    -0.57074702  -130.41000941     0.00000000    -0.00000000  0.11D-17  0.20D-17  6  2    32.13     1.58
  22      1.14153428    -0.57074702  -130.41000941     0.00000000    -0.00000000  0.17D-18  0.72D-18  6  4    33.58     1.58
  23      1.14153428    -0.57074702  -130.41000941    -0.00000000     0.00000000  0.11D-18  0.11D-18  6  5    35.05     1.58
  24      1.14153428    -0.57074702  -130.41000941     0.00000000    -0.00000000  0.58D-20  0.13D-19  6  1    36.55     1.58
  25      1.14153428    -0.57074702  -130.41000941     0.00000000     0.00000000  0.29D-21  0.14D-20  6  6    37.97     1.58
  26      1.14153428    -0.57074702  -130.41000941    -0.00000000     0.00000000  0.12D-21  0.31D-21  6  3    39.45     1.58

 Norm of t1 vector:      0.07816520      S-energy:     0.00000000      T1 diagnostic:  0.01381779
                                                                       D1 diagnostic:  0.04397812

 Doubles amplitudes (print threshold =  0.500E-01):

         I         J         SYM. A    SYM. B    A         B      T(IJ, AB)

         8         8         2         2         1         1     -0.13438388


 Total CPU time for triples:     26.83 sec


 RESULTS
 =======

  Reference energy                   -129.839262390250

  Correlated core orbitals:             1.1       2.1
  Orbital energies:                   -20.6514  -15.7127
 
  CCSD core-core energy                -0.079233536032
  CCSD core-valence energy             -0.036048440901
  CCSD valence correlation energy      -0.455465044627
 
  CCSD singlet pair energy             -0.408243031613
  CCSD triplet pair energy             -0.162503989948
  CCSD correlation energy              -0.570747021560

  Triples (T) contribution             -0.022368201786
  Total correlation energy             -0.593115223346

  CCSD total energy                  -130.410009411810
  CCSD[T] energy                     -130.433560269880
  CCSD-T energy                      -130.431932356672
 !CCSD(T) total energy               -130.432377613596

 Timing summary (sec):

 STEP                 CPU(USER)    SYS     CPU(TOT)    WALL
 Transformation          1.39      0.19      1.58      1.58
 CCSD iterations        38.06      3.00     41.06     41.08
 Triples                26.83      0.70     27.53     27.53

 Program statistics:

 Available memory in ccsd:               994999644
 Min. memory needed in ccsd:               1368037
 Max. memory used in ccsd:                 1750502
 Max. memory used in cckext:               2014357 (26 integral passes)



 **********************************************************************************************************************************
 DATASETS  * FILE   NREC   LENGTH (MB)   RECORD NAMES
              1      20      500.23       500      610      700      900      950      970     1000      129      960     1100   
                                          VAR    BASINP    GEOM    SYMINP    ZMAT    AOBASIS   BASIS     P2S    ABASIS      S 
                                         1400     1410     1200     1210     1080     1600     1650     1300     1700     1380   
                                           T        V       H0       H01     AOSYM     SMH    MOLCAS    ERIS     OPER     JKOP   

              2       4        3.13       700     1000      520     2100   
                                         GEOM     BASIS   MCVARS     RHF  

 PROGRAMS   *        TOTAL   CCSD(T)        HF       INT
 CPU TIMES  *        81.52     66.31      8.37      6.73
 REAL TIME  *        89.11 SEC
 DISK USED  *         1.33 GB      
 **********************************************************************************************************************************

 CCSD(T)/USERDEF energy=   -130.432377613596

        CCSD(T)         HF-SCF  
   -130.43237761   -129.83926239
 **********************************************************************************************************************************
 Molpro calculation terminated
 Variable memory released
