
 Primary working directories    : /tmp/r2666/235523.maple
 Secondary working directories  : /tmp/r2666/235523.maple
 Wavefunction directory         : /ddn/home4/r2666/wfu/
 Main file repository           : /tmp/r2666/235523.maple/

 SHA1      : d5ffa45e93fdbca01ffc919aa182cfdae0147319
 NAME      : 2015.1.35
 ARCHNAME  : linux/x86_64
 FC        : /opt/intel/composer_xe_2015.1.133/bin/intel64/ifort
 BLASLIB   : -Wl,-_start-group /opt/intel/mkl/lib/intel64/libmkl_intel_ilp64.a /opt/intel/mkl/lib/intel64/libmkl_intel_thread.a /opt/intel/mkl/lib/intel64/libmkl_core.a -Wl,-_end-group
 id        : olemiss

 Nodes     nprocs
 cn026        1

 Using customized tuning parameters: mindgm=1; mindgv=20; mindgc=4; mindgr=1; noblas=0; minvec=7
 default implementation of scratch files=df  

 ***,hno CCSD(T)/TZ-F12 QFF
 memory, 995, m;
 gthresh,energy=1.d-12,zero=1.d-22,oneint=1.d-22,twoint=1.d-22;
 gthresh,optgrad=1.d-8,optstep=1.d-8;
 nocompress;
 geomtyp=xyz
 bohr
 geometry={
 3
        120       120
 N        0.0000000000       -0.1676569461       -1.1407334487
 H        0.0000000000        1.6753476100       -1.9352125024
 O        0.0000000000        0.0340771261        1.1253563601
 }
 
 basis={
 default=aug-cc-pvtz
 s,C,8236.0,1235.0,280.8, 79.27,25.59, 8.997,3.319
 s,C,0.9059,0.3643,0.1285000
 p,C,56.0,18.71,4.133,0.2827,0.3827,0.1209
 d,C,30.0,10.0,3.3,1.097,0.318
 f,C,7.0,2.3,0.7610
 s,N,11420.0,1712.0,389.3,110.0,35.57,12.54,4.644
 s,N,1.293,0.5118,0.1787
 p,N,79.89,26.63,5.948,1.742,0.555,0.1725
 d,N,45.0,15.0,5.0,1.654,0.469
 f,N,9.9,3.3,1.093
 s,O,15330.0,2299.0,522.4,147.3,47.55,16.76,6.207
 s,O,1.752,0.6882,0.2384
 p,O,103.5,34.46,7.749,2.28,0.7156,0.214
 d,O,63.0,21.0,7.0,2.314,0.645
 f,O,12.9,4.3,1.428
 s,mg,164900.0,24710.0,5628.0,1596.0,521.0;
 s,mg,188.0,73.01,29.90,12.54,4.306,1.826;
 s,mg,0.7417,0.0761,0.145,0.033,0.0129;
 p,mg,950.70,316.90,74.86,23.72,8.669,3.363;
 p,mg,1.310,0.4911,0.2364,0.08733,0.03237,0.00745;
 d,mg,1.601,0.686,0.126,0.294,0.0468;
 f,mg,1.372,0.588,0.094,0.252;
 }
   {hf,maxit=500;accu,20;}
 {ccsd(t),nocheck,maxit=250;orbital,IGNORE_ERROR;core}

 Variables initialized (889), CPU time= 0.00 sec
 Commands  initialized (702), CPU time= 0.01 sec, 572 directives.
 Default parameters read. Elapsed time= 0.04 sec

 Checking input...
 Passed
1


                                         ***  PROGRAM SYSTEM MOLPRO  ***
                                       Copyright, TTI GmbH Stuttgart, 2015
                                    Version 2015.1 linked Jul  9 2018 13:16:40


 **********************************************************************************************************************************
 LABEL *   hno CCSD(T)/TZ-F12 QFF                                                        
  64 bit serial version                                                                  DATE: 08-Feb-20          TIME: 18:00:52  
 **********************************************************************************************************************************

 SHA1:             d5ffa45e93fdbca01ffc919aa182cfdae0147319
 **********************************************************************************************************************************

 THRESHOLDS:

 ZERO    =  1.00D-22  ONEINT  =  1.00D-22  TWOINT  =  1.00D-22  PREFAC  =  1.00D-14  LOCALI  =  1.00D-09  EORDER  =  1.00D-04
 ENERGY  =  1.00D-12  ETEST   =  0.00D+00  EDENS   =  0.00D+00  THRDEDEF=  1.00D-06  GRADIENT=  1.00D-02  STEP    =  1.00D-03
 ORBITAL =  1.00D-05  CIVEC   =  1.00D-05  COEFF   =  1.00D-04  PRINTCI =  5.00D-02  PUNCHCI =  9.90D+01  OPTGRAD =  3.00D-04
 OPTENERG=  1.00D-06  OPTSTEP =  3.00D-04  THRGRAD =  1.00D-10  COMPRESS=  1.00D-11  VARMIN  =  1.00D-07  VARMAX  =  1.00D-03
 THRDOUB =  0.00D+00  THRDIV  =  1.00D-05  THRRED  =  1.00D-07  THRPSP  =  1.00D+00  THRDC   =  1.00D-10  THRCS   =  1.00D-10
 THRNRM  =  1.00D-08  THREQ   =  0.00D+00  THRDE   =  1.00D+00  THRREF  =  1.00D-05  SPARFAC =  1.00D+00  THRDLP  =  1.00D-07
 THRDIA  =  1.00D-10  THRDLS  =  1.00D-07  THRGPS  =  0.00D+00  THRKEX  =  0.00D+00  THRDIS  =  2.00D-01  THRVAR  =  1.00D-10
 THRLOC  =  1.00D-06  THRGAP  =  1.00D-06  THRLOCT = -1.00D+00  THRGAPT = -1.00D+00  THRORB  =  1.00D-06  THRMLTP =  0.00D+00
 THRCPQCI=  1.00D-10  KEXTA   =  0.00D+00  THRCOARS=  0.00D+00  SYMTOL  =  1.00D-06  GRADTOL =  1.00D-06  THROVL  =  1.00D-08
 THRORTH =  1.00D-08  GRID    =  1.00D-06  GRIDMAX =  1.00D-03  DTMAX   =  0.00D+00  THROCCDE=  1.00D-01  THROCCDE=  1.00D-01



 THRESHOLDS:

 ZERO    =  1.00D-22  ONEINT  =  1.00D-22  TWOINT  =  1.00D-22  PREFAC  =  1.00D-14  LOCALI  =  1.00D-09  EORDER  =  1.00D-04
 ENERGY  =  1.00D-12  ETEST   =  0.00D+00  EDENS   =  0.00D+00  THRDEDEF=  1.00D-06  GRADIENT=  1.00D-02  STEP    =  1.00D-03
 ORBITAL =  1.00D-05  CIVEC   =  1.00D-05  COEFF   =  1.00D-04  PRINTCI =  5.00D-02  PUNCHCI =  9.90D+01  OPTGRAD =  1.00D-08
 OPTENERG=  1.00D-06  OPTSTEP =  1.00D-08  THRGRAD =  1.00D-10  COMPRESS=  1.00D-11  VARMIN  =  1.00D-07  VARMAX  =  1.00D-03
 THRDOUB =  0.00D+00  THRDIV  =  1.00D-05  THRRED  =  1.00D-07  THRPSP  =  1.00D+00  THRDC   =  1.00D-10  THRCS   =  1.00D-10
 THRNRM  =  1.00D-08  THREQ   =  0.00D+00  THRDE   =  1.00D+00  THRREF  =  1.00D-05  SPARFAC =  1.00D+00  THRDLP  =  1.00D-07
 THRDIA  =  1.00D-10  THRDLS  =  1.00D-07  THRGPS  =  0.00D+00  THRKEX  =  0.00D+00  THRDIS  =  2.00D-01  THRVAR  =  1.00D-10
 THRLOC  =  1.00D-06  THRGAP  =  1.00D-06  THRLOCT = -1.00D+00  THRGAPT = -1.00D+00  THRORB  =  1.00D-06  THRMLTP =  0.00D+00
 THRCPQCI=  1.00D-10  KEXTA   =  0.00D+00  THRCOARS=  0.00D+00  SYMTOL  =  1.00D-06  GRADTOL =  1.00D-06  THROVL  =  1.00D-08
 THRORTH =  1.00D-08  GRID    =  1.00D-06  GRIDMAX =  1.00D-03  DTMAX   =  0.00D+00  THROCCDE=  1.00D-01  THROCCDE=  1.00D-01



 Input parameters for SORTINT:

 COMPRESS =    0.000000
 C_FINAL  =    1.000000
 DEBUG    =   -1.000000
 C_SORT1  =    0.000000
 C_SEWARD =    0.000000
 THRESH   =    0.000000
 IO       =  molpro                                                          
 SPRI     =    0.000000
 SETTING GEOMTYP        =    XYZ
 ZUNIT=BOHR
 

 Variable memory set to  995000000 words,  buffer space   230000 words

 SETTING BASIS          =    USERDEF


 Recomputing integrals since basis changed


 Using spherical harmonics

 Library entry H      S aug-cc-pVTZ          selected for orbital group  2
 Library entry H      P aug-cc-pVTZ          selected for orbital group  2
 Library entry H      D aug-cc-pVTZ          selected for orbital group  2


 PROGRAM * SEWARD (Integral evaluation for generally contracted gaussian basis sets)     Author: Roland Lindh, 1990

 Geometry written to block  1 of record 700


 Point group  Cs  



 ATOMIC COORDINATES

 NR  ATOM    CHARGE       X              Y              Z

   1  N       7.00    0.000000000   -0.167656946   -1.140733449
   2  H       1.00    0.000000000    1.675347610   -1.935212502
   3  O       8.00    0.000000000    0.034077126    1.125356360

 Bond lengths in Bohr (Angstrom)

 1-2  2.006953602  1-3  2.275051572
     ( 1.062034110)     ( 1.203905446)

 Bond angles

  2-1-3  108.23258934

 NUCLEAR CHARGE:                   16
 NUMBER OF PRIMITIVE AOS:         203
 NUMBER OF SYMMETRY AOS:          173
 NUMBER OF CONTRACTIONS:          171   ( 114A'  +  57A"  )
 NUMBER OF CORE ORBITALS:           2   (   2A'  +   0A"  )
 NUMBER OF VALENCE ORBITALS:        9   (   7A'  +   2A"  )


 NUCLEAR REPULSION ENERGY   30.40626788


 Eigenvalues of metric

         1 0.106E-02 0.246E-02 0.336E-02 0.641E-02 0.102E-01 0.137E-01 0.144E-01 0.234E-01
         2 0.375E-01 0.526E-01 0.703E-01 0.941E-01 0.131E+00 0.134E+00 0.141E+00 0.142E+00


 Contracted 2-electron integrals neglected if value below      1.0D-22

       46177837. INTEGRALS WRITTEN OUT IN   11277 BLOCKS ON RECORD 1290 OF FILE 1


 NUMBER OF SORTED TWO-ELECTRON INTEGRALS:   55360566.     BUFFER LENGTH:  32768
 NUMBER OF SEGMENTS:   4  SEGMENT LENGTH:   15997996      RECORD LENGTH: 524288

 Memory used in sort:      16.56 MW

 SORT1 READ    46177837. AND WROTE    46615596. INTEGRALS IN    135 RECORDS. CPU TIME:     1.15 SEC, REAL TIME:     1.49 SEC
 SORT2 READ    46615596. AND WROTE    55360566. INTEGRALS IN      4 RECORDS. CPU TIME:     0.85 SEC, REAL TIME:     1.08 SEC

 FILE SIZES:   FILE 1:   759.8 MBYTE,  FILE 4:   566.3 MBYTE,   TOTAL:   1326.0 MBYTE

 OPERATOR DM      FOR CENTER  0  COORDINATES:    0.000000    0.000000    0.000000


 **********************************************************************************************************************************
 DATASETS  * FILE   NREC   LENGTH (MB)   RECORD NAMES
              1      19      421.47       500      610      700      900      950      970     1000      129      960     1100   
                                          VAR    BASINP    GEOM    SYMINP    ZMAT    AOBASIS   BASIS     P2S    ABASIS      S 
                                         1400     1410     1200     1210     1080     1600     1650     1300     1700   
                                           T        V       H0       H01     AOSYM     SMH    MOLCAS    ERIS     OPER   

 PROGRAMS   *        TOTAL       INT
 CPU TIMES  *         5.69      5.57
 REAL TIME  *         7.26 SEC
 DISK USED  *         1.33 GB      
 **********************************************************************************************************************************


 PROGRAM * RHF-SCF (CLOSED SHELL)       Authors: W. Meyer, H.-J. Werner


 NUMBER OF ELECTRONS:       8+    8-
 CONVERGENCE THRESHOLDS:    1.00E-10 (Density)    1.00E-13 (Energy)
 MAX. NUMBER OF ITERATIONS:      500
 INTERPOLATION TYPE:            DIIS
 INTERPOLATION STEPS:              2 (START)      1 (STEP)
 LEVEL SHIFTS:                  0.00 (CLOSED)  0.00 (OPEN) 



 Orbital guess generated from atomic densities. Full valence occupancy:    9   2

 Molecular orbital dump at record        2100.2

 Initial occupancy:   7   1

 ITERATION    DDIFF          GRAD             ENERGY        2-EL.EN.            DIPOLE MOMENTS         DIIS   ORB.
    1      0.000D+00      0.000D+00      -129.78954737    154.119006    0.00000    0.56124   -1.00159    0    start
    2      0.000D+00      0.878D-02      -129.81656776    155.313564    0.00000    0.59373   -0.19423    1    diag
    3      0.360D-02      0.664D-02      -129.83910597    155.422610    0.00000    0.54092   -0.57660    2    diag
    4      0.141D-02      0.103D-02      -129.83988309    155.149618    0.00000    0.54904   -0.51493    3    diag
    5      0.328D-03      0.336D-03      -129.84000389    155.238147    0.00000    0.55521   -0.51749    4    diag
    6      0.153D-03      0.992D-04      -129.84002370    155.221975    0.00000    0.55580   -0.51341    5    diag
    7      0.609D-04      0.495D-04      -129.84002945    155.224612    0.00000    0.55718   -0.51096    6    diag
    8      0.411D-04      0.168D-04      -129.84003005    155.223797    0.00000    0.55723   -0.51007    7    diag
    9      0.140D-04      0.313D-05      -129.84003008    155.223684    0.00000    0.55719   -0.50989    8    diag
   10      0.282D-05      0.720D-06      -129.84003008    155.223669    0.00000    0.55715   -0.50987    9    orth
   11      0.847D-06      0.144D-06      -129.84003008    155.223665    0.00000    0.55714   -0.50986    9    diag
   12      0.203D-06      0.298D-07      -129.84003008    155.223664    0.00000    0.55714   -0.50986    9    diag
   13      0.503D-07      0.787D-08      -129.84003008    155.223664    0.00000    0.55714   -0.50986    9    diag
   14      0.117D-07      0.141D-08      -129.84003008    155.223663    0.00000    0.55714   -0.50986    9    diag
   15      0.155D-08      0.386D-09      -129.84003008    155.223664    0.00000    0.55714   -0.50986    9    diag
   16      0.341D-09      0.117D-09      -129.84003008    155.223663    0.00000    0.55714   -0.50986    9    diag
   17      0.868D-10      0.342D-10      -129.84003008    155.223663    0.00000    0.55714   -0.50986    0    orth

 Final occupancy:   7   1

 !RHF STATE 1.1 Energy               -129.840030076354
 Nuclear energy                        30.40626788
 One-electron energy                 -237.85812970
 Two-electron energy                   77.61183175
 Virial quotient                       -1.00162905
 !RHF STATE 1.1 Dipole moment           0.00000000     0.55713732    -0.50985953
 Dipole moment /Debye                   0.00000000     1.41600907    -1.29584880

 Orbital energies:

         1.1          2.1          3.1          4.1          5.1          6.1          7.1          8.1          9.1
    -20.651134   -15.711278    -1.531281    -0.989534    -0.745358    -0.665440    -0.426895     0.039710     0.192099

         1.2          2.2          3.2
     -0.596314     0.080509     0.239589

 HOMO      7.1    -0.426895 =     -11.6164eV
 LUMO      8.1     0.039710 =       1.0806eV
 LUMO-HOMO         0.466605 =      12.6970eV


 **********************************************************************************************************************************
 DATASETS  * FILE   NREC   LENGTH (MB)   RECORD NAMES
              1      19      421.47       500      610      700      900      950      970     1000      129      960     1100   
                                          VAR    BASINP    GEOM    SYMINP    ZMAT    AOBASIS   BASIS     P2S    ABASIS      S 
                                         1400     1410     1200     1210     1080     1600     1650     1300     1700   
                                           T        V       H0       H01     AOSYM     SMH    MOLCAS    ERIS     OPER   

              2       4        3.13       700     1000      520     2100   
                                         GEOM     BASIS   MCVARS     RHF  

 PROGRAMS   *        TOTAL        HF       INT
 CPU TIMES  *        11.31      5.62      5.57
 REAL TIME  *        14.05 SEC
 DISK USED  *         1.33 GB      
 **********************************************************************************************************************************


 PROGRAM * CCSD (Closed-shell coupled cluster)     Authors: C. Hampel, H.-J. Werner, 1991, M. Deegan, P.J. Knowles, 1992


 Convergence thresholds:  THRVAR = 1.00D-08  THRDEN = 1.00D-12

 CCSD(T)     terms to be evaluated (factor= 1.000)


 Number of closed-shell orbitals:   8 (   7   1 )
 Number of external orbitals:     163 ( 107  56 )

 Molecular orbitals read from record     2100.2  Type=RHF/CANONICAL (state 1.1)

 Number of N-1 electron functions:               8
 Number of N-2 electron functions:              36
 Number of singly external CSFs:               805
 Number of doubly external CSFs:            449165
 Total number of CSFs:                      449971

 Length of J-op  integral file:               0.00 MB
 Length of K-op  integral file:               1.15 MB
 Length of 3-ext integral record:             0.00 MB

 Memory could be reduced to 24.90 Mwords without degradation in triples

 Integral transformation finished. Total CPU:   1.30 sec, npass=  1  Memory used:   6.89 MW

 Reference energy:                   -129.84003008

 MP2 singlet pair energy:              -0.37875463
 MP2 triplet pair energy:              -0.18649554
 MP2 correlation energy:               -0.56525017
 MP2 total energy:                   -130.40528024

 SCS-MP2 correlation energy:           -0.57054722   (PS=  1.200000  PT=  0.333333)
 SCS-MP2 total energy:               -130.41057730

 ITER.      SQ.NORM     CORR.ENERGY   TOTAL ENERGY   ENERGY CHANGE        DEN1      VAR(S)    VAR(P)  DIIS     TIME  TIME/IT
   1      1.11967475    -0.57010507  -130.41013514    -0.00485490     0.01276490  0.34D-02  0.31D-02  1  1     2.86     1.61
   2      1.13051209    -0.56983583  -130.40986591     0.00026924    -0.01365859  0.90D-04  0.50D-03  2  2     4.48     1.65
   3      1.13574744    -0.57016318  -130.41019325    -0.00032735    -0.00235844  0.55D-04  0.67D-04  3  3     6.08     1.67
   4      1.13915719    -0.57015388  -130.41018395     0.00000930    -0.00138113  0.46D-05  0.96D-05  4  4     7.70     1.67
   5      1.14019912    -0.57017824  -130.41020832    -0.00002437    -0.00024566  0.16D-05  0.18D-05  5  5     9.28     1.68
   6      1.14060600    -0.57017240  -130.41020247     0.00000584    -0.00003919  0.15D-06  0.41D-06  6  6    10.88     1.68
   7      1.14069141    -0.57017253  -130.41020261    -0.00000014     0.00000023  0.22D-07  0.91D-07  6  1    12.49     1.68
   8      1.14072606    -0.57017083  -130.41020090     0.00000171    -0.00000478  0.41D-08  0.13D-07  6  2    14.08     1.69
   9      1.14073119    -0.57017088  -130.41020095    -0.00000005     0.00000103  0.17D-08  0.17D-08  6  3    15.68     1.69
  10      1.14073292    -0.57017118  -130.41020126    -0.00000030    -0.00000063  0.39D-09  0.24D-09  6  4    17.27     1.69
  11      1.14073196    -0.57017132  -130.41020139    -0.00000014     0.00000034  0.98D-10  0.25D-10  6  5    18.87     1.69
  12      1.14073106    -0.57017145  -130.41020153    -0.00000013     0.00000035  0.10D-10  0.64D-11  6  6    20.48     1.69
  13      1.14073054    -0.57017146  -130.41020154    -0.00000001     0.00000011  0.44D-11  0.11D-11  6  1    22.07     1.69
  14      1.14073010    -0.57017149  -130.41020156    -0.00000003     0.00000010  0.46D-12  0.39D-12  6  3    23.66     1.69
  15      1.14072994    -0.57017149  -130.41020156    -0.00000000     0.00000002  0.12D-12  0.26D-13  6  2    25.28     1.70
  16      1.14072988    -0.57017149  -130.41020157    -0.00000000     0.00000001  0.26D-13  0.59D-14  6  4    26.90     1.70
  17      1.14072986    -0.57017149  -130.41020157    -0.00000000     0.00000001  0.43D-14  0.11D-14  6  5    28.52     1.70
  18      1.14072986    -0.57017149  -130.41020157    -0.00000000     0.00000000  0.42D-15  0.28D-15  6  6    30.13     1.70
  19      1.14072987    -0.57017149  -130.41020157     0.00000000    -0.00000000  0.51D-16  0.36D-16  6  1    31.71     1.70
  20      1.14072987    -0.57017149  -130.41020157     0.00000000    -0.00000000  0.22D-17  0.74D-17  6  3    33.32     1.70
  21      1.14072987    -0.57017149  -130.41020157     0.00000000    -0.00000000  0.11D-17  0.18D-17  6  2    34.92     1.70
  22      1.14072987    -0.57017149  -130.41020157     0.00000000    -0.00000000  0.17D-18  0.65D-18  6  4    36.51     1.70
  23      1.14072987    -0.57017149  -130.41020157    -0.00000000     0.00000000  0.11D-18  0.10D-18  6  5    38.08     1.70
  24      1.14072987    -0.57017149  -130.41020157     0.00000000    -0.00000000  0.53D-20  0.12D-19  6  1    39.70     1.70
  25      1.14072987    -0.57017149  -130.41020157     0.00000000     0.00000000  0.27D-21  0.13D-20  6  6    41.26     1.70
  26      1.14072987    -0.57017149  -130.41020157    -0.00000000     0.00000000  0.12D-21  0.30D-21  6  3    42.83     1.70

 Norm of t1 vector:      0.07754539      S-energy:     0.00000000      T1 diagnostic:  0.01370822
                                                                       D1 diagnostic:  0.04357027

 Doubles amplitudes (print threshold =  0.500E-01):

         I         J         SYM. A    SYM. B    A         B      T(IJ, AB)

         8         8         2         2         1         1     -0.13328465


 Total CPU time for triples:     25.00 sec


 RESULTS
 =======

  Reference energy                   -129.840030076354

  Correlated core orbitals:             1.1       2.1
  Orbital energies:                   -20.6511  -15.7113
 
  CCSD core-core energy                -0.079231623874
  CCSD core-valence energy             -0.036080958732
  CCSD valence correlation energy      -0.454858908859
 
  CCSD singlet pair energy             -0.407722866691
  CCSD triplet pair energy             -0.162448624781
  CCSD correlation energy              -0.570171491465

  Triples (T) contribution             -0.022228049570
  Total correlation energy             -0.592399541035

  CCSD total energy                  -130.410201567819
  CCSD[T] energy                     -130.433593977433
  CCSD-T energy                      -130.431989933214
 !CCSD(T) total energy               -130.432429617389

 Timing summary (sec):

 STEP                 CPU(USER)    SYS     CPU(TOT)    WALL
 Transformation          1.32      0.19      1.51      1.52
 CCSD iterations        41.52      2.62     44.14     44.14
 Triples                25.00      0.55     25.55     25.56

 Program statistics:

 Available memory in ccsd:               994999644
 Min. memory needed in ccsd:               1368037
 Max. memory used in ccsd:                 1750502
 Max. memory used in cckext:               2014357 (26 integral passes)



 **********************************************************************************************************************************
 DATASETS  * FILE   NREC   LENGTH (MB)   RECORD NAMES
              1      20      500.38       500      610      700      900      950      970     1000      129      960     1100   
                                          VAR    BASINP    GEOM    SYMINP    ZMAT    AOBASIS   BASIS     P2S    ABASIS      S 
                                         1400     1410     1200     1210     1080     1600     1650     1300     1700     1380   
                                           T        V       H0       H01     AOSYM     SMH    MOLCAS    ERIS     OPER     JKOP   

              2       4        3.13       700     1000      520     2100   
                                         GEOM     BASIS   MCVARS     RHF  

 PROGRAMS   *        TOTAL   CCSD(T)        HF       INT
 CPU TIMES  *        79.18     67.87      5.62      5.57
 REAL TIME  *        85.32 SEC
 DISK USED  *         1.33 GB      
 **********************************************************************************************************************************

 CCSD(T)/USERDEF energy=   -130.432429617389

        CCSD(T)         HF-SCF  
   -130.43242962   -129.84003008
 **********************************************************************************************************************************
 Molpro calculation terminated
 Variable memory released
