
 Primary working directories    : /tmp/r2666/235425.maple
 Secondary working directories  : /tmp/r2666/235425.maple
 Wavefunction directory         : /ddn/home4/r2666/wfu/
 Main file repository           : /tmp/r2666/235425.maple/

 SHA1      : d5ffa45e93fdbca01ffc919aa182cfdae0147319
 NAME      : 2015.1.35
 ARCHNAME  : linux/x86_64
 FC        : /opt/intel/composer_xe_2015.1.133/bin/intel64/ifort
 BLASLIB   : -Wl,-_start-group /opt/intel/mkl/lib/intel64/libmkl_intel_ilp64.a /opt/intel/mkl/lib/intel64/libmkl_intel_thread.a /opt/intel/mkl/lib/intel64/libmkl_core.a -Wl,-_end-group
 id        : olemiss

 Nodes     nprocs
 cn096        1

 Using customized tuning parameters: mindgm=1; mindgv=20; mindgc=4; mindgr=1; noblas=0; minvec=7
 default implementation of scratch files=df  

 ***,hno CCSD(T)/TZ-F12 QFF
 memory, 995, m;
 gthresh,energy=1.d-12,zero=1.d-22,oneint=1.d-22,twoint=1.d-22;
 gthresh,optgrad=1.d-8,optstep=1.d-8;
 nocompress;
 geomtyp=xyz
 bohr
 geometry={
 3
         22        22
 N        0.0000000000       -0.1553737754       -1.1390601270
 H        0.0000000000        1.6606306340       -1.9245640821
 O        0.0000000000        0.0365109315        1.1130346182
 }
 
 basis={
 default=aug-cc-pvtz
 s,C,8236.0,1235.0,280.8, 79.27,25.59, 8.997,3.319
 s,C,0.9059,0.3643,0.1285000
 p,C,56.0,18.71,4.133,0.2827,0.3827,0.1209
 d,C,30.0,10.0,3.3,1.097,0.318
 f,C,7.0,2.3,0.7610
 s,N,11420.0,1712.0,389.3,110.0,35.57,12.54,4.644
 s,N,1.293,0.5118,0.1787
 p,N,79.89,26.63,5.948,1.742,0.555,0.1725
 d,N,45.0,15.0,5.0,1.654,0.469
 f,N,9.9,3.3,1.093
 s,O,15330.0,2299.0,522.4,147.3,47.55,16.76,6.207
 s,O,1.752,0.6882,0.2384
 p,O,103.5,34.46,7.749,2.28,0.7156,0.214
 d,O,63.0,21.0,7.0,2.314,0.645
 f,O,12.9,4.3,1.428
 s,mg,164900.0,24710.0,5628.0,1596.0,521.0;
 s,mg,188.0,73.01,29.90,12.54,4.306,1.826;
 s,mg,0.7417,0.0761,0.145,0.033,0.0129;
 p,mg,950.70,316.90,74.86,23.72,8.669,3.363;
 p,mg,1.310,0.4911,0.2364,0.08733,0.03237,0.00745;
 d,mg,1.601,0.686,0.126,0.294,0.0468;
 f,mg,1.372,0.588,0.094,0.252;
 }
   {hf,maxit=500;accu,20;}
 {ccsd(t),nocheck,maxit=250;orbital,IGNORE_ERROR;core}

 Variables initialized (889), CPU time= 0.00 sec
 Commands  initialized (702), CPU time= 0.00 sec, 572 directives.
 Default parameters read. Elapsed time= 0.04 sec

 Checking input...
 Passed
1


                                         ***  PROGRAM SYSTEM MOLPRO  ***
                                       Copyright, TTI GmbH Stuttgart, 2015
                                    Version 2015.1 linked Jul  9 2018 13:16:40


 **********************************************************************************************************************************
 LABEL *   hno CCSD(T)/TZ-F12 QFF                                                        
  64 bit serial version                                                                  DATE: 08-Feb-20          TIME: 17:59:12  
 **********************************************************************************************************************************

 SHA1:             d5ffa45e93fdbca01ffc919aa182cfdae0147319
 **********************************************************************************************************************************

 THRESHOLDS:

 ZERO    =  1.00D-22  ONEINT  =  1.00D-22  TWOINT  =  1.00D-22  PREFAC  =  1.00D-14  LOCALI  =  1.00D-09  EORDER  =  1.00D-04
 ENERGY  =  1.00D-12  ETEST   =  0.00D+00  EDENS   =  0.00D+00  THRDEDEF=  1.00D-06  GRADIENT=  1.00D-02  STEP    =  1.00D-03
 ORBITAL =  1.00D-05  CIVEC   =  1.00D-05  COEFF   =  1.00D-04  PRINTCI =  5.00D-02  PUNCHCI =  9.90D+01  OPTGRAD =  3.00D-04
 OPTENERG=  1.00D-06  OPTSTEP =  3.00D-04  THRGRAD =  1.00D-10  COMPRESS=  1.00D-11  VARMIN  =  1.00D-07  VARMAX  =  1.00D-03
 THRDOUB =  0.00D+00  THRDIV  =  1.00D-05  THRRED  =  1.00D-07  THRPSP  =  1.00D+00  THRDC   =  1.00D-10  THRCS   =  1.00D-10
 THRNRM  =  1.00D-08  THREQ   =  0.00D+00  THRDE   =  1.00D+00  THRREF  =  1.00D-05  SPARFAC =  1.00D+00  THRDLP  =  1.00D-07
 THRDIA  =  1.00D-10  THRDLS  =  1.00D-07  THRGPS  =  0.00D+00  THRKEX  =  0.00D+00  THRDIS  =  2.00D-01  THRVAR  =  1.00D-10
 THRLOC  =  1.00D-06  THRGAP  =  1.00D-06  THRLOCT = -1.00D+00  THRGAPT = -1.00D+00  THRORB  =  1.00D-06  THRMLTP =  0.00D+00
 THRCPQCI=  1.00D-10  KEXTA   =  0.00D+00  THRCOARS=  0.00D+00  SYMTOL  =  1.00D-06  GRADTOL =  1.00D-06  THROVL  =  1.00D-08
 THRORTH =  1.00D-08  GRID    =  1.00D-06  GRIDMAX =  1.00D-03  DTMAX   =  0.00D+00  THROCCDE=  1.00D-01  THROCCDE=  1.00D-01



 THRESHOLDS:

 ZERO    =  1.00D-22  ONEINT  =  1.00D-22  TWOINT  =  1.00D-22  PREFAC  =  1.00D-14  LOCALI  =  1.00D-09  EORDER  =  1.00D-04
 ENERGY  =  1.00D-12  ETEST   =  0.00D+00  EDENS   =  0.00D+00  THRDEDEF=  1.00D-06  GRADIENT=  1.00D-02  STEP    =  1.00D-03
 ORBITAL =  1.00D-05  CIVEC   =  1.00D-05  COEFF   =  1.00D-04  PRINTCI =  5.00D-02  PUNCHCI =  9.90D+01  OPTGRAD =  1.00D-08
 OPTENERG=  1.00D-06  OPTSTEP =  1.00D-08  THRGRAD =  1.00D-10  COMPRESS=  1.00D-11  VARMIN  =  1.00D-07  VARMAX  =  1.00D-03
 THRDOUB =  0.00D+00  THRDIV  =  1.00D-05  THRRED  =  1.00D-07  THRPSP  =  1.00D+00  THRDC   =  1.00D-10  THRCS   =  1.00D-10
 THRNRM  =  1.00D-08  THREQ   =  0.00D+00  THRDE   =  1.00D+00  THRREF  =  1.00D-05  SPARFAC =  1.00D+00  THRDLP  =  1.00D-07
 THRDIA  =  1.00D-10  THRDLS  =  1.00D-07  THRGPS  =  0.00D+00  THRKEX  =  0.00D+00  THRDIS  =  2.00D-01  THRVAR  =  1.00D-10
 THRLOC  =  1.00D-06  THRGAP  =  1.00D-06  THRLOCT = -1.00D+00  THRGAPT = -1.00D+00  THRORB  =  1.00D-06  THRMLTP =  0.00D+00
 THRCPQCI=  1.00D-10  KEXTA   =  0.00D+00  THRCOARS=  0.00D+00  SYMTOL  =  1.00D-06  GRADTOL =  1.00D-06  THROVL  =  1.00D-08
 THRORTH =  1.00D-08  GRID    =  1.00D-06  GRIDMAX =  1.00D-03  DTMAX   =  0.00D+00  THROCCDE=  1.00D-01  THROCCDE=  1.00D-01



 Input parameters for SORTINT:

 COMPRESS =    0.000000
 C_FINAL  =    1.000000
 DEBUG    =   -1.000000
 C_SORT1  =    0.000000
 C_SEWARD =    0.000000
 THRESH   =    0.000000
 IO       =  molpro                                                          
 SPRI     =    0.000000
 SETTING GEOMTYP        =    XYZ
 ZUNIT=BOHR
 

 Variable memory set to  995000000 words,  buffer space   230000 words

 SETTING BASIS          =    USERDEF


 Recomputing integrals since basis changed


 Using spherical harmonics

 Library entry H      S aug-cc-pVTZ          selected for orbital group  2
 Library entry H      P aug-cc-pVTZ          selected for orbital group  2
 Library entry H      D aug-cc-pVTZ          selected for orbital group  2


 PROGRAM * SEWARD (Integral evaluation for generally contracted gaussian basis sets)     Author: Roland Lindh, 1990

 Geometry written to block  1 of record 700


 Point group  Cs  



 ATOMIC COORDINATES

 NR  ATOM    CHARGE       X              Y              Z

   1  N       7.00    0.000000000   -0.155373775   -1.139060127
   2  H       1.00    0.000000000    1.660630634   -1.924564082
   3  O       8.00    0.000000000    0.036510932    1.113034618

 Bond lengths in Bohr (Angstrom)

 1-2  1.978607712  1-3  2.260254517
     ( 1.047034111)     ( 1.196075181)

 Bond angles

  2-1-3  108.52066597

 NUCLEAR CHARGE:                   16
 NUMBER OF PRIMITIVE AOS:         203
 NUMBER OF SYMMETRY AOS:          173
 NUMBER OF CONTRACTIONS:          171   ( 114A'  +  57A"  )
 NUMBER OF CORE ORBITALS:           2   (   2A'  +   0A"  )
 NUMBER OF VALENCE ORBITALS:        9   (   7A'  +   2A"  )


 NUCLEAR REPULSION ENERGY   30.63633664


 Eigenvalues of metric

         1 0.101E-02 0.239E-02 0.326E-02 0.626E-02 0.968E-02 0.136E-01 0.143E-01 0.226E-01
         2 0.356E-01 0.513E-01 0.687E-01 0.940E-01 0.131E+00 0.134E+00 0.140E+00 0.142E+00


 Contracted 2-electron integrals neglected if value below      1.0D-22

       46245794. INTEGRALS WRITTEN OUT IN   11294 BLOCKS ON RECORD 1290 OF FILE 1


 NUMBER OF SORTED TWO-ELECTRON INTEGRALS:   55360566.     BUFFER LENGTH:  32768
 NUMBER OF SEGMENTS:   4  SEGMENT LENGTH:   15997996      RECORD LENGTH: 524288

 Memory used in sort:      16.56 MW

 SORT1 READ    46245794. AND WROTE    46684201. INTEGRALS IN    136 RECORDS. CPU TIME:     0.86 SEC, REAL TIME:     1.22 SEC
 SORT2 READ    46684201. AND WROTE    55360566. INTEGRALS IN      4 RECORDS. CPU TIME:     0.67 SEC, REAL TIME:     0.95 SEC

 FILE SIZES:   FILE 1:   760.9 MBYTE,  FILE 4:   570.5 MBYTE,   TOTAL:   1331.4 MBYTE

 OPERATOR DM      FOR CENTER  0  COORDINATES:    0.000000    0.000000    0.000000


 **********************************************************************************************************************************
 DATASETS  * FILE   NREC   LENGTH (MB)   RECORD NAMES
              1      19      421.91       500      610      700      900      950      970     1000      129      960     1100   
                                          VAR    BASINP    GEOM    SYMINP    ZMAT    AOBASIS   BASIS     P2S    ABASIS      S 
                                         1400     1410     1200     1210     1080     1600     1650     1300     1700   
                                           T        V       H0       H01     AOSYM     SMH    MOLCAS    ERIS     OPER   

 PROGRAMS   *        TOTAL       INT
 CPU TIMES  *         4.79      4.71
 REAL TIME  *         6.63 SEC
 DISK USED  *         1.33 GB      
 **********************************************************************************************************************************


 PROGRAM * RHF-SCF (CLOSED SHELL)       Authors: W. Meyer, H.-J. Werner


 NUMBER OF ELECTRONS:       8+    8-
 CONVERGENCE THRESHOLDS:    1.00E-10 (Density)    1.00E-13 (Energy)
 MAX. NUMBER OF ITERATIONS:      500
 INTERPOLATION TYPE:            DIIS
 INTERPOLATION STEPS:              2 (START)      1 (STEP)
 LEVEL SHIFTS:                  0.00 (CLOSED)  0.00 (OPEN) 



 Orbital guess generated from atomic densities. Full valence occupancy:    9   2

 Molecular orbital dump at record        2100.2

 Initial occupancy:   7   1

 ITERATION    DDIFF          GRAD             ENERGY        2-EL.EN.            DIPOLE MOMENTS         DIIS   ORB.
    1      0.000D+00      0.000D+00      -129.79282616    154.541863    0.00000    0.57018   -0.97595    0    start
    2      0.000D+00      0.865D-02      -129.82004270    155.733448    0.00000    0.59043   -0.20511    1    diag
    3      0.359D-02      0.638D-02      -129.84068542    155.829933    0.00000    0.54380   -0.56798    2    diag
    4      0.136D-02      0.102D-02      -129.84144321    155.564762    0.00000    0.55206   -0.50763    3    diag
    5      0.327D-03      0.330D-03      -129.84155816    155.651464    0.00000    0.55803   -0.51026    4    diag
    6      0.151D-03      0.965D-04      -129.84157676    155.635609    0.00000    0.55866   -0.50637    5    diag
    7      0.601D-04      0.479D-04      -129.84158207    155.638238    0.00000    0.56002   -0.50403    6    diag
    8      0.404D-04      0.158D-04      -129.84158258    155.637471    0.00000    0.56008   -0.50320    7    diag
    9      0.132D-04      0.290D-05      -129.84158261    155.637369    0.00000    0.56003   -0.50304    8    diag
   10      0.260D-05      0.682D-06      -129.84158261    155.637356    0.00000    0.55999   -0.50301    9    orth
   11      0.826D-06      0.137D-06      -129.84158261    155.637352    0.00000    0.55999   -0.50301    9    diag
   12      0.199D-06      0.278D-07      -129.84158261    155.637352    0.00000    0.55998   -0.50301    9    diag
   13      0.479D-07      0.721D-08      -129.84158261    155.637351    0.00000    0.55998   -0.50301    9    diag
   14      0.108D-07      0.131D-08      -129.84158261    155.637351    0.00000    0.55998   -0.50301    9    diag
   15      0.150D-08      0.365D-09      -129.84158261    155.637351    0.00000    0.55998   -0.50301    9    diag
   16      0.329D-09      0.114D-09      -129.84158261    155.637351    0.00000    0.55998   -0.50301    9    diag
   17      0.883D-10      0.330D-10      -129.84158261    155.637351    0.00000    0.55998   -0.50301    9    diag
   18      0.294D-10      0.106D-10      -129.84158261    155.637351    0.00000    0.55998   -0.50301    9    diag
   19      0.107D-10      0.261D-11      -129.84158261    155.637351    0.00000    0.55998   -0.50301    9    fixocc
   20      0.248D-11      0.545D-12      -129.84158261    155.637351    0.00000    0.55998   -0.50301    9    orth
   21      0.301D-12      0.285D-12      -129.84158261    155.637351    0.00000    0.55998   -0.50301    9    diag
   22      0.115D-12      0.452D-12      -129.84158261    155.637351    0.00000    0.55998   -0.50301    9    diag
   23      0.892D-13      0.297D-12      -129.84158261    155.637351    0.00000    0.55998   -0.50301    9    diag
   24      0.304D-13      0.420D-12      -129.84158261    155.637351    0.00000    0.55998   -0.50301    0    orth

 Final occupancy:   7   1

 !RHF STATE 1.1 Energy               -129.841582607060
 Nuclear energy                        30.63633664
 One-electron energy                 -238.29659486
 Two-electron energy                   77.81867561
 Virial quotient                       -1.00121668
 !RHF STATE 1.1 Dipole moment           0.00000000     0.55998305    -0.50300502
 Dipole moment /Debye                   0.00000000     1.42324171    -1.27842749

 Orbital energies:

         1.1          2.1          3.1          4.1          5.1          6.1          7.1          8.1          9.1
    -20.650145   -15.707863    -1.537803    -0.991649    -0.749407    -0.667768    -0.425163     0.039889     0.193845

         1.2          2.2          3.2
     -0.599825     0.083181     0.240020

 HOMO      7.1    -0.425163 =     -11.5693eV
 LUMO      8.1     0.039889 =       1.0854eV
 LUMO-HOMO         0.465052 =      12.6547eV


 **********************************************************************************************************************************
 DATASETS  * FILE   NREC   LENGTH (MB)   RECORD NAMES
              1      19      421.91       500      610      700      900      950      970     1000      129      960     1100   
                                          VAR    BASINP    GEOM    SYMINP    ZMAT    AOBASIS   BASIS     P2S    ABASIS      S 
                                         1400     1410     1200     1210     1080     1600     1650     1300     1700   
                                           T        V       H0       H01     AOSYM     SMH    MOLCAS    ERIS     OPER   

              2       4        3.13       700     1000      520     2100   
                                         GEOM     BASIS   MCVARS     RHF  

 PROGRAMS   *        TOTAL        HF       INT
 CPU TIMES  *        12.18      7.39      4.71
 REAL TIME  *        15.72 SEC
 DISK USED  *         1.33 GB      
 **********************************************************************************************************************************


 PROGRAM * CCSD (Closed-shell coupled cluster)     Authors: C. Hampel, H.-J. Werner, 1991, M. Deegan, P.J. Knowles, 1992


 Convergence thresholds:  THRVAR = 1.00D-08  THRDEN = 1.00D-12

 CCSD(T)     terms to be evaluated (factor= 1.000)


 Number of closed-shell orbitals:   8 (   7   1 )
 Number of external orbitals:     163 ( 107  56 )

 Molecular orbitals read from record     2100.2  Type=RHF/CANONICAL (state 1.1)

 Number of N-1 electron functions:               8
 Number of N-2 electron functions:              36
 Number of singly external CSFs:               805
 Number of doubly external CSFs:            449165
 Total number of CSFs:                      449971

 Length of J-op  integral file:               0.00 MB
 Length of K-op  integral file:               1.15 MB
 Length of 3-ext integral record:             0.00 MB

 Memory could be reduced to 24.90 Mwords without degradation in triples

 Integral transformation finished. Total CPU:   1.03 sec, npass=  1  Memory used:   6.89 MW

 Reference energy:                   -129.84158261

 MP2 singlet pair energy:              -0.37764687
 MP2 triplet pair energy:              -0.18584275
 MP2 correlation energy:               -0.56348962
 MP2 total energy:                   -130.40507223

 SCS-MP2 correlation energy:           -0.56881173   (PS=  1.200000  PT=  0.333333)
 SCS-MP2 total energy:               -130.41039434

 ITER.      SQ.NORM     CORR.ENERGY   TOTAL ENERGY   ENERGY CHANGE        DEN1      VAR(S)    VAR(P)  DIIS     TIME  TIME/IT
   1      1.11834962    -0.56866306  -130.41024566    -0.00517344     0.01197330  0.32D-02  0.30D-02  1  1     2.23     1.26
   2      1.12888502    -0.56846960  -130.41005220     0.00019346    -0.01336046  0.85D-04  0.48D-03  2  2     3.42     1.29
   3      1.13392913    -0.56877943  -130.41036204    -0.00030984    -0.00230414  0.51D-04  0.65D-04  3  3     4.66     1.30
   4      1.13720136    -0.56877095  -130.41035355     0.00000849    -0.00133918  0.41D-05  0.92D-05  4  4     5.89     1.31
   5      1.13817701    -0.56879396  -130.41037657    -0.00002301    -0.00022813  0.15D-05  0.18D-05  5  5     7.08     1.31
   6      1.13856090    -0.56878865  -130.41037125     0.00000531    -0.00003651  0.13D-06  0.42D-06  6  6     8.28     1.31
   7      1.13864378    -0.56878889  -130.41037150    -0.00000025    -0.00000007  0.19D-07  0.91D-07  6  1     9.50     1.32
   8      1.13867722    -0.56878735  -130.41036995     0.00000155    -0.00000453  0.43D-08  0.13D-07  6  2    10.74     1.32
   9      1.13868194    -0.56878746  -130.41037006    -0.00000011     0.00000092  0.17D-08  0.16D-08  6  3    11.96     1.32
  10      1.13868338    -0.56878776  -130.41037036    -0.00000030    -0.00000053  0.38D-09  0.22D-09  6  4    13.19     1.33
  11      1.13868242    -0.56878789  -130.41037049    -0.00000013     0.00000033  0.91D-10  0.22D-10  6  5    14.43     1.33
  12      1.13868156    -0.56878801  -130.41037062    -0.00000012     0.00000033  0.94D-11  0.58D-11  6  6    15.67     1.33
  13      1.13868107    -0.56878802  -130.41037063    -0.00000001     0.00000010  0.40D-11  0.10D-11  6  1    16.84     1.33
  14      1.13868067    -0.56878805  -130.41037065    -0.00000002     0.00000010  0.44D-12  0.35D-12  6  3    18.05     1.33
  15      1.13868052    -0.56878805  -130.41037065    -0.00000000     0.00000002  0.10D-12  0.24D-13  6  2    19.23     1.33
  16      1.13868047    -0.56878805  -130.41037066    -0.00000000     0.00000001  0.23D-13  0.53D-14  6  4    20.44     1.33
  17      1.13868045    -0.56878805  -130.41037066    -0.00000000     0.00000000  0.37D-14  0.98D-15  6  5    21.67     1.33
  18      1.13868045    -0.56878805  -130.41037066    -0.00000000     0.00000000  0.37D-15  0.25D-15  6  6    22.90     1.33
  19      1.13868045    -0.56878805  -130.41037066     0.00000000    -0.00000000  0.42D-16  0.30D-16  6  1    24.14     1.33
  20      1.13868045    -0.56878805  -130.41037066     0.00000000    -0.00000000  0.18D-17  0.59D-17  6  3    25.38     1.33
  21      1.13868045    -0.56878805  -130.41037066     0.00000000    -0.00000000  0.89D-18  0.14D-17  6  2    26.60     1.33
  22      1.13868045    -0.56878805  -130.41037066     0.00000000    -0.00000000  0.15D-18  0.49D-18  6  4    27.82     1.33
  23      1.13868045    -0.56878805  -130.41037066    -0.00000000     0.00000000  0.88D-19  0.77D-19  6  5    29.04     1.33
  24      1.13868045    -0.56878805  -130.41037066     0.00000000    -0.00000000  0.42D-20  0.99D-20  6  1    30.30     1.33
  25      1.13868045    -0.56878805  -130.41037066     0.00000000     0.00000000  0.22D-21  0.11D-20  6  6    31.54     1.33
  26      1.13868045    -0.56878805  -130.41037066    -0.00000000     0.00000000  0.10D-21  0.26D-21  6  3    32.74     1.34

 Norm of t1 vector:      0.07571287      S-energy:     0.00000000      T1 diagnostic:  0.01338427
                                                                       D1 diagnostic:  0.04258243

 Doubles amplitudes (print threshold =  0.500E-01):

         I         J         SYM. A    SYM. B    A         B      T(IJ, AB)

         8         8         2         2         1         1     -0.13102815


 Total CPU time for triples:     20.14 sec


 RESULTS
 =======

  Reference energy                   -129.841582607060

  Correlated core orbitals:             1.1       2.1
  Orbital energies:                   -20.6501  -15.7079
 
  CCSD core-core energy                -0.079225316621
  CCSD core-valence energy             -0.036163853524
  CCSD valence correlation energy      -0.453398878460
 
  CCSD singlet pair energy             -0.406470816730
  CCSD triplet pair energy             -0.162317231875
  CCSD correlation energy              -0.568788048604

  Triples (T) contribution             -0.021883904674
  Total correlation energy             -0.590671953278

  CCSD total energy                  -130.410370655664
  CCSD[T] energy                     -130.433369797798
  CCSD-T energy                      -130.431830147213
 !CCSD(T) total energy               -130.432254560338

 Timing summary (sec):

 STEP                 CPU(USER)    SYS     CPU(TOT)    WALL
 Transformation          1.05      0.21      1.26      1.28
 CCSD iterations        31.70      3.04     34.74     34.73
 Triples                20.14      0.63     20.77     20.78

 Program statistics:

 Available memory in ccsd:               994999644
 Min. memory needed in ccsd:               1368037
 Max. memory used in ccsd:                 1750502
 Max. memory used in cckext:               2014357 (26 integral passes)



 **********************************************************************************************************************************
 DATASETS  * FILE   NREC   LENGTH (MB)   RECORD NAMES
              1      20      500.82       500      610      700      900      950      970     1000      129      960     1100   
                                          VAR    BASINP    GEOM    SYMINP    ZMAT    AOBASIS   BASIS     P2S    ABASIS      S 
                                         1400     1410     1200     1210     1080     1600     1650     1300     1700     1380   
                                           T        V       H0       H01     AOSYM     SMH    MOLCAS    ERIS     OPER     JKOP   

              2       4        3.13       700     1000      520     2100   
                                         GEOM     BASIS   MCVARS     RHF  

 PROGRAMS   *        TOTAL   CCSD(T)        HF       INT
 CPU TIMES  *        65.10     52.92      7.39      4.71
 REAL TIME  *        72.55 SEC
 DISK USED  *         1.33 GB      
 **********************************************************************************************************************************

 CCSD(T)/USERDEF energy=   -130.432254560338

        CCSD(T)         HF-SCF  
   -130.43225456   -129.84158261
 **********************************************************************************************************************************
 Molpro calculation terminated
 Variable memory released
