
 Primary working directories    : /tmp/r2666/235474.maple
 Secondary working directories  : /tmp/r2666/235474.maple
 Wavefunction directory         : /ddn/home4/r2666/wfu/
 Main file repository           : /tmp/r2666/235474.maple/

 SHA1      : d5ffa45e93fdbca01ffc919aa182cfdae0147319
 NAME      : 2015.1.35
 ARCHNAME  : linux/x86_64
 FC        : /opt/intel/composer_xe_2015.1.133/bin/intel64/ifort
 BLASLIB   : -Wl,-_start-group /opt/intel/mkl/lib/intel64/libmkl_intel_ilp64.a /opt/intel/mkl/lib/intel64/libmkl_intel_thread.a /opt/intel/mkl/lib/intel64/libmkl_core.a -Wl,-_end-group
 id        : olemiss

 Nodes     nprocs
 cn033        1

 Using customized tuning parameters: mindgm=1; mindgv=20; mindgc=4; mindgr=1; noblas=0; minvec=7
 default implementation of scratch files=df  

 ***,hno CCSD(T)/TZ-F12 QFF
 memory, 995, m;
 gthresh,energy=1.d-12,zero=1.d-22,oneint=1.d-22,twoint=1.d-22;
 gthresh,optgrad=1.d-8,optstep=1.d-8;
 nocompress;
 geomtyp=xyz
 bohr
 geometry={
 3
         71        71
 N        0.0000000000       -0.1541076093       -1.1387429186
 H        0.0000000000        1.6665123497       -1.9373110021
 O        0.0000000000        0.0293630496        1.1254643297
 }
 
 basis={
 default=aug-cc-pvtz
 s,C,8236.0,1235.0,280.8, 79.27,25.59, 8.997,3.319
 s,C,0.9059,0.3643,0.1285000
 p,C,56.0,18.71,4.133,0.2827,0.3827,0.1209
 d,C,30.0,10.0,3.3,1.097,0.318
 f,C,7.0,2.3,0.7610
 s,N,11420.0,1712.0,389.3,110.0,35.57,12.54,4.644
 s,N,1.293,0.5118,0.1787
 p,N,79.89,26.63,5.948,1.742,0.555,0.1725
 d,N,45.0,15.0,5.0,1.654,0.469
 f,N,9.9,3.3,1.093
 s,O,15330.0,2299.0,522.4,147.3,47.55,16.76,6.207
 s,O,1.752,0.6882,0.2384
 p,O,103.5,34.46,7.749,2.28,0.7156,0.214
 d,O,63.0,21.0,7.0,2.314,0.645
 f,O,12.9,4.3,1.428
 s,mg,164900.0,24710.0,5628.0,1596.0,521.0;
 s,mg,188.0,73.01,29.90,12.54,4.306,1.826;
 s,mg,0.7417,0.0761,0.145,0.033,0.0129;
 p,mg,950.70,316.90,74.86,23.72,8.669,3.363;
 p,mg,1.310,0.4911,0.2364,0.08733,0.03237,0.00745;
 d,mg,1.601,0.686,0.126,0.294,0.0468;
 f,mg,1.372,0.588,0.094,0.252;
 }
   {hf,maxit=500;accu,20;}
 {ccsd(t),nocheck,maxit=250;orbital,IGNORE_ERROR;core}

 Variables initialized (889), CPU time= 0.00 sec
 Commands  initialized (702), CPU time= 0.00 sec, 572 directives.
 Default parameters read. Elapsed time= 0.05 sec

 Checking input...
 Passed
1


                                         ***  PROGRAM SYSTEM MOLPRO  ***
                                       Copyright, TTI GmbH Stuttgart, 2015
                                    Version 2015.1 linked Jul  9 2018 13:16:40


 **********************************************************************************************************************************
 LABEL *   hno CCSD(T)/TZ-F12 QFF                                                        
  64 bit serial version                                                                  DATE: 08-Feb-20          TIME: 18:00:14  
 **********************************************************************************************************************************

 SHA1:             d5ffa45e93fdbca01ffc919aa182cfdae0147319
 **********************************************************************************************************************************

 THRESHOLDS:

 ZERO    =  1.00D-22  ONEINT  =  1.00D-22  TWOINT  =  1.00D-22  PREFAC  =  1.00D-14  LOCALI  =  1.00D-09  EORDER  =  1.00D-04
 ENERGY  =  1.00D-12  ETEST   =  0.00D+00  EDENS   =  0.00D+00  THRDEDEF=  1.00D-06  GRADIENT=  1.00D-02  STEP    =  1.00D-03
 ORBITAL =  1.00D-05  CIVEC   =  1.00D-05  COEFF   =  1.00D-04  PRINTCI =  5.00D-02  PUNCHCI =  9.90D+01  OPTGRAD =  3.00D-04
 OPTENERG=  1.00D-06  OPTSTEP =  3.00D-04  THRGRAD =  1.00D-10  COMPRESS=  1.00D-11  VARMIN  =  1.00D-07  VARMAX  =  1.00D-03
 THRDOUB =  0.00D+00  THRDIV  =  1.00D-05  THRRED  =  1.00D-07  THRPSP  =  1.00D+00  THRDC   =  1.00D-10  THRCS   =  1.00D-10
 THRNRM  =  1.00D-08  THREQ   =  0.00D+00  THRDE   =  1.00D+00  THRREF  =  1.00D-05  SPARFAC =  1.00D+00  THRDLP  =  1.00D-07
 THRDIA  =  1.00D-10  THRDLS  =  1.00D-07  THRGPS  =  0.00D+00  THRKEX  =  0.00D+00  THRDIS  =  2.00D-01  THRVAR  =  1.00D-10
 THRLOC  =  1.00D-06  THRGAP  =  1.00D-06  THRLOCT = -1.00D+00  THRGAPT = -1.00D+00  THRORB  =  1.00D-06  THRMLTP =  0.00D+00
 THRCPQCI=  1.00D-10  KEXTA   =  0.00D+00  THRCOARS=  0.00D+00  SYMTOL  =  1.00D-06  GRADTOL =  1.00D-06  THROVL  =  1.00D-08
 THRORTH =  1.00D-08  GRID    =  1.00D-06  GRIDMAX =  1.00D-03  DTMAX   =  0.00D+00  THROCCDE=  1.00D-01  THROCCDE=  1.00D-01



 THRESHOLDS:

 ZERO    =  1.00D-22  ONEINT  =  1.00D-22  TWOINT  =  1.00D-22  PREFAC  =  1.00D-14  LOCALI  =  1.00D-09  EORDER  =  1.00D-04
 ENERGY  =  1.00D-12  ETEST   =  0.00D+00  EDENS   =  0.00D+00  THRDEDEF=  1.00D-06  GRADIENT=  1.00D-02  STEP    =  1.00D-03
 ORBITAL =  1.00D-05  CIVEC   =  1.00D-05  COEFF   =  1.00D-04  PRINTCI =  5.00D-02  PUNCHCI =  9.90D+01  OPTGRAD =  1.00D-08
 OPTENERG=  1.00D-06  OPTSTEP =  1.00D-08  THRGRAD =  1.00D-10  COMPRESS=  1.00D-11  VARMIN  =  1.00D-07  VARMAX  =  1.00D-03
 THRDOUB =  0.00D+00  THRDIV  =  1.00D-05  THRRED  =  1.00D-07  THRPSP  =  1.00D+00  THRDC   =  1.00D-10  THRCS   =  1.00D-10
 THRNRM  =  1.00D-08  THREQ   =  0.00D+00  THRDE   =  1.00D+00  THRREF  =  1.00D-05  SPARFAC =  1.00D+00  THRDLP  =  1.00D-07
 THRDIA  =  1.00D-10  THRDLS  =  1.00D-07  THRGPS  =  0.00D+00  THRKEX  =  0.00D+00  THRDIS  =  2.00D-01  THRVAR  =  1.00D-10
 THRLOC  =  1.00D-06  THRGAP  =  1.00D-06  THRLOCT = -1.00D+00  THRGAPT = -1.00D+00  THRORB  =  1.00D-06  THRMLTP =  0.00D+00
 THRCPQCI=  1.00D-10  KEXTA   =  0.00D+00  THRCOARS=  0.00D+00  SYMTOL  =  1.00D-06  GRADTOL =  1.00D-06  THROVL  =  1.00D-08
 THRORTH =  1.00D-08  GRID    =  1.00D-06  GRIDMAX =  1.00D-03  DTMAX   =  0.00D+00  THROCCDE=  1.00D-01  THROCCDE=  1.00D-01



 Input parameters for SORTINT:

 COMPRESS =    0.000000
 C_FINAL  =    1.000000
 DEBUG    =   -1.000000
 C_SORT1  =    0.000000
 C_SEWARD =    0.000000
 THRESH   =    0.000000
 IO       =  molpro                                                          
 SPRI     =    0.000000
 SETTING GEOMTYP        =    XYZ
 ZUNIT=BOHR
 

 Variable memory set to  995000000 words,  buffer space   230000 words

 SETTING BASIS          =    USERDEF


 Recomputing integrals since basis changed


 Using spherical harmonics

 Library entry H      S aug-cc-pVTZ          selected for orbital group  2
 Library entry H      P aug-cc-pVTZ          selected for orbital group  2
 Library entry H      D aug-cc-pVTZ          selected for orbital group  2


 PROGRAM * SEWARD (Integral evaluation for generally contracted gaussian basis sets)     Author: Roland Lindh, 1990

 Geometry written to block  1 of record 700


 Point group  Cs  



 ATOMIC COORDINATES

 NR  ATOM    CHARGE       X              Y              Z

   1  N       7.00    0.000000000   -0.154107609   -1.138742919
   2  H       1.00    0.000000000    1.666512350   -1.937311002
   3  O       8.00    0.000000000    0.029363050    1.125464330

 Bond lengths in Bohr (Angstrom)

 1-2  1.988056342  1-3  2.271628479
     ( 1.052034110)     ( 1.202094023)

 Bond angles

  2-1-3  109.05081738

 NUCLEAR CHARGE:                   16
 NUMBER OF PRIMITIVE AOS:         203
 NUMBER OF SYMMETRY AOS:          173
 NUMBER OF CONTRACTIONS:          171   ( 114A'  +  57A"  )
 NUMBER OF CORE ORBITALS:           2   (   2A'  +   0A"  )
 NUMBER OF VALENCE ORBITALS:        9   (   7A'  +   2A"  )


 NUCLEAR REPULSION ENERGY   30.47651332


 Eigenvalues of metric

         1 0.103E-02 0.244E-02 0.331E-02 0.633E-02 0.984E-02 0.137E-01 0.144E-01 0.229E-01
         2 0.362E-01 0.522E-01 0.692E-01 0.941E-01 0.131E+00 0.134E+00 0.140E+00 0.142E+00


 Contracted 2-electron integrals neglected if value below      1.0D-22

       46192889. INTEGRALS WRITTEN OUT IN   11281 BLOCKS ON RECORD 1290 OF FILE 1


 NUMBER OF SORTED TWO-ELECTRON INTEGRALS:   55360566.     BUFFER LENGTH:  32768
 NUMBER OF SEGMENTS:   4  SEGMENT LENGTH:   15997996      RECORD LENGTH: 524288

 Memory used in sort:      16.56 MW

 SORT1 READ    46192889. AND WROTE    46630859. INTEGRALS IN    135 RECORDS. CPU TIME:     1.34 SEC, REAL TIME:     1.67 SEC
 SORT2 READ    46630859. AND WROTE    55360566. INTEGRALS IN      4 RECORDS. CPU TIME:     0.70 SEC, REAL TIME:     1.01 SEC

 FILE SIZES:   FILE 1:   760.0 MBYTE,  FILE 4:   566.3 MBYTE,   TOTAL:   1326.3 MBYTE

 OPERATOR DM      FOR CENTER  0  COORDINATES:    0.000000    0.000000    0.000000


 **********************************************************************************************************************************
 DATASETS  * FILE   NREC   LENGTH (MB)   RECORD NAMES
              1      19      421.56       500      610      700      900      950      970     1000      129      960     1100   
                                          VAR    BASINP    GEOM    SYMINP    ZMAT    AOBASIS   BASIS     P2S    ABASIS      S 
                                         1400     1410     1200     1210     1080     1600     1650     1300     1700   
                                           T        V       H0       H01     AOSYM     SMH    MOLCAS    ERIS     OPER   

 PROGRAMS   *        TOTAL       INT
 CPU TIMES  *         5.81      5.72
 REAL TIME  *         7.47 SEC
 DISK USED  *         1.33 GB      
 **********************************************************************************************************************************


 PROGRAM * RHF-SCF (CLOSED SHELL)       Authors: W. Meyer, H.-J. Werner


 NUMBER OF ELECTRONS:       8+    8-
 CONVERGENCE THRESHOLDS:    1.00E-10 (Density)    1.00E-13 (Energy)
 MAX. NUMBER OF ITERATIONS:      500
 INTERPOLATION TYPE:            DIIS
 INTERPOLATION STEPS:              2 (START)      1 (STEP)
 LEVEL SHIFTS:                  0.00 (CLOSED)  0.00 (OPEN) 



 Orbital guess generated from atomic densities. Full valence occupancy:    9   2

 Molecular orbital dump at record        2100.2

 Initial occupancy:   7   1

 ITERATION    DDIFF          GRAD             ENERGY        2-EL.EN.            DIPOLE MOMENTS         DIIS   ORB.
    1      0.000D+00      0.000D+00      -129.79093991    154.249679    0.00000    0.57430   -0.99682    0    start
    2      0.000D+00      0.872D-02      -129.81800135    155.439122    0.00000    0.59348   -0.20272    1    diag
    3      0.361D-02      0.653D-02      -129.83974266    155.546391    0.00000    0.54706   -0.57837    2    diag
    4      0.139D-02      0.103D-02      -129.84051589    155.275794    0.00000    0.55488   -0.51679    3    diag
    5      0.330D-03      0.334D-03      -129.84063383    155.363574    0.00000    0.56097   -0.51937    4    diag
    6      0.152D-03      0.977D-04      -129.84065299    155.347581    0.00000    0.56159   -0.51536    5    diag
    7      0.605D-04      0.487D-04      -129.84065855    155.350176    0.00000    0.56294   -0.51294    6    diag
    8      0.409D-04      0.164D-04      -129.84065912    155.349383    0.00000    0.56300   -0.51207    7    diag
    9      0.137D-04      0.305D-05      -129.84065914    155.349274    0.00000    0.56295   -0.51190    8    diag
   10      0.275D-05      0.709D-06      -129.84065914    155.349260    0.00000    0.56291   -0.51187    9    orth
   11      0.848D-06      0.142D-06      -129.84065914    155.349256    0.00000    0.56291   -0.51187    9    diag
   12      0.202D-06      0.289D-07      -129.84065914    155.349255    0.00000    0.56290   -0.51187    9    diag
   13      0.489D-07      0.756D-08      -129.84065914    155.349255    0.00000    0.56290   -0.51186    9    diag
   14      0.112D-07      0.135D-08      -129.84065914    155.349255    0.00000    0.56290   -0.51186    9    diag
   15      0.150D-08      0.369D-09      -129.84065914    155.349255    0.00000    0.56290   -0.51186    9    diag
   16      0.329D-09      0.111D-09      -129.84065914    155.349255    0.00000    0.56290   -0.51186    9    diag
   17      0.814D-10      0.317D-10      -129.84065914    155.349255    0.00000    0.56290   -0.51186    0    orth

 Final occupancy:   7   1

 !RHF STATE 1.1 Energy               -129.840659144670
 Nuclear energy                        30.47651332
 One-electron energy                 -237.99179983
 Two-electron energy                   77.67462737
 Virial quotient                       -1.00147973
 !RHF STATE 1.1 Dipole moment           0.00000000     0.56290289    -0.51186467
 Dipole moment /Debye                   0.00000000     1.43066273    -1.30094500

 Orbital energies:

         1.1          2.1          3.1          4.1          5.1          6.1          7.1          8.1          9.1
    -20.650943   -15.709454    -1.532452    -0.992084    -0.746962    -0.666111    -0.426357     0.039711     0.193041

         1.2          2.2          3.2
     -0.596911     0.080938     0.239826

 HOMO      7.1    -0.426357 =     -11.6018eV
 LUMO      8.1     0.039711 =       1.0806eV
 LUMO-HOMO         0.466068 =      12.6824eV


 **********************************************************************************************************************************
 DATASETS  * FILE   NREC   LENGTH (MB)   RECORD NAMES
              1      19      421.56       500      610      700      900      950      970     1000      129      960     1100   
                                          VAR    BASINP    GEOM    SYMINP    ZMAT    AOBASIS   BASIS     P2S    ABASIS      S 
                                         1400     1410     1200     1210     1080     1600     1650     1300     1700   
                                           T        V       H0       H01     AOSYM     SMH    MOLCAS    ERIS     OPER   

              2       4        3.13       700     1000      520     2100   
                                         GEOM     BASIS   MCVARS     RHF  

 PROGRAMS   *        TOTAL        HF       INT
 CPU TIMES  *        10.77      4.96      5.72
 REAL TIME  *        13.71 SEC
 DISK USED  *         1.33 GB      
 **********************************************************************************************************************************


 PROGRAM * CCSD (Closed-shell coupled cluster)     Authors: C. Hampel, H.-J. Werner, 1991, M. Deegan, P.J. Knowles, 1992


 Convergence thresholds:  THRVAR = 1.00D-08  THRDEN = 1.00D-12

 CCSD(T)     terms to be evaluated (factor= 1.000)


 Number of closed-shell orbitals:   8 (   7   1 )
 Number of external orbitals:     163 ( 107  56 )

 Molecular orbitals read from record     2100.2  Type=RHF/CANONICAL (state 1.1)

 Number of N-1 electron functions:               8
 Number of N-2 electron functions:              36
 Number of singly external CSFs:               805
 Number of doubly external CSFs:            449165
 Total number of CSFs:                      449971

 Length of J-op  integral file:               0.00 MB
 Length of K-op  integral file:               1.15 MB
 Length of 3-ext integral record:             0.00 MB

 Memory could be reduced to 24.90 Mwords without degradation in triples

 Integral transformation finished. Total CPU:   1.05 sec, npass=  1  Memory used:   6.89 MW

 Reference energy:                   -129.84065914

 MP2 singlet pair energy:              -0.37834902
 MP2 triplet pair energy:              -0.18626870
 MP2 correlation energy:               -0.56461772
 MP2 total energy:                   -130.40527686

 SCS-MP2 correlation energy:           -0.56991935   (PS=  1.200000  PT=  0.333333)
 SCS-MP2 total energy:               -130.41057849

 ITER.      SQ.NORM     CORR.ENERGY   TOTAL ENERGY   ENERGY CHANGE        DEN1      VAR(S)    VAR(P)  DIIS     TIME  TIME/IT
   1      1.11916289    -0.56956242  -130.41022157    -0.00494470     0.01251905  0.33D-02  0.30D-02  1  1     2.25     1.24
   2      1.12989733    -0.56931280  -130.40997194     0.00024963    -0.01355853  0.88D-04  0.49D-03  2  2     3.48     1.28
   3      1.13506674    -0.56963359  -130.41029274    -0.00032079    -0.00233585  0.54D-04  0.67D-04  3  3     4.67     1.30
   4      1.13843687    -0.56962489  -130.41028403     0.00000870    -0.00136702  0.44D-05  0.96D-05  4  4     5.87     1.30
   5      1.13946189    -0.56964875  -130.41030790    -0.00002387    -0.00024047  0.16D-05  0.19D-05  5  5     7.09     1.31
   6      1.13986414    -0.56964302  -130.41030217     0.00000573    -0.00003856  0.14D-06  0.42D-06  6  6     8.31     1.31
   7      1.13994926    -0.56964327  -130.41030241    -0.00000024     0.00000015  0.20D-07  0.94D-07  6  1     9.54     1.31
   8      1.13998364    -0.56964163  -130.41030077     0.00000164    -0.00000471  0.43D-08  0.13D-07  6  2    10.77     1.32
   9      1.13998862    -0.56964170  -130.41030085    -0.00000008     0.00000100  0.18D-08  0.17D-08  6  3    12.03     1.32
  10      1.13999022    -0.56964201  -130.41030116    -0.00000031    -0.00000060  0.41D-09  0.24D-09  6  4    13.25     1.32
  11      1.13998924    -0.56964215  -130.41030130    -0.00000014     0.00000034  0.99D-10  0.25D-10  6  5    14.50     1.32
  12      1.13998834    -0.56964228  -130.41030143    -0.00000013     0.00000035  0.10D-10  0.64D-11  6  6    15.71     1.32
  13      1.13998782    -0.56964229  -130.41030144    -0.00000001     0.00000011  0.44D-11  0.11D-11  6  1    16.90     1.32
  14      1.13998739    -0.56964232  -130.41030146    -0.00000003     0.00000010  0.47D-12  0.39D-12  6  3    18.12     1.32
  15      1.13998722    -0.56964232  -130.41030147    -0.00000000     0.00000002  0.11D-12  0.26D-13  6  2    19.35     1.32
  16      1.13998717    -0.56964232  -130.41030147    -0.00000000     0.00000001  0.25D-13  0.59D-14  6  4    20.55     1.32
  17      1.13998715    -0.56964232  -130.41030147    -0.00000000     0.00000001  0.42D-14  0.11D-14  6  5    21.79     1.32
  18      1.13998715    -0.56964232  -130.41030147    -0.00000000     0.00000000  0.42D-15  0.27D-15  6  6    23.01     1.32
  19      1.13998715    -0.56964232  -130.41030147     0.00000000    -0.00000000  0.50D-16  0.34D-16  6  1    24.15     1.32
  20      1.13998715    -0.56964232  -130.41030147     0.00000000    -0.00000000  0.21D-17  0.71D-17  6  3    25.36     1.32
  21      1.13998715    -0.56964232  -130.41030147     0.00000000    -0.00000000  0.11D-17  0.17D-17  6  2    26.55     1.32
  22      1.13998715    -0.56964232  -130.41030147     0.00000000    -0.00000000  0.18D-18  0.62D-18  6  4    27.75     1.32
  23      1.13998715    -0.56964232  -130.41030147    -0.00000000     0.00000000  0.11D-18  0.95D-19  6  5    29.01     1.32
  24      1.13998715    -0.56964232  -130.41030147     0.00000000    -0.00000000  0.49D-20  0.12D-19  6  1    30.19     1.33
  25      1.13998715    -0.56964232  -130.41030147     0.00000000     0.00000000  0.26D-21  0.13D-20  6  6    31.39     1.33
  26      1.13998715    -0.56964232  -130.41030147    -0.00000000     0.00000000  0.12D-21  0.30D-21  6  3    32.61     1.33

 Norm of t1 vector:      0.07701793      S-energy:     0.00000000      T1 diagnostic:  0.01361498
                                                                       D1 diagnostic:  0.04339177

 Doubles amplitudes (print threshold =  0.500E-01):

         I         J         SYM. A    SYM. B    A         B      T(IJ, AB)

         8         8         2         2         1         1     -0.13270607


 Total CPU time for triples:     19.67 sec


 RESULTS
 =======

  Reference energy                   -129.840659144670

  Correlated core orbitals:             1.1       2.1
  Orbital energies:                   -20.6509  -15.7095
 
  CCSD core-core energy                -0.079230274288
  CCSD core-valence energy             -0.036113162832
  CCSD valence correlation energy      -0.454298886646
 
  CCSD singlet pair energy             -0.407245591785
  CCSD triplet pair energy             -0.162396731989
  CCSD correlation energy              -0.569642323767

  Triples (T) contribution             -0.022109848443
  Total correlation energy             -0.591752172209

  CCSD total energy                  -130.410301468437
  CCSD[T] energy                     -130.433560844398
  CCSD-T energy                      -130.431976927968
 !CCSD(T) total energy               -130.432411316879

 Timing summary (sec):

 STEP                 CPU(USER)    SYS     CPU(TOT)    WALL
 Transformation          1.07      0.20      1.27      1.28
 CCSD iterations        31.56      2.93     34.49     34.48
 Triples                19.67      0.61     20.28     20.29

 Program statistics:

 Available memory in ccsd:               994999644
 Min. memory needed in ccsd:               1368037
 Max. memory used in ccsd:                 1750502
 Max. memory used in cckext:               2014357 (26 integral passes)



 **********************************************************************************************************************************
 DATASETS  * FILE   NREC   LENGTH (MB)   RECORD NAMES
              1      20      500.48       500      610      700      900      950      970     1000      129      960     1100   
                                          VAR    BASINP    GEOM    SYMINP    ZMAT    AOBASIS   BASIS     P2S    ABASIS      S 
                                         1400     1410     1200     1210     1080     1600     1650     1300     1700     1380   
                                           T        V       H0       H01     AOSYM     SMH    MOLCAS    ERIS     OPER     JKOP   

              2       4        3.13       700     1000      520     2100   
                                         GEOM     BASIS   MCVARS     RHF  

 PROGRAMS   *        TOTAL   CCSD(T)        HF       INT
 CPU TIMES  *        63.10     52.32      4.96      5.72
 REAL TIME  *        69.80 SEC
 DISK USED  *         1.33 GB      
 **********************************************************************************************************************************

 CCSD(T)/USERDEF energy=   -130.432411316879

        CCSD(T)         HF-SCF  
   -130.43241132   -129.84065914
 **********************************************************************************************************************************
 Molpro calculation terminated
 Variable memory released
