
 Primary working directories    : /tmp/r2666/235465.maple
 Secondary working directories  : /tmp/r2666/235465.maple
 Wavefunction directory         : /ddn/home4/r2666/wfu/
 Main file repository           : /tmp/r2666/235465.maple/

 SHA1      : d5ffa45e93fdbca01ffc919aa182cfdae0147319
 NAME      : 2015.1.35
 ARCHNAME  : linux/x86_64
 FC        : /opt/intel/composer_xe_2015.1.133/bin/intel64/ifort
 BLASLIB   : -Wl,-_start-group /opt/intel/mkl/lib/intel64/libmkl_intel_ilp64.a /opt/intel/mkl/lib/intel64/libmkl_intel_thread.a /opt/intel/mkl/lib/intel64/libmkl_core.a -Wl,-_end-group
 id        : olemiss

 Nodes     nprocs
 cn095        1

 Using customized tuning parameters: mindgm=1; mindgv=20; mindgc=4; mindgr=1; noblas=0; minvec=7
 default implementation of scratch files=df  

 ***,hno CCSD(T)/TZ-F12 QFF
 memory, 995, m;
 gthresh,energy=1.d-12,zero=1.d-22,oneint=1.d-22,twoint=1.d-22;
 gthresh,optgrad=1.d-8,optstep=1.d-8;
 nocompress;
 geomtyp=xyz
 bohr
 geometry={
 3
         62        62
 N        0.0000000000       -0.1493853931       -1.1250058691
 H        0.0000000000        1.6645718866       -1.9385948359
 O        0.0000000000        0.0265812965        1.1130111140
 }
 
 basis={
 default=aug-cc-pvtz
 s,C,8236.0,1235.0,280.8, 79.27,25.59, 8.997,3.319
 s,C,0.9059,0.3643,0.1285000
 p,C,56.0,18.71,4.133,0.2827,0.3827,0.1209
 d,C,30.0,10.0,3.3,1.097,0.318
 f,C,7.0,2.3,0.7610
 s,N,11420.0,1712.0,389.3,110.0,35.57,12.54,4.644
 s,N,1.293,0.5118,0.1787
 p,N,79.89,26.63,5.948,1.742,0.555,0.1725
 d,N,45.0,15.0,5.0,1.654,0.469
 f,N,9.9,3.3,1.093
 s,O,15330.0,2299.0,522.4,147.3,47.55,16.76,6.207
 s,O,1.752,0.6882,0.2384
 p,O,103.5,34.46,7.749,2.28,0.7156,0.214
 d,O,63.0,21.0,7.0,2.314,0.645
 f,O,12.9,4.3,1.428
 s,mg,164900.0,24710.0,5628.0,1596.0,521.0;
 s,mg,188.0,73.01,29.90,12.54,4.306,1.826;
 s,mg,0.7417,0.0761,0.145,0.033,0.0129;
 p,mg,950.70,316.90,74.86,23.72,8.669,3.363;
 p,mg,1.310,0.4911,0.2364,0.08733,0.03237,0.00745;
 d,mg,1.601,0.686,0.126,0.294,0.0468;
 f,mg,1.372,0.588,0.094,0.252;
 }
   {hf,maxit=500;accu,20;}
 {ccsd(t),nocheck,maxit=250;orbital,IGNORE_ERROR;core}

 Variables initialized (889), CPU time= 0.00 sec
 Commands  initialized (702), CPU time= 0.01 sec, 572 directives.
 Default parameters read. Elapsed time= 0.05 sec

 Checking input...
 Passed
1


                                         ***  PROGRAM SYSTEM MOLPRO  ***
                                       Copyright, TTI GmbH Stuttgart, 2015
                                    Version 2015.1 linked Jul  9 2018 13:16:40


 **********************************************************************************************************************************
 LABEL *   hno CCSD(T)/TZ-F12 QFF                                                        
  64 bit serial version                                                                  DATE: 08-Feb-20          TIME: 17:59:40  
 **********************************************************************************************************************************

 SHA1:             d5ffa45e93fdbca01ffc919aa182cfdae0147319
 **********************************************************************************************************************************

 THRESHOLDS:

 ZERO    =  1.00D-22  ONEINT  =  1.00D-22  TWOINT  =  1.00D-22  PREFAC  =  1.00D-14  LOCALI  =  1.00D-09  EORDER  =  1.00D-04
 ENERGY  =  1.00D-12  ETEST   =  0.00D+00  EDENS   =  0.00D+00  THRDEDEF=  1.00D-06  GRADIENT=  1.00D-02  STEP    =  1.00D-03
 ORBITAL =  1.00D-05  CIVEC   =  1.00D-05  COEFF   =  1.00D-04  PRINTCI =  5.00D-02  PUNCHCI =  9.90D+01  OPTGRAD =  3.00D-04
 OPTENERG=  1.00D-06  OPTSTEP =  3.00D-04  THRGRAD =  1.00D-10  COMPRESS=  1.00D-11  VARMIN  =  1.00D-07  VARMAX  =  1.00D-03
 THRDOUB =  0.00D+00  THRDIV  =  1.00D-05  THRRED  =  1.00D-07  THRPSP  =  1.00D+00  THRDC   =  1.00D-10  THRCS   =  1.00D-10
 THRNRM  =  1.00D-08  THREQ   =  0.00D+00  THRDE   =  1.00D+00  THRREF  =  1.00D-05  SPARFAC =  1.00D+00  THRDLP  =  1.00D-07
 THRDIA  =  1.00D-10  THRDLS  =  1.00D-07  THRGPS  =  0.00D+00  THRKEX  =  0.00D+00  THRDIS  =  2.00D-01  THRVAR  =  1.00D-10
 THRLOC  =  1.00D-06  THRGAP  =  1.00D-06  THRLOCT = -1.00D+00  THRGAPT = -1.00D+00  THRORB  =  1.00D-06  THRMLTP =  0.00D+00
 THRCPQCI=  1.00D-10  KEXTA   =  0.00D+00  THRCOARS=  0.00D+00  SYMTOL  =  1.00D-06  GRADTOL =  1.00D-06  THROVL  =  1.00D-08
 THRORTH =  1.00D-08  GRID    =  1.00D-06  GRIDMAX =  1.00D-03  DTMAX   =  0.00D+00  THROCCDE=  1.00D-01  THROCCDE=  1.00D-01



 THRESHOLDS:

 ZERO    =  1.00D-22  ONEINT  =  1.00D-22  TWOINT  =  1.00D-22  PREFAC  =  1.00D-14  LOCALI  =  1.00D-09  EORDER  =  1.00D-04
 ENERGY  =  1.00D-12  ETEST   =  0.00D+00  EDENS   =  0.00D+00  THRDEDEF=  1.00D-06  GRADIENT=  1.00D-02  STEP    =  1.00D-03
 ORBITAL =  1.00D-05  CIVEC   =  1.00D-05  COEFF   =  1.00D-04  PRINTCI =  5.00D-02  PUNCHCI =  9.90D+01  OPTGRAD =  1.00D-08
 OPTENERG=  1.00D-06  OPTSTEP =  1.00D-08  THRGRAD =  1.00D-10  COMPRESS=  1.00D-11  VARMIN  =  1.00D-07  VARMAX  =  1.00D-03
 THRDOUB =  0.00D+00  THRDIV  =  1.00D-05  THRRED  =  1.00D-07  THRPSP  =  1.00D+00  THRDC   =  1.00D-10  THRCS   =  1.00D-10
 THRNRM  =  1.00D-08  THREQ   =  0.00D+00  THRDE   =  1.00D+00  THRREF  =  1.00D-05  SPARFAC =  1.00D+00  THRDLP  =  1.00D-07
 THRDIA  =  1.00D-10  THRDLS  =  1.00D-07  THRGPS  =  0.00D+00  THRKEX  =  0.00D+00  THRDIS  =  2.00D-01  THRVAR  =  1.00D-10
 THRLOC  =  1.00D-06  THRGAP  =  1.00D-06  THRLOCT = -1.00D+00  THRGAPT = -1.00D+00  THRORB  =  1.00D-06  THRMLTP =  0.00D+00
 THRCPQCI=  1.00D-10  KEXTA   =  0.00D+00  THRCOARS=  0.00D+00  SYMTOL  =  1.00D-06  GRADTOL =  1.00D-06  THROVL  =  1.00D-08
 THRORTH =  1.00D-08  GRID    =  1.00D-06  GRIDMAX =  1.00D-03  DTMAX   =  0.00D+00  THROCCDE=  1.00D-01  THROCCDE=  1.00D-01



 Input parameters for SORTINT:

 COMPRESS =    0.000000
 C_FINAL  =    1.000000
 DEBUG    =   -1.000000
 C_SORT1  =    0.000000
 C_SEWARD =    0.000000
 THRESH   =    0.000000
 IO       =  molpro                                                          
 SPRI     =    0.000000
 SETTING GEOMTYP        =    XYZ
 ZUNIT=BOHR
 

 Variable memory set to  995000000 words,  buffer space   230000 words

 SETTING BASIS          =    USERDEF


 Recomputing integrals since basis changed


 Using spherical harmonics

 Library entry H      S aug-cc-pVTZ          selected for orbital group  2
 Library entry H      P aug-cc-pVTZ          selected for orbital group  2
 Library entry H      D aug-cc-pVTZ          selected for orbital group  2


 PROGRAM * SEWARD (Integral evaluation for generally contracted gaussian basis sets)     Author: Roland Lindh, 1990

 Geometry written to block  1 of record 700


 Point group  Cs  



 ATOMIC COORDINATES

 NR  ATOM    CHARGE       X              Y              Z

   1  N       7.00    0.000000000   -0.149385393   -1.125005869
   2  H       1.00    0.000000000    1.664571887   -1.938594836
   3  O       8.00    0.000000000    0.026581297    1.113011114

 Bond lengths in Bohr (Angstrom)

 1-2  1.988056342  1-3  2.244924117
     ( 1.052034110)     ( 1.187962683)

 Bond angles

  2-1-3  109.66130200

 NUCLEAR CHARGE:                   16
 NUMBER OF PRIMITIVE AOS:         203
 NUMBER OF SYMMETRY AOS:          173
 NUMBER OF CONTRACTIONS:          171   ( 114A'  +  57A"  )
 NUMBER OF CORE ORBITALS:           2   (   2A'  +   0A"  )
 NUMBER OF VALENCE ORBITALS:        9   (   7A'  +   2A"  )


 NUCLEAR REPULSION ENERGY   30.77604316


 Eigenvalues of metric

         1 0.100E-02 0.232E-02 0.325E-02 0.626E-02 0.983E-02 0.136E-01 0.142E-01 0.227E-01
         2 0.361E-01 0.500E-01 0.683E-01 0.940E-01 0.130E+00 0.134E+00 0.140E+00 0.142E+00


 Contracted 2-electron integrals neglected if value below      1.0D-22

       46310484. INTEGRALS WRITTEN OUT IN   11310 BLOCKS ON RECORD 1290 OF FILE 1


 NUMBER OF SORTED TWO-ELECTRON INTEGRALS:   55360566.     BUFFER LENGTH:  32768
 NUMBER OF SEGMENTS:   4  SEGMENT LENGTH:   15997996      RECORD LENGTH: 524288

 Memory used in sort:      16.56 MW

 SORT1 READ    46310484. AND WROTE    46749504. INTEGRALS IN    136 RECORDS. CPU TIME:     0.86 SEC, REAL TIME:     1.20 SEC
 SORT2 READ    46749504. AND WROTE    55360566. INTEGRALS IN      4 RECORDS. CPU TIME:     0.70 SEC, REAL TIME:     0.93 SEC

 FILE SIZES:   FILE 1:   761.9 MBYTE,  FILE 4:   570.5 MBYTE,   TOTAL:   1332.4 MBYTE

 OPERATOR DM      FOR CENTER  0  COORDINATES:    0.000000    0.000000    0.000000


 **********************************************************************************************************************************
 DATASETS  * FILE   NREC   LENGTH (MB)   RECORD NAMES
              1      19      422.31       500      610      700      900      950      970     1000      129      960     1100   
                                          VAR    BASINP    GEOM    SYMINP    ZMAT    AOBASIS   BASIS     P2S    ABASIS      S 
                                         1400     1410     1200     1210     1080     1600     1650     1300     1700   
                                           T        V       H0       H01     AOSYM     SMH    MOLCAS    ERIS     OPER   

 PROGRAMS   *        TOTAL       INT
 CPU TIMES  *         4.76      4.67
 REAL TIME  *         6.39 SEC
 DISK USED  *         1.33 GB      
 **********************************************************************************************************************************


 PROGRAM * RHF-SCF (CLOSED SHELL)       Authors: W. Meyer, H.-J. Werner


 NUMBER OF ELECTRONS:       8+    8-
 CONVERGENCE THRESHOLDS:    1.00E-10 (Density)    1.00E-13 (Energy)
 MAX. NUMBER OF ITERATIONS:      500
 INTERPOLATION TYPE:            DIIS
 INTERPOLATION STEPS:              2 (START)      1 (STEP)
 LEVEL SHIFTS:                  0.00 (CLOSED)  0.00 (OPEN) 



 Orbital guess generated from atomic densities. Full valence occupancy:    9   2

 Molecular orbital dump at record        2100.2

 Initial occupancy:   7   1

 ITERATION    DDIFF          GRAD             ENERGY        2-EL.EN.            DIPOLE MOMENTS         DIIS   ORB.
    1      0.000D+00      0.000D+00      -129.79439312    154.782470    0.00000    0.57220   -0.95304    0    start
    2      0.000D+00      0.858D-02      -129.82172795    155.998355    0.00000    0.58398   -0.21021    1    diag
    3      0.354D-02      0.622D-02      -129.84128803    156.075443    0.00000    0.54207   -0.55931    2    diag
    4      0.133D-02      0.102D-02      -129.84203172    155.815301    0.00000    0.54994   -0.50013    3    diag
    5      0.325D-03      0.326D-03      -129.84214419    155.902011    0.00000    0.55608   -0.50304    4    diag
    6      0.150D-03      0.953D-04      -129.84216234    155.886222    0.00000    0.55678   -0.49929    5    diag
    7      0.600D-04      0.469D-04      -129.84216740    155.888959    0.00000    0.55817   -0.49708    6    diag
    8      0.400D-04      0.152D-04      -129.84216787    155.888230    0.00000    0.55824   -0.49631    7    diag
    9      0.126D-04      0.277D-05      -129.84216789    155.888132    0.00000    0.55820   -0.49615    8    diag
   10      0.242D-05      0.667D-06      -129.84216789    155.888119    0.00000    0.55816   -0.49613    9    orth
   11      0.798D-06      0.136D-06      -129.84216789    155.888114    0.00000    0.55815   -0.49612    9    diag
   12      0.196D-06      0.272D-07      -129.84216789    155.888113    0.00000    0.55815   -0.49612    9    diag
   13      0.470D-07      0.698D-08      -129.84216789    155.888113    0.00000    0.55815   -0.49612    9    diag
   14      0.107D-07      0.130D-08      -129.84216789    155.888113    0.00000    0.55815   -0.49612    9    diag
   15      0.154D-08      0.370D-09      -129.84216789    155.888113    0.00000    0.55815   -0.49612    9    diag
   16      0.338D-09      0.117D-09      -129.84216789    155.888113    0.00000    0.55815   -0.49612    9    diag
   17      0.958D-10      0.342D-10      -129.84216789    155.888113    0.00000    0.55815   -0.49612    9    diag
   18      0.322D-10      0.107D-10      -129.84216789    155.888113    0.00000    0.55815   -0.49612    0    orth

 Final occupancy:   7   1

 !RHF STATE 1.1 Energy               -129.842167886854
 Nuclear energy                        30.77604316
 One-electron energy                 -238.56226752
 Two-electron energy                   77.94405648
 Virial quotient                       -1.00104700
 !RHF STATE 1.1 Dipole moment           0.00000000     0.55815148    -0.49612123
 Dipole moment /Debye                   0.00000000     1.41858663    -1.26093179

 Orbital energies:

         1.1          2.1          3.1          4.1          5.1          6.1          7.1          8.1          9.1
    -20.649783   -15.706965    -1.544062    -0.989212    -0.751348    -0.670437    -0.421502     0.039880     0.193763

         1.2          2.2          3.2
     -0.603769     0.085772     0.240425

 HOMO      7.1    -0.421502 =     -11.4697eV
 LUMO      8.1     0.039880 =       1.0852eV
 LUMO-HOMO         0.461382 =      12.5548eV


 **********************************************************************************************************************************
 DATASETS  * FILE   NREC   LENGTH (MB)   RECORD NAMES
              1      19      422.31       500      610      700      900      950      970     1000      129      960     1100   
                                          VAR    BASINP    GEOM    SYMINP    ZMAT    AOBASIS   BASIS     P2S    ABASIS      S 
                                         1400     1410     1200     1210     1080     1600     1650     1300     1700   
                                           T        V       H0       H01     AOSYM     SMH    MOLCAS    ERIS     OPER   

              2       4        3.13       700     1000      520     2100   
                                         GEOM     BASIS   MCVARS     RHF  

 PROGRAMS   *        TOTAL        HF       INT
 CPU TIMES  *        10.21      5.45      4.67
 REAL TIME  *        13.06 SEC
 DISK USED  *         1.33 GB      
 **********************************************************************************************************************************


 PROGRAM * CCSD (Closed-shell coupled cluster)     Authors: C. Hampel, H.-J. Werner, 1991, M. Deegan, P.J. Knowles, 1992


 Convergence thresholds:  THRVAR = 1.00D-08  THRDEN = 1.00D-12

 CCSD(T)     terms to be evaluated (factor= 1.000)


 Number of closed-shell orbitals:   8 (   7   1 )
 Number of external orbitals:     163 ( 107  56 )

 Molecular orbitals read from record     2100.2  Type=RHF/CANONICAL (state 1.1)

 Number of N-1 electron functions:               8
 Number of N-2 electron functions:              36
 Number of singly external CSFs:               805
 Number of doubly external CSFs:            449165
 Total number of CSFs:                      449971

 Length of J-op  integral file:               0.00 MB
 Length of K-op  integral file:               1.15 MB
 Length of 3-ext integral record:             0.00 MB

 Memory could be reduced to 24.90 Mwords without degradation in triples

 Integral transformation finished. Total CPU:   1.11 sec, npass=  1  Memory used:   6.89 MW

 Reference energy:                   -129.84216789

 MP2 singlet pair energy:              -0.37697317
 MP2 triplet pair energy:              -0.18542657
 MP2 correlation energy:               -0.56239974
 MP2 total energy:                   -130.40456763

 SCS-MP2 correlation energy:           -0.56774434   (PS=  1.200000  PT=  0.333333)
 SCS-MP2 total energy:               -130.40991223

 ITER.      SQ.NORM     CORR.ENERGY   TOTAL ENERGY   ENERGY CHANGE        DEN1      VAR(S)    VAR(P)  DIIS     TIME  TIME/IT
   1      1.11770365    -0.56784445  -130.41001234    -0.00544471     0.01143130  0.31D-02  0.29D-02  1  1     2.29     1.25
   2      1.12808836    -0.56770901  -130.40987690     0.00013544    -0.01319074  0.82D-04  0.47D-03  2  2     3.48     1.29
   3      1.13305528    -0.56801519  -130.41018307    -0.00030618    -0.00228310  0.51D-04  0.63D-04  3  3     4.70     1.30
   4      1.13625669    -0.56800552  -130.41017341     0.00000966    -0.00131859  0.40D-05  0.91D-05  4  4     5.92     1.31
   5      1.13720874    -0.56802809  -130.41019598    -0.00002257    -0.00022172  0.15D-05  0.18D-05  5  5     7.14     1.31
   6      1.13758916    -0.56802307  -130.41019096     0.00000502    -0.00003595  0.14D-06  0.42D-06  6  6     8.35     1.32
   7      1.13767493    -0.56802321  -130.41019109    -0.00000014    -0.00000059  0.21D-07  0.90D-07  6  1     9.60     1.32
   8      1.13770914    -0.56802176  -130.41018964     0.00000145    -0.00000451  0.45D-08  0.12D-07  6  2    10.84     1.32
   9      1.13771424    -0.56802184  -130.41018972    -0.00000008     0.00000078  0.17D-08  0.15D-08  6  3    12.07     1.33
  10      1.13771564    -0.56802214  -130.41019003    -0.00000031    -0.00000050  0.38D-09  0.21D-09  6  4    13.35     1.33
  11      1.13771466    -0.56802227  -130.41019016    -0.00000013     0.00000034  0.90D-10  0.22D-10  6  5    14.58     1.33
  12      1.13771377    -0.56802240  -130.41019028    -0.00000012     0.00000034  0.96D-11  0.58D-11  6  6    15.84     1.33
  13      1.13771326    -0.56802241  -130.41019029    -0.00000001     0.00000011  0.43D-11  0.10D-11  6  1    17.07     1.33
  14      1.13771285    -0.56802243  -130.41019032    -0.00000002     0.00000010  0.46D-12  0.35D-12  6  3    18.31     1.33
  15      1.13771270    -0.56802243  -130.41019032    -0.00000000     0.00000002  0.11D-12  0.23D-13  6  2    19.55     1.33
  16      1.13771265    -0.56802243  -130.41019032    -0.00000000     0.00000001  0.24D-13  0.54D-14  6  4    20.77     1.33
  17      1.13771264    -0.56802244  -130.41019032    -0.00000000     0.00000000  0.36D-14  0.10D-14  6  5    21.98     1.33
  18      1.13771264    -0.56802244  -130.41019032    -0.00000000     0.00000000  0.34D-15  0.24D-15  6  6    23.20     1.33
  19      1.13771264    -0.56802243  -130.41019032     0.00000000    -0.00000000  0.39D-16  0.26D-16  6  1    24.41     1.34
  20      1.13771264    -0.56802243  -130.41019032     0.00000000    -0.00000000  0.17D-17  0.48D-17  6  3    25.61     1.34
  21      1.13771264    -0.56802243  -130.41019032     0.00000000    -0.00000000  0.86D-18  0.10D-17  6  2    26.80     1.34
  22      1.13771264    -0.56802243  -130.41019032     0.00000000    -0.00000000  0.12D-18  0.37D-18  6  4    28.00     1.34
  23      1.13771264    -0.56802243  -130.41019032    -0.00000000    -0.00000000  0.71D-19  0.61D-19  6  5    29.19     1.34
  24      1.13771264    -0.56802243  -130.41019032     0.00000000    -0.00000000  0.37D-20  0.84D-20  6  1    30.43     1.34
  25      1.13771264    -0.56802243  -130.41019032     0.00000000     0.00000000  0.20D-21  0.11D-20  6  6    31.65     1.34
  26      1.13771264    -0.56802243  -130.41019032    -0.00000000     0.00000000  0.12D-21  0.24D-21  6  3    32.85     1.34

 Norm of t1 vector:      0.07506879      S-energy:     0.00000000      T1 diagnostic:  0.01327041
                                                                       D1 diagnostic:  0.04169804

 Doubles amplitudes (print threshold =  0.500E-01):

         I         J         SYM. A    SYM. B    A         B      T(IJ, AB)

         8         8         2         2         1         1     -0.12836173


 Total CPU time for triples:     21.57 sec


 RESULTS
 =======

  Reference energy                   -129.842167886854

  Correlated core orbitals:             1.1       2.1
  Orbital energies:                   -20.6498  -15.7070
 
  CCSD core-core energy                -0.079222084562
  CCSD core-valence energy             -0.036208033052
  CCSD valence correlation energy      -0.452592317171
 
  CCSD singlet pair energy             -0.405770492611
  CCSD triplet pair energy             -0.162251942175
  CCSD correlation energy              -0.568022434785

  Triples (T) contribution             -0.021684337203
  Total correlation energy             -0.589706771988

  CCSD total energy                  -130.410190321638
  CCSD[T] energy                     -130.432966842219
  CCSD-T energy                      -130.431456407001
 !CCSD(T) total energy               -130.431874658841

 Timing summary (sec):

 STEP                 CPU(USER)    SYS     CPU(TOT)    WALL
 Transformation          1.12      0.18      1.30      1.32
 CCSD iterations        31.73      3.00     34.73     34.74
 Triples                21.57      0.63     22.20     22.19

 Program statistics:

 Available memory in ccsd:               994999644
 Min. memory needed in ccsd:               1368037
 Max. memory used in ccsd:                 1750502
 Max. memory used in cckext:               2014357 (26 integral passes)



 **********************************************************************************************************************************
 DATASETS  * FILE   NREC   LENGTH (MB)   RECORD NAMES
              1      20      501.23       500      610      700      900      950      970     1000      129      960     1100   
                                          VAR    BASINP    GEOM    SYMINP    ZMAT    AOBASIS   BASIS     P2S    ABASIS      S 
                                         1400     1410     1200     1210     1080     1600     1650     1300     1700     1380   
                                           T        V       H0       H01     AOSYM     SMH    MOLCAS    ERIS     OPER     JKOP   

              2       4        3.13       700     1000      520     2100   
                                         GEOM     BASIS   MCVARS     RHF  

 PROGRAMS   *        TOTAL   CCSD(T)        HF       INT
 CPU TIMES  *        64.66     54.44      5.45      4.67
 REAL TIME  *        71.34 SEC
 DISK USED  *         1.33 GB      
 **********************************************************************************************************************************

 CCSD(T)/USERDEF energy=   -130.431874658841

        CCSD(T)         HF-SCF  
   -130.43187466   -129.84216789
 **********************************************************************************************************************************
 Molpro calculation terminated
 Variable memory released
