
 Primary working directories    : /tmp/r2666/235458.maple
 Secondary working directories  : /tmp/r2666/235458.maple
 Wavefunction directory         : /ddn/home4/r2666/wfu/
 Main file repository           : /tmp/r2666/235458.maple/

 SHA1      : d5ffa45e93fdbca01ffc919aa182cfdae0147319
 NAME      : 2015.1.35
 ARCHNAME  : linux/x86_64
 FC        : /opt/intel/composer_xe_2015.1.133/bin/intel64/ifort
 BLASLIB   : -Wl,-_start-group /opt/intel/mkl/lib/intel64/libmkl_intel_ilp64.a /opt/intel/mkl/lib/intel64/libmkl_intel_thread.a /opt/intel/mkl/lib/intel64/libmkl_core.a -Wl,-_end-group
 id        : olemiss

 Nodes     nprocs
 cn089        1

 Using customized tuning parameters: mindgm=1; mindgv=20; mindgc=4; mindgr=1; noblas=0; minvec=7
 default implementation of scratch files=df  

 ***,hno CCSD(T)/TZ-F12 QFF
 memory, 995, m;
 gthresh,energy=1.d-12,zero=1.d-22,oneint=1.d-22,twoint=1.d-22;
 gthresh,optgrad=1.d-8,optstep=1.d-8;
 nocompress;
 geomtyp=xyz
 bohr
 geometry={
 3
         55        55
 N        0.0000000000       -0.1535827539       -1.1282687689
 H        0.0000000000        1.6644012989       -1.9328195771
 O        0.0000000000        0.0309492450        1.1104987550
 }
 
 basis={
 default=aug-cc-pvtz
 s,C,8236.0,1235.0,280.8, 79.27,25.59, 8.997,3.319
 s,C,0.9059,0.3643,0.1285000
 p,C,56.0,18.71,4.133,0.2827,0.3827,0.1209
 d,C,30.0,10.0,3.3,1.097,0.318
 f,C,7.0,2.3,0.7610
 s,N,11420.0,1712.0,389.3,110.0,35.57,12.54,4.644
 s,N,1.293,0.5118,0.1787
 p,N,79.89,26.63,5.948,1.742,0.555,0.1725
 d,N,45.0,15.0,5.0,1.654,0.469
 f,N,9.9,3.3,1.093
 s,O,15330.0,2299.0,522.4,147.3,47.55,16.76,6.207
 s,O,1.752,0.6882,0.2384
 p,O,103.5,34.46,7.749,2.28,0.7156,0.214
 d,O,63.0,21.0,7.0,2.314,0.645
 f,O,12.9,4.3,1.428
 s,mg,164900.0,24710.0,5628.0,1596.0,521.0;
 s,mg,188.0,73.01,29.90,12.54,4.306,1.826;
 s,mg,0.7417,0.0761,0.145,0.033,0.0129;
 p,mg,950.70,316.90,74.86,23.72,8.669,3.363;
 p,mg,1.310,0.4911,0.2364,0.08733,0.03237,0.00745;
 d,mg,1.601,0.686,0.126,0.294,0.0468;
 f,mg,1.372,0.588,0.094,0.252;
 }
   {hf,maxit=500;accu,20;}
 {ccsd(t),nocheck,maxit=250;orbital,IGNORE_ERROR;core}

 Variables initialized (889), CPU time= 0.01 sec
 Commands  initialized (702), CPU time= 0.01 sec, 572 directives.
 Default parameters read. Elapsed time= 0.04 sec

 Checking input...
 Passed
1


                                         ***  PROGRAM SYSTEM MOLPRO  ***
                                       Copyright, TTI GmbH Stuttgart, 2015
                                    Version 2015.1 linked Jul  9 2018 13:16:40


 **********************************************************************************************************************************
 LABEL *   hno CCSD(T)/TZ-F12 QFF                                                        
  64 bit serial version                                                                  DATE: 08-Feb-20          TIME: 17:59:37  
 **********************************************************************************************************************************

 SHA1:             d5ffa45e93fdbca01ffc919aa182cfdae0147319
 **********************************************************************************************************************************

 THRESHOLDS:

 ZERO    =  1.00D-22  ONEINT  =  1.00D-22  TWOINT  =  1.00D-22  PREFAC  =  1.00D-14  LOCALI  =  1.00D-09  EORDER  =  1.00D-04
 ENERGY  =  1.00D-12  ETEST   =  0.00D+00  EDENS   =  0.00D+00  THRDEDEF=  1.00D-06  GRADIENT=  1.00D-02  STEP    =  1.00D-03
 ORBITAL =  1.00D-05  CIVEC   =  1.00D-05  COEFF   =  1.00D-04  PRINTCI =  5.00D-02  PUNCHCI =  9.90D+01  OPTGRAD =  3.00D-04
 OPTENERG=  1.00D-06  OPTSTEP =  3.00D-04  THRGRAD =  1.00D-10  COMPRESS=  1.00D-11  VARMIN  =  1.00D-07  VARMAX  =  1.00D-03
 THRDOUB =  0.00D+00  THRDIV  =  1.00D-05  THRRED  =  1.00D-07  THRPSP  =  1.00D+00  THRDC   =  1.00D-10  THRCS   =  1.00D-10
 THRNRM  =  1.00D-08  THREQ   =  0.00D+00  THRDE   =  1.00D+00  THRREF  =  1.00D-05  SPARFAC =  1.00D+00  THRDLP  =  1.00D-07
 THRDIA  =  1.00D-10  THRDLS  =  1.00D-07  THRGPS  =  0.00D+00  THRKEX  =  0.00D+00  THRDIS  =  2.00D-01  THRVAR  =  1.00D-10
 THRLOC  =  1.00D-06  THRGAP  =  1.00D-06  THRLOCT = -1.00D+00  THRGAPT = -1.00D+00  THRORB  =  1.00D-06  THRMLTP =  0.00D+00
 THRCPQCI=  1.00D-10  KEXTA   =  0.00D+00  THRCOARS=  0.00D+00  SYMTOL  =  1.00D-06  GRADTOL =  1.00D-06  THROVL  =  1.00D-08
 THRORTH =  1.00D-08  GRID    =  1.00D-06  GRIDMAX =  1.00D-03  DTMAX   =  0.00D+00  THROCCDE=  1.00D-01  THROCCDE=  1.00D-01



 THRESHOLDS:

 ZERO    =  1.00D-22  ONEINT  =  1.00D-22  TWOINT  =  1.00D-22  PREFAC  =  1.00D-14  LOCALI  =  1.00D-09  EORDER  =  1.00D-04
 ENERGY  =  1.00D-12  ETEST   =  0.00D+00  EDENS   =  0.00D+00  THRDEDEF=  1.00D-06  GRADIENT=  1.00D-02  STEP    =  1.00D-03
 ORBITAL =  1.00D-05  CIVEC   =  1.00D-05  COEFF   =  1.00D-04  PRINTCI =  5.00D-02  PUNCHCI =  9.90D+01  OPTGRAD =  1.00D-08
 OPTENERG=  1.00D-06  OPTSTEP =  1.00D-08  THRGRAD =  1.00D-10  COMPRESS=  1.00D-11  VARMIN  =  1.00D-07  VARMAX  =  1.00D-03
 THRDOUB =  0.00D+00  THRDIV  =  1.00D-05  THRRED  =  1.00D-07  THRPSP  =  1.00D+00  THRDC   =  1.00D-10  THRCS   =  1.00D-10
 THRNRM  =  1.00D-08  THREQ   =  0.00D+00  THRDE   =  1.00D+00  THRREF  =  1.00D-05  SPARFAC =  1.00D+00  THRDLP  =  1.00D-07
 THRDIA  =  1.00D-10  THRDLS  =  1.00D-07  THRGPS  =  0.00D+00  THRKEX  =  0.00D+00  THRDIS  =  2.00D-01  THRVAR  =  1.00D-10
 THRLOC  =  1.00D-06  THRGAP  =  1.00D-06  THRLOCT = -1.00D+00  THRGAPT = -1.00D+00  THRORB  =  1.00D-06  THRMLTP =  0.00D+00
 THRCPQCI=  1.00D-10  KEXTA   =  0.00D+00  THRCOARS=  0.00D+00  SYMTOL  =  1.00D-06  GRADTOL =  1.00D-06  THROVL  =  1.00D-08
 THRORTH =  1.00D-08  GRID    =  1.00D-06  GRIDMAX =  1.00D-03  DTMAX   =  0.00D+00  THROCCDE=  1.00D-01  THROCCDE=  1.00D-01



 Input parameters for SORTINT:

 COMPRESS =    0.000000
 C_FINAL  =    1.000000
 DEBUG    =   -1.000000
 C_SORT1  =    0.000000
 C_SEWARD =    0.000000
 THRESH   =    0.000000
 IO       =  molpro                                                          
 SPRI     =    0.000000
 SETTING GEOMTYP        =    XYZ
 ZUNIT=BOHR
 

 Variable memory set to  995000000 words,  buffer space   230000 words

 SETTING BASIS          =    USERDEF


 Recomputing integrals since basis changed


 Using spherical harmonics

 Library entry H      S aug-cc-pVTZ          selected for orbital group  2
 Library entry H      P aug-cc-pVTZ          selected for orbital group  2
 Library entry H      D aug-cc-pVTZ          selected for orbital group  2


 PROGRAM * SEWARD (Integral evaluation for generally contracted gaussian basis sets)     Author: Roland Lindh, 1990

 Geometry written to block  1 of record 700


 Point group  Cs  



 ATOMIC COORDINATES

 NR  ATOM    CHARGE       X              Y              Z

   1  N       7.00    0.000000000   -0.153582754   -1.128268769
   2  H       1.00    0.000000000    1.664401299   -1.932819577
   3  O       8.00    0.000000000    0.030949245    1.110498755

 Bond lengths in Bohr (Angstrom)

 1-2  1.988056342  1-3  2.246359741
     ( 1.052034110)     ( 1.188722382)

 Bond angles

  2-1-3  109.15984414

 NUCLEAR CHARGE:                   16
 NUMBER OF PRIMITIVE AOS:         203
 NUMBER OF SYMMETRY AOS:          173
 NUMBER OF CONTRACTIONS:          171   ( 114A'  +  57A"  )
 NUMBER OF CORE ORBITALS:           2   (   2A'  +   0A"  )
 NUMBER OF VALENCE ORBITALS:        9   (   7A'  +   2A"  )


 NUCLEAR REPULSION ENERGY   30.76641977


 Eigenvalues of metric

         1 0.101E-02 0.233E-02 0.325E-02 0.627E-02 0.983E-02 0.136E-01 0.143E-01 0.227E-01
         2 0.361E-01 0.501E-01 0.685E-01 0.940E-01 0.130E+00 0.134E+00 0.140E+00 0.142E+00


 Contracted 2-electron integrals neglected if value below      1.0D-22

       46309374. INTEGRALS WRITTEN OUT IN   11309 BLOCKS ON RECORD 1290 OF FILE 1


 NUMBER OF SORTED TWO-ELECTRON INTEGRALS:   55360566.     BUFFER LENGTH:  32768
 NUMBER OF SEGMENTS:   4  SEGMENT LENGTH:   15997996      RECORD LENGTH: 524288

 Memory used in sort:      16.56 MW

 SORT1 READ    46309374. AND WROTE    46748402. INTEGRALS IN    136 RECORDS. CPU TIME:     0.76 SEC, REAL TIME:     1.05 SEC
 SORT2 READ    46748402. AND WROTE    55360566. INTEGRALS IN      4 RECORDS. CPU TIME:     0.65 SEC, REAL TIME:     0.87 SEC

 FILE SIZES:   FILE 1:   761.9 MBYTE,  FILE 4:   570.5 MBYTE,   TOTAL:   1332.3 MBYTE

 OPERATOR DM      FOR CENTER  0  COORDINATES:    0.000000    0.000000    0.000000


 **********************************************************************************************************************************
 DATASETS  * FILE   NREC   LENGTH (MB)   RECORD NAMES
              1      19      422.31       500      610      700      900      950      970     1000      129      960     1100   
                                          VAR    BASINP    GEOM    SYMINP    ZMAT    AOBASIS   BASIS     P2S    ABASIS      S 
                                         1400     1410     1200     1210     1080     1600     1650     1300     1700   
                                           T        V       H0       H01     AOSYM     SMH    MOLCAS    ERIS     OPER   

 PROGRAMS   *        TOTAL       INT
 CPU TIMES  *         4.18      4.10
 REAL TIME  *         5.84 SEC
 DISK USED  *         1.33 GB      
 **********************************************************************************************************************************


 PROGRAM * RHF-SCF (CLOSED SHELL)       Authors: W. Meyer, H.-J. Werner


 NUMBER OF ELECTRONS:       8+    8-
 CONVERGENCE THRESHOLDS:    1.00E-10 (Density)    1.00E-13 (Energy)
 MAX. NUMBER OF ITERATIONS:      500
 INTERPOLATION TYPE:            DIIS
 INTERPOLATION STEPS:              2 (START)      1 (STEP)
 LEVEL SHIFTS:                  0.00 (CLOSED)  0.00 (OPEN) 



 Orbital guess generated from atomic densities. Full valence occupancy:    9   2

 Molecular orbital dump at record        2100.2

 Initial occupancy:   7   1

 ITERATION    DDIFF          GRAD             ENERGY        2-EL.EN.            DIPOLE MOMENTS         DIIS   ORB.
    1      0.000D+00      0.000D+00      -129.79421429    154.767309    0.00000    0.56841   -0.95435    0    start
    2      0.000D+00      0.859D-02      -129.82155155    155.979820    0.00000    0.58461   -0.20796    1    diag
    3      0.355D-02      0.624D-02      -129.84126084    156.059006    0.00000    0.54053   -0.55857    2    diag
    4      0.133D-02      0.102D-02      -129.84200500    155.798473    0.00000    0.54862   -0.49940    3    diag
    5      0.324D-03      0.327D-03      -129.84211791    155.885115    0.00000    0.55472   -0.50225    4    diag
    6      0.150D-03      0.956D-04      -129.84213615    155.869309    0.00000    0.55540   -0.49848    5    diag
    7      0.600D-04      0.470D-04      -129.84214125    155.872040    0.00000    0.55679   -0.49626    6    diag
    8      0.401D-04      0.152D-04      -129.84214172    155.871305    0.00000    0.55686   -0.49548    7    diag
    9      0.126D-04      0.279D-05      -129.84214174    155.871207    0.00000    0.55682   -0.49533    8    diag
   10      0.244D-05      0.667D-06      -129.84214174    155.871193    0.00000    0.55678   -0.49530    9    orth
   11      0.799D-06      0.136D-06      -129.84214174    155.871189    0.00000    0.55677   -0.49530    9    diag
   12      0.196D-06      0.273D-07      -129.84214174    155.871188    0.00000    0.55677   -0.49529    9    diag
   13      0.473D-07      0.702D-08      -129.84214174    155.871188    0.00000    0.55677   -0.49529    9    diag
   14      0.107D-07      0.130D-08      -129.84214174    155.871188    0.00000    0.55677   -0.49529    9    diag
   15      0.155D-08      0.372D-09      -129.84214174    155.871188    0.00000    0.55677   -0.49529    9    diag
   16      0.339D-09      0.118D-09      -129.84214174    155.871188    0.00000    0.55677   -0.49529    9    diag
   17      0.966D-10      0.346D-10      -129.84214174    155.871188    0.00000    0.55677   -0.49529    0    orth

 Final occupancy:   7   1

 !RHF STATE 1.1 Energy               -129.842141742479
 Nuclear energy                        30.76641977
 One-electron energy                 -238.54415532
 Two-electron energy                   77.93559381
 Virial quotient                       -1.00105797
 !RHF STATE 1.1 Dipole moment           0.00000000     0.55677205    -0.49529341
 Dipole moment /Debye                   0.00000000     1.41508071    -1.25882781

 Orbital energies:

         1.1          2.1          3.1          4.1          5.1          6.1          7.1          8.1          9.1
    -20.649731   -15.707194    -1.543666    -0.989082    -0.751146    -0.670097    -0.422112     0.039918     0.193761

         1.2          2.2          3.2
     -0.603457     0.085629     0.240331

 HOMO      7.1    -0.422112 =     -11.4862eV
 LUMO      8.1     0.039918 =       1.0862eV
 LUMO-HOMO         0.462029 =      12.5725eV


 **********************************************************************************************************************************
 DATASETS  * FILE   NREC   LENGTH (MB)   RECORD NAMES
              1      19      422.31       500      610      700      900      950      970     1000      129      960     1100   
                                          VAR    BASINP    GEOM    SYMINP    ZMAT    AOBASIS   BASIS     P2S    ABASIS      S 
                                         1400     1410     1200     1210     1080     1600     1650     1300     1700   
                                           T        V       H0       H01     AOSYM     SMH    MOLCAS    ERIS     OPER   

              2       4        3.13       700     1000      520     2100   
                                         GEOM     BASIS   MCVARS     RHF  

 PROGRAMS   *        TOTAL        HF       INT
 CPU TIMES  *         8.56      4.38      4.10
 REAL TIME  *        11.08 SEC
 DISK USED  *         1.33 GB      
 **********************************************************************************************************************************


 PROGRAM * CCSD (Closed-shell coupled cluster)     Authors: C. Hampel, H.-J. Werner, 1991, M. Deegan, P.J. Knowles, 1992


 Convergence thresholds:  THRVAR = 1.00D-08  THRDEN = 1.00D-12

 CCSD(T)     terms to be evaluated (factor= 1.000)


 Number of closed-shell orbitals:   8 (   7   1 )
 Number of external orbitals:     163 ( 107  56 )

 Molecular orbitals read from record     2100.2  Type=RHF/CANONICAL (state 1.1)

 Number of N-1 electron functions:               8
 Number of N-2 electron functions:              36
 Number of singly external CSFs:               805
 Number of doubly external CSFs:            449165
 Total number of CSFs:                      449971

 Length of J-op  integral file:               0.00 MB
 Length of K-op  integral file:               1.15 MB
 Length of 3-ext integral record:             0.00 MB

 Memory could be reduced to 24.90 Mwords without degradation in triples

 Integral transformation finished. Total CPU:   0.91 sec, npass=  1  Memory used:   6.89 MW

 Reference energy:                   -129.84214174

 MP2 singlet pair energy:              -0.37704526
 MP2 triplet pair energy:              -0.18546683
 MP2 correlation energy:               -0.56251209
 MP2 total energy:                   -130.40465383

 SCS-MP2 correlation energy:           -0.56785589   (PS=  1.200000  PT=  0.333333)
 SCS-MP2 total energy:               -130.40999763

 ITER.      SQ.NORM     CORR.ENERGY   TOTAL ENERGY   ENERGY CHANGE        DEN1      VAR(S)    VAR(P)  DIIS     TIME  TIME/IT
   1      1.11776921    -0.56793181  -130.41007355    -0.00541972     0.01147703  0.31D-02  0.29D-02  1  1     1.87     0.99
   2      1.12816412    -0.56779231  -130.40993405     0.00013950    -0.01320431  0.83D-04  0.47D-03  2  2     2.81     1.02
   3      1.13313417    -0.56809827  -130.41024001    -0.00030596    -0.00228538  0.51D-04  0.63D-04  3  3     3.75     1.03
   4      1.13633774    -0.56808876  -130.41023050     0.00000952    -0.00131984  0.40D-05  0.90D-05  4  4     4.72     1.03
   5      1.13728785    -0.56811134  -130.41025308    -0.00002258    -0.00022152  0.15D-05  0.18D-05  5  5     5.69     1.04
   6      1.13766613    -0.56810631  -130.41024806     0.00000502    -0.00003577  0.14D-06  0.42D-06  6  6     6.65     1.04
   7      1.13775088    -0.56810645  -130.41024819    -0.00000014    -0.00000051  0.21D-07  0.90D-07  6  1     7.59     1.04
   8      1.13778479    -0.56810499  -130.41024673     0.00000146    -0.00000449  0.44D-08  0.12D-07  6  2     8.57     1.04
   9      1.13778978    -0.56810507  -130.41024682    -0.00000009     0.00000080  0.17D-08  0.15D-08  6  3     9.56     1.04
  10      1.13779119    -0.56810538  -130.41024712    -0.00000030    -0.00000050  0.37D-09  0.21D-09  6  4    10.51     1.04
  11      1.13779022    -0.56810550  -130.41024725    -0.00000013     0.00000034  0.89D-10  0.21D-10  6  5    11.49     1.05
  12      1.13778934    -0.56810563  -130.41024737    -0.00000012     0.00000034  0.94D-11  0.57D-11  6  6    12.45     1.05
  13      1.13778885    -0.56810564  -130.41024738    -0.00000001     0.00000011  0.41D-11  0.10D-11  6  1    13.40     1.05
  14      1.13778844    -0.56810566  -130.41024740    -0.00000002     0.00000010  0.45D-12  0.34D-12  6  3    14.34     1.05
  15      1.13778829    -0.56810566  -130.41024741    -0.00000000     0.00000002  0.11D-12  0.23D-13  6  2    15.30     1.05
  16      1.13778825    -0.56810566  -130.41024741    -0.00000000     0.00000001  0.24D-13  0.52D-14  6  4    16.29     1.05
  17      1.13778823    -0.56810567  -130.41024741    -0.00000000     0.00000000  0.36D-14  0.98D-15  6  5    17.26     1.05
  18      1.13778823    -0.56810567  -130.41024741    -0.00000000     0.00000000  0.34D-15  0.24D-15  6  6    18.24     1.05
  19      1.13778823    -0.56810567  -130.41024741     0.00000000    -0.00000000  0.38D-16  0.26D-16  6  1    19.19     1.05
  20      1.13778823    -0.56810566  -130.41024741     0.00000000    -0.00000000  0.17D-17  0.49D-17  6  3    20.18     1.05
  21      1.13778823    -0.56810566  -130.41024741     0.00000000    -0.00000000  0.83D-18  0.11D-17  6  2    21.15     1.05
  22      1.13778823    -0.56810566  -130.41024741     0.00000000    -0.00000000  0.12D-18  0.38D-18  6  4    22.13     1.05
  23      1.13778823    -0.56810566  -130.41024741    -0.00000000    -0.00000000  0.70D-19  0.62D-19  6  5    23.09     1.05
  24      1.13778823    -0.56810566  -130.41024741     0.00000000    -0.00000000  0.37D-20  0.84D-20  6  1    24.07     1.05
  25      1.13778823    -0.56810566  -130.41024741     0.00000000     0.00000000  0.20D-21  0.10D-20  6  6    25.02     1.05
  26      1.13778823    -0.56810566  -130.41024741    -0.00000000     0.00000000  0.11D-21  0.24D-21  6  3    25.99     1.05

 Norm of t1 vector:      0.07503918      S-energy:     0.00000000      T1 diagnostic:  0.01326518
                                                                       D1 diagnostic:  0.04174763

 Doubles amplitudes (print threshold =  0.500E-01):

         I         J         SYM. A    SYM. B    A         B      T(IJ, AB)

         8         8         2         2         1         1     -0.12867352


 Total CPU time for triples:     18.61 sec


 RESULTS
 =======

  Reference energy                   -129.842141742479

  Correlated core orbitals:             1.1       2.1
  Orbital energies:                   -20.6497  -15.7072
 
  CCSD core-core energy                -0.079222001004
  CCSD core-valence energy             -0.036202942089
  CCSD valence correlation energy      -0.452680721823
 
  CCSD singlet pair energy             -0.405847609988
  CCSD triplet pair energy             -0.162258054935
  CCSD correlation energy              -0.568105664916

  Triples (T) contribution             -0.021701667148
  Total correlation energy             -0.589807332064

  CCSD total energy                  -130.410247407395
  CCSD[T] energy                     -130.433041896964
  CCSD-T energy                      -130.431530563900
 !CCSD(T) total energy               -130.431949074543

 Timing summary (sec):

 STEP                 CPU(USER)    SYS     CPU(TOT)    WALL
 Transformation          0.92      0.16      1.08      1.16
 CCSD iterations        25.07      2.29     27.36     27.38
 Triples                18.61      0.57     19.18     19.18

 Program statistics:

 Available memory in ccsd:               994999644
 Min. memory needed in ccsd:               1368037
 Max. memory used in ccsd:                 1750502
 Max. memory used in cckext:               2014357 (26 integral passes)



 **********************************************************************************************************************************
 DATASETS  * FILE   NREC   LENGTH (MB)   RECORD NAMES
              1      20      501.22       500      610      700      900      950      970     1000      129      960     1100   
                                          VAR    BASINP    GEOM    SYMINP    ZMAT    AOBASIS   BASIS     P2S    ABASIS      S 
                                         1400     1410     1200     1210     1080     1600     1650     1300     1700     1380   
                                           T        V       H0       H01     AOSYM     SMH    MOLCAS    ERIS     OPER     JKOP   

              2       4        3.13       700     1000      520     2100   
                                         GEOM     BASIS   MCVARS     RHF  

 PROGRAMS   *        TOTAL   CCSD(T)        HF       INT
 CPU TIMES  *        53.19     44.63      4.38      4.10
 REAL TIME  *        58.83 SEC
 DISK USED  *         1.33 GB      
 **********************************************************************************************************************************

 CCSD(T)/USERDEF energy=   -130.431949074543

        CCSD(T)         HF-SCF  
   -130.43194907   -129.84214174
 **********************************************************************************************************************************
 Molpro calculation terminated
 Variable memory released
