
 Primary working directories    : /tmp/r2666/235430.maple
 Secondary working directories  : /tmp/r2666/235430.maple
 Wavefunction directory         : /ddn/home4/r2666/wfu/
 Main file repository           : /tmp/r2666/235430.maple/

 SHA1      : d5ffa45e93fdbca01ffc919aa182cfdae0147319
 NAME      : 2015.1.35
 ARCHNAME  : linux/x86_64
 FC        : /opt/intel/composer_xe_2015.1.133/bin/intel64/ifort
 BLASLIB   : -Wl,-_start-group /opt/intel/mkl/lib/intel64/libmkl_intel_ilp64.a /opt/intel/mkl/lib/intel64/libmkl_intel_thread.a /opt/intel/mkl/lib/intel64/libmkl_core.a -Wl,-_end-group
 id        : olemiss

 Nodes     nprocs
 cn023        1

 Using customized tuning parameters: mindgm=1; mindgv=20; mindgc=4; mindgr=1; noblas=0; minvec=7
 default implementation of scratch files=df  

 ***,hno CCSD(T)/TZ-F12 QFF
 memory, 995, m;
 gthresh,energy=1.d-12,zero=1.d-22,oneint=1.d-22,twoint=1.d-22;
 gthresh,optgrad=1.d-8,optstep=1.d-8;
 nocompress;
 geomtyp=xyz
 bohr
 geometry={
 3
         27        27
 N        0.0000000000       -0.1570667161       -1.1471222939
 H        0.0000000000        1.6619439394       -1.9256392902
 O        0.0000000000        0.0368905667        1.1221719931
 }
 
 basis={
 default=aug-cc-pvtz
 s,C,8236.0,1235.0,280.8, 79.27,25.59, 8.997,3.319
 s,C,0.9059,0.3643,0.1285000
 p,C,56.0,18.71,4.133,0.2827,0.3827,0.1209
 d,C,30.0,10.0,3.3,1.097,0.318
 f,C,7.0,2.3,0.7610
 s,N,11420.0,1712.0,389.3,110.0,35.57,12.54,4.644
 s,N,1.293,0.5118,0.1787
 p,N,79.89,26.63,5.948,1.742,0.555,0.1725
 d,N,45.0,15.0,5.0,1.654,0.469
 f,N,9.9,3.3,1.093
 s,O,15330.0,2299.0,522.4,147.3,47.55,16.76,6.207
 s,O,1.752,0.6882,0.2384
 p,O,103.5,34.46,7.749,2.28,0.7156,0.214
 d,O,63.0,21.0,7.0,2.314,0.645
 f,O,12.9,4.3,1.428
 s,mg,164900.0,24710.0,5628.0,1596.0,521.0;
 s,mg,188.0,73.01,29.90,12.54,4.306,1.826;
 s,mg,0.7417,0.0761,0.145,0.033,0.0129;
 p,mg,950.70,316.90,74.86,23.72,8.669,3.363;
 p,mg,1.310,0.4911,0.2364,0.08733,0.03237,0.00745;
 d,mg,1.601,0.686,0.126,0.294,0.0468;
 f,mg,1.372,0.588,0.094,0.252;
 }
   {hf,maxit=500;accu,20;}
 {ccsd(t),nocheck,maxit=250;orbital,IGNORE_ERROR;core}

 Variables initialized (889), CPU time= 0.01 sec
 Commands  initialized (702), CPU time= 0.00 sec, 572 directives.
 Default parameters read. Elapsed time= 0.05 sec

 Checking input...
 Passed
1


                                         ***  PROGRAM SYSTEM MOLPRO  ***
                                       Copyright, TTI GmbH Stuttgart, 2015
                                    Version 2015.1 linked Jul  9 2018 13:16:40


 **********************************************************************************************************************************
 LABEL *   hno CCSD(T)/TZ-F12 QFF                                                        
  64 bit serial version                                                                  DATE: 08-Feb-20          TIME: 17:59:13  
 **********************************************************************************************************************************

 SHA1:             d5ffa45e93fdbca01ffc919aa182cfdae0147319
 **********************************************************************************************************************************

 THRESHOLDS:

 ZERO    =  1.00D-22  ONEINT  =  1.00D-22  TWOINT  =  1.00D-22  PREFAC  =  1.00D-14  LOCALI  =  1.00D-09  EORDER  =  1.00D-04
 ENERGY  =  1.00D-12  ETEST   =  0.00D+00  EDENS   =  0.00D+00  THRDEDEF=  1.00D-06  GRADIENT=  1.00D-02  STEP    =  1.00D-03
 ORBITAL =  1.00D-05  CIVEC   =  1.00D-05  COEFF   =  1.00D-04  PRINTCI =  5.00D-02  PUNCHCI =  9.90D+01  OPTGRAD =  3.00D-04
 OPTENERG=  1.00D-06  OPTSTEP =  3.00D-04  THRGRAD =  1.00D-10  COMPRESS=  1.00D-11  VARMIN  =  1.00D-07  VARMAX  =  1.00D-03
 THRDOUB =  0.00D+00  THRDIV  =  1.00D-05  THRRED  =  1.00D-07  THRPSP  =  1.00D+00  THRDC   =  1.00D-10  THRCS   =  1.00D-10
 THRNRM  =  1.00D-08  THREQ   =  0.00D+00  THRDE   =  1.00D+00  THRREF  =  1.00D-05  SPARFAC =  1.00D+00  THRDLP  =  1.00D-07
 THRDIA  =  1.00D-10  THRDLS  =  1.00D-07  THRGPS  =  0.00D+00  THRKEX  =  0.00D+00  THRDIS  =  2.00D-01  THRVAR  =  1.00D-10
 THRLOC  =  1.00D-06  THRGAP  =  1.00D-06  THRLOCT = -1.00D+00  THRGAPT = -1.00D+00  THRORB  =  1.00D-06  THRMLTP =  0.00D+00
 THRCPQCI=  1.00D-10  KEXTA   =  0.00D+00  THRCOARS=  0.00D+00  SYMTOL  =  1.00D-06  GRADTOL =  1.00D-06  THROVL  =  1.00D-08
 THRORTH =  1.00D-08  GRID    =  1.00D-06  GRIDMAX =  1.00D-03  DTMAX   =  0.00D+00  THROCCDE=  1.00D-01  THROCCDE=  1.00D-01



 THRESHOLDS:

 ZERO    =  1.00D-22  ONEINT  =  1.00D-22  TWOINT  =  1.00D-22  PREFAC  =  1.00D-14  LOCALI  =  1.00D-09  EORDER  =  1.00D-04
 ENERGY  =  1.00D-12  ETEST   =  0.00D+00  EDENS   =  0.00D+00  THRDEDEF=  1.00D-06  GRADIENT=  1.00D-02  STEP    =  1.00D-03
 ORBITAL =  1.00D-05  CIVEC   =  1.00D-05  COEFF   =  1.00D-04  PRINTCI =  5.00D-02  PUNCHCI =  9.90D+01  OPTGRAD =  1.00D-08
 OPTENERG=  1.00D-06  OPTSTEP =  1.00D-08  THRGRAD =  1.00D-10  COMPRESS=  1.00D-11  VARMIN  =  1.00D-07  VARMAX  =  1.00D-03
 THRDOUB =  0.00D+00  THRDIV  =  1.00D-05  THRRED  =  1.00D-07  THRPSP  =  1.00D+00  THRDC   =  1.00D-10  THRCS   =  1.00D-10
 THRNRM  =  1.00D-08  THREQ   =  0.00D+00  THRDE   =  1.00D+00  THRREF  =  1.00D-05  SPARFAC =  1.00D+00  THRDLP  =  1.00D-07
 THRDIA  =  1.00D-10  THRDLS  =  1.00D-07  THRGPS  =  0.00D+00  THRKEX  =  0.00D+00  THRDIS  =  2.00D-01  THRVAR  =  1.00D-10
 THRLOC  =  1.00D-06  THRGAP  =  1.00D-06  THRLOCT = -1.00D+00  THRGAPT = -1.00D+00  THRORB  =  1.00D-06  THRMLTP =  0.00D+00
 THRCPQCI=  1.00D-10  KEXTA   =  0.00D+00  THRCOARS=  0.00D+00  SYMTOL  =  1.00D-06  GRADTOL =  1.00D-06  THROVL  =  1.00D-08
 THRORTH =  1.00D-08  GRID    =  1.00D-06  GRIDMAX =  1.00D-03  DTMAX   =  0.00D+00  THROCCDE=  1.00D-01  THROCCDE=  1.00D-01



 Input parameters for SORTINT:

 COMPRESS =    0.000000
 C_FINAL  =    1.000000
 DEBUG    =   -1.000000
 C_SORT1  =    0.000000
 C_SEWARD =    0.000000
 THRESH   =    0.000000
 IO       =  molpro                                                          
 SPRI     =    0.000000
 SETTING GEOMTYP        =    XYZ
 ZUNIT=BOHR
 

 Variable memory set to  995000000 words,  buffer space   230000 words

 SETTING BASIS          =    USERDEF


 Recomputing integrals since basis changed


 Using spherical harmonics

 Library entry H      S aug-cc-pVTZ          selected for orbital group  2
 Library entry H      P aug-cc-pVTZ          selected for orbital group  2
 Library entry H      D aug-cc-pVTZ          selected for orbital group  2


 PROGRAM * SEWARD (Integral evaluation for generally contracted gaussian basis sets)     Author: Roland Lindh, 1990

 Geometry written to block  1 of record 700


 Point group  Cs  



 ATOMIC COORDINATES

 NR  ATOM    CHARGE       X              Y              Z

   1  N       7.00    0.000000000   -0.157066716   -1.147122294
   2  H       1.00    0.000000000    1.661943939   -1.925639290
   3  O       8.00    0.000000000    0.036890567    1.122171993

 Bond lengths in Bohr (Angstrom)

 1-2  1.978607712  1-3  2.277567999
     ( 1.047034111)     ( 1.205237081)

 Bond angles

  2-1-3  108.28518867

 NUCLEAR CHARGE:                   16
 NUMBER OF PRIMITIVE AOS:         203
 NUMBER OF SYMMETRY AOS:          173
 NUMBER OF CONTRACTIONS:          171   ( 114A'  +  57A"  )
 NUMBER OF CORE ORBITALS:           2   (   2A'  +   0A"  )
 NUMBER OF VALENCE ORBITALS:        9   (   7A'  +   2A"  )


 NUCLEAR REPULSION ENERGY   30.44164268


 Eigenvalues of metric

         1 0.103E-02 0.246E-02 0.330E-02 0.631E-02 0.968E-02 0.136E-01 0.144E-01 0.228E-01
         2 0.357E-01 0.527E-01 0.693E-01 0.941E-01 0.131E+00 0.134E+00 0.140E+00 0.142E+00


 Contracted 2-electron integrals neglected if value below      1.0D-22

       46171638. INTEGRALS WRITTEN OUT IN   11276 BLOCKS ON RECORD 1290 OF FILE 1


 NUMBER OF SORTED TWO-ELECTRON INTEGRALS:   55360566.     BUFFER LENGTH:  32768
 NUMBER OF SEGMENTS:   4  SEGMENT LENGTH:   15997996      RECORD LENGTH: 524288

 Memory used in sort:      16.56 MW

 SORT1 READ    46171638. AND WROTE    46609319. INTEGRALS IN    135 RECORDS. CPU TIME:     1.11 SEC, REAL TIME:     1.40 SEC
 SORT2 READ    46609319. AND WROTE    55360566. INTEGRALS IN      4 RECORDS. CPU TIME:     0.81 SEC, REAL TIME:     1.02 SEC

 FILE SIZES:   FILE 1:   759.7 MBYTE,  FILE 4:   566.3 MBYTE,   TOTAL:   1326.0 MBYTE

 OPERATOR DM      FOR CENTER  0  COORDINATES:    0.000000    0.000000    0.000000


 **********************************************************************************************************************************
 DATASETS  * FILE   NREC   LENGTH (MB)   RECORD NAMES
              1      19      421.43       500      610      700      900      950      970     1000      129      960     1100   
                                          VAR    BASINP    GEOM    SYMINP    ZMAT    AOBASIS   BASIS     P2S    ABASIS      S 
                                         1400     1410     1200     1210     1080     1600     1650     1300     1700   
                                           T        V       H0       H01     AOSYM     SMH    MOLCAS    ERIS     OPER   

 PROGRAMS   *        TOTAL       INT
 CPU TIMES  *         5.25      5.15
 REAL TIME  *         6.79 SEC
 DISK USED  *         1.33 GB      
 **********************************************************************************************************************************


 PROGRAM * RHF-SCF (CLOSED SHELL)       Authors: W. Meyer, H.-J. Werner


 NUMBER OF ELECTRONS:       8+    8-
 CONVERGENCE THRESHOLDS:    1.00E-10 (Density)    1.00E-13 (Energy)
 MAX. NUMBER OF ITERATIONS:      500
 INTERPOLATION TYPE:            DIIS
 INTERPOLATION STEPS:              2 (START)      1 (STEP)
 LEVEL SHIFTS:                  0.00 (CLOSED)  0.00 (OPEN) 



 Orbital guess generated from atomic densities. Full valence occupancy:    9   2

 Molecular orbital dump at record        2100.2

 Initial occupancy:   7   1

 ITERATION    DDIFF          GRAD             ENERGY        2-EL.EN.            DIPOLE MOMENTS         DIIS   ORB.
    1      0.000D+00      0.000D+00      -129.79043157    154.194451    0.00000    0.57248   -1.00455    0    start
    2      0.000D+00      0.874D-02      -129.81742797    155.368746    0.00000    0.59635   -0.20014    1    diag
    3      0.364D-02      0.658D-02      -129.83952201    155.484900    0.00000    0.54736   -0.58060    2    diag
    4      0.140D-02      0.104D-02      -129.84029902    155.212982    0.00000    0.55551   -0.51867    3    diag
    5      0.331D-03      0.335D-03      -129.84041746    155.300421    0.00000    0.56147   -0.52111    4    diag
    6      0.153D-03      0.980D-04      -129.84043669    155.284437    0.00000    0.56205   -0.51705    5    diag
    7      0.605D-04      0.491D-04      -129.84044233    155.286975    0.00000    0.56338   -0.51457    6    diag
    8      0.410D-04      0.166D-04      -129.84044292    155.286165    0.00000    0.56343   -0.51368    7    diag
    9      0.140D-04      0.309D-05      -129.84044295    155.286056    0.00000    0.56338   -0.51351    8    diag
   10      0.282D-05      0.709D-06      -129.84044295    155.286043    0.00000    0.56335   -0.51348    9    orth
   11      0.856D-06      0.141D-06      -129.84044295    155.286039    0.00000    0.56334   -0.51348    9    diag
   12      0.203D-06      0.291D-07      -129.84044295    155.286038    0.00000    0.56334   -0.51348    9    diag
   13      0.491D-07      0.763D-08      -129.84044295    155.286038    0.00000    0.56334   -0.51348    9    diag
   14      0.112D-07      0.135D-08      -129.84044295    155.286038    0.00000    0.56334   -0.51348    9    diag
   15      0.146D-08      0.365D-09      -129.84044295    155.286038    0.00000    0.56334   -0.51348    9    diag
   16      0.323D-09      0.108D-09      -129.84044295    155.286038    0.00000    0.56334   -0.51348    9    diag
   17      0.765D-10      0.302D-10      -129.84044295    155.286038    0.00000    0.56334   -0.51348    9    diag
   18      0.243D-10      0.101D-10      -129.84044295    155.286038    0.00000    0.56334   -0.51348    9    diag
   19      0.983D-11      0.261D-11      -129.84044295    155.286038    0.00000    0.56334   -0.51348    9    fixocc
   20      0.231D-11      0.671D-12      -129.84044295    155.286038    0.00000    0.56334   -0.51348    9    orth
   21      0.441D-12      0.518D-12      -129.84044295    155.286038    0.00000    0.56334   -0.51348    0    orth

 Final occupancy:   7   1

 !RHF STATE 1.1 Energy               -129.840442950306
 Nuclear energy                        30.44164268
 One-electron energy                 -237.92510470
 Two-electron energy                   77.64301907
 Virial quotient                       -1.00149415
 !RHF STATE 1.1 Dipole moment           0.00000000     0.56333627    -0.51347539
 Dipole moment /Debye                   0.00000000     1.43176420    -1.30503877

 Orbital energies:

         1.1          2.1          3.1          4.1          5.1          6.1          7.1          8.1          9.1
    -20.650953   -15.709454    -1.530300    -0.993616    -0.746581    -0.665045    -0.428156     0.039769     0.193390

         1.2          2.2          3.2
     -0.595427     0.080010     0.239678

 HOMO      7.1    -0.428156 =     -11.6507eV
 LUMO      8.1     0.039769 =       1.0822eV
 LUMO-HOMO         0.467925 =      12.7329eV


 **********************************************************************************************************************************
 DATASETS  * FILE   NREC   LENGTH (MB)   RECORD NAMES
              1      19      421.43       500      610      700      900      950      970     1000      129      960     1100   
                                          VAR    BASINP    GEOM    SYMINP    ZMAT    AOBASIS   BASIS     P2S    ABASIS      S 
                                         1400     1410     1200     1210     1080     1600     1650     1300     1700   
                                           T        V       H0       H01     AOSYM     SMH    MOLCAS    ERIS     OPER   

              2       4        3.13       700     1000      520     2100   
                                         GEOM     BASIS   MCVARS     RHF  

 PROGRAMS   *        TOTAL        HF       INT
 CPU TIMES  *        11.76      6.51      5.15
 REAL TIME  *        14.43 SEC
 DISK USED  *         1.33 GB      
 **********************************************************************************************************************************


 PROGRAM * CCSD (Closed-shell coupled cluster)     Authors: C. Hampel, H.-J. Werner, 1991, M. Deegan, P.J. Knowles, 1992


 Convergence thresholds:  THRVAR = 1.00D-08  THRDEN = 1.00D-12

 CCSD(T)     terms to be evaluated (factor= 1.000)


 Number of closed-shell orbitals:   8 (   7   1 )
 Number of external orbitals:     163 ( 107  56 )

 Molecular orbitals read from record     2100.2  Type=RHF/CANONICAL (state 1.1)

 Number of N-1 electron functions:               8
 Number of N-2 electron functions:              36
 Number of singly external CSFs:               805
 Number of doubly external CSFs:            449165
 Total number of CSFs:                      449971

 Length of J-op  integral file:               0.00 MB
 Length of K-op  integral file:               1.15 MB
 Length of 3-ext integral record:             0.00 MB

 Memory could be reduced to 24.90 Mwords without degradation in triples

 Integral transformation finished. Total CPU:   1.23 sec, npass=  1  Memory used:   6.89 MW

 Reference energy:                   -129.84044295

 MP2 singlet pair energy:              -0.37855045
 MP2 triplet pair energy:              -0.18640174
 MP2 correlation energy:               -0.56495219
 MP2 total energy:                   -130.40539514

 SCS-MP2 correlation energy:           -0.57024384   (PS=  1.200000  PT=  0.333333)
 SCS-MP2 total energy:               -130.41068679

 ITER.      SQ.NORM     CORR.ENERGY   TOTAL ENERGY   ENERGY CHANGE        DEN1      VAR(S)    VAR(P)  DIIS     TIME  TIME/IT
   1      1.11930937    -0.56979354  -130.41023649    -0.00484135     0.01269865  0.33D-02  0.31D-02  1  1     2.67     1.47
   2      1.13007942    -0.56952276  -130.40996571     0.00027078    -0.01360588  0.89D-04  0.49D-03  2  2     4.15     1.51
   3      1.13526023    -0.56984257  -130.41028552    -0.00031981    -0.00233877  0.54D-04  0.67D-04  3  3     5.62     1.53
   4      1.13864695    -0.56983473  -130.41027768     0.00000784    -0.00137145  0.43D-05  0.96D-05  4  4     7.11     1.53
   5      1.13967417    -0.56985864  -130.41030159    -0.00002391    -0.00024123  0.15D-05  0.18D-05  5  5     8.61     1.54
   6      1.14007436    -0.56985284  -130.41029579     0.00000580    -0.00003842  0.13D-06  0.42D-06  6  6    10.07     1.54
   7      1.14015736    -0.56985316  -130.41029611    -0.00000032     0.00000039  0.19D-07  0.94D-07  6  1    11.54     1.54
   8      1.14019102    -0.56985149  -130.41029444     0.00000167    -0.00000467  0.42D-08  0.13D-07  6  2    13.03     1.55
   9      1.14019570    -0.56985159  -130.41029454    -0.00000010     0.00000107  0.17D-08  0.17D-08  6  3    14.50     1.55
  10      1.14019726    -0.56985189  -130.41029484    -0.00000030    -0.00000061  0.40D-09  0.24D-09  6  4    16.00     1.55
  11      1.14019630    -0.56985203  -130.41029498    -0.00000014     0.00000034  0.97D-10  0.25D-10  6  5    17.50     1.55
  12      1.14019543    -0.56985216  -130.41029511    -0.00000013     0.00000034  0.10D-10  0.62D-11  6  6    18.98     1.55
  13      1.14019493    -0.56985217  -130.41029512    -0.00000001     0.00000010  0.42D-11  0.11D-11  6  1    20.47     1.55
  14      1.14019451    -0.56985220  -130.41029515    -0.00000003     0.00000010  0.44D-12  0.38D-12  6  3    21.94     1.55
  15      1.14019435    -0.56985220  -130.41029515    -0.00000000     0.00000002  0.11D-12  0.26D-13  6  2    23.40     1.55
  16      1.14019430    -0.56985220  -130.41029515    -0.00000000     0.00000001  0.24D-13  0.57D-14  6  4    24.88     1.55
  17      1.14019428    -0.56985220  -130.41029515    -0.00000000     0.00000001  0.41D-14  0.11D-14  6  5    26.35     1.55
  18      1.14019427    -0.56985220  -130.41029515    -0.00000000     0.00000000  0.42D-15  0.27D-15  6  6    27.84     1.55
  19      1.14019428    -0.56985220  -130.41029515     0.00000000    -0.00000000  0.50D-16  0.36D-16  6  1    29.32     1.55
  20      1.14019428    -0.56985220  -130.41029515     0.00000000    -0.00000000  0.21D-17  0.77D-17  6  3    30.85     1.56
  21      1.14019428    -0.56985220  -130.41029515     0.00000000    -0.00000000  0.11D-17  0.19D-17  6  2    32.34     1.56
  22      1.14019428    -0.56985220  -130.41029515     0.00000000    -0.00000000  0.21D-18  0.68D-18  6  4    33.85     1.56
  23      1.14019428    -0.56985220  -130.41029515    -0.00000000     0.00000000  0.12D-18  0.10D-18  6  5    35.34     1.56
  24      1.14019428    -0.56985220  -130.41029515     0.00000000    -0.00000000  0.50D-20  0.13D-19  6  1    36.82     1.56
  25      1.14019428    -0.56985220  -130.41029515     0.00000000     0.00000000  0.29D-21  0.13D-20  6  6    38.30     1.56
  26      1.14019428    -0.56985220  -130.41029515    -0.00000000     0.00000000  0.10D-21  0.30D-21  6  3    39.79     1.56

 Norm of t1 vector:      0.07705793      S-energy:     0.00000000      T1 diagnostic:  0.01362205
                                                                       D1 diagnostic:  0.04370734

 Doubles amplitudes (print threshold =  0.500E-01):

         I         J         SYM. A    SYM. B    A         B      T(IJ, AB)

         8         8         2         2         1         1     -0.13381118


 Total CPU time for triples:     23.12 sec


 RESULTS
 =======

  Reference energy                   -129.840442950307

  Correlated core orbitals:             1.1       2.1
  Orbital energies:                   -20.6510  -15.7095
 
  CCSD core-core energy                -0.079230527225
  CCSD core-valence energy             -0.036103564256
  CCSD valence correlation energy      -0.454518108017
 
  CCSD singlet pair energy             -0.407436696361
  CCSD triplet pair energy             -0.162415503137
  CCSD correlation energy              -0.569852199498

  Triples (T) contribution             -0.022166048556
  Total correlation energy             -0.592018248054

  CCSD total energy                  -130.410295149804
  CCSD[T] energy                     -130.433615410120
  CCSD-T energy                      -130.432026013646
 !CCSD(T) total energy               -130.432461198361

 Timing summary (sec):

 STEP                 CPU(USER)    SYS     CPU(TOT)    WALL
 Transformation          1.26      0.13      1.39      1.39
 CCSD iterations        38.54      1.92     40.46     40.47
 Triples                23.12      0.51     23.63     23.64

 Program statistics:

 Available memory in ccsd:               994999644
 Min. memory needed in ccsd:               1368037
 Max. memory used in ccsd:                 1750502
 Max. memory used in cckext:               2014357 (26 integral passes)



 **********************************************************************************************************************************
 DATASETS  * FILE   NREC   LENGTH (MB)   RECORD NAMES
              1      20      500.34       500      610      700      900      950      970     1000      129      960     1100   
                                          VAR    BASINP    GEOM    SYMINP    ZMAT    AOBASIS   BASIS     P2S    ABASIS      S 
                                         1400     1410     1200     1210     1080     1600     1650     1300     1700     1380   
                                           T        V       H0       H01     AOSYM     SMH    MOLCAS    ERIS     OPER     JKOP   

              2       4        3.13       700     1000      520     2100   
                                         GEOM     BASIS   MCVARS     RHF  

 PROGRAMS   *        TOTAL   CCSD(T)        HF       INT
 CPU TIMES  *        74.71     62.94      6.51      5.15
 REAL TIME  *        79.98 SEC
 DISK USED  *         1.33 GB      
 **********************************************************************************************************************************

 CCSD(T)/USERDEF energy=   -130.432461198361

        CCSD(T)         HF-SCF  
   -130.43246120   -129.84044295
 **********************************************************************************************************************************
 Molpro calculation terminated
 Variable memory released
