
 Primary working directories    : /tmp/r2666/235469.maple
 Secondary working directories  : /tmp/r2666/235469.maple
 Wavefunction directory         : /ddn/home4/r2666/wfu/
 Main file repository           : /tmp/r2666/235469.maple/

 SHA1      : d5ffa45e93fdbca01ffc919aa182cfdae0147319
 NAME      : 2015.1.35
 ARCHNAME  : linux/x86_64
 FC        : /opt/intel/composer_xe_2015.1.133/bin/intel64/ifort
 BLASLIB   : -Wl,-_start-group /opt/intel/mkl/lib/intel64/libmkl_intel_ilp64.a /opt/intel/mkl/lib/intel64/libmkl_intel_thread.a /opt/intel/mkl/lib/intel64/libmkl_core.a -Wl,-_end-group
 id        : olemiss

 Nodes     nprocs
 cn095        1

 Using customized tuning parameters: mindgm=1; mindgv=20; mindgc=4; mindgr=1; noblas=0; minvec=7
 default implementation of scratch files=df  

 ***,hno CCSD(T)/TZ-F12 QFF
 memory, 995, m;
 gthresh,energy=1.d-12,zero=1.d-22,oneint=1.d-22,twoint=1.d-22;
 gthresh,optgrad=1.d-8,optstep=1.d-8;
 nocompress;
 geomtyp=xyz
 bohr
 geometry={
 3
         66        66
 N        0.0000000000       -0.1640624451       -1.1533947091
 H        0.0000000000        1.6673780464       -1.9268245671
 O        0.0000000000        0.0384521887        1.1296296853
 }
 
 basis={
 default=aug-cc-pvtz
 s,C,8236.0,1235.0,280.8, 79.27,25.59, 8.997,3.319
 s,C,0.9059,0.3643,0.1285000
 p,C,56.0,18.71,4.133,0.2827,0.3827,0.1209
 d,C,30.0,10.0,3.3,1.097,0.318
 f,C,7.0,2.3,0.7610
 s,N,11420.0,1712.0,389.3,110.0,35.57,12.54,4.644
 s,N,1.293,0.5118,0.1787
 p,N,79.89,26.63,5.948,1.742,0.555,0.1725
 d,N,45.0,15.0,5.0,1.654,0.469
 f,N,9.9,3.3,1.093
 s,O,15330.0,2299.0,522.4,147.3,47.55,16.76,6.207
 s,O,1.752,0.6882,0.2384
 p,O,103.5,34.46,7.749,2.28,0.7156,0.214
 d,O,63.0,21.0,7.0,2.314,0.645
 f,O,12.9,4.3,1.428
 s,mg,164900.0,24710.0,5628.0,1596.0,521.0;
 s,mg,188.0,73.01,29.90,12.54,4.306,1.826;
 s,mg,0.7417,0.0761,0.145,0.033,0.0129;
 p,mg,950.70,316.90,74.86,23.72,8.669,3.363;
 p,mg,1.310,0.4911,0.2364,0.08733,0.03237,0.00745;
 d,mg,1.601,0.686,0.126,0.294,0.0468;
 f,mg,1.372,0.588,0.094,0.252;
 }
   {hf,maxit=500;accu,20;}
 {ccsd(t),nocheck,maxit=250;orbital,IGNORE_ERROR;core}

 Variables initialized (889), CPU time= 0.01 sec
 Commands  initialized (702), CPU time= 0.01 sec, 572 directives.
 Default parameters read. Elapsed time= 0.05 sec

 Checking input...
 Passed
1


                                         ***  PROGRAM SYSTEM MOLPRO  ***
                                       Copyright, TTI GmbH Stuttgart, 2015
                                    Version 2015.1 linked Jul  9 2018 13:16:40


 **********************************************************************************************************************************
 LABEL *   hno CCSD(T)/TZ-F12 QFF                                                        
  64 bit serial version                                                                  DATE: 08-Feb-20          TIME: 17:59:49  
 **********************************************************************************************************************************

 SHA1:             d5ffa45e93fdbca01ffc919aa182cfdae0147319
 **********************************************************************************************************************************

 THRESHOLDS:

 ZERO    =  1.00D-22  ONEINT  =  1.00D-22  TWOINT  =  1.00D-22  PREFAC  =  1.00D-14  LOCALI  =  1.00D-09  EORDER  =  1.00D-04
 ENERGY  =  1.00D-12  ETEST   =  0.00D+00  EDENS   =  0.00D+00  THRDEDEF=  1.00D-06  GRADIENT=  1.00D-02  STEP    =  1.00D-03
 ORBITAL =  1.00D-05  CIVEC   =  1.00D-05  COEFF   =  1.00D-04  PRINTCI =  5.00D-02  PUNCHCI =  9.90D+01  OPTGRAD =  3.00D-04
 OPTENERG=  1.00D-06  OPTSTEP =  3.00D-04  THRGRAD =  1.00D-10  COMPRESS=  1.00D-11  VARMIN  =  1.00D-07  VARMAX  =  1.00D-03
 THRDOUB =  0.00D+00  THRDIV  =  1.00D-05  THRRED  =  1.00D-07  THRPSP  =  1.00D+00  THRDC   =  1.00D-10  THRCS   =  1.00D-10
 THRNRM  =  1.00D-08  THREQ   =  0.00D+00  THRDE   =  1.00D+00  THRREF  =  1.00D-05  SPARFAC =  1.00D+00  THRDLP  =  1.00D-07
 THRDIA  =  1.00D-10  THRDLS  =  1.00D-07  THRGPS  =  0.00D+00  THRKEX  =  0.00D+00  THRDIS  =  2.00D-01  THRVAR  =  1.00D-10
 THRLOC  =  1.00D-06  THRGAP  =  1.00D-06  THRLOCT = -1.00D+00  THRGAPT = -1.00D+00  THRORB  =  1.00D-06  THRMLTP =  0.00D+00
 THRCPQCI=  1.00D-10  KEXTA   =  0.00D+00  THRCOARS=  0.00D+00  SYMTOL  =  1.00D-06  GRADTOL =  1.00D-06  THROVL  =  1.00D-08
 THRORTH =  1.00D-08  GRID    =  1.00D-06  GRIDMAX =  1.00D-03  DTMAX   =  0.00D+00  THROCCDE=  1.00D-01  THROCCDE=  1.00D-01



 THRESHOLDS:

 ZERO    =  1.00D-22  ONEINT  =  1.00D-22  TWOINT  =  1.00D-22  PREFAC  =  1.00D-14  LOCALI  =  1.00D-09  EORDER  =  1.00D-04
 ENERGY  =  1.00D-12  ETEST   =  0.00D+00  EDENS   =  0.00D+00  THRDEDEF=  1.00D-06  GRADIENT=  1.00D-02  STEP    =  1.00D-03
 ORBITAL =  1.00D-05  CIVEC   =  1.00D-05  COEFF   =  1.00D-04  PRINTCI =  5.00D-02  PUNCHCI =  9.90D+01  OPTGRAD =  1.00D-08
 OPTENERG=  1.00D-06  OPTSTEP =  1.00D-08  THRGRAD =  1.00D-10  COMPRESS=  1.00D-11  VARMIN  =  1.00D-07  VARMAX  =  1.00D-03
 THRDOUB =  0.00D+00  THRDIV  =  1.00D-05  THRRED  =  1.00D-07  THRPSP  =  1.00D+00  THRDC   =  1.00D-10  THRCS   =  1.00D-10
 THRNRM  =  1.00D-08  THREQ   =  0.00D+00  THRDE   =  1.00D+00  THRREF  =  1.00D-05  SPARFAC =  1.00D+00  THRDLP  =  1.00D-07
 THRDIA  =  1.00D-10  THRDLS  =  1.00D-07  THRGPS  =  0.00D+00  THRKEX  =  0.00D+00  THRDIS  =  2.00D-01  THRVAR  =  1.00D-10
 THRLOC  =  1.00D-06  THRGAP  =  1.00D-06  THRLOCT = -1.00D+00  THRGAPT = -1.00D+00  THRORB  =  1.00D-06  THRMLTP =  0.00D+00
 THRCPQCI=  1.00D-10  KEXTA   =  0.00D+00  THRCOARS=  0.00D+00  SYMTOL  =  1.00D-06  GRADTOL =  1.00D-06  THROVL  =  1.00D-08
 THRORTH =  1.00D-08  GRID    =  1.00D-06  GRIDMAX =  1.00D-03  DTMAX   =  0.00D+00  THROCCDE=  1.00D-01  THROCCDE=  1.00D-01



 Input parameters for SORTINT:

 COMPRESS =    0.000000
 C_FINAL  =    1.000000
 DEBUG    =   -1.000000
 C_SORT1  =    0.000000
 C_SEWARD =    0.000000
 THRESH   =    0.000000
 IO       =  molpro                                                          
 SPRI     =    0.000000
 SETTING GEOMTYP        =    XYZ
 ZUNIT=BOHR
 

 Variable memory set to  995000000 words,  buffer space   230000 words

 SETTING BASIS          =    USERDEF


 Recomputing integrals since basis changed


 Using spherical harmonics

 Library entry H      S aug-cc-pVTZ          selected for orbital group  2
 Library entry H      P aug-cc-pVTZ          selected for orbital group  2
 Library entry H      D aug-cc-pVTZ          selected for orbital group  2


 PROGRAM * SEWARD (Integral evaluation for generally contracted gaussian basis sets)     Author: Roland Lindh, 1990

 Geometry written to block  1 of record 700


 Point group  Cs  



 ATOMIC COORDINATES

 NR  ATOM    CHARGE       X              Y              Z

   1  N       7.00    0.000000000   -0.164062445   -1.153394709
   2  H       1.00    0.000000000    1.667378046   -1.926824567
   3  O       8.00    0.000000000    0.038452189    1.129629685

 Bond lengths in Bohr (Angstrom)

 1-2  1.988056342  1-3  2.291988779
     ( 1.052034110)     ( 1.212868229)

 Bond angles

  2-1-3  107.82553834

 NUCLEAR CHARGE:                   16
 NUMBER OF PRIMITIVE AOS:         203
 NUMBER OF SYMMETRY AOS:          173
 NUMBER OF CONTRACTIONS:          171   ( 114A'  +  57A"  )
 NUMBER OF CORE ORBITALS:           2   (   2A'  +   0A"  )
 NUMBER OF VALENCE ORBITALS:        9   (   7A'  +   2A"  )


 NUCLEAR REPULSION ENERGY   30.26380867


 Eigenvalues of metric

         1 0.105E-02 0.253E-02 0.335E-02 0.638E-02 0.985E-02 0.137E-01 0.145E-01 0.231E-01
         2 0.364E-01 0.539E-01 0.703E-01 0.941E-01 0.131E+00 0.134E+00 0.140E+00 0.142E+00


 Contracted 2-electron integrals neglected if value below      1.0D-22

       46130819. INTEGRALS WRITTEN OUT IN   11266 BLOCKS ON RECORD 1290 OF FILE 1


 NUMBER OF SORTED TWO-ELECTRON INTEGRALS:   55360566.     BUFFER LENGTH:  32768
 NUMBER OF SEGMENTS:   4  SEGMENT LENGTH:   15997996      RECORD LENGTH: 524288

 Memory used in sort:      16.56 MW

 SORT1 READ    46130819. AND WROTE    46568153. INTEGRALS IN    135 RECORDS. CPU TIME:     0.84 SEC, REAL TIME:     1.19 SEC
 SORT2 READ    46568153. AND WROTE    55360566. INTEGRALS IN      4 RECORDS. CPU TIME:     0.68 SEC, REAL TIME:     0.94 SEC

 FILE SIZES:   FILE 1:   759.1 MBYTE,  FILE 4:   566.3 MBYTE,   TOTAL:   1325.3 MBYTE

 OPERATOR DM      FOR CENTER  0  COORDINATES:    0.000000    0.000000    0.000000


 **********************************************************************************************************************************
 DATASETS  * FILE   NREC   LENGTH (MB)   RECORD NAMES
              1      19      421.15       500      610      700      900      950      970     1000      129      960     1100   
                                          VAR    BASINP    GEOM    SYMINP    ZMAT    AOBASIS   BASIS     P2S    ABASIS      S 
                                         1400     1410     1200     1210     1080     1600     1650     1300     1700   
                                           T        V       H0       H01     AOSYM     SMH    MOLCAS    ERIS     OPER   

 PROGRAMS   *        TOTAL       INT
 CPU TIMES  *         4.77      4.66
 REAL TIME  *         6.38 SEC
 DISK USED  *         1.33 GB      
 **********************************************************************************************************************************


 PROGRAM * RHF-SCF (CLOSED SHELL)       Authors: W. Meyer, H.-J. Werner


 NUMBER OF ELECTRONS:       8+    8-
 CONVERGENCE THRESHOLDS:    1.00E-10 (Density)    1.00E-13 (Energy)
 MAX. NUMBER OF ITERATIONS:      500
 INTERPOLATION TYPE:            DIIS
 INTERPOLATION STEPS:              2 (START)      1 (STEP)
 LEVEL SHIFTS:                  0.00 (CLOSED)  0.00 (OPEN) 



 Orbital guess generated from atomic densities. Full valence occupancy:    9   2

 Molecular orbital dump at record        2100.2

 Initial occupancy:   7   1

 ITERATION    DDIFF          GRAD             ENERGY        2-EL.EN.            DIPOLE MOMENTS         DIIS   ORB.
    1      0.000D+00      0.000D+00      -129.78779388    153.874973    0.00000    0.56862   -1.02865    0    start
    2      0.000D+00      0.884D-02      -129.81454686    155.037639    0.00000    0.60088   -0.19196    1    diag
    3      0.367D-02      0.679D-02      -129.83819163    155.169618    0.00000    0.54737   -0.58935    2    diag
    4      0.144D-02      0.104D-02      -129.83898429    154.891656    0.00000    0.55553   -0.52623    3    diag
    5      0.333D-03      0.340D-03      -129.83910664    154.980037    0.00000    0.56152   -0.52852    4    diag
    6      0.154D-03      0.998D-04      -129.83912666    154.963869    0.00000    0.56206   -0.52431    5    diag
    7      0.609D-04      0.503D-04      -129.83913264    154.966358    0.00000    0.56338   -0.52172    6    diag
    8      0.415D-04      0.175D-04      -129.83913331    154.965505    0.00000    0.56343   -0.52077    7    diag
    9      0.148D-04      0.327D-05      -129.83913334    154.965388    0.00000    0.56338   -0.52058    8    diag
   10      0.303D-05      0.735D-06      -129.83913334    154.965374    0.00000    0.56334   -0.52056    9    orth
   11      0.879D-06      0.146D-06      -129.83913334    154.965370    0.00000    0.56334   -0.52055    9    diag
   12      0.207D-06      0.306D-07      -129.83913334    154.965369    0.00000    0.56333   -0.52055    9    diag
   13      0.508D-07      0.818D-08      -129.83913334    154.965369    0.00000    0.56333   -0.52055    9    diag
   14      0.117D-07      0.143D-08      -129.83913334    154.965369    0.00000    0.56333   -0.52055    9    diag
   15      0.145D-08      0.379D-09      -129.83913334    154.965369    0.00000    0.56333   -0.52055    9    diag
   16      0.328D-09      0.109D-09      -129.83913334    154.965369    0.00000    0.56333   -0.52055    9    diag
   17      0.699D-10      0.290D-10      -129.83913334    154.965369    0.00000    0.56333   -0.52055    9    diag
   18      0.206D-10      0.950D-11      -129.83913334    154.965369    0.00000    0.56333   -0.52055    9    diag
   19      0.819D-11      0.219D-11      -129.83913334    154.965369    0.00000    0.56333   -0.52055    9    fixocc
   20      0.199D-11      0.740D-12      -129.83913334    154.965369    0.00000    0.56333   -0.52055    9    orth
   21      0.285D-12      0.388D-12      -129.83913334    154.965369    0.00000    0.56333   -0.52055    0    orth

 Final occupancy:   7   1

 !RHF STATE 1.1 Energy               -129.839133343388
 Nuclear energy                        30.26380867
 One-electron energy                 -237.58562639
 Two-electron energy                   77.48268438
 Virial quotient                       -1.00176809
 !RHF STATE 1.1 Dipole moment           0.00000000     0.56333256    -0.52055028
 Dipole moment /Debye                   0.00000000     1.43175476    -1.32302017

 Orbital energies:

         1.1          2.1          3.1          4.1          5.1          6.1          7.1          8.1          9.1
    -20.651652   -15.711505    -1.524233    -0.993832    -0.743720    -0.662758    -0.430486     0.039668     0.192590

         1.2          2.2          3.2
     -0.591942     0.077460     0.239341

 HOMO      7.1    -0.430486 =     -11.7141eV
 LUMO      8.1     0.039668 =       1.0794eV
 LUMO-HOMO         0.470154 =      12.7935eV


 **********************************************************************************************************************************
 DATASETS  * FILE   NREC   LENGTH (MB)   RECORD NAMES
              1      19      421.15       500      610      700      900      950      970     1000      129      960     1100   
                                          VAR    BASINP    GEOM    SYMINP    ZMAT    AOBASIS   BASIS     P2S    ABASIS      S 
                                         1400     1410     1200     1210     1080     1600     1650     1300     1700   
                                           T        V       H0       H01     AOSYM     SMH    MOLCAS    ERIS     OPER   

              2       4        3.13       700     1000      520     2100   
                                         GEOM     BASIS   MCVARS     RHF  

 PROGRAMS   *        TOTAL        HF       INT
 CPU TIMES  *        11.12      6.36      4.66
 REAL TIME  *        13.99 SEC
 DISK USED  *         1.33 GB      
 **********************************************************************************************************************************


 PROGRAM * CCSD (Closed-shell coupled cluster)     Authors: C. Hampel, H.-J. Werner, 1991, M. Deegan, P.J. Knowles, 1992


 Convergence thresholds:  THRVAR = 1.00D-08  THRDEN = 1.00D-12

 CCSD(T)     terms to be evaluated (factor= 1.000)


 Number of closed-shell orbitals:   8 (   7   1 )
 Number of external orbitals:     163 ( 107  56 )

 Molecular orbitals read from record     2100.2  Type=RHF/CANONICAL (state 1.1)

 Number of N-1 electron functions:               8
 Number of N-2 electron functions:              36
 Number of singly external CSFs:               805
 Number of doubly external CSFs:            449165
 Total number of CSFs:                      449971

 Length of J-op  integral file:               0.00 MB
 Length of K-op  integral file:               1.15 MB
 Length of 3-ext integral record:             0.00 MB

 Memory could be reduced to 24.90 Mwords without degradation in triples

 Integral transformation finished. Total CPU:   1.09 sec, npass=  1  Memory used:   6.89 MW

 Reference energy:                   -129.83913334

 MP2 singlet pair energy:              -0.37942650
 MP2 triplet pair energy:              -0.18693708
 MP2 correlation energy:               -0.56636357
 MP2 total energy:                   -130.40549692

 SCS-MP2 correlation energy:           -0.57162820   (PS=  1.200000  PT=  0.333333)
 SCS-MP2 total energy:               -130.41076154

 ITER.      SQ.NORM     CORR.ENERGY   TOTAL ENERGY   ENERGY CHANGE        DEN1      VAR(S)    VAR(P)  DIIS     TIME  TIME/IT
   1      1.12027829    -0.57090815  -130.41004150    -0.00454458     0.01337481  0.34D-02  0.32D-02  1  1     2.30     1.25
   2      1.13127880    -0.57056658  -130.40969993     0.00034157    -0.01384288  0.93D-04  0.51D-03  2  2     3.54     1.29
   3      1.13659759    -0.57089747  -130.41003082    -0.00033089    -0.00237578  0.56D-04  0.70D-04  3  3     4.76     1.30
   4      1.14009271    -0.57088988  -130.41002323     0.00000759    -0.00140282  0.46D-05  0.99D-05  4  4     5.97     1.31
   5      1.14117106    -0.57091480  -130.41004814    -0.00002491    -0.00025453  0.16D-05  0.19D-05  5  5     7.23     1.31
   6      1.14158767    -0.57090855  -130.41004190     0.00000624    -0.00004038  0.14D-06  0.41D-06  6  6     8.46     1.32
   7      1.14167131    -0.57090887  -130.41004221    -0.00000032     0.00000077  0.20D-07  0.94D-07  6  1     9.71     1.32
   8      1.14170533    -0.57090707  -130.41004041     0.00000180    -0.00000482  0.40D-08  0.14D-07  6  2    10.93     1.32
   9      1.14171003    -0.57090715  -130.41004049    -0.00000008     0.00000120  0.17D-08  0.18D-08  6  3    12.14     1.32
  10      1.14171175    -0.57090745  -130.41004080    -0.00000030    -0.00000068  0.41D-09  0.26D-09  6  4    13.36     1.32
  11      1.14171079    -0.57090759  -130.41004094    -0.00000014     0.00000034  0.10D-09  0.27D-10  6  5    14.60     1.32
  12      1.14170991    -0.57090773  -130.41004107    -0.00000014     0.00000034  0.10D-10  0.66D-11  6  6    15.87     1.32
  13      1.14170939    -0.57090774  -130.41004108    -0.00000001     0.00000010  0.43D-11  0.12D-11  6  1    17.11     1.32
  14      1.14170896    -0.57090777  -130.41004111    -0.00000003     0.00000010  0.44D-12  0.40D-12  6  3    18.36     1.32
  15      1.14170879    -0.57090777  -130.41004111    -0.00000000     0.00000002  0.11D-12  0.28D-13  6  2    19.60     1.32
  16      1.14170873    -0.57090777  -130.41004111    -0.00000000     0.00000001  0.24D-13  0.60D-14  6  4    20.82     1.32
  17      1.14170871    -0.57090777  -130.41004111    -0.00000000     0.00000001  0.44D-14  0.11D-14  6  5    22.01     1.32
  18      1.14170871    -0.57090777  -130.41004111    -0.00000000     0.00000000  0.47D-15  0.29D-15  6  6    23.23     1.32
  19      1.14170871    -0.57090777  -130.41004111     0.00000000    -0.00000000  0.59D-16  0.42D-16  6  1    24.42     1.32
  20      1.14170871    -0.57090777  -130.41004111     0.00000000    -0.00000000  0.24D-17  0.94D-17  6  3    25.63     1.32
  21      1.14170871    -0.57090777  -130.41004111     0.00000000    -0.00000000  0.12D-17  0.24D-17  6  2    26.88     1.32
  22      1.14170871    -0.57090777  -130.41004111     0.00000000    -0.00000000  0.26D-18  0.86D-18  6  4    28.09     1.32
  23      1.14170871    -0.57090777  -130.41004111    -0.00000000     0.00000000  0.14D-18  0.12D-18  6  5    29.29     1.32
  24      1.14170871    -0.57090777  -130.41004111     0.00000000    -0.00000000  0.58D-20  0.15D-19  6  1    30.53     1.33
  25      1.14170871    -0.57090777  -130.41004111     0.00000000     0.00000000  0.36D-21  0.15D-20  6  6    31.76     1.33
  26      1.14170871    -0.57090777  -130.41004111    -0.00000000     0.00000000  0.11D-21  0.33D-21  6  3    33.00     1.33

 Norm of t1 vector:      0.07837338      S-energy:     0.00000000      T1 diagnostic:  0.01385459
                                                                       D1 diagnostic:  0.04465638

 Doubles amplitudes (print threshold =  0.500E-01):

         I         J         SYM. A    SYM. B    A         B      T(IJ, AB)

         8         8         2         2         1         1     -0.13611600


 Total CPU time for triples:     21.10 sec


 RESULTS
 =======

  Reference energy                   -129.839133343388

  Correlated core orbitals:             1.1       2.1
  Orbital energies:                   -20.6517  -15.7115
 
  CCSD core-core energy                -0.079234889916
  CCSD core-valence energy             -0.036044557334
  CCSD valence correlation energy      -0.455628322104
 
  CCSD singlet pair energy             -0.408391745778
  CCSD triplet pair energy             -0.162516023577
  CCSD correlation energy              -0.570907769355

  Triples (T) contribution             -0.022437446751
  Total correlation energy             -0.593345216105

  CCSD total energy                  -130.410041112743
  CCSD[T] energy                     -130.433670655501
  CCSD-T energy                      -130.432032635844
 !CCSD(T) total energy               -130.432478559494

 Timing summary (sec):

 STEP                 CPU(USER)    SYS     CPU(TOT)    WALL
 Transformation          1.11      0.18      1.29      1.30
 CCSD iterations        31.89      2.61     34.50     34.51
 Triples                21.10      0.61     21.71     21.71

 Program statistics:

 Available memory in ccsd:               994999644
 Min. memory needed in ccsd:               1368037
 Max. memory used in ccsd:                 1750502
 Max. memory used in cckext:               2014357 (26 integral passes)



 **********************************************************************************************************************************
 DATASETS  * FILE   NREC   LENGTH (MB)   RECORD NAMES
              1      20      500.07       500      610      700      900      950      970     1000      129      960     1100   
                                          VAR    BASINP    GEOM    SYMINP    ZMAT    AOBASIS   BASIS     P2S    ABASIS      S 
                                         1400     1410     1200     1210     1080     1600     1650     1300     1700     1380   
                                           T        V       H0       H01     AOSYM     SMH    MOLCAS    ERIS     OPER     JKOP   

              2       4        3.13       700     1000      520     2100   
                                         GEOM     BASIS   MCVARS     RHF  

 PROGRAMS   *        TOTAL   CCSD(T)        HF       INT
 CPU TIMES  *        65.26     54.13      6.36      4.66
 REAL TIME  *        71.57 SEC
 DISK USED  *         1.33 GB      
 **********************************************************************************************************************************

 CCSD(T)/USERDEF energy=   -130.432478559494

        CCSD(T)         HF-SCF  
   -130.43247856   -129.83913334
 **********************************************************************************************************************************
 Molpro calculation terminated
 Variable memory released
