
 Primary working directories    : /tmp/r2666/235576.maple
 Secondary working directories  : /tmp/r2666/235576.maple
 Wavefunction directory         : /ddn/home4/r2666/wfu/
 Main file repository           : /tmp/r2666/235576.maple/

 SHA1      : d5ffa45e93fdbca01ffc919aa182cfdae0147319
 NAME      : 2015.1.35
 ARCHNAME  : linux/x86_64
 FC        : /opt/intel/composer_xe_2015.1.133/bin/intel64/ifort
 BLASLIB   : -Wl,-_start-group /opt/intel/mkl/lib/intel64/libmkl_intel_ilp64.a /opt/intel/mkl/lib/intel64/libmkl_intel_thread.a /opt/intel/mkl/lib/intel64/libmkl_core.a -Wl,-_end-group
 id        : olemiss

 Nodes     nprocs
 cn096        1

 Using customized tuning parameters: mindgm=1; mindgv=20; mindgc=4; mindgr=1; noblas=0; minvec=7
 default implementation of scratch files=df  

 ***,hno CCSD(T)/TZ-F12 QFF
 memory, 995, m;
 gthresh,energy=1.d-12,zero=1.d-22,oneint=1.d-22,twoint=1.d-22;
 gthresh,optgrad=1.d-8,optstep=1.d-8;
 nocompress;
 geomtyp=xyz
 bohr
 geometry={
 3
         49        49
 N        0.0000000000       -0.1676771826       -1.1461977774
 H        0.0000000000        1.6650551726       -1.9165614146
 O        0.0000000000        0.0443898000        1.1121696010
 }
 
 basis={
 default=aug-cc-pvtz
 s,C,8236.0,1235.0,280.8, 79.27,25.59, 8.997,3.319
 s,C,0.9059,0.3643,0.1285000
 p,C,56.0,18.71,4.133,0.2827,0.3827,0.1209
 d,C,30.0,10.0,3.3,1.097,0.318
 f,C,7.0,2.3,0.7610
 s,N,11420.0,1712.0,389.3,110.0,35.57,12.54,4.644
 s,N,1.293,0.5118,0.1787
 p,N,79.89,26.63,5.948,1.742,0.555,0.1725
 d,N,45.0,15.0,5.0,1.654,0.469
 f,N,9.9,3.3,1.093
 s,O,15330.0,2299.0,522.4,147.3,47.55,16.76,6.207
 s,O,1.752,0.6882,0.2384
 p,O,103.5,34.46,7.749,2.28,0.7156,0.214
 d,O,63.0,21.0,7.0,2.314,0.645
 f,O,12.9,4.3,1.428
 s,mg,164900.0,24710.0,5628.0,1596.0,521.0;
 s,mg,188.0,73.01,29.90,12.54,4.306,1.826;
 s,mg,0.7417,0.0761,0.145,0.033,0.0129;
 p,mg,950.70,316.90,74.86,23.72,8.669,3.363;
 p,mg,1.310,0.4911,0.2364,0.08733,0.03237,0.00745;
 d,mg,1.601,0.686,0.126,0.294,0.0468;
 f,mg,1.372,0.588,0.094,0.252;
 }
   {hf,maxit=500;accu,20;}
 {ccsd(t),nocheck,maxit=250;orbital,IGNORE_ERROR;core}

 Variables initialized (889), CPU time= 0.00 sec
 Commands  initialized (702), CPU time= 0.01 sec, 572 directives.
 Default parameters read. Elapsed time= 0.05 sec

 Checking input...
 Passed
1


                                         ***  PROGRAM SYSTEM MOLPRO  ***
                                       Copyright, TTI GmbH Stuttgart, 2015
                                    Version 2015.1 linked Jul  9 2018 13:16:40


 **********************************************************************************************************************************
 LABEL *   hno CCSD(T)/TZ-F12 QFF                                                        
  64 bit serial version                                                                  DATE: 09-Feb-20          TIME: 14:36:37  
 **********************************************************************************************************************************

 SHA1:             d5ffa45e93fdbca01ffc919aa182cfdae0147319
 **********************************************************************************************************************************

 THRESHOLDS:

 ZERO    =  1.00D-22  ONEINT  =  1.00D-22  TWOINT  =  1.00D-22  PREFAC  =  1.00D-14  LOCALI  =  1.00D-09  EORDER  =  1.00D-04
 ENERGY  =  1.00D-12  ETEST   =  0.00D+00  EDENS   =  0.00D+00  THRDEDEF=  1.00D-06  GRADIENT=  1.00D-02  STEP    =  1.00D-03
 ORBITAL =  1.00D-05  CIVEC   =  1.00D-05  COEFF   =  1.00D-04  PRINTCI =  5.00D-02  PUNCHCI =  9.90D+01  OPTGRAD =  3.00D-04
 OPTENERG=  1.00D-06  OPTSTEP =  3.00D-04  THRGRAD =  1.00D-10  COMPRESS=  1.00D-11  VARMIN  =  1.00D-07  VARMAX  =  1.00D-03
 THRDOUB =  0.00D+00  THRDIV  =  1.00D-05  THRRED  =  1.00D-07  THRPSP  =  1.00D+00  THRDC   =  1.00D-10  THRCS   =  1.00D-10
 THRNRM  =  1.00D-08  THREQ   =  0.00D+00  THRDE   =  1.00D+00  THRREF  =  1.00D-05  SPARFAC =  1.00D+00  THRDLP  =  1.00D-07
 THRDIA  =  1.00D-10  THRDLS  =  1.00D-07  THRGPS  =  0.00D+00  THRKEX  =  0.00D+00  THRDIS  =  2.00D-01  THRVAR  =  1.00D-10
 THRLOC  =  1.00D-06  THRGAP  =  1.00D-06  THRLOCT = -1.00D+00  THRGAPT = -1.00D+00  THRORB  =  1.00D-06  THRMLTP =  0.00D+00
 THRCPQCI=  1.00D-10  KEXTA   =  0.00D+00  THRCOARS=  0.00D+00  SYMTOL  =  1.00D-06  GRADTOL =  1.00D-06  THROVL  =  1.00D-08
 THRORTH =  1.00D-08  GRID    =  1.00D-06  GRIDMAX =  1.00D-03  DTMAX   =  0.00D+00  THROCCDE=  1.00D-01  THROCCDE=  1.00D-01



 THRESHOLDS:

 ZERO    =  1.00D-22  ONEINT  =  1.00D-22  TWOINT  =  1.00D-22  PREFAC  =  1.00D-14  LOCALI  =  1.00D-09  EORDER  =  1.00D-04
 ENERGY  =  1.00D-12  ETEST   =  0.00D+00  EDENS   =  0.00D+00  THRDEDEF=  1.00D-06  GRADIENT=  1.00D-02  STEP    =  1.00D-03
 ORBITAL =  1.00D-05  CIVEC   =  1.00D-05  COEFF   =  1.00D-04  PRINTCI =  5.00D-02  PUNCHCI =  9.90D+01  OPTGRAD =  1.00D-08
 OPTENERG=  1.00D-06  OPTSTEP =  1.00D-08  THRGRAD =  1.00D-10  COMPRESS=  1.00D-11  VARMIN  =  1.00D-07  VARMAX  =  1.00D-03
 THRDOUB =  0.00D+00  THRDIV  =  1.00D-05  THRRED  =  1.00D-07  THRPSP  =  1.00D+00  THRDC   =  1.00D-10  THRCS   =  1.00D-10
 THRNRM  =  1.00D-08  THREQ   =  0.00D+00  THRDE   =  1.00D+00  THRREF  =  1.00D-05  SPARFAC =  1.00D+00  THRDLP  =  1.00D-07
 THRDIA  =  1.00D-10  THRDLS  =  1.00D-07  THRGPS  =  0.00D+00  THRKEX  =  0.00D+00  THRDIS  =  2.00D-01  THRVAR  =  1.00D-10
 THRLOC  =  1.00D-06  THRGAP  =  1.00D-06  THRLOCT = -1.00D+00  THRGAPT = -1.00D+00  THRORB  =  1.00D-06  THRMLTP =  0.00D+00
 THRCPQCI=  1.00D-10  KEXTA   =  0.00D+00  THRCOARS=  0.00D+00  SYMTOL  =  1.00D-06  GRADTOL =  1.00D-06  THROVL  =  1.00D-08
 THRORTH =  1.00D-08  GRID    =  1.00D-06  GRIDMAX =  1.00D-03  DTMAX   =  0.00D+00  THROCCDE=  1.00D-01  THROCCDE=  1.00D-01



 Input parameters for SORTINT:

 COMPRESS =    0.000000
 C_FINAL  =    1.000000
 DEBUG    =   -1.000000
 C_SORT1  =    0.000000
 C_SEWARD =    0.000000
 THRESH   =    0.000000
 IO       =  molpro                                                          
 SPRI     =    0.000000
 SETTING GEOMTYP        =    XYZ
 ZUNIT=BOHR
 

 Variable memory set to  995000000 words,  buffer space   230000 words

 SETTING BASIS          =    USERDEF


 Recomputing integrals since basis changed


 Using spherical harmonics

 Library entry H      S aug-cc-pVTZ          selected for orbital group  2
 Library entry H      P aug-cc-pVTZ          selected for orbital group  2
 Library entry H      D aug-cc-pVTZ          selected for orbital group  2


 PROGRAM * SEWARD (Integral evaluation for generally contracted gaussian basis sets)     Author: Roland Lindh, 1990

 Geometry written to block  1 of record 700


 Point group  Cs  



 ATOMIC COORDINATES

 NR  ATOM    CHARGE       X              Y              Z

   1  N       7.00    0.000000000   -0.167677183   -1.146197777
   2  H       1.00    0.000000000    1.665055173   -1.916561415
   3  O       8.00    0.000000000    0.044389800    1.112169601

 Bond lengths in Bohr (Angstrom)

 1-2  1.988056342  1-3  2.268302365
     ( 1.052034110)     ( 1.200333919)

 Bond angles

  2-1-3  107.43427257

 NUCLEAR CHARGE:                   16
 NUMBER OF PRIMITIVE AOS:         203
 NUMBER OF SYMMETRY AOS:          173
 NUMBER OF CONTRACTIONS:          171   ( 114A'  +  57A"  )
 NUMBER OF CORE ORBITALS:           2   (   2A'  +   0A"  )
 NUMBER OF VALENCE ORBITALS:        9   (   7A'  +   2A"  )


 NUCLEAR REPULSION ENERGY   30.53800658


 Eigenvalues of metric

         1 0.103E-02 0.243E-02 0.329E-02 0.632E-02 0.985E-02 0.136E-01 0.144E-01 0.229E-01
         2 0.364E-01 0.520E-01 0.697E-01 0.939E-01 0.131E+00 0.134E+00 0.140E+00 0.142E+00


 Contracted 2-electron integrals neglected if value below      1.0D-22

       46205782. INTEGRALS WRITTEN OUT IN   11284 BLOCKS ON RECORD 1290 OF FILE 1


 NUMBER OF SORTED TWO-ELECTRON INTEGRALS:   55360566.     BUFFER LENGTH:  32768
 NUMBER OF SEGMENTS:   4  SEGMENT LENGTH:   15997996      RECORD LENGTH: 524288

 Memory used in sort:      16.56 MW

 SORT1 READ    46205782. AND WROTE    46643894. INTEGRALS IN    135 RECORDS. CPU TIME:     0.77 SEC, REAL TIME:     1.07 SEC
 SORT2 READ    46643894. AND WROTE    55360566. INTEGRALS IN      4 RECORDS. CPU TIME:     0.63 SEC, REAL TIME:     0.87 SEC

 FILE SIZES:   FILE 1:   760.2 MBYTE,  FILE 4:   566.3 MBYTE,   TOTAL:   1326.5 MBYTE

 OPERATOR DM      FOR CENTER  0  COORDINATES:    0.000000    0.000000    0.000000


 **********************************************************************************************************************************
 DATASETS  * FILE   NREC   LENGTH (MB)   RECORD NAMES
              1      19      421.66       500      610      700      900      950      970     1000      129      960     1100   
                                          VAR    BASINP    GEOM    SYMINP    ZMAT    AOBASIS   BASIS     P2S    ABASIS      S 
                                         1400     1410     1200     1210     1080     1600     1650     1300     1700   
                                           T        V       H0       H01     AOSYM     SMH    MOLCAS    ERIS     OPER   

 PROGRAMS   *        TOTAL       INT
 CPU TIMES  *         4.21      4.12
 REAL TIME  *         5.67 SEC
 DISK USED  *         1.33 GB      
 **********************************************************************************************************************************


 PROGRAM * RHF-SCF (CLOSED SHELL)       Authors: W. Meyer, H.-J. Werner


 NUMBER OF ELECTRONS:       8+    8-
 CONVERGENCE THRESHOLDS:    1.00E-10 (Density)    1.00E-13 (Energy)
 MAX. NUMBER OF ITERATIONS:      500
 INTERPOLATION TYPE:            DIIS
 INTERPOLATION STEPS:              2 (START)      1 (STEP)
 LEVEL SHIFTS:                  0.00 (CLOSED)  0.00 (OPEN) 



 Orbital guess generated from atomic densities. Full valence occupancy:    9   2

 Molecular orbital dump at record        2100.2

 Initial occupancy:   7   1

 ITERATION    DDIFF          GRAD             ENERGY        2-EL.EN.            DIPOLE MOMENTS         DIIS   ORB.
    1      0.000D+00      0.000D+00      -129.79122956    154.366580    0.00000    0.55957   -0.98744    0    start
    2      0.000D+00      0.872D-02      -129.81837623    155.551839    0.00000    0.59292   -0.19683    1    diag
    3      0.360D-02      0.652D-02      -129.83997718    155.656996    0.00000    0.53972   -0.56948    2    diag
    4      0.139D-02      0.103D-02      -129.84074244    155.388400    0.00000    0.54838   -0.50868    3    diag
    5      0.327D-03      0.334D-03      -129.84086024    155.475576    0.00000    0.55433   -0.51118    4    diag
    6      0.152D-03      0.980D-04      -129.84087943    155.459572    0.00000    0.55492   -0.50719    5    diag
    7      0.604D-04      0.487D-04      -129.84088497    155.462191    0.00000    0.55627   -0.50478    6    diag
    8      0.407D-04      0.163D-04      -129.84088553    155.461394    0.00000    0.55633   -0.50392    7    diag
    9      0.136D-04      0.301D-05      -129.84088555    155.461288    0.00000    0.55628   -0.50375    8    diag
   10      0.271D-05      0.693D-06      -129.84088555    155.461275    0.00000    0.55624   -0.50372    9    orth
   11      0.834D-06      0.139D-06      -129.84088555    155.461271    0.00000    0.55624   -0.50372    9    diag
   12      0.201D-06      0.287D-07      -129.84088555    155.461270    0.00000    0.55623   -0.50372    9    diag
   13      0.492D-07      0.751D-08      -129.84088555    155.461270    0.00000    0.55623   -0.50372    9    diag
   14      0.112D-07      0.135D-08      -129.84088555    155.461270    0.00000    0.55623   -0.50372    9    diag
   15      0.151D-08      0.374D-09      -129.84088555    155.461270    0.00000    0.55623   -0.50372    9    diag
   16      0.334D-09      0.116D-09      -129.84088555    155.461270    0.00000    0.55623   -0.50372    9    diag
   17      0.886D-10      0.339D-10      -129.84088555    155.461270    0.00000    0.55623   -0.50372    0    orth

 Final occupancy:   7   1

 !RHF STATE 1.1 Energy               -129.840885554199
 Nuclear energy                        30.53800658
 One-electron energy                 -238.10952718
 Two-electron energy                   77.73063504
 Virial quotient                       -1.00137845
 !RHF STATE 1.1 Dipole moment           0.00000000     0.55623356    -0.50371726
 Dipole moment /Debye                   0.00000000     1.41371210    -1.28023771

 Orbital energies:

         1.1          2.1          3.1          4.1          5.1          6.1          7.1          8.1          9.1
    -20.650388   -15.709467    -1.534759    -0.990689    -0.747624    -0.666299    -0.426919     0.039906     0.193244

         1.2          2.2          3.2
     -0.597983     0.081951     0.239713

 HOMO      7.1    -0.426919 =     -11.6171eV
 LUMO      8.1     0.039906 =       1.0859eV
 LUMO-HOMO         0.466825 =      12.7029eV


 **********************************************************************************************************************************
 DATASETS  * FILE   NREC   LENGTH (MB)   RECORD NAMES
              1      19      421.66       500      610      700      900      950      970     1000      129      960     1100   
                                          VAR    BASINP    GEOM    SYMINP    ZMAT    AOBASIS   BASIS     P2S    ABASIS      S 
                                         1400     1410     1200     1210     1080     1600     1650     1300     1700   
                                           T        V       H0       H01     AOSYM     SMH    MOLCAS    ERIS     OPER   

              2       4        3.13       700     1000      520     2100   
                                         GEOM     BASIS   MCVARS     RHF  

 PROGRAMS   *        TOTAL        HF       INT
 CPU TIMES  *         8.64      4.43      4.12
 REAL TIME  *        10.96 SEC
 DISK USED  *         1.33 GB      
 **********************************************************************************************************************************


 PROGRAM * CCSD (Closed-shell coupled cluster)     Authors: C. Hampel, H.-J. Werner, 1991, M. Deegan, P.J. Knowles, 1992


 Convergence thresholds:  THRVAR = 1.00D-08  THRDEN = 1.00D-12

 CCSD(T)     terms to be evaluated (factor= 1.000)


 Number of closed-shell orbitals:   8 (   7   1 )
 Number of external orbitals:     163 ( 107  56 )

 Molecular orbitals read from record     2100.2  Type=RHF/CANONICAL (state 1.1)

 Number of N-1 electron functions:               8
 Number of N-2 electron functions:              36
 Number of singly external CSFs:               805
 Number of doubly external CSFs:            449165
 Total number of CSFs:                      449971

 Length of J-op  integral file:               0.00 MB
 Length of K-op  integral file:               1.15 MB
 Length of 3-ext integral record:             0.00 MB

 Memory could be reduced to 24.90 Mwords without degradation in triples

 Integral transformation finished. Total CPU:   0.90 sec, npass=  1  Memory used:   6.89 MW

 Reference energy:                   -129.84088555

 MP2 singlet pair energy:              -0.37817859
 MP2 triplet pair energy:              -0.18615801
 MP2 correlation energy:               -0.56433661
 MP2 total energy:                   -130.40522216

 SCS-MP2 correlation energy:           -0.56964596   (PS=  1.200000  PT=  0.333333)
 SCS-MP2 total energy:               -130.41053152

 ITER.      SQ.NORM     CORR.ENERGY   TOTAL ENERGY   ENERGY CHANGE        DEN1      VAR(S)    VAR(P)  DIIS     TIME  TIME/IT
   1      1.11893950    -0.56934455  -130.41023011    -0.00500794     0.01234529  0.33D-02  0.30D-02  1  1     1.88     1.01
   2      1.12960014    -0.56911601  -130.41000157     0.00022854    -0.01349162  0.87D-04  0.49D-03  2  2     2.85     1.04
   3      1.13471622    -0.56943140  -130.41031696    -0.00031539    -0.00232713  0.52D-04  0.66D-04  3  3     3.82     1.05
   4      1.13804065    -0.56942300  -130.41030856     0.00000840    -0.00135617  0.42D-05  0.93D-05  4  4     4.83     1.06
   5      1.13903562    -0.56944652  -130.41033207    -0.00002351    -0.00023387  0.15D-05  0.18D-05  5  5     5.85     1.07
   6      1.13942355    -0.56944102  -130.41032658     0.00000549    -0.00003711  0.13D-06  0.40D-06  6  6     6.86     1.08
   7      1.13950544    -0.56944124  -130.41032679    -0.00000022     0.00000018  0.20D-07  0.90D-07  6  1     7.88     1.08
   8      1.13953872    -0.56943961  -130.41032517     0.00000163    -0.00000458  0.41D-08  0.13D-07  6  2     8.92     1.09
   9      1.13954338    -0.56943971  -130.41032527    -0.00000010     0.00000100  0.16D-08  0.16D-08  6  3     9.93     1.09
  10      1.13954491    -0.56944001  -130.41032556    -0.00000029    -0.00000057  0.37D-09  0.22D-09  6  4    10.94     1.09
  11      1.13954397    -0.56944014  -130.41032569    -0.00000013     0.00000033  0.90D-10  0.22D-10  6  5    11.92     1.09
  12      1.13954313    -0.56944026  -130.41032582    -0.00000012     0.00000033  0.92D-11  0.58D-11  6  6    12.92     1.09
  13      1.13954264    -0.56944027  -130.41032583    -0.00000001     0.00000010  0.39D-11  0.10D-11  6  1    13.94     1.09
  14      1.13954224    -0.56944030  -130.41032585    -0.00000002     0.00000010  0.42D-12  0.34D-12  6  3    14.96     1.09
  15      1.13954209    -0.56944030  -130.41032585    -0.00000000     0.00000002  0.10D-12  0.23D-13  6  2    15.97     1.09
  16      1.13954204    -0.56944030  -130.41032585    -0.00000000     0.00000001  0.23D-13  0.52D-14  6  4    16.99     1.09
  17      1.13954202    -0.56944030  -130.41032586    -0.00000000     0.00000001  0.38D-14  0.99D-15  6  5    18.00     1.09
  18      1.13954202    -0.56944030  -130.41032586    -0.00000000     0.00000000  0.38D-15  0.25D-15  6  6    19.01     1.09
  19      1.13954202    -0.56944030  -130.41032586     0.00000000    -0.00000000  0.45D-16  0.32D-16  6  1    20.01     1.09
  20      1.13954202    -0.56944030  -130.41032586     0.00000000    -0.00000000  0.18D-17  0.66D-17  6  3    20.98     1.09
  21      1.13954202    -0.56944030  -130.41032586     0.00000000    -0.00000000  0.91D-18  0.16D-17  6  2    21.96     1.09
  22      1.13954202    -0.56944030  -130.41032586     0.00000000    -0.00000000  0.16D-18  0.57D-18  6  4    22.94     1.09
  23      1.13954202    -0.56944030  -130.41032586    -0.00000000     0.00000000  0.95D-19  0.86D-19  6  5    23.95     1.09
  24      1.13954202    -0.56944030  -130.41032586     0.00000000    -0.00000000  0.46D-20  0.11D-19  6  1    24.95     1.09
  25      1.13954202    -0.56944030  -130.41032586     0.00000000     0.00000000  0.24D-21  0.12D-20  6  6    25.95     1.09
  26      1.13954202    -0.56944030  -130.41032586    -0.00000000     0.00000000  0.93D-22  0.26D-21  6  3    26.98     1.09

 Norm of t1 vector:      0.07629274      S-energy:     0.00000000      T1 diagnostic:  0.01348678
                                                                       D1 diagnostic:  0.04302885

 Doubles amplitudes (print threshold =  0.500E-01):

         I         J         SYM. A    SYM. B    A         B      T(IJ, AB)

         8         8         2         2         1         1     -0.13242464


 Total CPU time for triples:     18.75 sec


 RESULTS
 =======

  Reference energy                   -129.840885554199

  Correlated core orbitals:             1.1       2.1
  Orbital energies:                   -20.6504  -15.7095
 
  CCSD core-core energy                -0.079227303068
  CCSD core-valence energy             -0.036125583977
  CCSD valence correlation energy      -0.454087413975
 
  CCSD singlet pair energy             -0.407059717898
  CCSD triplet pair energy             -0.162380583129
  CCSD correlation energy              -0.569440301020

  Triples (T) contribution             -0.022039215327
  Total correlation energy             -0.591479516347

  CCSD total energy                  -130.410325855219
  CCSD[T] energy                     -130.433498596964
  CCSD-T energy                      -130.431934914859
 !CCSD(T) total energy               -130.432365070547

 Timing summary (sec):

 STEP                 CPU(USER)    SYS     CPU(TOT)    WALL
 Transformation          0.91      0.17      1.08      1.08
 CCSD iterations        26.07      2.37     28.44     28.46
 Triples                18.75      0.64     19.39     19.39

 Program statistics:

 Available memory in ccsd:               994999644
 Min. memory needed in ccsd:               1368037
 Max. memory used in ccsd:                 1750502
 Max. memory used in cckext:               2014357 (26 integral passes)



 **********************************************************************************************************************************
 DATASETS  * FILE   NREC   LENGTH (MB)   RECORD NAMES
              1      20      500.57       500      610      700      900      950      970     1000      129      960     1100   
                                          VAR    BASINP    GEOM    SYMINP    ZMAT    AOBASIS   BASIS     P2S    ABASIS      S 
                                         1400     1410     1200     1210     1080     1600     1650     1300     1700     1380   
                                           T        V       H0       H01     AOSYM     SMH    MOLCAS    ERIS     OPER     JKOP   

              2       4        3.13       700     1000      520     2100   
                                         GEOM     BASIS   MCVARS     RHF  

 PROGRAMS   *        TOTAL   CCSD(T)        HF       INT
 CPU TIMES  *        54.40     45.76      4.43      4.12
 REAL TIME  *        59.92 SEC
 DISK USED  *         1.33 GB      
 **********************************************************************************************************************************

 CCSD(T)/USERDEF energy=   -130.432365070547

        CCSD(T)         HF-SCF  
   -130.43236507   -129.84088555
 **********************************************************************************************************************************
 Molpro calculation terminated
 Variable memory released
