
 Primary working directories    : /tmp/r2666/235464.maple
 Secondary working directories  : /tmp/r2666/235464.maple
 Wavefunction directory         : /ddn/home4/r2666/wfu/
 Main file repository           : /tmp/r2666/235464.maple/

 SHA1      : d5ffa45e93fdbca01ffc919aa182cfdae0147319
 NAME      : 2015.1.35
 ARCHNAME  : linux/x86_64
 FC        : /opt/intel/composer_xe_2015.1.133/bin/intel64/ifort
 BLASLIB   : -Wl,-_start-group /opt/intel/mkl/lib/intel64/libmkl_intel_ilp64.a /opt/intel/mkl/lib/intel64/libmkl_intel_thread.a /opt/intel/mkl/lib/intel64/libmkl_core.a -Wl,-_end-group
 id        : olemiss

 Nodes     nprocs
 cn096        1

 Using customized tuning parameters: mindgm=1; mindgv=20; mindgc=4; mindgr=1; noblas=0; minvec=7
 default implementation of scratch files=df  

 ***,hno CCSD(T)/TZ-F12 QFF
 memory, 995, m;
 gthresh,energy=1.d-12,zero=1.d-22,oneint=1.d-22,twoint=1.d-22;
 gthresh,optgrad=1.d-8,optstep=1.d-8;
 nocompress;
 geomtyp=xyz
 bohr
 geometry={
 3
         61        61
 N        0.0000000000       -0.1709786642       -1.1623963049
 H        0.0000000000        1.6676032371       -1.9186929475
 O        0.0000000000        0.0451432172        1.1304996614
 }
 
 basis={
 default=aug-cc-pvtz
 s,C,8236.0,1235.0,280.8, 79.27,25.59, 8.997,3.319
 s,C,0.9059,0.3643,0.1285000
 p,C,56.0,18.71,4.133,0.2827,0.3827,0.1209
 d,C,30.0,10.0,3.3,1.097,0.318
 f,C,7.0,2.3,0.7610
 s,N,11420.0,1712.0,389.3,110.0,35.57,12.54,4.644
 s,N,1.293,0.5118,0.1787
 p,N,79.89,26.63,5.948,1.742,0.555,0.1725
 d,N,45.0,15.0,5.0,1.654,0.469
 f,N,9.9,3.3,1.093
 s,O,15330.0,2299.0,522.4,147.3,47.55,16.76,6.207
 s,O,1.752,0.6882,0.2384
 p,O,103.5,34.46,7.749,2.28,0.7156,0.214
 d,O,63.0,21.0,7.0,2.314,0.645
 f,O,12.9,4.3,1.428
 s,mg,164900.0,24710.0,5628.0,1596.0,521.0;
 s,mg,188.0,73.01,29.90,12.54,4.306,1.826;
 s,mg,0.7417,0.0761,0.145,0.033,0.0129;
 p,mg,950.70,316.90,74.86,23.72,8.669,3.363;
 p,mg,1.310,0.4911,0.2364,0.08733,0.03237,0.00745;
 d,mg,1.601,0.686,0.126,0.294,0.0468;
 f,mg,1.372,0.588,0.094,0.252;
 }
   {hf,maxit=500;accu,20;}
 {ccsd(t),nocheck,maxit=250;orbital,IGNORE_ERROR;core}

 Variables initialized (889), CPU time= 0.00 sec
 Commands  initialized (702), CPU time= 0.01 sec, 572 directives.
 Default parameters read. Elapsed time= 0.07 sec

 Checking input...
 Passed
1


                                         ***  PROGRAM SYSTEM MOLPRO  ***
                                       Copyright, TTI GmbH Stuttgart, 2015
                                    Version 2015.1 linked Jul  9 2018 13:16:40


 **********************************************************************************************************************************
 LABEL *   hno CCSD(T)/TZ-F12 QFF                                                        
  64 bit serial version                                                                  DATE: 08-Feb-20          TIME: 17:59:40  
 **********************************************************************************************************************************

 SHA1:             d5ffa45e93fdbca01ffc919aa182cfdae0147319
 **********************************************************************************************************************************

 THRESHOLDS:

 ZERO    =  1.00D-22  ONEINT  =  1.00D-22  TWOINT  =  1.00D-22  PREFAC  =  1.00D-14  LOCALI  =  1.00D-09  EORDER  =  1.00D-04
 ENERGY  =  1.00D-12  ETEST   =  0.00D+00  EDENS   =  0.00D+00  THRDEDEF=  1.00D-06  GRADIENT=  1.00D-02  STEP    =  1.00D-03
 ORBITAL =  1.00D-05  CIVEC   =  1.00D-05  COEFF   =  1.00D-04  PRINTCI =  5.00D-02  PUNCHCI =  9.90D+01  OPTGRAD =  3.00D-04
 OPTENERG=  1.00D-06  OPTSTEP =  3.00D-04  THRGRAD =  1.00D-10  COMPRESS=  1.00D-11  VARMIN  =  1.00D-07  VARMAX  =  1.00D-03
 THRDOUB =  0.00D+00  THRDIV  =  1.00D-05  THRRED  =  1.00D-07  THRPSP  =  1.00D+00  THRDC   =  1.00D-10  THRCS   =  1.00D-10
 THRNRM  =  1.00D-08  THREQ   =  0.00D+00  THRDE   =  1.00D+00  THRREF  =  1.00D-05  SPARFAC =  1.00D+00  THRDLP  =  1.00D-07
 THRDIA  =  1.00D-10  THRDLS  =  1.00D-07  THRGPS  =  0.00D+00  THRKEX  =  0.00D+00  THRDIS  =  2.00D-01  THRVAR  =  1.00D-10
 THRLOC  =  1.00D-06  THRGAP  =  1.00D-06  THRLOCT = -1.00D+00  THRGAPT = -1.00D+00  THRORB  =  1.00D-06  THRMLTP =  0.00D+00
 THRCPQCI=  1.00D-10  KEXTA   =  0.00D+00  THRCOARS=  0.00D+00  SYMTOL  =  1.00D-06  GRADTOL =  1.00D-06  THROVL  =  1.00D-08
 THRORTH =  1.00D-08  GRID    =  1.00D-06  GRIDMAX =  1.00D-03  DTMAX   =  0.00D+00  THROCCDE=  1.00D-01  THROCCDE=  1.00D-01



 THRESHOLDS:

 ZERO    =  1.00D-22  ONEINT  =  1.00D-22  TWOINT  =  1.00D-22  PREFAC  =  1.00D-14  LOCALI  =  1.00D-09  EORDER  =  1.00D-04
 ENERGY  =  1.00D-12  ETEST   =  0.00D+00  EDENS   =  0.00D+00  THRDEDEF=  1.00D-06  GRADIENT=  1.00D-02  STEP    =  1.00D-03
 ORBITAL =  1.00D-05  CIVEC   =  1.00D-05  COEFF   =  1.00D-04  PRINTCI =  5.00D-02  PUNCHCI =  9.90D+01  OPTGRAD =  1.00D-08
 OPTENERG=  1.00D-06  OPTSTEP =  1.00D-08  THRGRAD =  1.00D-10  COMPRESS=  1.00D-11  VARMIN  =  1.00D-07  VARMAX  =  1.00D-03
 THRDOUB =  0.00D+00  THRDIV  =  1.00D-05  THRRED  =  1.00D-07  THRPSP  =  1.00D+00  THRDC   =  1.00D-10  THRCS   =  1.00D-10
 THRNRM  =  1.00D-08  THREQ   =  0.00D+00  THRDE   =  1.00D+00  THRREF  =  1.00D-05  SPARFAC =  1.00D+00  THRDLP  =  1.00D-07
 THRDIA  =  1.00D-10  THRDLS  =  1.00D-07  THRGPS  =  0.00D+00  THRKEX  =  0.00D+00  THRDIS  =  2.00D-01  THRVAR  =  1.00D-10
 THRLOC  =  1.00D-06  THRGAP  =  1.00D-06  THRLOCT = -1.00D+00  THRGAPT = -1.00D+00  THRORB  =  1.00D-06  THRMLTP =  0.00D+00
 THRCPQCI=  1.00D-10  KEXTA   =  0.00D+00  THRCOARS=  0.00D+00  SYMTOL  =  1.00D-06  GRADTOL =  1.00D-06  THROVL  =  1.00D-08
 THRORTH =  1.00D-08  GRID    =  1.00D-06  GRIDMAX =  1.00D-03  DTMAX   =  0.00D+00  THROCCDE=  1.00D-01  THROCCDE=  1.00D-01



 Input parameters for SORTINT:

 COMPRESS =    0.000000
 C_FINAL  =    1.000000
 DEBUG    =   -1.000000
 C_SORT1  =    0.000000
 C_SEWARD =    0.000000
 THRESH   =    0.000000
 IO       =  molpro                                                          
 SPRI     =    0.000000
 SETTING GEOMTYP        =    XYZ
 ZUNIT=BOHR
 

 Variable memory set to  995000000 words,  buffer space   230000 words

 SETTING BASIS          =    USERDEF


 Recomputing integrals since basis changed


 Using spherical harmonics

 Library entry H      S aug-cc-pVTZ          selected for orbital group  2
 Library entry H      P aug-cc-pVTZ          selected for orbital group  2
 Library entry H      D aug-cc-pVTZ          selected for orbital group  2


 PROGRAM * SEWARD (Integral evaluation for generally contracted gaussian basis sets)     Author: Roland Lindh, 1990

 Geometry written to block  1 of record 700


 Point group  Cs  



 ATOMIC COORDINATES

 NR  ATOM    CHARGE       X              Y              Z

   1  N       7.00    0.000000000   -0.170978664   -1.162396305
   2  H       1.00    0.000000000    1.667603237   -1.918692948
   3  O       8.00    0.000000000    0.045143217    1.130499661

 Bond lengths in Bohr (Angstrom)

 1-2  1.988056342  1-3  2.303058961
     ( 1.052034110)     ( 1.218726318)

 Bond angles

  2-1-3  106.97507948

 NUCLEAR CHARGE:                   16
 NUMBER OF PRIMITIVE AOS:         203
 NUMBER OF SYMMETRY AOS:          173
 NUMBER OF CONTRACTIONS:          171   ( 114A'  +  57A"  )
 NUMBER OF CORE ORBITALS:           2   (   2A'  +   0A"  )
 NUMBER OF VALENCE ORBITALS:        9   (   7A'  +   2A"  )


 NUCLEAR REPULSION ENERGY   30.15268496


 Eigenvalues of metric

         1 0.106E-02 0.259E-02 0.337E-02 0.641E-02 0.986E-02 0.137E-01 0.146E-01 0.232E-01
         2 0.366E-01 0.547E-01 0.710E-01 0.941E-01 0.132E+00 0.134E+00 0.140E+00 0.142E+00


 Contracted 2-electron integrals neglected if value below      1.0D-22

       46094878. INTEGRALS WRITTEN OUT IN   11257 BLOCKS ON RECORD 1290 OF FILE 1


 NUMBER OF SORTED TWO-ELECTRON INTEGRALS:   55360566.     BUFFER LENGTH:  32768
 NUMBER OF SEGMENTS:   4  SEGMENT LENGTH:   15997996      RECORD LENGTH: 524288

 Memory used in sort:      16.56 MW

 SORT1 READ    46094878. AND WROTE    46531793. INTEGRALS IN    135 RECORDS. CPU TIME:     0.88 SEC, REAL TIME:     1.25 SEC
 SORT2 READ    46531793. AND WROTE    55360566. INTEGRALS IN      4 RECORDS. CPU TIME:     0.71 SEC, REAL TIME:     0.96 SEC

 FILE SIZES:   FILE 1:   758.5 MBYTE,  FILE 4:   566.3 MBYTE,   TOTAL:   1324.7 MBYTE

 OPERATOR DM      FOR CENTER  0  COORDINATES:    0.000000    0.000000    0.000000


 **********************************************************************************************************************************
 DATASETS  * FILE   NREC   LENGTH (MB)   RECORD NAMES
              1      19      420.90       500      610      700      900      950      970     1000      129      960     1100   
                                          VAR    BASINP    GEOM    SYMINP    ZMAT    AOBASIS   BASIS     P2S    ABASIS      S 
                                         1400     1410     1200     1210     1080     1600     1650     1300     1700   
                                           T        V       H0       H01     AOSYM     SMH    MOLCAS    ERIS     OPER   

 PROGRAMS   *        TOTAL       INT
 CPU TIMES  *         4.96      4.85
 REAL TIME  *         6.84 SEC
 DISK USED  *         1.33 GB      
 **********************************************************************************************************************************


 PROGRAM * RHF-SCF (CLOSED SHELL)       Authors: W. Meyer, H.-J. Werner


 NUMBER OF ELECTRONS:       8+    8-
 CONVERGENCE THRESHOLDS:    1.00E-10 (Density)    1.00E-13 (Energy)
 MAX. NUMBER OF ITERATIONS:      500
 INTERPOLATION TYPE:            DIIS
 INTERPOLATION STEPS:              2 (START)      1 (STEP)
 LEVEL SHIFTS:                  0.00 (CLOSED)  0.00 (OPEN) 



 Orbital guess generated from atomic densities. Full valence occupancy:    9   2

 Molecular orbital dump at record        2100.2

 Initial occupancy:   7   1

 ITERATION    DDIFF          GRAD             ENERGY        2-EL.EN.            DIPOLE MOMENTS         DIIS   ORB.
    1      0.000D+00      0.000D+00      -129.78586087    153.680394    0.00000    0.56357   -1.04555    0    start
    2      0.000D+00      0.890D-02      -129.81240106    154.826462    0.00000    0.60502   -0.18463    1    diag
    3      0.370D-02      0.694D-02      -129.83716769    154.972331    0.00000    0.54659   -0.59435    2    diag
    4      0.147D-02      0.105D-02      -129.83796991    154.690580    0.00000    0.55504   -0.53048    3    diag
    5      0.334D-03      0.343D-03      -129.83809470    154.779233    0.00000    0.56095   -0.53261    4    diag
    6      0.155D-03      0.101D-03      -129.83811521    154.762960    0.00000    0.56145   -0.52828    5    diag
    7      0.612D-04      0.512D-04      -129.83812144    154.765391    0.00000    0.56275   -0.52560    6    diag
    8      0.419D-04      0.181D-04      -129.83812218    154.764501    0.00000    0.56279   -0.52461    7    diag
    9      0.154D-04      0.339D-05      -129.83812221    154.764380    0.00000    0.56274   -0.52441    8    diag
   10      0.319D-05      0.748D-06      -129.83812221    154.764366    0.00000    0.56270   -0.52438    9    orth
   11      0.893D-06      0.148D-06      -129.83812221    154.764362    0.00000    0.56270   -0.52438    9    diag
   12      0.209D-06      0.317D-07      -129.83812221    154.764362    0.00000    0.56269   -0.52438    9    diag
   13      0.520D-07      0.860D-08      -129.83812221    154.764362    0.00000    0.56269   -0.52438    9    diag
   14      0.120D-07      0.149D-08      -129.83812221    154.764361    0.00000    0.56269   -0.52438    9    diag
   15      0.141D-08      0.392D-09      -129.83812221    154.764362    0.00000    0.56269   -0.52438    9    diag
   16      0.333D-09      0.111D-09      -129.83812221    154.764362    0.00000    0.56269   -0.52438    9    diag
   17      0.657D-10      0.290D-10      -129.83812221    154.764362    0.00000    0.56269   -0.52438    9    diag
   18      0.180D-10      0.926D-11      -129.83812221    154.764362    0.00000    0.56269   -0.52438    0    orth

 Final occupancy:   7   1

 !RHF STATE 1.1 Energy               -129.838122208954
 Nuclear energy                        30.15268496
 One-electron energy                 -237.37298793
 Two-electron energy                   77.38218075
 Virial quotient                       -1.00191200
 !RHF STATE 1.1 Dipole moment           0.00000000     0.56269446    -0.52437723
 Dipole moment /Debye                   0.00000000     1.43013299    -1.33274669

 Orbital energies:

         1.1          2.1          3.1          4.1          5.1          6.1          7.1          8.1          9.1
    -20.651996   -15.712648    -1.519955    -0.994673    -0.741988    -0.660940    -0.432790     0.039667     0.192365

         1.2          2.2          3.2
     -0.589324     0.075619     0.239086

 HOMO      7.1    -0.432790 =     -11.7768eV
 LUMO      8.1     0.039667 =       1.0794eV
 LUMO-HOMO         0.472457 =      12.8562eV


 **********************************************************************************************************************************
 DATASETS  * FILE   NREC   LENGTH (MB)   RECORD NAMES
              1      19      420.90       500      610      700      900      950      970     1000      129      960     1100   
                                          VAR    BASINP    GEOM    SYMINP    ZMAT    AOBASIS   BASIS     P2S    ABASIS      S 
                                         1400     1410     1200     1210     1080     1600     1650     1300     1700   
                                           T        V       H0       H01     AOSYM     SMH    MOLCAS    ERIS     OPER   

              2       4        3.13       700     1000      520     2100   
                                         GEOM     BASIS   MCVARS     RHF  

 PROGRAMS   *        TOTAL        HF       INT
 CPU TIMES  *        10.71      5.75      4.85
 REAL TIME  *        13.80 SEC
 DISK USED  *         1.33 GB      
 **********************************************************************************************************************************


 PROGRAM * CCSD (Closed-shell coupled cluster)     Authors: C. Hampel, H.-J. Werner, 1991, M. Deegan, P.J. Knowles, 1992


 Convergence thresholds:  THRVAR = 1.00D-08  THRDEN = 1.00D-12

 CCSD(T)     terms to be evaluated (factor= 1.000)


 Number of closed-shell orbitals:   8 (   7   1 )
 Number of external orbitals:     163 ( 107  56 )

 Molecular orbitals read from record     2100.2  Type=RHF/CANONICAL (state 1.1)

 Number of N-1 electron functions:               8
 Number of N-2 electron functions:              36
 Number of singly external CSFs:               805
 Number of doubly external CSFs:            449165
 Total number of CSFs:                      449971

 Length of J-op  integral file:               0.00 MB
 Length of K-op  integral file:               1.15 MB
 Length of 3-ext integral record:             0.00 MB

 Memory could be reduced to 24.90 Mwords without degradation in triples

 Integral transformation finished. Total CPU:   1.10 sec, npass=  1  Memory used:   6.89 MW

 Reference energy:                   -129.83812221

 MP2 singlet pair energy:              -0.38002486
 MP2 triplet pair energy:              -0.18731448
 MP2 correlation energy:               -0.56733935
 MP2 total energy:                   -130.40546156

 SCS-MP2 correlation energy:           -0.57258107   (PS=  1.200000  PT=  0.333333)
 SCS-MP2 total energy:               -130.41070328

 ITER.      SQ.NORM     CORR.ENERGY   TOTAL ENERGY   ENERGY CHANGE        DEN1      VAR(S)    VAR(P)  DIIS     TIME  TIME/IT
   1      1.12088912    -0.57165762  -130.40977983    -0.00431828     0.01385425  0.35D-02  0.32D-02  1  1     2.32     1.28
   2      1.13203589    -0.57126364  -130.40938584     0.00039399    -0.01400048  0.95D-04  0.51D-03  2  2     3.58     1.31
   3      1.13743551    -0.57159985  -130.40972206    -0.00033621    -0.00239743  0.57D-04  0.71D-04  3  3     4.79     1.32
   4      1.14099858    -0.57159300  -130.40971521     0.00000685    -0.00142213  0.48D-05  0.10D-04  4  4     6.00     1.33
   5      1.14210644    -0.57161852  -130.40974073    -0.00002553    -0.00026238  0.16D-05  0.19D-05  5  5     7.21     1.33
   6      1.14253083    -0.57161201  -130.40973422     0.00000652    -0.00004138  0.14D-06  0.40D-06  6  6     8.46     1.34
   7      1.14261360    -0.57161236  -130.40973457    -0.00000036     0.00000111  0.19D-07  0.94D-07  6  1     9.72     1.34
   8      1.14264734    -0.57161047  -130.40973268     0.00000189    -0.00000488  0.38D-08  0.14D-07  6  2    11.00     1.35
   9      1.14265183    -0.57161056  -130.40973277    -0.00000008     0.00000132  0.17D-08  0.19D-08  6  3    12.25     1.35
  10      1.14265361    -0.57161085  -130.40973306    -0.00000030    -0.00000072  0.41D-09  0.27D-09  6  4    13.51     1.35
  11      1.14265266    -0.57161099  -130.40973320    -0.00000014     0.00000034  0.10D-09  0.28D-10  6  5    14.78     1.36
  12      1.14265181    -0.57161113  -130.40973334    -0.00000014     0.00000033  0.10D-10  0.67D-11  6  6    16.05     1.36
  13      1.14265129    -0.57161114  -130.40973335    -0.00000001     0.00000010  0.41D-11  0.12D-11  6  1    17.32     1.36
  14      1.14265087    -0.57161117  -130.40973337    -0.00000003     0.00000010  0.42D-12  0.40D-12  6  3    18.58     1.36
  15      1.14265070    -0.57161117  -130.40973338    -0.00000000     0.00000002  0.11D-12  0.29D-13  6  2    19.84     1.36
  16      1.14265064    -0.57161117  -130.40973338    -0.00000000     0.00000001  0.23D-13  0.61D-14  6  4    21.06     1.36
  17      1.14265062    -0.57161117  -130.40973338    -0.00000000     0.00000001  0.45D-14  0.11D-14  6  5    22.31     1.36
  18      1.14265061    -0.57161117  -130.40973338    -0.00000000     0.00000000  0.50D-15  0.31D-15  6  6    23.53     1.36
  19      1.14265061    -0.57161117  -130.40973338     0.00000000    -0.00000000  0.64D-16  0.48D-16  6  1    24.80     1.36
  20      1.14265062    -0.57161117  -130.40973338     0.00000000    -0.00000000  0.26D-17  0.11D-16  6  3    26.07     1.36
  21      1.14265062    -0.57161117  -130.40973338     0.00000000    -0.00000000  0.13D-17  0.28D-17  6  2    27.33     1.37
  22      1.14265062    -0.57161117  -130.40973338     0.00000000    -0.00000000  0.33D-18  0.99D-18  6  4    28.56     1.37
  23      1.14265062    -0.57161117  -130.40973338    -0.00000000     0.00000000  0.16D-18  0.14D-18  6  5    29.78     1.36
  24      1.14265062    -0.57161117  -130.40973338     0.00000000    -0.00000000  0.63D-20  0.17D-19  6  1    31.01     1.36
  25      1.14265062    -0.57161117  -130.40973338     0.00000000     0.00000000  0.43D-21  0.15D-20  6  6    32.21     1.36
  26      1.14265062    -0.57161117  -130.40973338    -0.00000000     0.00000000  0.16D-21  0.22D-21  6  1    33.38     1.36

 Norm of t1 vector:      0.07909025      S-energy:     0.00000000      T1 diagnostic:  0.01398131
                                                                       D1 diagnostic:  0.04534182

 Doubles amplitudes (print threshold =  0.500E-01):

         I         J         SYM. A    SYM. B    A         B      T(IJ, AB)

         8         8         2         2         1         1     -0.13798312


 Total CPU time for triples:     20.77 sec


 RESULTS
 =======

  Reference energy                   -129.838122208954

  Correlated core orbitals:             1.1       2.1
  Orbital energies:                   -20.6520  -15.7126
 
  CCSD core-core energy                -0.079236926883
  CCSD core-valence energy             -0.036008670696
  CCSD valence correlation energy      -0.456365572240
 
  CCSD singlet pair energy             -0.409024342578
  CCSD triplet pair energy             -0.162586827242
  CCSD correlation energy              -0.571611169818

  Triples (T) contribution             -0.022618385621
  Total correlation energy             -0.594229555439

  CCSD total energy                  -130.409733378772
  CCSD[T] energy                     -130.433567068747
  CCSD-T energy                      -130.431899747562
 !CCSD(T) total energy               -130.432351764393

 Timing summary (sec):

 STEP                 CPU(USER)    SYS     CPU(TOT)    WALL
 Transformation          1.12      0.19      1.31      1.31
 CCSD iterations        32.27      3.06     35.33     35.33
 Triples                20.77      0.60     21.37     21.37

 Program statistics:

 Available memory in ccsd:               994999644
 Min. memory needed in ccsd:               1368037
 Max. memory used in ccsd:                 1750502
 Max. memory used in cckext:               2014357 (26 integral passes)



 **********************************************************************************************************************************
 DATASETS  * FILE   NREC   LENGTH (MB)   RECORD NAMES
              1      20      499.81       500      610      700      900      950      970     1000      129      960     1100   
                                          VAR    BASINP    GEOM    SYMINP    ZMAT    AOBASIS   BASIS     P2S    ABASIS      S 
                                         1400     1410     1200     1210     1080     1600     1650     1300     1700     1380   
                                           T        V       H0       H01     AOSYM     SMH    MOLCAS    ERIS     OPER     JKOP   

              2       4        3.13       700     1000      520     2100   
                                         GEOM     BASIS   MCVARS     RHF  

 PROGRAMS   *        TOTAL   CCSD(T)        HF       INT
 CPU TIMES  *        64.90     54.19      5.75      4.85
 REAL TIME  *        71.85 SEC
 DISK USED  *         1.33 GB      
 **********************************************************************************************************************************

 CCSD(T)/USERDEF energy=   -130.432351764393

        CCSD(T)         HF-SCF  
   -130.43235176   -129.83812221
 **********************************************************************************************************************************
 Molpro calculation terminated
 Variable memory released
