
 Primary working directories    : /tmp/r2666/235415.maple
 Secondary working directories  : /tmp/r2666/235415.maple
 Wavefunction directory         : /ddn/home4/r2666/wfu/
 Main file repository           : /tmp/r2666/235415.maple/

 SHA1      : d5ffa45e93fdbca01ffc919aa182cfdae0147319
 NAME      : 2015.1.35
 ARCHNAME  : linux/x86_64
 FC        : /opt/intel/composer_xe_2015.1.133/bin/intel64/ifort
 BLASLIB   : -Wl,-_start-group /opt/intel/mkl/lib/intel64/libmkl_intel_ilp64.a /opt/intel/mkl/lib/intel64/libmkl_intel_thread.a /opt/intel/mkl/lib/intel64/libmkl_core.a -Wl,-_end-group
 id        : olemiss

 Nodes     nprocs
 cn034        1

 Using customized tuning parameters: mindgm=1; mindgv=20; mindgc=4; mindgr=1; noblas=0; minvec=7
 default implementation of scratch files=df  

 ***,hno CCSD(T)/TZ-F12 QFF
 memory, 995, m;
 gthresh,energy=1.d-12,zero=1.d-22,oneint=1.d-22,twoint=1.d-22;
 gthresh,optgrad=1.d-8,optstep=1.d-8;
 nocompress;
 geomtyp=xyz
 bohr
 geometry={
 3
         12        12
 N        0.0000000000       -0.1447388005       -1.1401080280
 H        0.0000000000        1.6574710290       -1.9335985582
 O        0.0000000000        0.0290355615        1.1231169952
 }
 
 basis={
 default=aug-cc-pvtz
 s,C,8236.0,1235.0,280.8, 79.27,25.59, 8.997,3.319
 s,C,0.9059,0.3643,0.1285000
 p,C,56.0,18.71,4.133,0.2827,0.3827,0.1209
 d,C,30.0,10.0,3.3,1.097,0.318
 f,C,7.0,2.3,0.7610
 s,N,11420.0,1712.0,389.3,110.0,35.57,12.54,4.644
 s,N,1.293,0.5118,0.1787
 p,N,79.89,26.63,5.948,1.742,0.555,0.1725
 d,N,45.0,15.0,5.0,1.654,0.469
 f,N,9.9,3.3,1.093
 s,O,15330.0,2299.0,522.4,147.3,47.55,16.76,6.207
 s,O,1.752,0.6882,0.2384
 p,O,103.5,34.46,7.749,2.28,0.7156,0.214
 d,O,63.0,21.0,7.0,2.314,0.645
 f,O,12.9,4.3,1.428
 s,mg,164900.0,24710.0,5628.0,1596.0,521.0;
 s,mg,188.0,73.01,29.90,12.54,4.306,1.826;
 s,mg,0.7417,0.0761,0.145,0.033,0.0129;
 p,mg,950.70,316.90,74.86,23.72,8.669,3.363;
 p,mg,1.310,0.4911,0.2364,0.08733,0.03237,0.00745;
 d,mg,1.601,0.686,0.126,0.294,0.0468;
 f,mg,1.372,0.588,0.094,0.252;
 }
   {hf,maxit=500;accu,20;}
 {ccsd(t),nocheck,maxit=250;orbital,IGNORE_ERROR;core}

 Variables initialized (889), CPU time= 0.00 sec
 Commands  initialized (702), CPU time= 0.01 sec, 572 directives.
 Default parameters read. Elapsed time= 0.05 sec

 Checking input...
 Passed
1


                                         ***  PROGRAM SYSTEM MOLPRO  ***
                                       Copyright, TTI GmbH Stuttgart, 2015
                                    Version 2015.1 linked Jul  9 2018 13:16:40


 **********************************************************************************************************************************
 LABEL *   hno CCSD(T)/TZ-F12 QFF                                                        
  64 bit serial version                                                                  DATE: 08-Feb-20          TIME: 17:59:06  
 **********************************************************************************************************************************

 SHA1:             d5ffa45e93fdbca01ffc919aa182cfdae0147319
 **********************************************************************************************************************************

 THRESHOLDS:

 ZERO    =  1.00D-22  ONEINT  =  1.00D-22  TWOINT  =  1.00D-22  PREFAC  =  1.00D-14  LOCALI  =  1.00D-09  EORDER  =  1.00D-04
 ENERGY  =  1.00D-12  ETEST   =  0.00D+00  EDENS   =  0.00D+00  THRDEDEF=  1.00D-06  GRADIENT=  1.00D-02  STEP    =  1.00D-03
 ORBITAL =  1.00D-05  CIVEC   =  1.00D-05  COEFF   =  1.00D-04  PRINTCI =  5.00D-02  PUNCHCI =  9.90D+01  OPTGRAD =  3.00D-04
 OPTENERG=  1.00D-06  OPTSTEP =  3.00D-04  THRGRAD =  1.00D-10  COMPRESS=  1.00D-11  VARMIN  =  1.00D-07  VARMAX  =  1.00D-03
 THRDOUB =  0.00D+00  THRDIV  =  1.00D-05  THRRED  =  1.00D-07  THRPSP  =  1.00D+00  THRDC   =  1.00D-10  THRCS   =  1.00D-10
 THRNRM  =  1.00D-08  THREQ   =  0.00D+00  THRDE   =  1.00D+00  THRREF  =  1.00D-05  SPARFAC =  1.00D+00  THRDLP  =  1.00D-07
 THRDIA  =  1.00D-10  THRDLS  =  1.00D-07  THRGPS  =  0.00D+00  THRKEX  =  0.00D+00  THRDIS  =  2.00D-01  THRVAR  =  1.00D-10
 THRLOC  =  1.00D-06  THRGAP  =  1.00D-06  THRLOCT = -1.00D+00  THRGAPT = -1.00D+00  THRORB  =  1.00D-06  THRMLTP =  0.00D+00
 THRCPQCI=  1.00D-10  KEXTA   =  0.00D+00  THRCOARS=  0.00D+00  SYMTOL  =  1.00D-06  GRADTOL =  1.00D-06  THROVL  =  1.00D-08
 THRORTH =  1.00D-08  GRID    =  1.00D-06  GRIDMAX =  1.00D-03  DTMAX   =  0.00D+00  THROCCDE=  1.00D-01  THROCCDE=  1.00D-01



 THRESHOLDS:

 ZERO    =  1.00D-22  ONEINT  =  1.00D-22  TWOINT  =  1.00D-22  PREFAC  =  1.00D-14  LOCALI  =  1.00D-09  EORDER  =  1.00D-04
 ENERGY  =  1.00D-12  ETEST   =  0.00D+00  EDENS   =  0.00D+00  THRDEDEF=  1.00D-06  GRADIENT=  1.00D-02  STEP    =  1.00D-03
 ORBITAL =  1.00D-05  CIVEC   =  1.00D-05  COEFF   =  1.00D-04  PRINTCI =  5.00D-02  PUNCHCI =  9.90D+01  OPTGRAD =  1.00D-08
 OPTENERG=  1.00D-06  OPTSTEP =  1.00D-08  THRGRAD =  1.00D-10  COMPRESS=  1.00D-11  VARMIN  =  1.00D-07  VARMAX  =  1.00D-03
 THRDOUB =  0.00D+00  THRDIV  =  1.00D-05  THRRED  =  1.00D-07  THRPSP  =  1.00D+00  THRDC   =  1.00D-10  THRCS   =  1.00D-10
 THRNRM  =  1.00D-08  THREQ   =  0.00D+00  THRDE   =  1.00D+00  THRREF  =  1.00D-05  SPARFAC =  1.00D+00  THRDLP  =  1.00D-07
 THRDIA  =  1.00D-10  THRDLS  =  1.00D-07  THRGPS  =  0.00D+00  THRKEX  =  0.00D+00  THRDIS  =  2.00D-01  THRVAR  =  1.00D-10
 THRLOC  =  1.00D-06  THRGAP  =  1.00D-06  THRLOCT = -1.00D+00  THRGAPT = -1.00D+00  THRORB  =  1.00D-06  THRMLTP =  0.00D+00
 THRCPQCI=  1.00D-10  KEXTA   =  0.00D+00  THRCOARS=  0.00D+00  SYMTOL  =  1.00D-06  GRADTOL =  1.00D-06  THROVL  =  1.00D-08
 THRORTH =  1.00D-08  GRID    =  1.00D-06  GRIDMAX =  1.00D-03  DTMAX   =  0.00D+00  THROCCDE=  1.00D-01  THROCCDE=  1.00D-01



 Input parameters for SORTINT:

 COMPRESS =    0.000000
 C_FINAL  =    1.000000
 DEBUG    =   -1.000000
 C_SORT1  =    0.000000
 C_SEWARD =    0.000000
 THRESH   =    0.000000
 IO       =  molpro                                                          
 SPRI     =    0.000000
 SETTING GEOMTYP        =    XYZ
 ZUNIT=BOHR
 

 Variable memory set to  995000000 words,  buffer space   230000 words

 SETTING BASIS          =    USERDEF


 Recomputing integrals since basis changed


 Using spherical harmonics

 Library entry H      S aug-cc-pVTZ          selected for orbital group  2
 Library entry H      P aug-cc-pVTZ          selected for orbital group  2
 Library entry H      D aug-cc-pVTZ          selected for orbital group  2


 PROGRAM * SEWARD (Integral evaluation for generally contracted gaussian basis sets)     Author: Roland Lindh, 1990

 Geometry written to block  1 of record 700


 Point group  Cs  



 ATOMIC COORDINATES

 NR  ATOM    CHARGE       X              Y              Z

   1  N       7.00    0.000000000   -0.144738800   -1.140108028
   2  H       1.00    0.000000000    1.657471029   -1.933598558
   3  O       8.00    0.000000000    0.029035562    1.123116995

 Bond lengths in Bohr (Angstrom)

 1-2  1.969159082  1-3  2.269886569
     ( 1.042034111)     ( 1.201172244)

 Bond angles

  2-1-3  109.37264055

 NUCLEAR CHARGE:                   16
 NUMBER OF PRIMITIVE AOS:         203
 NUMBER OF SYMMETRY AOS:          173
 NUMBER OF CONTRACTIONS:          171   ( 114A'  +  57A"  )
 NUMBER OF CORE ORBITALS:           2   (   2A'  +   0A"  )
 NUMBER OF VALENCE ORBITALS:        9   (   7A'  +   2A"  )


 NUCLEAR REPULSION ENERGY   30.53550554


 Eigenvalues of metric

         1 0.101E-02 0.242E-02 0.327E-02 0.625E-02 0.951E-02 0.136E-01 0.144E-01 0.225E-01
         2 0.350E-01 0.520E-01 0.684E-01 0.941E-01 0.131E+00 0.134E+00 0.139E+00 0.142E+00


 Contracted 2-electron integrals neglected if value below      1.0D-22

       46195955. INTEGRALS WRITTEN OUT IN   11282 BLOCKS ON RECORD 1290 OF FILE 1


 NUMBER OF SORTED TWO-ELECTRON INTEGRALS:   55360566.     BUFFER LENGTH:  32768
 NUMBER OF SEGMENTS:   4  SEGMENT LENGTH:   15997996      RECORD LENGTH: 524288

 Memory used in sort:      16.56 MW

 SORT1 READ    46195955. AND WROTE    46633948. INTEGRALS IN    135 RECORDS. CPU TIME:     1.32 SEC, REAL TIME:     1.64 SEC
 SORT2 READ    46633948. AND WROTE    55360566. INTEGRALS IN      4 RECORDS. CPU TIME:     0.81 SEC, REAL TIME:     1.02 SEC

 FILE SIZES:   FILE 1:   760.1 MBYTE,  FILE 4:   566.3 MBYTE,   TOTAL:   1326.4 MBYTE

 OPERATOR DM      FOR CENTER  0  COORDINATES:    0.000000    0.000000    0.000000


 **********************************************************************************************************************************
 DATASETS  * FILE   NREC   LENGTH (MB)   RECORD NAMES
              1      19      421.59       500      610      700      900      950      970     1000      129      960     1100   
                                          VAR    BASINP    GEOM    SYMINP    ZMAT    AOBASIS   BASIS     P2S    ABASIS      S 
                                         1400     1410     1200     1210     1080     1600     1650     1300     1700   
                                           T        V       H0       H01     AOSYM     SMH    MOLCAS    ERIS     OPER   

 PROGRAMS   *        TOTAL       INT
 CPU TIMES  *         5.82      5.74
 REAL TIME  *         7.36 SEC
 DISK USED  *         1.33 GB      
 **********************************************************************************************************************************


 PROGRAM * RHF-SCF (CLOSED SHELL)       Authors: W. Meyer, H.-J. Werner


 NUMBER OF ELECTRONS:       8+    8-
 CONVERGENCE THRESHOLDS:    1.00E-10 (Density)    1.00E-13 (Energy)
 MAX. NUMBER OF ITERATIONS:      500
 INTERPOLATION TYPE:            DIIS
 INTERPOLATION STEPS:              2 (START)      1 (STEP)
 LEVEL SHIFTS:                  0.00 (CLOSED)  0.00 (OPEN) 



 Orbital guess generated from atomic densities. Full valence occupancy:    9   2

 Molecular orbital dump at record        2100.2

 Initial occupancy:   7   1

 ITERATION    DDIFF          GRAD             ENERGY        2-EL.EN.            DIPOLE MOMENTS         DIIS   ORB.
    1      0.000D+00      0.000D+00      -129.79191845    154.361733    0.00000    0.58317   -0.99347    0    start
    2      0.000D+00      0.867D-02      -129.81899703    155.542567    0.00000    0.59410   -0.20860    1    diag
    3      0.363D-02      0.645D-02      -129.84013649    155.650132    0.00000    0.55158   -0.57937    2    diag
    4      0.137D-02      0.103D-02      -129.84090662    155.381493    0.00000    0.55933   -0.51784    3    diag
    5      0.331D-03      0.331D-03      -129.84102225    155.468467    0.00000    0.56531   -0.52041    4    diag
    6      0.152D-03      0.965D-04      -129.84104089    155.452624    0.00000    0.56593   -0.51644    5    diag
    7      0.602D-04      0.482D-04      -129.84104630    155.455169    0.00000    0.56725   -0.51404    6    diag
    8      0.407D-04      0.162D-04      -129.84104685    155.454389    0.00000    0.56731   -0.51318    7    diag
    9      0.136D-04      0.299D-05      -129.84104687    155.454284    0.00000    0.56726   -0.51301    8    diag
   10      0.271D-05      0.698D-06      -129.84104687    155.454271    0.00000    0.56723   -0.51298    9    orth
   11      0.850D-06      0.139D-06      -129.84104687    155.454267    0.00000    0.56722   -0.51298    9    diag
   12      0.201D-06      0.282D-07      -129.84104687    155.454267    0.00000    0.56722   -0.51298    9    diag
   13      0.478D-07      0.732D-08      -129.84104687    155.454266    0.00000    0.56722   -0.51298    9    diag
   14      0.108D-07      0.130D-08      -129.84104687    155.454266    0.00000    0.56722   -0.51298    9    diag
   15      0.144D-08      0.355D-09      -129.84104687    155.454266    0.00000    0.56722   -0.51298    9    diag
   16      0.318D-09      0.107D-09      -129.84104687    155.454266    0.00000    0.56722   -0.51298    9    diag
   17      0.765D-10      0.297D-10      -129.84104687    155.454266    0.00000    0.56722   -0.51298    0    orth

 Final occupancy:   7   1

 !RHF STATE 1.1 Energy               -129.841046871019
 Nuclear energy                        30.53550554
 One-electron energy                 -238.10368559
 Two-electron energy                   77.72713318
 Virial quotient                       -1.00133899
 !RHF STATE 1.1 Dipole moment           0.00000000     0.56721578    -0.51297643
 Dipole moment /Debye                   0.00000000     1.44162429    -1.30377063

 Orbital energies:

         1.1          2.1          3.1          4.1          5.1          6.1          7.1          8.1          9.1
    -20.650726   -15.707870    -1.533149    -0.994648    -0.748311    -0.666439    -0.426414     0.039748     0.193928

         1.2          2.2          3.2
     -0.597153     0.081166     0.239971

 HOMO      7.1    -0.426414 =     -11.6033eV
 LUMO      8.1     0.039748 =       1.0816eV
 LUMO-HOMO         0.466162 =      12.6849eV


 **********************************************************************************************************************************
 DATASETS  * FILE   NREC   LENGTH (MB)   RECORD NAMES
              1      19      421.59       500      610      700      900      950      970     1000      129      960     1100   
                                          VAR    BASINP    GEOM    SYMINP    ZMAT    AOBASIS   BASIS     P2S    ABASIS      S 
                                         1400     1410     1200     1210     1080     1600     1650     1300     1700   
                                           T        V       H0       H01     AOSYM     SMH    MOLCAS    ERIS     OPER   

              2       4        3.13       700     1000      520     2100   
                                         GEOM     BASIS   MCVARS     RHF  

 PROGRAMS   *        TOTAL        HF       INT
 CPU TIMES  *        10.80      4.98      5.74
 REAL TIME  *        13.69 SEC
 DISK USED  *         1.33 GB      
 **********************************************************************************************************************************


 PROGRAM * CCSD (Closed-shell coupled cluster)     Authors: C. Hampel, H.-J. Werner, 1991, M. Deegan, P.J. Knowles, 1992


 Convergence thresholds:  THRVAR = 1.00D-08  THRDEN = 1.00D-12

 CCSD(T)     terms to be evaluated (factor= 1.000)


 Number of closed-shell orbitals:   8 (   7   1 )
 Number of external orbitals:     163 ( 107  56 )

 Molecular orbitals read from record     2100.2  Type=RHF/CANONICAL (state 1.1)

 Number of N-1 electron functions:               8
 Number of N-2 electron functions:              36
 Number of singly external CSFs:               805
 Number of doubly external CSFs:            449165
 Total number of CSFs:                      449971

 Length of J-op  integral file:               0.00 MB
 Length of K-op  integral file:               1.15 MB
 Length of 3-ext integral record:             0.00 MB

 Memory could be reduced to 24.90 Mwords without degradation in triples

 Integral transformation finished. Total CPU:   1.11 sec, npass=  1  Memory used:   6.89 MW

 Reference energy:                   -129.84104687

 MP2 singlet pair energy:              -0.37803724
 MP2 triplet pair energy:              -0.18609774
 MP2 correlation energy:               -0.56413498
 MP2 total energy:                   -130.40518185

 SCS-MP2 correlation energy:           -0.56943884   (PS=  1.200000  PT=  0.333333)
 SCS-MP2 total energy:               -130.41048571

 ITER.      SQ.NORM     CORR.ENERGY   TOTAL ENERGY   ENERGY CHANGE        DEN1      VAR(S)    VAR(P)  DIIS     TIME  TIME/IT
   1      1.11874057    -0.56913694  -130.41018381    -0.00500197     0.01233659  0.33D-02  0.30D-02  1  1     2.30     1.28
   2      1.12938932    -0.56890110  -130.40994797     0.00023585    -0.01347825  0.87D-04  0.49D-03  2  2     3.57     1.32
   3      1.13450080    -0.56921564  -130.41026251    -0.00031454    -0.00231666  0.53D-04  0.66D-04  3  3     4.86     1.34
   4      1.13783764    -0.56920778  -130.41025465     0.00000786    -0.00135523  0.42D-05  0.95D-05  4  4     6.10     1.34
   5      1.13884592    -0.56923122  -130.41027809    -0.00002343    -0.00023558  0.15D-05  0.19D-05  5  5     7.36     1.35
   6      1.13924226    -0.56922560  -130.41027247     0.00000561    -0.00003784  0.13D-06  0.43D-06  6  6     8.64     1.35
   7      1.13932633    -0.56922596  -130.41027283    -0.00000035     0.00000014  0.18D-07  0.96D-07  6  1     9.89     1.35
   8      1.13936022    -0.56922437  -130.41027124     0.00000159    -0.00000463  0.44D-08  0.13D-07  6  2    11.19     1.36
   9      1.13936498    -0.56922448  -130.41027135    -0.00000011     0.00000099  0.18D-08  0.17D-08  6  3    12.46     1.36
  10      1.13936646    -0.56922479  -130.41027166    -0.00000031    -0.00000057  0.41D-09  0.24D-09  6  4    13.74     1.36
  11      1.13936548    -0.56922492  -130.41027180    -0.00000014     0.00000034  0.98D-10  0.24D-10  6  5    15.03     1.36
  12      1.13936460    -0.56922506  -130.41027193    -0.00000013     0.00000034  0.10D-10  0.63D-11  6  6    16.33     1.36
  13      1.13936409    -0.56922507  -130.41027194    -0.00000001     0.00000011  0.43D-11  0.11D-11  6  1    17.58     1.36
  14      1.13936366    -0.56922509  -130.41027196    -0.00000003     0.00000010  0.46D-12  0.38D-12  6  3    18.85     1.36
  15      1.13936350    -0.56922509  -130.41027196    -0.00000000     0.00000002  0.11D-12  0.26D-13  6  2    20.13     1.37
  16      1.13936345    -0.56922509  -130.41027197    -0.00000000     0.00000001  0.24D-13  0.57D-14  6  4    21.40     1.37
  17      1.13936343    -0.56922510  -130.41027197    -0.00000000     0.00000001  0.40D-14  0.10D-14  6  5    22.69     1.37
  18      1.13936343    -0.56922510  -130.41027197    -0.00000000     0.00000000  0.41D-15  0.26D-15  6  6    23.95     1.37
  19      1.13936343    -0.56922510  -130.41027197     0.00000000    -0.00000000  0.48D-16  0.33D-16  6  1    25.23     1.37
  20      1.13936343    -0.56922509  -130.41027197     0.00000000    -0.00000000  0.20D-17  0.68D-17  6  3    26.49     1.37
  21      1.13936343    -0.56922509  -130.41027197     0.00000000    -0.00000000  0.11D-17  0.16D-17  6  2    27.75     1.37
  22      1.13936343    -0.56922509  -130.41027197     0.00000000    -0.00000000  0.20D-18  0.58D-18  6  4    29.02     1.37
  23      1.13936343    -0.56922509  -130.41027197    -0.00000000     0.00000000  0.11D-18  0.90D-19  6  5    30.28     1.37
  24      1.13936343    -0.56922509  -130.41027197     0.00000000    -0.00000000  0.45D-20  0.12D-19  6  1    31.53     1.37
  25      1.13936343    -0.56922509  -130.41027197     0.00000000     0.00000000  0.26D-21  0.13D-20  6  6    32.82     1.37
  26      1.13936343    -0.56922509  -130.41027197    -0.00000000     0.00000000  0.11D-21  0.30D-21  6  3    34.08     1.37

 Norm of t1 vector:      0.07649597      S-energy:     0.00000000      T1 diagnostic:  0.01352271
                                                                       D1 diagnostic:  0.04328148

 Doubles amplitudes (print threshold =  0.500E-01):

         I         J         SYM. A    SYM. B    A         B      T(IJ, AB)

         8         8         2         2         1         1     -0.13247450


 Total CPU time for triples:     20.63 sec


 RESULTS
 =======

  Reference energy                   -129.841046871019

  Correlated core orbitals:             1.1       2.1
  Orbital energies:                   -20.6507  -15.7079
 
  CCSD core-core energy                -0.079228744518
  CCSD core-valence energy             -0.036140447313
  CCSD valence correlation energy      -0.453855903120
 
  CCSD singlet pair energy             -0.406869493687
  CCSD triplet pair energy             -0.162355601271
  CCSD correlation energy              -0.569225094951

  Triples (T) contribution             -0.022016055128
  Total correlation energy             -0.591241150079

  CCSD total energy                  -130.410271965970
  CCSD[T] energy                     -130.433424293806
  CCSD-T energy                      -130.431858430692
 !CCSD(T) total energy               -130.432288021098

 Timing summary (sec):

 STEP                 CPU(USER)    SYS     CPU(TOT)    WALL
 Transformation          1.13      0.16      1.29      1.30
 CCSD iterations        32.95      2.68     35.63     35.63
 Triples                20.63      0.63     21.26     21.26

 Program statistics:

 Available memory in ccsd:               994999644
 Min. memory needed in ccsd:               1368037
 Max. memory used in ccsd:                 1750502
 Max. memory used in cckext:               2014357 (26 integral passes)



 **********************************************************************************************************************************
 DATASETS  * FILE   NREC   LENGTH (MB)   RECORD NAMES
              1      20      500.50       500      610      700      900      950      970     1000      129      960     1100   
                                          VAR    BASINP    GEOM    SYMINP    ZMAT    AOBASIS   BASIS     P2S    ABASIS      S 
                                         1400     1410     1200     1210     1080     1600     1650     1300     1700     1380   
                                           T        V       H0       H01     AOSYM     SMH    MOLCAS    ERIS     OPER     JKOP   

              2       4        3.13       700     1000      520     2100   
                                         GEOM     BASIS   MCVARS     RHF  

 PROGRAMS   *        TOTAL   CCSD(T)        HF       INT
 CPU TIMES  *        65.54     54.74      4.98      5.74
 REAL TIME  *        71.92 SEC
 DISK USED  *         1.33 GB      
 **********************************************************************************************************************************

 CCSD(T)/USERDEF energy=   -130.432288021098

        CCSD(T)         HF-SCF  
   -130.43228802   -129.84104687
 **********************************************************************************************************************************
 Molpro calculation terminated
 Variable memory released
