
 Primary working directories    : /tmp/r2666/235492.maple
 Secondary working directories  : /tmp/r2666/235492.maple
 Wavefunction directory         : /ddn/home4/r2666/wfu/
 Main file repository           : /tmp/r2666/235492.maple/

 SHA1      : d5ffa45e93fdbca01ffc919aa182cfdae0147319
 NAME      : 2015.1.35
 ARCHNAME  : linux/x86_64
 FC        : /opt/intel/composer_xe_2015.1.133/bin/intel64/ifort
 BLASLIB   : -Wl,-_start-group /opt/intel/mkl/lib/intel64/libmkl_intel_ilp64.a /opt/intel/mkl/lib/intel64/libmkl_intel_thread.a /opt/intel/mkl/lib/intel64/libmkl_core.a -Wl,-_end-group
 id        : olemiss

 Nodes     nprocs
 cn036        1

 Using customized tuning parameters: mindgm=1; mindgv=20; mindgc=4; mindgr=1; noblas=0; minvec=7
 default implementation of scratch files=df  

 ***,hno CCSD(T)/TZ-F12 QFF
 memory, 995, m;
 gthresh,energy=1.d-12,zero=1.d-22,oneint=1.d-22,twoint=1.d-22;
 gthresh,optgrad=1.d-8,optstep=1.d-8;
 nocompress;
 geomtyp=xyz
 bohr
 geometry={
 3
         89        89
 N        0.0000000000       -0.1717957784       -1.1468134723
 H        0.0000000000        1.6699623977       -1.9200876371
 O        0.0000000000        0.0436011708        1.1163115184
 }
 
 basis={
 default=aug-cc-pvtz
 s,C,8236.0,1235.0,280.8, 79.27,25.59, 8.997,3.319
 s,C,0.9059,0.3643,0.1285000
 p,C,56.0,18.71,4.133,0.2827,0.3827,0.1209
 d,C,30.0,10.0,3.3,1.097,0.318
 f,C,7.0,2.3,0.7610
 s,N,11420.0,1712.0,389.3,110.0,35.57,12.54,4.644
 s,N,1.293,0.5118,0.1787
 p,N,79.89,26.63,5.948,1.742,0.555,0.1725
 d,N,45.0,15.0,5.0,1.654,0.469
 f,N,9.9,3.3,1.093
 s,O,15330.0,2299.0,522.4,147.3,47.55,16.76,6.207
 s,O,1.752,0.6882,0.2384
 p,O,103.5,34.46,7.749,2.28,0.7156,0.214
 d,O,63.0,21.0,7.0,2.314,0.645
 f,O,12.9,4.3,1.428
 s,mg,164900.0,24710.0,5628.0,1596.0,521.0;
 s,mg,188.0,73.01,29.90,12.54,4.306,1.826;
 s,mg,0.7417,0.0761,0.145,0.033,0.0129;
 p,mg,950.70,316.90,74.86,23.72,8.669,3.363;
 p,mg,1.310,0.4911,0.2364,0.08733,0.03237,0.00745;
 d,mg,1.601,0.686,0.126,0.294,0.0468;
 f,mg,1.372,0.588,0.094,0.252;
 }
   {hf,maxit=500;accu,20;}
 {ccsd(t),nocheck,maxit=250;orbital,IGNORE_ERROR;core}

 Variables initialized (889), CPU time= 0.00 sec
 Commands  initialized (702), CPU time= 0.01 sec, 572 directives.
 Default parameters read. Elapsed time= 0.04 sec

 Checking input...
 Passed
1


                                         ***  PROGRAM SYSTEM MOLPRO  ***
                                       Copyright, TTI GmbH Stuttgart, 2015
                                    Version 2015.1 linked Jul  9 2018 13:16:40


 **********************************************************************************************************************************
 LABEL *   hno CCSD(T)/TZ-F12 QFF                                                        
  64 bit serial version                                                                  DATE: 08-Feb-20          TIME: 18:00:21  
 **********************************************************************************************************************************

 SHA1:             d5ffa45e93fdbca01ffc919aa182cfdae0147319
 **********************************************************************************************************************************

 THRESHOLDS:

 ZERO    =  1.00D-22  ONEINT  =  1.00D-22  TWOINT  =  1.00D-22  PREFAC  =  1.00D-14  LOCALI  =  1.00D-09  EORDER  =  1.00D-04
 ENERGY  =  1.00D-12  ETEST   =  0.00D+00  EDENS   =  0.00D+00  THRDEDEF=  1.00D-06  GRADIENT=  1.00D-02  STEP    =  1.00D-03
 ORBITAL =  1.00D-05  CIVEC   =  1.00D-05  COEFF   =  1.00D-04  PRINTCI =  5.00D-02  PUNCHCI =  9.90D+01  OPTGRAD =  3.00D-04
 OPTENERG=  1.00D-06  OPTSTEP =  3.00D-04  THRGRAD =  1.00D-10  COMPRESS=  1.00D-11  VARMIN  =  1.00D-07  VARMAX  =  1.00D-03
 THRDOUB =  0.00D+00  THRDIV  =  1.00D-05  THRRED  =  1.00D-07  THRPSP  =  1.00D+00  THRDC   =  1.00D-10  THRCS   =  1.00D-10
 THRNRM  =  1.00D-08  THREQ   =  0.00D+00  THRDE   =  1.00D+00  THRREF  =  1.00D-05  SPARFAC =  1.00D+00  THRDLP  =  1.00D-07
 THRDIA  =  1.00D-10  THRDLS  =  1.00D-07  THRGPS  =  0.00D+00  THRKEX  =  0.00D+00  THRDIS  =  2.00D-01  THRVAR  =  1.00D-10
 THRLOC  =  1.00D-06  THRGAP  =  1.00D-06  THRLOCT = -1.00D+00  THRGAPT = -1.00D+00  THRORB  =  1.00D-06  THRMLTP =  0.00D+00
 THRCPQCI=  1.00D-10  KEXTA   =  0.00D+00  THRCOARS=  0.00D+00  SYMTOL  =  1.00D-06  GRADTOL =  1.00D-06  THROVL  =  1.00D-08
 THRORTH =  1.00D-08  GRID    =  1.00D-06  GRIDMAX =  1.00D-03  DTMAX   =  0.00D+00  THROCCDE=  1.00D-01  THROCCDE=  1.00D-01



 THRESHOLDS:

 ZERO    =  1.00D-22  ONEINT  =  1.00D-22  TWOINT  =  1.00D-22  PREFAC  =  1.00D-14  LOCALI  =  1.00D-09  EORDER  =  1.00D-04
 ENERGY  =  1.00D-12  ETEST   =  0.00D+00  EDENS   =  0.00D+00  THRDEDEF=  1.00D-06  GRADIENT=  1.00D-02  STEP    =  1.00D-03
 ORBITAL =  1.00D-05  CIVEC   =  1.00D-05  COEFF   =  1.00D-04  PRINTCI =  5.00D-02  PUNCHCI =  9.90D+01  OPTGRAD =  1.00D-08
 OPTENERG=  1.00D-06  OPTSTEP =  1.00D-08  THRGRAD =  1.00D-10  COMPRESS=  1.00D-11  VARMIN  =  1.00D-07  VARMAX  =  1.00D-03
 THRDOUB =  0.00D+00  THRDIV  =  1.00D-05  THRRED  =  1.00D-07  THRPSP  =  1.00D+00  THRDC   =  1.00D-10  THRCS   =  1.00D-10
 THRNRM  =  1.00D-08  THREQ   =  0.00D+00  THRDE   =  1.00D+00  THRREF  =  1.00D-05  SPARFAC =  1.00D+00  THRDLP  =  1.00D-07
 THRDIA  =  1.00D-10  THRDLS  =  1.00D-07  THRGPS  =  0.00D+00  THRKEX  =  0.00D+00  THRDIS  =  2.00D-01  THRVAR  =  1.00D-10
 THRLOC  =  1.00D-06  THRGAP  =  1.00D-06  THRLOCT = -1.00D+00  THRGAPT = -1.00D+00  THRORB  =  1.00D-06  THRMLTP =  0.00D+00
 THRCPQCI=  1.00D-10  KEXTA   =  0.00D+00  THRCOARS=  0.00D+00  SYMTOL  =  1.00D-06  GRADTOL =  1.00D-06  THROVL  =  1.00D-08
 THRORTH =  1.00D-08  GRID    =  1.00D-06  GRIDMAX =  1.00D-03  DTMAX   =  0.00D+00  THROCCDE=  1.00D-01  THROCCDE=  1.00D-01



 Input parameters for SORTINT:

 COMPRESS =    0.000000
 C_FINAL  =    1.000000
 DEBUG    =   -1.000000
 C_SORT1  =    0.000000
 C_SEWARD =    0.000000
 THRESH   =    0.000000
 IO       =  molpro                                                          
 SPRI     =    0.000000
 SETTING GEOMTYP        =    XYZ
 ZUNIT=BOHR
 

 Variable memory set to  995000000 words,  buffer space   230000 words

 SETTING BASIS          =    USERDEF


 Recomputing integrals since basis changed


 Using spherical harmonics

 Library entry H      S aug-cc-pVTZ          selected for orbital group  2
 Library entry H      P aug-cc-pVTZ          selected for orbital group  2
 Library entry H      D aug-cc-pVTZ          selected for orbital group  2


 PROGRAM * SEWARD (Integral evaluation for generally contracted gaussian basis sets)     Author: Roland Lindh, 1990

 Geometry written to block  1 of record 700


 Point group  Cs  



 ATOMIC COORDINATES

 NR  ATOM    CHARGE       X              Y              Z

   1  N       7.00    0.000000000   -0.171795778   -1.146813472
   2  H       1.00    0.000000000    1.669962398   -1.920087637
   3  O       8.00    0.000000000    0.043601171    1.116311518

 Bond lengths in Bohr (Angstrom)

 1-2  1.997504972  1-3  2.273352276
     ( 1.057034110)     ( 1.203006217)

 Bond angles

  2-1-3  107.33856643

 NUCLEAR CHARGE:                   16
 NUMBER OF PRIMITIVE AOS:         203
 NUMBER OF SYMMETRY AOS:          173
 NUMBER OF CONTRACTIONS:          171   ( 114A'  +  57A"  )
 NUMBER OF CORE ORBITALS:           2   (   2A'  +   0A"  )
 NUMBER OF VALENCE ORBITALS:        9   (   7A'  +   2A"  )


 NUCLEAR REPULSION ENERGY   30.46012213


 Eigenvalues of metric

         1 0.105E-02 0.245E-02 0.332E-02 0.636E-02 0.100E-01 0.137E-01 0.145E-01 0.231E-01
         2 0.370E-01 0.525E-01 0.702E-01 0.940E-01 0.131E+00 0.134E+00 0.141E+00 0.142E+00


 Contracted 2-electron integrals neglected if value below      1.0D-22

       46188457. INTEGRALS WRITTEN OUT IN   11280 BLOCKS ON RECORD 1290 OF FILE 1


 NUMBER OF SORTED TWO-ELECTRON INTEGRALS:   55360566.     BUFFER LENGTH:  32768
 NUMBER OF SEGMENTS:   4  SEGMENT LENGTH:   15997996      RECORD LENGTH: 524288

 Memory used in sort:      16.56 MW

 SORT1 READ    46188457. AND WROTE    46626387. INTEGRALS IN    135 RECORDS. CPU TIME:     1.29 SEC, REAL TIME:     1.64 SEC
 SORT2 READ    46626387. AND WROTE    55360566. INTEGRALS IN      4 RECORDS. CPU TIME:     0.73 SEC, REAL TIME:     1.01 SEC

 FILE SIZES:   FILE 1:   760.0 MBYTE,  FILE 4:   566.3 MBYTE,   TOTAL:   1326.2 MBYTE

 OPERATOR DM      FOR CENTER  0  COORDINATES:    0.000000    0.000000    0.000000


 **********************************************************************************************************************************
 DATASETS  * FILE   NREC   LENGTH (MB)   RECORD NAMES
              1      19      421.54       500      610      700      900      950      970     1000      129      960     1100   
                                          VAR    BASINP    GEOM    SYMINP    ZMAT    AOBASIS   BASIS     P2S    ABASIS      S 
                                         1400     1410     1200     1210     1080     1600     1650     1300     1700   
                                           T        V       H0       H01     AOSYM     SMH    MOLCAS    ERIS     OPER   

 PROGRAMS   *        TOTAL       INT
 CPU TIMES  *         5.67      5.57
 REAL TIME  *         7.41 SEC
 DISK USED  *         1.33 GB      
 **********************************************************************************************************************************


 PROGRAM * RHF-SCF (CLOSED SHELL)       Authors: W. Meyer, H.-J. Werner


 NUMBER OF ELECTRONS:       8+    8-
 CONVERGENCE THRESHOLDS:    1.00E-10 (Density)    1.00E-13 (Energy)
 MAX. NUMBER OF ITERATIONS:      500
 INTERPOLATION TYPE:            DIIS
 INTERPOLATION STEPS:              2 (START)      1 (STEP)
 LEVEL SHIFTS:                  0.00 (CLOSED)  0.00 (OPEN) 



 Orbital guess generated from atomic densities. Full valence occupancy:    9   2

 Molecular orbital dump at record        2100.2

 Initial occupancy:   7   1

 ITERATION    DDIFF          GRAD             ENERGY        2-EL.EN.            DIPOLE MOMENTS         DIIS   ORB.
    1      0.000D+00      0.000D+00      -129.79009748    154.223654    0.00000    0.55654   -0.99622    0    start
    2      0.000D+00      0.876D-02      -129.81717209    155.409605    0.00000    0.59417   -0.19309    1    diag
    3      0.361D-02      0.661D-02      -129.83942621    155.519086    0.00000    0.53880   -0.57241    2    diag
    4      0.140D-02      0.103D-02      -129.84019794    155.247870    0.00000    0.54741   -0.51117    3    diag
    5      0.327D-03      0.336D-03      -129.84031772    155.335653    0.00000    0.55343   -0.51364    4    diag
    6      0.153D-03      0.989D-04      -129.84033733    155.319540    0.00000    0.55400   -0.50959    5    diag
    7      0.607D-04      0.493D-04      -129.84034302    155.322160    0.00000    0.55536   -0.50714    6    diag
    8      0.410D-04      0.166D-04      -129.84034361    155.321346    0.00000    0.55542   -0.50626    7    diag
    9      0.139D-04      0.308D-05      -129.84034363    155.321237    0.00000    0.55537   -0.50608    8    diag
   10      0.279D-05      0.706D-06      -129.84034363    155.321223    0.00000    0.55533   -0.50606    9    orth
   11      0.841D-06      0.142D-06      -129.84034363    155.321219    0.00000    0.55533   -0.50605    9    diag
   12      0.202D-06      0.294D-07      -129.84034363    155.321218    0.00000    0.55532   -0.50605    9    diag
   13      0.500D-07      0.773D-08      -129.84034363    155.321218    0.00000    0.55532   -0.50605    9    diag
   14      0.115D-07      0.138D-08      -129.84034363    155.321218    0.00000    0.55532   -0.50605    9    diag
   15      0.153D-08      0.381D-09      -129.84034363    155.321218    0.00000    0.55532   -0.50605    9    diag
   16      0.338D-09      0.117D-09      -129.84034363    155.321218    0.00000    0.55532   -0.50605    9    diag
   17      0.879D-10      0.342D-10      -129.84034363    155.321218    0.00000    0.55532   -0.50605    9    diag
   18      0.289D-10      0.112D-10      -129.84034363    155.321218    0.00000    0.55532   -0.50605    9    diag
   19      0.110D-10      0.274D-11      -129.84034363    155.321218    0.00000    0.55532   -0.50605    9    fixocc
   20      0.262D-11      0.651D-12      -129.84034363    155.321218    0.00000    0.55532   -0.50605    9    orth
   21      0.341D-12      0.414D-12      -129.84034363    155.321218    0.00000    0.55532   -0.50605    9    diag
   22      0.149D-12      0.445D-12      -129.84034363    155.321218    0.00000    0.55532   -0.50605    0    orth

 Final occupancy:   7   1

 !RHF STATE 1.1 Energy               -129.840343633255
 Nuclear energy                        30.46012213
 One-electron energy                 -237.96107457
 Two-electron energy                   77.66060881
 Virial quotient                       -1.00151726
 !RHF STATE 1.1 Dipole moment           0.00000000     0.55532433    -0.50605024
 Dipole moment /Debye                   0.00000000     1.41140120    -1.28616716

 Orbital energies:

         1.1          2.1          3.1          4.1          5.1          6.1          7.1          8.1          9.1
    -20.650721   -15.710614    -1.532532    -0.990009    -0.746252    -0.665512    -0.427502     0.039845     0.192657

         1.2          2.2          3.2
     -0.596785     0.081038     0.239571

 HOMO      7.1    -0.427502 =     -11.6329eV
 LUMO      8.1     0.039845 =       1.0842eV
 LUMO-HOMO         0.467347 =      12.7172eV


 **********************************************************************************************************************************
 DATASETS  * FILE   NREC   LENGTH (MB)   RECORD NAMES
              1      19      421.54       500      610      700      900      950      970     1000      129      960     1100   
                                          VAR    BASINP    GEOM    SYMINP    ZMAT    AOBASIS   BASIS     P2S    ABASIS      S 
                                         1400     1410     1200     1210     1080     1600     1650     1300     1700   
                                           T        V       H0       H01     AOSYM     SMH    MOLCAS    ERIS     OPER   

              2       4        3.13       700     1000      520     2100   
                                         GEOM     BASIS   MCVARS     RHF  

 PROGRAMS   *        TOTAL        HF       INT
 CPU TIMES  *        12.10      6.43      5.57
 REAL TIME  *        15.52 SEC
 DISK USED  *         1.33 GB      
 **********************************************************************************************************************************


 PROGRAM * CCSD (Closed-shell coupled cluster)     Authors: C. Hampel, H.-J. Werner, 1991, M. Deegan, P.J. Knowles, 1992


 Convergence thresholds:  THRVAR = 1.00D-08  THRDEN = 1.00D-12

 CCSD(T)     terms to be evaluated (factor= 1.000)


 Number of closed-shell orbitals:   8 (   7   1 )
 Number of external orbitals:     163 ( 107  56 )

 Molecular orbitals read from record     2100.2  Type=RHF/CANONICAL (state 1.1)

 Number of N-1 electron functions:               8
 Number of N-2 electron functions:              36
 Number of singly external CSFs:               805
 Number of doubly external CSFs:            449165
 Total number of CSFs:                      449971

 Length of J-op  integral file:               0.00 MB
 Length of K-op  integral file:               1.15 MB
 Length of 3-ext integral record:             0.00 MB

 Memory could be reduced to 24.90 Mwords without degradation in triples

 Integral transformation finished. Total CPU:   1.08 sec, npass=  1  Memory used:   6.89 MW

 Reference energy:                   -129.84034363

 MP2 singlet pair energy:              -0.37855494
 MP2 triplet pair energy:              -0.18638043
 MP2 correlation energy:               -0.56493536
 MP2 total energy:                   -130.40527900

 SCS-MP2 correlation energy:           -0.57023597   (PS=  1.200000  PT=  0.333333)
 SCS-MP2 total energy:               -130.41057960

 ITER.      SQ.NORM     CORR.ENERGY   TOTAL ENERGY   ENERGY CHANGE        DEN1      VAR(S)    VAR(P)  DIIS     TIME  TIME/IT
   1      1.11938823    -0.56983408  -130.41017771    -0.00489871     0.01261536  0.33D-02  0.31D-02  1  1     2.27     1.26
   2      1.13015136    -0.56957958  -130.40992321     0.00025450    -0.01359293  0.88D-04  0.49D-03  2  2     3.52     1.30
   3      1.13533218    -0.56990089  -130.41024452    -0.00032130    -0.00234551  0.54D-04  0.67D-04  3  3     4.76     1.31
   4      1.13870340    -0.56989225  -130.41023589     0.00000863    -0.00137041  0.44D-05  0.94D-05  4  4     5.98     1.32
   5      1.13972085    -0.56991623  -130.41025987    -0.00002398    -0.00023981  0.16D-05  0.18D-05  5  5     7.23     1.33
   6      1.14011660    -0.56991056  -130.41025420     0.00000567    -0.00003802  0.14D-06  0.40D-06  6  6     8.47     1.33
   7      1.14019935    -0.56991074  -130.41025438    -0.00000018     0.00000028  0.21D-07  0.90D-07  6  1     9.71     1.33
   8      1.14023304    -0.56990906  -130.41025270     0.00000168    -0.00000467  0.40D-08  0.13D-07  6  2    10.99     1.34
   9      1.14023783    -0.56990915  -130.41025278    -0.00000008     0.00000104  0.16D-08  0.16D-08  6  3    12.24     1.34
  10      1.14023945    -0.56990944  -130.41025307    -0.00000030    -0.00000060  0.38D-09  0.23D-09  6  4    13.50     1.34
  11      1.14023852    -0.56990957  -130.41025321    -0.00000013     0.00000033  0.92D-10  0.23D-10  6  5    14.74     1.34
  12      1.14023766    -0.56990970  -130.41025333    -0.00000013     0.00000033  0.95D-11  0.60D-11  6  6    16.00     1.34
  13      1.14023716    -0.56990971  -130.41025334    -0.00000001     0.00000010  0.40D-11  0.10D-11  6  1    17.25     1.34
  14      1.14023675    -0.56990974  -130.41025337    -0.00000002     0.00000010  0.42D-12  0.36D-12  6  3    18.48     1.34
  15      1.14023659    -0.56990974  -130.41025337    -0.00000000     0.00000002  0.11D-12  0.24D-13  6  2    19.75     1.34
  16      1.14023654    -0.56990974  -130.41025337    -0.00000000     0.00000001  0.24D-13  0.54D-14  6  4    21.00     1.34
  17      1.14023653    -0.56990974  -130.41025337    -0.00000000     0.00000001  0.40D-14  0.10D-14  6  5    22.26     1.34
  18      1.14023652    -0.56990974  -130.41025337    -0.00000000     0.00000000  0.40D-15  0.27D-15  6  6    23.51     1.34
  19      1.14023653    -0.56990974  -130.41025337     0.00000000    -0.00000000  0.48D-16  0.34D-16  6  1    24.76     1.34
  20      1.14023653    -0.56990974  -130.41025337     0.00000000    -0.00000000  0.20D-17  0.72D-17  6  3    26.00     1.34
  21      1.14023653    -0.56990974  -130.41025337     0.00000000    -0.00000000  0.97D-18  0.17D-17  6  2    27.27     1.34
  22      1.14023653    -0.56990974  -130.41025337     0.00000000    -0.00000000  0.16D-18  0.63D-18  6  4    28.54     1.34
  23      1.14023653    -0.56990974  -130.41025337    -0.00000000     0.00000000  0.10D-18  0.94D-19  6  5    29.77     1.35
  24      1.14023653    -0.56990974  -130.41025337     0.00000000    -0.00000000  0.50D-20  0.12D-19  6  1    31.01     1.35
  25      1.14023653    -0.56990974  -130.41025337     0.00000000     0.00000000  0.26D-21  0.12D-20  6  6    32.26     1.35
  26      1.14023653    -0.56990974  -130.41025337    -0.00000000     0.00000000  0.98D-22  0.27D-21  6  3    33.51     1.35

 Norm of t1 vector:      0.07691042      S-energy:     0.00000000      T1 diagnostic:  0.01359597
                                                                       D1 diagnostic:  0.04336656

 Doubles amplitudes (print threshold =  0.500E-01):

         I         J         SYM. A    SYM. B    A         B      T(IJ, AB)

         8         8         2         2         1         1     -0.13319445


 Total CPU time for triples:     15.47 sec


 RESULTS
 =======

  Reference energy                   -129.840343633255

  Correlated core orbitals:             1.1       2.1
  Orbital energies:                   -20.6507  -15.7106
 
  CCSD core-core energy                -0.079229425316
  CCSD core-valence energy             -0.036097687620
  CCSD valence correlation energy      -0.454582626305
 
  CCSD singlet pair energy             -0.407484523327
  CCSD triplet pair energy             -0.162425215914
  CCSD correlation energy              -0.569909739240

  Triples (T) contribution             -0.022156069595
  Total correlation energy             -0.592065808836

  CCSD total energy                  -130.410253372495
  CCSD[T] energy                     -130.433559587337
  CCSD-T energy                      -130.431974147127
 !CCSD(T) total energy               -130.432409442091

 Timing summary (sec):

 STEP                 CPU(USER)    SYS     CPU(TOT)    WALL
 Transformation          1.11      0.16      1.27      1.27
 CCSD iterations        32.40      2.60     35.00     35.00
 Triples                15.47      0.50     15.97     15.98

 Program statistics:

 Available memory in ccsd:               994999644
 Min. memory needed in ccsd:               1368037
 Max. memory used in ccsd:                 1750502
 Max. memory used in cckext:               2014357 (26 integral passes)



 **********************************************************************************************************************************
 DATASETS  * FILE   NREC   LENGTH (MB)   RECORD NAMES
              1      20      500.45       500      610      700      900      950      970     1000      129      960     1100   
                                          VAR    BASINP    GEOM    SYMINP    ZMAT    AOBASIS   BASIS     P2S    ABASIS      S 
                                         1400     1410     1200     1210     1080     1600     1650     1300     1700     1380   
                                           T        V       H0       H01     AOSYM     SMH    MOLCAS    ERIS     OPER     JKOP   

              2       4        3.13       700     1000      520     2100   
                                         GEOM     BASIS   MCVARS     RHF  

 PROGRAMS   *        TOTAL   CCSD(T)        HF       INT
 CPU TIMES  *        61.11     49.01      6.43      5.57
 REAL TIME  *        67.81 SEC
 DISK USED  *         1.33 GB      
 **********************************************************************************************************************************

 CCSD(T)/USERDEF energy=   -130.432409442091

        CCSD(T)         HF-SCF  
   -130.43240944   -129.84034363
 **********************************************************************************************************************************
 Molpro calculation terminated
 Variable memory released
