
 Primary working directories    : /tmp/r2666/235407.maple
 Secondary working directories  : /tmp/r2666/235407.maple
 Wavefunction directory         : /ddn/home4/r2666/wfu/
 Main file repository           : /tmp/r2666/235407.maple/

 SHA1      : d5ffa45e93fdbca01ffc919aa182cfdae0147319
 NAME      : 2015.1.35
 ARCHNAME  : linux/x86_64
 FC        : /opt/intel/composer_xe_2015.1.133/bin/intel64/ifort
 BLASLIB   : -Wl,-_start-group /opt/intel/mkl/lib/intel64/libmkl_intel_ilp64.a /opt/intel/mkl/lib/intel64/libmkl_intel_thread.a /opt/intel/mkl/lib/intel64/libmkl_core.a -Wl,-_end-group
 id        : olemiss

 Nodes     nprocs
 cn034        1

 Using customized tuning parameters: mindgm=1; mindgv=20; mindgc=4; mindgr=1; noblas=0; minvec=7
 default implementation of scratch files=df  

 ***,hno CCSD(T)/TZ-F12 QFF
 memory, 995, m;
 gthresh,energy=1.d-12,zero=1.d-22,oneint=1.d-22,twoint=1.d-22;
 gthresh,optgrad=1.d-8,optstep=1.d-8;
 nocompress;
 geomtyp=xyz
 bohr
 geometry={
 3
          4         4
 N        0.0000000000       -0.1423683973       -1.1476074604
 H        0.0000000000        1.6538988958       -1.9311180657
 O        0.0000000000        0.0302372915        1.1281359351
 }
 
 basis={
 default=aug-cc-pvtz
 s,C,8236.0,1235.0,280.8, 79.27,25.59, 8.997,3.319
 s,C,0.9059,0.3643,0.1285000
 p,C,56.0,18.71,4.133,0.2827,0.3827,0.1209
 d,C,30.0,10.0,3.3,1.097,0.318
 f,C,7.0,2.3,0.7610
 s,N,11420.0,1712.0,389.3,110.0,35.57,12.54,4.644
 s,N,1.293,0.5118,0.1787
 p,N,79.89,26.63,5.948,1.742,0.555,0.1725
 d,N,45.0,15.0,5.0,1.654,0.469
 f,N,9.9,3.3,1.093
 s,O,15330.0,2299.0,522.4,147.3,47.55,16.76,6.207
 s,O,1.752,0.6882,0.2384
 p,O,103.5,34.46,7.749,2.28,0.7156,0.214
 d,O,63.0,21.0,7.0,2.314,0.645
 f,O,12.9,4.3,1.428
 s,mg,164900.0,24710.0,5628.0,1596.0,521.0;
 s,mg,188.0,73.01,29.90,12.54,4.306,1.826;
 s,mg,0.7417,0.0761,0.145,0.033,0.0129;
 p,mg,950.70,316.90,74.86,23.72,8.669,3.363;
 p,mg,1.310,0.4911,0.2364,0.08733,0.03237,0.00745;
 d,mg,1.601,0.686,0.126,0.294,0.0468;
 f,mg,1.372,0.588,0.094,0.252;
 }
   {hf,maxit=500;accu,20;}
 {ccsd(t),nocheck,maxit=250;orbital,IGNORE_ERROR;core}

 Variables initialized (889), CPU time= 0.00 sec
 Commands  initialized (702), CPU time= 0.01 sec, 572 directives.
 Default parameters read. Elapsed time= 0.05 sec

 Checking input...
 Passed
1


                                         ***  PROGRAM SYSTEM MOLPRO  ***
                                       Copyright, TTI GmbH Stuttgart, 2015
                                    Version 2015.1 linked Jul  9 2018 13:16:40


 **********************************************************************************************************************************
 LABEL *   hno CCSD(T)/TZ-F12 QFF                                                        
  64 bit serial version                                                                  DATE: 08-Feb-20          TIME: 17:59:03  
 **********************************************************************************************************************************

 SHA1:             d5ffa45e93fdbca01ffc919aa182cfdae0147319
 **********************************************************************************************************************************

 THRESHOLDS:

 ZERO    =  1.00D-22  ONEINT  =  1.00D-22  TWOINT  =  1.00D-22  PREFAC  =  1.00D-14  LOCALI  =  1.00D-09  EORDER  =  1.00D-04
 ENERGY  =  1.00D-12  ETEST   =  0.00D+00  EDENS   =  0.00D+00  THRDEDEF=  1.00D-06  GRADIENT=  1.00D-02  STEP    =  1.00D-03
 ORBITAL =  1.00D-05  CIVEC   =  1.00D-05  COEFF   =  1.00D-04  PRINTCI =  5.00D-02  PUNCHCI =  9.90D+01  OPTGRAD =  3.00D-04
 OPTENERG=  1.00D-06  OPTSTEP =  3.00D-04  THRGRAD =  1.00D-10  COMPRESS=  1.00D-11  VARMIN  =  1.00D-07  VARMAX  =  1.00D-03
 THRDOUB =  0.00D+00  THRDIV  =  1.00D-05  THRRED  =  1.00D-07  THRPSP  =  1.00D+00  THRDC   =  1.00D-10  THRCS   =  1.00D-10
 THRNRM  =  1.00D-08  THREQ   =  0.00D+00  THRDE   =  1.00D+00  THRREF  =  1.00D-05  SPARFAC =  1.00D+00  THRDLP  =  1.00D-07
 THRDIA  =  1.00D-10  THRDLS  =  1.00D-07  THRGPS  =  0.00D+00  THRKEX  =  0.00D+00  THRDIS  =  2.00D-01  THRVAR  =  1.00D-10
 THRLOC  =  1.00D-06  THRGAP  =  1.00D-06  THRLOCT = -1.00D+00  THRGAPT = -1.00D+00  THRORB  =  1.00D-06  THRMLTP =  0.00D+00
 THRCPQCI=  1.00D-10  KEXTA   =  0.00D+00  THRCOARS=  0.00D+00  SYMTOL  =  1.00D-06  GRADTOL =  1.00D-06  THROVL  =  1.00D-08
 THRORTH =  1.00D-08  GRID    =  1.00D-06  GRIDMAX =  1.00D-03  DTMAX   =  0.00D+00  THROCCDE=  1.00D-01  THROCCDE=  1.00D-01



 THRESHOLDS:

 ZERO    =  1.00D-22  ONEINT  =  1.00D-22  TWOINT  =  1.00D-22  PREFAC  =  1.00D-14  LOCALI  =  1.00D-09  EORDER  =  1.00D-04
 ENERGY  =  1.00D-12  ETEST   =  0.00D+00  EDENS   =  0.00D+00  THRDEDEF=  1.00D-06  GRADIENT=  1.00D-02  STEP    =  1.00D-03
 ORBITAL =  1.00D-05  CIVEC   =  1.00D-05  COEFF   =  1.00D-04  PRINTCI =  5.00D-02  PUNCHCI =  9.90D+01  OPTGRAD =  1.00D-08
 OPTENERG=  1.00D-06  OPTSTEP =  1.00D-08  THRGRAD =  1.00D-10  COMPRESS=  1.00D-11  VARMIN  =  1.00D-07  VARMAX  =  1.00D-03
 THRDOUB =  0.00D+00  THRDIV  =  1.00D-05  THRRED  =  1.00D-07  THRPSP  =  1.00D+00  THRDC   =  1.00D-10  THRCS   =  1.00D-10
 THRNRM  =  1.00D-08  THREQ   =  0.00D+00  THRDE   =  1.00D+00  THRREF  =  1.00D-05  SPARFAC =  1.00D+00  THRDLP  =  1.00D-07
 THRDIA  =  1.00D-10  THRDLS  =  1.00D-07  THRGPS  =  0.00D+00  THRKEX  =  0.00D+00  THRDIS  =  2.00D-01  THRVAR  =  1.00D-10
 THRLOC  =  1.00D-06  THRGAP  =  1.00D-06  THRLOCT = -1.00D+00  THRGAPT = -1.00D+00  THRORB  =  1.00D-06  THRMLTP =  0.00D+00
 THRCPQCI=  1.00D-10  KEXTA   =  0.00D+00  THRCOARS=  0.00D+00  SYMTOL  =  1.00D-06  GRADTOL =  1.00D-06  THROVL  =  1.00D-08
 THRORTH =  1.00D-08  GRID    =  1.00D-06  GRIDMAX =  1.00D-03  DTMAX   =  0.00D+00  THROCCDE=  1.00D-01  THROCCDE=  1.00D-01



 Input parameters for SORTINT:

 COMPRESS =    0.000000
 C_FINAL  =    1.000000
 DEBUG    =   -1.000000
 C_SORT1  =    0.000000
 C_SEWARD =    0.000000
 THRESH   =    0.000000
 IO       =  molpro                                                          
 SPRI     =    0.000000
 SETTING GEOMTYP        =    XYZ
 ZUNIT=BOHR
 

 Variable memory set to  995000000 words,  buffer space   230000 words

 SETTING BASIS          =    USERDEF


 Recomputing integrals since basis changed


 Using spherical harmonics

 Library entry H      S aug-cc-pVTZ          selected for orbital group  2
 Library entry H      P aug-cc-pVTZ          selected for orbital group  2
 Library entry H      D aug-cc-pVTZ          selected for orbital group  2


 PROGRAM * SEWARD (Integral evaluation for generally contracted gaussian basis sets)     Author: Roland Lindh, 1990

 Geometry written to block  1 of record 700


 Point group  Cs  



 ATOMIC COORDINATES

 NR  ATOM    CHARGE       X              Y              Z

   1  N       7.00    0.000000000   -0.142368397   -1.147607460
   2  H       1.00    0.000000000    1.653898896   -1.931118066
   3  O       8.00    0.000000000    0.030237291    1.128135935

 Bond lengths in Bohr (Angstrom)

 1-2  1.959710452  1-3  2.282279721
     ( 1.037034111)     ( 1.207730417)

 Bond angles

  2-1-3  109.22891920

 NUCLEAR CHARGE:                   16
 NUMBER OF PRIMITIVE AOS:         203
 NUMBER OF SYMMETRY AOS:          173
 NUMBER OF CONTRACTIONS:          171   ( 114A'  +  57A"  )
 NUMBER OF CORE ORBITALS:           2   (   2A'  +   0A"  )
 NUMBER OF VALENCE ORBITALS:        9   (   7A'  +   2A"  )


 NUCLEAR REPULSION ENERGY   30.41867820


 Eigenvalues of metric

         1 0.101E-02 0.247E-02 0.328E-02 0.625E-02 0.935E-02 0.136E-01 0.144E-01 0.224E-01
         2 0.345E-01 0.529E-01 0.684E-01 0.942E-01 0.131E+00 0.134E+00 0.139E+00 0.142E+00


 Contracted 2-electron integrals neglected if value below      1.0D-22

       46148208. INTEGRALS WRITTEN OUT IN   11270 BLOCKS ON RECORD 1290 OF FILE 1


 NUMBER OF SORTED TWO-ELECTRON INTEGRALS:   55360566.     BUFFER LENGTH:  32768
 NUMBER OF SEGMENTS:   4  SEGMENT LENGTH:   15997996      RECORD LENGTH: 524288

 Memory used in sort:      16.56 MW

 SORT1 READ    46148208. AND WROTE    46585661. INTEGRALS IN    135 RECORDS. CPU TIME:     1.28 SEC, REAL TIME:     1.62 SEC
 SORT2 READ    46585661. AND WROTE    55360566. INTEGRALS IN      4 RECORDS. CPU TIME:     0.74 SEC, REAL TIME:     1.00 SEC

 FILE SIZES:   FILE 1:   759.3 MBYTE,  FILE 4:   566.3 MBYTE,   TOTAL:   1325.6 MBYTE

 OPERATOR DM      FOR CENTER  0  COORDINATES:    0.000000    0.000000    0.000000


 **********************************************************************************************************************************
 DATASETS  * FILE   NREC   LENGTH (MB)   RECORD NAMES
              1      19      421.27       500      610      700      900      950      970     1000      129      960     1100   
                                          VAR    BASINP    GEOM    SYMINP    ZMAT    AOBASIS   BASIS     P2S    ABASIS      S 
                                         1400     1410     1200     1210     1080     1600     1650     1300     1700   
                                           T        V       H0       H01     AOSYM     SMH    MOLCAS    ERIS     OPER   

 PROGRAMS   *        TOTAL       INT
 CPU TIMES  *         5.55      5.46
 REAL TIME  *         7.15 SEC
 DISK USED  *         1.33 GB      
 **********************************************************************************************************************************


 PROGRAM * RHF-SCF (CLOSED SHELL)       Authors: W. Meyer, H.-J. Werner


 NUMBER OF ELECTRONS:       8+    8-
 CONVERGENCE THRESHOLDS:    1.00E-10 (Density)    1.00E-13 (Energy)
 MAX. NUMBER OF ITERATIONS:      500
 INTERPOLATION TYPE:            DIIS
 INTERPOLATION STEPS:              2 (START)      1 (STEP)
 LEVEL SHIFTS:                  0.00 (CLOSED)  0.00 (OPEN) 



 Orbital guess generated from atomic densities. Full valence occupancy:    9   2

 Molecular orbital dump at record        2100.2

 Initial occupancy:   7   1

 ITERATION    DDIFF          GRAD             ENERGY        2-EL.EN.            DIPOLE MOMENTS         DIIS   ORB.
    1      0.000D+00      0.000D+00      -129.79046755    154.156092    0.00000    0.58813   -1.01306    0    start
    2      0.000D+00      0.871D-02      -129.81737478    155.319007    0.00000    0.59863   -0.20684    1    diag
    3      0.367D-02      0.656D-02      -129.83933985    155.441902    0.00000    0.55585   -0.58879    2    diag
    4      0.140D-02      0.104D-02      -129.84012296    155.169128    0.00000    0.56354   -0.52611    3    diag
    5      0.334D-03      0.334D-03      -129.84024009    155.256243    0.00000    0.56944   -0.52853    4    diag
    6      0.152D-03      0.970D-04      -129.84025896    155.240381    0.00000    0.57003   -0.52446    5    diag
    7      0.603D-04      0.488D-04      -129.84026454    155.242833    0.00000    0.57132   -0.52196    6    diag
    8      0.410D-04      0.167D-04      -129.84026515    155.242027    0.00000    0.57137   -0.52105    7    diag
    9      0.141D-04      0.310D-05      -129.84026517    155.241919    0.00000    0.57132   -0.52087    8    diag
   10      0.286D-05      0.712D-06      -129.84026517    155.241906    0.00000    0.57128   -0.52085    9    orth
   11      0.873D-06      0.141D-06      -129.84026517    155.241902    0.00000    0.57128   -0.52085    9    diag
   12      0.203D-06      0.289D-07      -129.84026517    155.241902    0.00000    0.57127   -0.52084    9    diag
   13      0.483D-07      0.759D-08      -129.84026517    155.241902    0.00000    0.57127   -0.52084    9    diag
   14      0.110D-07      0.134D-08      -129.84026517    155.241902    0.00000    0.57127   -0.52084    9    diag
   15      0.139D-08      0.356D-09      -129.84026517    155.241902    0.00000    0.57127   -0.52084    9    diag
   16      0.314D-09      0.103D-09      -129.84026517    155.241902    0.00000    0.57127   -0.52084    9    diag
   17      0.661D-10      0.269D-10      -129.84026517    155.241902    0.00000    0.57127   -0.52084    9    diag
   18      0.198D-10      0.872D-11      -129.84026517    155.241902    0.00000    0.57127   -0.52084    9    diag
   19      0.780D-11      0.211D-11      -129.84026517    155.241902    0.00000    0.57127   -0.52084    0    orth

 Final occupancy:   7   1

 !RHF STATE 1.1 Energy               -129.840265172250
 Nuclear energy                        30.41867820
 One-electron energy                 -237.87989416
 Two-electron energy                   77.62095079
 Virial quotient                       -1.00147235
 !RHF STATE 1.1 Dipole moment           0.00000000     0.57127383    -0.52084443
 Dipole moment /Debye                   0.00000000     1.45193813    -1.32376778

 Orbital energies:

         1.1          2.1          3.1          4.1          5.1          6.1          7.1          8.1          9.1
    -20.651227   -15.708335    -1.527884    -0.997395    -0.746865    -0.664504    -0.428819     0.039690     0.194029

         1.2          2.2          3.2
     -0.593967     0.078883     0.239766

 HOMO      7.1    -0.428819 =     -11.6688eV
 LUMO      8.1     0.039690 =       1.0800eV
 LUMO-HOMO         0.468510 =      12.7488eV


 **********************************************************************************************************************************
 DATASETS  * FILE   NREC   LENGTH (MB)   RECORD NAMES
              1      19      421.27       500      610      700      900      950      970     1000      129      960     1100   
                                          VAR    BASINP    GEOM    SYMINP    ZMAT    AOBASIS   BASIS     P2S    ABASIS      S 
                                         1400     1410     1200     1210     1080     1600     1650     1300     1700   
                                           T        V       H0       H01     AOSYM     SMH    MOLCAS    ERIS     OPER   

              2       4        3.13       700     1000      520     2100   
                                         GEOM     BASIS   MCVARS     RHF  

 PROGRAMS   *        TOTAL        HF       INT
 CPU TIMES  *        11.07      5.52      5.46
 REAL TIME  *        14.05 SEC
 DISK USED  *         1.33 GB      
 **********************************************************************************************************************************


 PROGRAM * CCSD (Closed-shell coupled cluster)     Authors: C. Hampel, H.-J. Werner, 1991, M. Deegan, P.J. Knowles, 1992


 Convergence thresholds:  THRVAR = 1.00D-08  THRDEN = 1.00D-12

 CCSD(T)     terms to be evaluated (factor= 1.000)


 Number of closed-shell orbitals:   8 (   7   1 )
 Number of external orbitals:     163 ( 107  56 )

 Molecular orbitals read from record     2100.2  Type=RHF/CANONICAL (state 1.1)

 Number of N-1 electron functions:               8
 Number of N-2 electron functions:              36
 Number of singly external CSFs:               805
 Number of doubly external CSFs:            449165
 Total number of CSFs:                      449971

 Length of J-op  integral file:               0.00 MB
 Length of K-op  integral file:               1.15 MB
 Length of 3-ext integral record:             0.00 MB

 Memory could be reduced to 24.90 Mwords without degradation in triples

 Integral transformation finished. Total CPU:   1.08 sec, npass=  1  Memory used:   6.89 MW

 Reference energy:                   -129.84026517

 MP2 singlet pair energy:              -0.37858006
 MP2 triplet pair energy:              -0.18644403
 MP2 correlation energy:               -0.56502409
 MP2 total energy:                   -130.40528927

 SCS-MP2 correlation energy:           -0.57030569   (PS=  1.200000  PT=  0.333333)
 SCS-MP2 total energy:               -130.41057087

 ITER.      SQ.NORM     CORR.ENERGY   TOTAL ENERGY   ENERGY CHANGE        DEN1      VAR(S)    VAR(P)  DIIS     TIME  TIME/IT
   1      1.11926982    -0.56979847  -130.41006365    -0.00477438     0.01280537  0.33D-02  0.31D-02  1  1     2.25     1.25
   2      1.13005738    -0.56950974  -130.40977492     0.00028873    -0.01362763  0.90D-04  0.49D-03  2  2     3.46     1.28
   3      1.13524555    -0.56982877  -130.41009394    -0.00031903    -0.00233391  0.54D-04  0.68D-04  3  3     4.69     1.29
   4      1.13865429    -0.56982188  -130.41008705     0.00000689    -0.00137418  0.43D-05  0.98D-05  4  4     5.89     1.30
   5      1.13969401    -0.56984579  -130.41011096    -0.00002391    -0.00024325  0.15D-05  0.19D-05  5  5     7.12     1.30
   6      1.14009976    -0.56983986  -130.41010503     0.00000593    -0.00003894  0.12D-06  0.43D-06  6  6     8.31     1.31
   7      1.14018327    -0.56984032  -130.41010550    -0.00000046     0.00000051  0.17D-07  0.99D-07  6  1     9.54     1.31
   8      1.14021707    -0.56983866  -130.41010383     0.00000167    -0.00000470  0.44D-08  0.14D-07  6  2    10.79     1.31
   9      1.14022166    -0.56983878  -130.41010396    -0.00000013     0.00000110  0.18D-08  0.18D-08  6  3    11.98     1.31
  10      1.14022319    -0.56983909  -130.41010426    -0.00000031    -0.00000061  0.43D-09  0.25D-09  6  4    13.23     1.32
  11      1.14022221    -0.56983923  -130.41010440    -0.00000014     0.00000034  0.10D-09  0.26D-10  6  5    14.44     1.32
  12      1.14022134    -0.56983936  -130.41010454    -0.00000013     0.00000034  0.10D-10  0.65D-11  6  6    15.65     1.32
  13      1.14022082    -0.56983938  -130.41010455    -0.00000001     0.00000010  0.42D-11  0.12D-11  6  1    16.88     1.32
  14      1.14022040    -0.56983940  -130.41010457    -0.00000003     0.00000010  0.44D-12  0.40D-12  6  3    18.11     1.32
  15      1.14022023    -0.56983940  -130.41010457    -0.00000000     0.00000002  0.11D-12  0.28D-13  6  2    19.34     1.32
  16      1.14022018    -0.56983940  -130.41010458    -0.00000000     0.00000001  0.23D-13  0.59D-14  6  4    20.57     1.32
  17      1.14022015    -0.56983941  -130.41010458    -0.00000000     0.00000001  0.41D-14  0.11D-14  6  5    21.80     1.32
  18      1.14022015    -0.56983941  -130.41010458    -0.00000000     0.00000000  0.44D-15  0.27D-15  6  6    23.04     1.32
  19      1.14022015    -0.56983941  -130.41010458     0.00000000    -0.00000000  0.53D-16  0.38D-16  6  1    24.27     1.32
  20      1.14022016    -0.56983941  -130.41010458     0.00000000    -0.00000000  0.22D-17  0.81D-17  6  3    25.48     1.32
  21      1.14022016    -0.56983941  -130.41010458     0.00000000    -0.00000000  0.12D-17  0.20D-17  6  2    26.68     1.32
  22      1.14022016    -0.56983941  -130.41010458     0.00000000    -0.00000000  0.27D-18  0.71D-18  6  4    27.91     1.32
  23      1.14022016    -0.56983941  -130.41010458    -0.00000000     0.00000000  0.13D-18  0.10D-18  6  5    29.15     1.32
  24      1.14022016    -0.56983941  -130.41010458     0.00000000    -0.00000000  0.48D-20  0.13D-19  6  1    30.32     1.32
  25      1.14022016    -0.56983941  -130.41010458     0.00000000     0.00000000  0.33D-21  0.14D-20  6  6    31.51     1.32
  26      1.14022016    -0.56983941  -130.41010458    -0.00000000     0.00000000  0.11D-21  0.33D-21  6  3    32.73     1.32

 Norm of t1 vector:      0.07726338      S-energy:     0.00000000      T1 diagnostic:  0.01365836
                                                                       D1 diagnostic:  0.04408689

 Doubles amplitudes (print threshold =  0.500E-01):

         I         J         SYM. A    SYM. B    A         B      T(IJ, AB)

         8         8         2         2         1         1     -0.13451737


 Total CPU time for triples:     20.26 sec


 RESULTS
 =======

  Reference energy                   -129.840265172250

  Correlated core orbitals:             1.1       2.1
  Orbital energies:                   -20.6512  -15.7083
 
  CCSD core-core energy                -0.079231640220
  CCSD core-valence energy             -0.036108705018
  CCSD valence correlation energy      -0.454499060297
 
  CCSD singlet pair energy             -0.407428179833
  CCSD triplet pair energy             -0.162411225703
  CCSD correlation energy              -0.569839405535

  Triples (T) contribution             -0.022186821392
  Total correlation energy             -0.592026226926

  CCSD total energy                  -130.410104577784
  CCSD[T] energy                     -130.433450995561
  CCSD-T energy                      -130.431856004134
 !CCSD(T) total energy               -130.432291399176

 Timing summary (sec):

 STEP                 CPU(USER)    SYS     CPU(TOT)    WALL
 Transformation          1.10      0.17      1.27      1.27
 CCSD iterations        31.64      2.78     34.42     34.42
 Triples                20.26      0.72     20.98     20.99

 Program statistics:

 Available memory in ccsd:               994999644
 Min. memory needed in ccsd:               1368037
 Max. memory used in ccsd:                 1750502
 Max. memory used in cckext:               2014357 (26 integral passes)



 **********************************************************************************************************************************
 DATASETS  * FILE   NREC   LENGTH (MB)   RECORD NAMES
              1      20      500.18       500      610      700      900      950      970     1000      129      960     1100   
                                          VAR    BASINP    GEOM    SYMINP    ZMAT    AOBASIS   BASIS     P2S    ABASIS      S 
                                         1400     1410     1200     1210     1080     1600     1650     1300     1700     1380   
                                           T        V       H0       H01     AOSYM     SMH    MOLCAS    ERIS     OPER     JKOP   

              2       4        3.13       700     1000      520     2100   
                                         GEOM     BASIS   MCVARS     RHF  

 PROGRAMS   *        TOTAL   CCSD(T)        HF       INT
 CPU TIMES  *        64.09     53.02      5.52      5.46
 REAL TIME  *        70.77 SEC
 DISK USED  *         1.33 GB      
 **********************************************************************************************************************************

 CCSD(T)/USERDEF energy=   -130.432291399176

        CCSD(T)         HF-SCF  
   -130.43229140   -129.84026517
 **********************************************************************************************************************************
 Molpro calculation terminated
 Variable memory released
