
 Primary working directories    : /tmp/r2666/235515.maple
 Secondary working directories  : /tmp/r2666/235515.maple
 Wavefunction directory         : /ddn/home4/r2666/wfu/
 Main file repository           : /tmp/r2666/235515.maple/

 SHA1      : d5ffa45e93fdbca01ffc919aa182cfdae0147319
 NAME      : 2015.1.35
 ARCHNAME  : linux/x86_64
 FC        : /opt/intel/composer_xe_2015.1.133/bin/intel64/ifort
 BLASLIB   : -Wl,-_start-group /opt/intel/mkl/lib/intel64/libmkl_intel_ilp64.a /opt/intel/mkl/lib/intel64/libmkl_intel_thread.a /opt/intel/mkl/lib/intel64/libmkl_core.a -Wl,-_end-group
 id        : olemiss

 Nodes     nprocs
 cn091        1

 Using customized tuning parameters: mindgm=1; mindgv=20; mindgc=4; mindgr=1; noblas=0; minvec=7
 default implementation of scratch files=df  

 ***,hno CCSD(T)/TZ-F12 QFF
 memory, 995, m;
 gthresh,energy=1.d-12,zero=1.d-22,oneint=1.d-22,twoint=1.d-22;
 gthresh,optgrad=1.d-8,optstep=1.d-8;
 nocompress;
 geomtyp=xyz
 bohr
 geometry={
 3
        112       112
 N        0.0000000000       -0.1700884268       -1.1359511847
 H        0.0000000000        1.6738077865       -1.9283586020
 O        0.0000000000        0.0380484303        1.1137201957
 }
 
 basis={
 default=aug-cc-pvtz
 s,C,8236.0,1235.0,280.8, 79.27,25.59, 8.997,3.319
 s,C,0.9059,0.3643,0.1285000
 p,C,56.0,18.71,4.133,0.2827,0.3827,0.1209
 d,C,30.0,10.0,3.3,1.097,0.318
 f,C,7.0,2.3,0.7610
 s,N,11420.0,1712.0,389.3,110.0,35.57,12.54,4.644
 s,N,1.293,0.5118,0.1787
 p,N,79.89,26.63,5.948,1.742,0.555,0.1725
 d,N,45.0,15.0,5.0,1.654,0.469
 f,N,9.9,3.3,1.093
 s,O,15330.0,2299.0,522.4,147.3,47.55,16.76,6.207
 s,O,1.752,0.6882,0.2384
 p,O,103.5,34.46,7.749,2.28,0.7156,0.214
 d,O,63.0,21.0,7.0,2.314,0.645
 f,O,12.9,4.3,1.428
 s,mg,164900.0,24710.0,5628.0,1596.0,521.0;
 s,mg,188.0,73.01,29.90,12.54,4.306,1.826;
 s,mg,0.7417,0.0761,0.145,0.033,0.0129;
 p,mg,950.70,316.90,74.86,23.72,8.669,3.363;
 p,mg,1.310,0.4911,0.2364,0.08733,0.03237,0.00745;
 d,mg,1.601,0.686,0.126,0.294,0.0468;
 f,mg,1.372,0.588,0.094,0.252;
 }
   {hf,maxit=500;accu,20;}
 {ccsd(t),nocheck,maxit=250;orbital,IGNORE_ERROR;core}

 Variables initialized (889), CPU time= 0.00 sec
 Commands  initialized (702), CPU time= 0.01 sec, 572 directives.
 Default parameters read. Elapsed time= 0.04 sec

 Checking input...
 Passed
1


                                         ***  PROGRAM SYSTEM MOLPRO  ***
                                       Copyright, TTI GmbH Stuttgart, 2015
                                    Version 2015.1 linked Jul  9 2018 13:16:40


 **********************************************************************************************************************************
 LABEL *   hno CCSD(T)/TZ-F12 QFF                                                        
  64 bit serial version                                                                  DATE: 08-Feb-20          TIME: 18:00:42  
 **********************************************************************************************************************************

 SHA1:             d5ffa45e93fdbca01ffc919aa182cfdae0147319
 **********************************************************************************************************************************

 THRESHOLDS:

 ZERO    =  1.00D-22  ONEINT  =  1.00D-22  TWOINT  =  1.00D-22  PREFAC  =  1.00D-14  LOCALI  =  1.00D-09  EORDER  =  1.00D-04
 ENERGY  =  1.00D-12  ETEST   =  0.00D+00  EDENS   =  0.00D+00  THRDEDEF=  1.00D-06  GRADIENT=  1.00D-02  STEP    =  1.00D-03
 ORBITAL =  1.00D-05  CIVEC   =  1.00D-05  COEFF   =  1.00D-04  PRINTCI =  5.00D-02  PUNCHCI =  9.90D+01  OPTGRAD =  3.00D-04
 OPTENERG=  1.00D-06  OPTSTEP =  3.00D-04  THRGRAD =  1.00D-10  COMPRESS=  1.00D-11  VARMIN  =  1.00D-07  VARMAX  =  1.00D-03
 THRDOUB =  0.00D+00  THRDIV  =  1.00D-05  THRRED  =  1.00D-07  THRPSP  =  1.00D+00  THRDC   =  1.00D-10  THRCS   =  1.00D-10
 THRNRM  =  1.00D-08  THREQ   =  0.00D+00  THRDE   =  1.00D+00  THRREF  =  1.00D-05  SPARFAC =  1.00D+00  THRDLP  =  1.00D-07
 THRDIA  =  1.00D-10  THRDLS  =  1.00D-07  THRGPS  =  0.00D+00  THRKEX  =  0.00D+00  THRDIS  =  2.00D-01  THRVAR  =  1.00D-10
 THRLOC  =  1.00D-06  THRGAP  =  1.00D-06  THRLOCT = -1.00D+00  THRGAPT = -1.00D+00  THRORB  =  1.00D-06  THRMLTP =  0.00D+00
 THRCPQCI=  1.00D-10  KEXTA   =  0.00D+00  THRCOARS=  0.00D+00  SYMTOL  =  1.00D-06  GRADTOL =  1.00D-06  THROVL  =  1.00D-08
 THRORTH =  1.00D-08  GRID    =  1.00D-06  GRIDMAX =  1.00D-03  DTMAX   =  0.00D+00  THROCCDE=  1.00D-01  THROCCDE=  1.00D-01



 THRESHOLDS:

 ZERO    =  1.00D-22  ONEINT  =  1.00D-22  TWOINT  =  1.00D-22  PREFAC  =  1.00D-14  LOCALI  =  1.00D-09  EORDER  =  1.00D-04
 ENERGY  =  1.00D-12  ETEST   =  0.00D+00  EDENS   =  0.00D+00  THRDEDEF=  1.00D-06  GRADIENT=  1.00D-02  STEP    =  1.00D-03
 ORBITAL =  1.00D-05  CIVEC   =  1.00D-05  COEFF   =  1.00D-04  PRINTCI =  5.00D-02  PUNCHCI =  9.90D+01  OPTGRAD =  1.00D-08
 OPTENERG=  1.00D-06  OPTSTEP =  1.00D-08  THRGRAD =  1.00D-10  COMPRESS=  1.00D-11  VARMIN  =  1.00D-07  VARMAX  =  1.00D-03
 THRDOUB =  0.00D+00  THRDIV  =  1.00D-05  THRRED  =  1.00D-07  THRPSP  =  1.00D+00  THRDC   =  1.00D-10  THRCS   =  1.00D-10
 THRNRM  =  1.00D-08  THREQ   =  0.00D+00  THRDE   =  1.00D+00  THRREF  =  1.00D-05  SPARFAC =  1.00D+00  THRDLP  =  1.00D-07
 THRDIA  =  1.00D-10  THRDLS  =  1.00D-07  THRGPS  =  0.00D+00  THRKEX  =  0.00D+00  THRDIS  =  2.00D-01  THRVAR  =  1.00D-10
 THRLOC  =  1.00D-06  THRGAP  =  1.00D-06  THRLOCT = -1.00D+00  THRGAPT = -1.00D+00  THRORB  =  1.00D-06  THRMLTP =  0.00D+00
 THRCPQCI=  1.00D-10  KEXTA   =  0.00D+00  THRCOARS=  0.00D+00  SYMTOL  =  1.00D-06  GRADTOL =  1.00D-06  THROVL  =  1.00D-08
 THRORTH =  1.00D-08  GRID    =  1.00D-06  GRIDMAX =  1.00D-03  DTMAX   =  0.00D+00  THROCCDE=  1.00D-01  THROCCDE=  1.00D-01



 Input parameters for SORTINT:

 COMPRESS =    0.000000
 C_FINAL  =    1.000000
 DEBUG    =   -1.000000
 C_SORT1  =    0.000000
 C_SEWARD =    0.000000
 THRESH   =    0.000000
 IO       =  molpro                                                          
 SPRI     =    0.000000
 SETTING GEOMTYP        =    XYZ
 ZUNIT=BOHR
 

 Variable memory set to  995000000 words,  buffer space   230000 words

 SETTING BASIS          =    USERDEF


 Recomputing integrals since basis changed


 Using spherical harmonics

 Library entry H      S aug-cc-pVTZ          selected for orbital group  2
 Library entry H      P aug-cc-pVTZ          selected for orbital group  2
 Library entry H      D aug-cc-pVTZ          selected for orbital group  2


 PROGRAM * SEWARD (Integral evaluation for generally contracted gaussian basis sets)     Author: Roland Lindh, 1990

 Geometry written to block  1 of record 700


 Point group  Cs  



 ATOMIC COORDINATES

 NR  ATOM    CHARGE       X              Y              Z

   1  N       7.00    0.000000000   -0.170088427   -1.135951185
   2  H       1.00    0.000000000    1.673807787   -1.928358602
   3  O       8.00    0.000000000    0.038048430    1.113720196

 Bond lengths in Bohr (Angstrom)

 1-2  2.006953602  1-3  2.259279149
     ( 1.062034110)     ( 1.195559039)

 Bond angles

  2-1-3  107.96954377

 NUCLEAR CHARGE:                   16
 NUMBER OF PRIMITIVE AOS:         203
 NUMBER OF SYMMETRY AOS:          173
 NUMBER OF CONTRACTIONS:          171   ( 114A'  +  57A"  )
 NUMBER OF CORE ORBITALS:           2   (   2A'  +   0A"  )
 NUMBER OF VALENCE ORBITALS:        9   (   7A'  +   2A"  )


 NUCLEAR REPULSION ENERGY   30.59071149


 Eigenvalues of metric

         1 0.104E-02 0.239E-02 0.332E-02 0.637E-02 0.102E-01 0.137E-01 0.144E-01 0.232E-01
         2 0.375E-01 0.514E-01 0.700E-01 0.940E-01 0.131E+00 0.134E+00 0.141E+00 0.142E+00


 Contracted 2-electron integrals neglected if value below      1.0D-22

       46251743. INTEGRALS WRITTEN OUT IN   11295 BLOCKS ON RECORD 1290 OF FILE 1


 NUMBER OF SORTED TWO-ELECTRON INTEGRALS:   55360566.     BUFFER LENGTH:  32768
 NUMBER OF SEGMENTS:   4  SEGMENT LENGTH:   15997996      RECORD LENGTH: 524288

 Memory used in sort:      16.56 MW

 SORT1 READ    46251743. AND WROTE    46690214. INTEGRALS IN    136 RECORDS. CPU TIME:     0.79 SEC, REAL TIME:     1.07 SEC
 SORT2 READ    46690214. AND WROTE    55360566. INTEGRALS IN      4 RECORDS. CPU TIME:     0.64 SEC, REAL TIME:     0.85 SEC

 FILE SIZES:   FILE 1:   761.0 MBYTE,  FILE 4:   570.5 MBYTE,   TOTAL:   1331.4 MBYTE

 OPERATOR DM      FOR CENTER  0  COORDINATES:    0.000000    0.000000    0.000000


 **********************************************************************************************************************************
 DATASETS  * FILE   NREC   LENGTH (MB)   RECORD NAMES
              1      19      421.95       500      610      700      900      950      970     1000      129      960     1100   
                                          VAR    BASINP    GEOM    SYMINP    ZMAT    AOBASIS   BASIS     P2S    ABASIS      S 
                                         1400     1410     1200     1210     1080     1600     1650     1300     1700   
                                           T        V       H0       H01     AOSYM     SMH    MOLCAS    ERIS     OPER   

 PROGRAMS   *        TOTAL       INT
 CPU TIMES  *         4.26      4.16
 REAL TIME  *         5.66 SEC
 DISK USED  *         1.33 GB      
 **********************************************************************************************************************************


 PROGRAM * RHF-SCF (CLOSED SHELL)       Authors: W. Meyer, H.-J. Werner


 NUMBER OF ELECTRONS:       8+    8-
 CONVERGENCE THRESHOLDS:    1.00E-10 (Density)    1.00E-13 (Energy)
 MAX. NUMBER OF ITERATIONS:      500
 INTERPOLATION TYPE:            DIIS
 INTERPOLATION STEPS:              2 (START)      1 (STEP)
 LEVEL SHIFTS:                  0.00 (CLOSED)  0.00 (OPEN) 



 Orbital guess generated from atomic densities. Full valence occupancy:    9   2

 Molecular orbital dump at record        2100.2

 Initial occupancy:   7   1

 ITERATION    DDIFF          GRAD             ENERGY        2-EL.EN.            DIPOLE MOMENTS         DIIS   ORB.
    1      0.000D+00      0.000D+00      -129.79169003    154.448811    0.00000    0.55481   -0.97389    0    start
    2      0.000D+00      0.870D-02      -129.81893339    155.657770    0.00000    0.58808   -0.19658    1    diag
    3      0.356D-02      0.646D-02      -129.84015842    155.749207    0.00000    0.53549   -0.56292    2    diag
    4      0.137D-02      0.102D-02      -129.84091697    155.482554    0.00000    0.54393   -0.50282    3    diag
    5      0.324D-03      0.332D-03      -129.84103468    155.570283    0.00000    0.55008   -0.50552    4    diag
    6      0.152D-03      0.980D-04      -129.84105392    155.554228    0.00000    0.55071   -0.50160    5    diag
    7      0.605D-04      0.484D-04      -129.84105939    155.556954    0.00000    0.55211   -0.49927    6    diag
    8      0.406D-04      0.160D-04      -129.84105992    155.556174    0.00000    0.55217   -0.49844    7    diag
    9      0.132D-04      0.296D-05      -129.84105994    155.556069    0.00000    0.55212   -0.49828    8    diag
   10      0.261D-05      0.691D-06      -129.84105994    155.556054    0.00000    0.55209   -0.49825    9    orth
   11      0.815D-06      0.140D-06      -129.84105994    155.556050    0.00000    0.55208   -0.49824    9    diag
   12      0.200D-06      0.287D-07      -129.84105994    155.556049    0.00000    0.55208   -0.49824    9    diag
   13      0.493D-07      0.752D-08      -129.84105994    155.556049    0.00000    0.55208   -0.49824    9    diag
   14      0.114D-07      0.138D-08      -129.84105994    155.556048    0.00000    0.55208   -0.49824    9    diag
   15      0.159D-08      0.390D-09      -129.84105994    155.556049    0.00000    0.55208   -0.49824    9    diag
   16      0.350D-09      0.123D-09      -129.84105994    155.556049    0.00000    0.55208   -0.49824    9    diag
   17      0.983D-10      0.366D-10      -129.84105994    155.556049    0.00000    0.55208   -0.49824    0    orth

 Final occupancy:   7   1

 !RHF STATE 1.1 Energy               -129.841059940079
 Nuclear energy                        30.59071149
 One-electron energy                 -238.20979569
 Two-electron energy                   77.77802426
 Virial quotient                       -1.00136166
 !RHF STATE 1.1 Dipole moment           0.00000000     0.55207729    -0.49824169
 Dipole moment /Debye                   0.00000000     1.40314860    -1.26632111

 Orbital energies:

         1.1          2.1          3.1          4.1          5.1          6.1          7.1          8.1          9.1
    -20.650314   -15.709942    -1.538406    -0.987457    -0.748009    -0.667837    -0.424493     0.039874     0.192560

         1.2          2.2          3.2
     -0.600417     0.083506     0.239854

 HOMO      7.1    -0.424493 =     -11.5510eV
 LUMO      8.1     0.039874 =       1.0850eV
 LUMO-HOMO         0.464367 =      12.6361eV


 **********************************************************************************************************************************
 DATASETS  * FILE   NREC   LENGTH (MB)   RECORD NAMES
              1      19      421.95       500      610      700      900      950      970     1000      129      960     1100   
                                          VAR    BASINP    GEOM    SYMINP    ZMAT    AOBASIS   BASIS     P2S    ABASIS      S 
                                         1400     1410     1200     1210     1080     1600     1650     1300     1700   
                                           T        V       H0       H01     AOSYM     SMH    MOLCAS    ERIS     OPER   

              2       4        3.13       700     1000      520     2100   
                                         GEOM     BASIS   MCVARS     RHF  

 PROGRAMS   *        TOTAL        HF       INT
 CPU TIMES  *         8.62      4.37      4.16
 REAL TIME  *        10.96 SEC
 DISK USED  *         1.33 GB      
 **********************************************************************************************************************************


 PROGRAM * CCSD (Closed-shell coupled cluster)     Authors: C. Hampel, H.-J. Werner, 1991, M. Deegan, P.J. Knowles, 1992


 Convergence thresholds:  THRVAR = 1.00D-08  THRDEN = 1.00D-12

 CCSD(T)     terms to be evaluated (factor= 1.000)


 Number of closed-shell orbitals:   8 (   7   1 )
 Number of external orbitals:     163 ( 107  56 )

 Molecular orbitals read from record     2100.2  Type=RHF/CANONICAL (state 1.1)

 Number of N-1 electron functions:               8
 Number of N-2 electron functions:              36
 Number of singly external CSFs:               805
 Number of doubly external CSFs:            449165
 Total number of CSFs:                      449971

 Length of J-op  integral file:               0.00 MB
 Length of K-op  integral file:               1.15 MB
 Length of 3-ext integral record:             0.00 MB

 Memory could be reduced to 24.90 Mwords without degradation in triples

 Integral transformation finished. Total CPU:   0.86 sec, npass=  1  Memory used:   6.89 MW

 Reference energy:                   -129.84105994

 MP2 singlet pair energy:              -0.37793480
 MP2 triplet pair energy:              -0.18598639
 MP2 correlation energy:               -0.56392120
 MP2 total energy:                   -130.40498114

 SCS-MP2 correlation energy:           -0.56924663   (PS=  1.200000  PT=  0.333333)
 SCS-MP2 total energy:               -130.41030657

 ITER.      SQ.NORM     CORR.ENERGY   TOTAL ENERGY   ENERGY CHANGE        DEN1      VAR(S)    VAR(P)  DIIS     TIME  TIME/IT
   1      1.11879381    -0.56907815  -130.41013809    -0.00515695     0.01209520  0.32D-02  0.30D-02  1  1     1.82     1.02
   2      1.12941085    -0.56888155  -130.40994149     0.00019660    -0.01343002  0.86D-04  0.49D-03  2  2     2.79     1.04
   3      1.13451478    -0.56919877  -130.41025871    -0.00031721    -0.00232647  0.53D-04  0.65D-04  3  3     3.74     1.05
   4      1.13781440    -0.56918901  -130.41024895     0.00000976    -0.00135059  0.43D-05  0.92D-05  4  4     4.71     1.06
   5      1.13880354    -0.56921249  -130.41027243    -0.00002348    -0.00023249  0.16D-05  0.18D-05  5  5     5.69     1.06
   6      1.13919250    -0.56920712  -130.41026706     0.00000536    -0.00003715  0.15D-06  0.40D-06  6  6     6.69     1.06
   7      1.13927695    -0.56920720  -130.41026714    -0.00000007    -0.00000016  0.23D-07  0.88D-07  6  1     7.67     1.07
   8      1.13931115    -0.56920560  -130.41026554     0.00000160    -0.00000462  0.42D-08  0.12D-07  6  2     8.65     1.07
   9      1.13931623    -0.56920566  -130.41026560    -0.00000006     0.00000091  0.16D-08  0.16D-08  6  3     9.67     1.07
  10      1.13931783    -0.56920596  -130.41026590    -0.00000030    -0.00000056  0.37D-09  0.22D-09  6  4    10.66     1.08
  11      1.13931689    -0.56920609  -130.41026603    -0.00000013     0.00000033  0.89D-10  0.22D-10  6  5    11.65     1.08
  12      1.13931602    -0.56920622  -130.41026616    -0.00000013     0.00000034  0.94D-11  0.58D-11  6  6    12.64     1.08
  13      1.13931552    -0.56920623  -130.41026617    -0.00000001     0.00000011  0.41D-11  0.10D-11  6  1    13.62     1.08
  14      1.13931510    -0.56920625  -130.41026619    -0.00000002     0.00000010  0.43D-12  0.35D-12  6  3    14.61     1.08
  15      1.13931495    -0.56920625  -130.41026619    -0.00000000     0.00000002  0.11D-12  0.23D-13  6  2    15.63     1.08
  16      1.13931490    -0.56920625  -130.41026619    -0.00000000     0.00000001  0.24D-13  0.53D-14  6  4    16.60     1.08
  17      1.13931489    -0.56920625  -130.41026619    -0.00000000     0.00000000  0.38D-14  0.10D-14  6  5    17.58     1.08
  18      1.13931488    -0.56920625  -130.41026619    -0.00000000     0.00000000  0.36D-15  0.26D-15  6  6    18.57     1.08
  19      1.13931489    -0.56920625  -130.41026619     0.00000000    -0.00000000  0.43D-16  0.30D-16  6  1    19.57     1.08
  20      1.13931489    -0.56920625  -130.41026619     0.00000000    -0.00000000  0.18D-17  0.58D-17  6  3    20.58     1.08
  21      1.13931489    -0.56920625  -130.41026619     0.00000000    -0.00000000  0.89D-18  0.13D-17  6  2    21.55     1.08
  22      1.13931489    -0.56920625  -130.41026619     0.00000000    -0.00000000  0.12D-18  0.48D-18  6  4    22.55     1.08
  23      1.13931489    -0.56920625  -130.41026619    -0.00000000     0.00000000  0.80D-19  0.77D-19  6  5    23.55     1.08
  24      1.13931489    -0.56920625  -130.41026619     0.00000000    -0.00000000  0.44D-20  0.98D-20  6  1    24.55     1.08
  25      1.13931489    -0.56920625  -130.41026619     0.00000000     0.00000000  0.21D-21  0.11D-20  6  6    25.56     1.08
  26      1.13931489    -0.56920625  -130.41026619    -0.00000000     0.00000000  0.11D-21  0.25D-21  6  3    26.58     1.08

 Norm of t1 vector:      0.07620258      S-energy:     0.00000000      T1 diagnostic:  0.01347084
                                                                       D1 diagnostic:  0.04250350

 Doubles amplitudes (print threshold =  0.500E-01):

         I         J         SYM. A    SYM. B    A         B      T(IJ, AB)

         8         8         2         2         1         1     -0.13082975


 Total CPU time for triples:     19.25 sec


 RESULTS
 =======

  Reference energy                   -129.841059940079

  Correlated core orbitals:             1.1       2.1
  Orbital energies:                   -20.6503  -15.7099
 
  CCSD core-core energy                -0.079226268665
  CCSD core-valence energy             -0.036136218775
  CCSD valence correlation energy      -0.453843765961
 
  CCSD singlet pair energy             -0.406845581089
  CCSD triplet pair energy             -0.162360672319
  CCSD correlation energy              -0.569206253401

  Triples (T) contribution             -0.021967494712
  Total correlation energy             -0.591173748113

  CCSD total energy                  -130.410266193480
  CCSD[T] energy                     -130.433360155925
  CCSD-T energy                      -130.431804414803
 !CCSD(T) total energy               -130.432233688192

 Timing summary (sec):

 STEP                 CPU(USER)    SYS     CPU(TOT)    WALL
 Transformation          0.87      0.17      1.04      1.05
 CCSD iterations        25.71      2.50     28.21     28.20
 Triples                19.25      0.54     19.79     19.79

 Program statistics:

 Available memory in ccsd:               994999644
 Min. memory needed in ccsd:               1368037
 Max. memory used in ccsd:                 1750502
 Max. memory used in cckext:               2014357 (26 integral passes)



 **********************************************************************************************************************************
 DATASETS  * FILE   NREC   LENGTH (MB)   RECORD NAMES
              1      20      500.87       500      610      700      900      950      970     1000      129      960     1100   
                                          VAR    BASINP    GEOM    SYMINP    ZMAT    AOBASIS   BASIS     P2S    ABASIS      S 
                                         1400     1410     1200     1210     1080     1600     1650     1300     1700     1380   
                                           T        V       H0       H01     AOSYM     SMH    MOLCAS    ERIS     OPER     JKOP   

              2       4        3.13       700     1000      520     2100   
                                         GEOM     BASIS   MCVARS     RHF  

 PROGRAMS   *        TOTAL   CCSD(T)        HF       INT
 CPU TIMES  *        54.46     45.84      4.37      4.16
 REAL TIME  *        60.04 SEC
 DISK USED  *         1.33 GB      
 **********************************************************************************************************************************

 CCSD(T)/USERDEF energy=   -130.432233688192

        CCSD(T)         HF-SCF  
   -130.43223369   -129.84105994
 **********************************************************************************************************************************
 Molpro calculation terminated
 Variable memory released
