
 Primary working directories    : /tmp/r2666/235573.maple
 Secondary working directories  : /tmp/r2666/235573.maple
 Wavefunction directory         : /ddn/home4/r2666/wfu/
 Main file repository           : /tmp/r2666/235573.maple/

 SHA1      : d5ffa45e93fdbca01ffc919aa182cfdae0147319
 NAME      : 2015.1.35
 ARCHNAME  : linux/x86_64
 FC        : /opt/intel/composer_xe_2015.1.133/bin/intel64/ifort
 BLASLIB   : -Wl,-_start-group /opt/intel/mkl/lib/intel64/libmkl_intel_ilp64.a /opt/intel/mkl/lib/intel64/libmkl_intel_thread.a /opt/intel/mkl/lib/intel64/libmkl_core.a -Wl,-_end-group
 id        : olemiss

 Nodes     nprocs
 cn095        1

 Using customized tuning parameters: mindgm=1; mindgv=20; mindgc=4; mindgr=1; noblas=0; minvec=7
 default implementation of scratch files=df  

 ***,hno CCSD(T)/TZ-F12 QFF
 memory, 995, m;
 gthresh,energy=1.d-12,zero=1.d-22,oneint=1.d-22,twoint=1.d-22;
 gthresh,optgrad=1.d-8,optstep=1.d-8;
 nocompress;
 geomtyp=xyz
 bohr
 geometry={
 3
         96        96
 N        0.0000000000       -0.1606191269       -1.1344699539
 H        0.0000000000        1.6698818628       -1.9340274815
 O        0.0000000000        0.0325050541        1.1179078443
 }
 
 basis={
 default=aug-cc-pvtz
 s,C,8236.0,1235.0,280.8, 79.27,25.59, 8.997,3.319
 s,C,0.9059,0.3643,0.1285000
 p,C,56.0,18.71,4.133,0.2827,0.3827,0.1209
 d,C,30.0,10.0,3.3,1.097,0.318
 f,C,7.0,2.3,0.7610
 s,N,11420.0,1712.0,389.3,110.0,35.57,12.54,4.644
 s,N,1.293,0.5118,0.1787
 p,N,79.89,26.63,5.948,1.742,0.555,0.1725
 d,N,45.0,15.0,5.0,1.654,0.469
 f,N,9.9,3.3,1.093
 s,O,15330.0,2299.0,522.4,147.3,47.55,16.76,6.207
 s,O,1.752,0.6882,0.2384
 p,O,103.5,34.46,7.749,2.28,0.7156,0.214
 d,O,63.0,21.0,7.0,2.314,0.645
 f,O,12.9,4.3,1.428
 s,mg,164900.0,24710.0,5628.0,1596.0,521.0;
 s,mg,188.0,73.01,29.90,12.54,4.306,1.826;
 s,mg,0.7417,0.0761,0.145,0.033,0.0129;
 p,mg,950.70,316.90,74.86,23.72,8.669,3.363;
 p,mg,1.310,0.4911,0.2364,0.08733,0.03237,0.00745;
 d,mg,1.601,0.686,0.126,0.294,0.0468;
 f,mg,1.372,0.588,0.094,0.252;
 }
   {hf,maxit=500;accu,20;}
 {ccsd(t),nocheck,maxit=250;orbital,IGNORE_ERROR;core}

 Variables initialized (889), CPU time= 0.01 sec
 Commands  initialized (702), CPU time= 0.01 sec, 572 directives.
 Default parameters read. Elapsed time= 0.08 sec

 Checking input...
 Passed
1


                                         ***  PROGRAM SYSTEM MOLPRO  ***
                                       Copyright, TTI GmbH Stuttgart, 2015
                                    Version 2015.1 linked Jul  9 2018 13:16:40


 **********************************************************************************************************************************
 LABEL *   hno CCSD(T)/TZ-F12 QFF                                                        
  64 bit serial version                                                                  DATE: 09-Feb-20          TIME: 14:35:02  
 **********************************************************************************************************************************

 SHA1:             d5ffa45e93fdbca01ffc919aa182cfdae0147319
 **********************************************************************************************************************************

 THRESHOLDS:

 ZERO    =  1.00D-22  ONEINT  =  1.00D-22  TWOINT  =  1.00D-22  PREFAC  =  1.00D-14  LOCALI  =  1.00D-09  EORDER  =  1.00D-04
 ENERGY  =  1.00D-12  ETEST   =  0.00D+00  EDENS   =  0.00D+00  THRDEDEF=  1.00D-06  GRADIENT=  1.00D-02  STEP    =  1.00D-03
 ORBITAL =  1.00D-05  CIVEC   =  1.00D-05  COEFF   =  1.00D-04  PRINTCI =  5.00D-02  PUNCHCI =  9.90D+01  OPTGRAD =  3.00D-04
 OPTENERG=  1.00D-06  OPTSTEP =  3.00D-04  THRGRAD =  1.00D-10  COMPRESS=  1.00D-11  VARMIN  =  1.00D-07  VARMAX  =  1.00D-03
 THRDOUB =  0.00D+00  THRDIV  =  1.00D-05  THRRED  =  1.00D-07  THRPSP  =  1.00D+00  THRDC   =  1.00D-10  THRCS   =  1.00D-10
 THRNRM  =  1.00D-08  THREQ   =  0.00D+00  THRDE   =  1.00D+00  THRREF  =  1.00D-05  SPARFAC =  1.00D+00  THRDLP  =  1.00D-07
 THRDIA  =  1.00D-10  THRDLS  =  1.00D-07  THRGPS  =  0.00D+00  THRKEX  =  0.00D+00  THRDIS  =  2.00D-01  THRVAR  =  1.00D-10
 THRLOC  =  1.00D-06  THRGAP  =  1.00D-06  THRLOCT = -1.00D+00  THRGAPT = -1.00D+00  THRORB  =  1.00D-06  THRMLTP =  0.00D+00
 THRCPQCI=  1.00D-10  KEXTA   =  0.00D+00  THRCOARS=  0.00D+00  SYMTOL  =  1.00D-06  GRADTOL =  1.00D-06  THROVL  =  1.00D-08
 THRORTH =  1.00D-08  GRID    =  1.00D-06  GRIDMAX =  1.00D-03  DTMAX   =  0.00D+00  THROCCDE=  1.00D-01  THROCCDE=  1.00D-01



 THRESHOLDS:

 ZERO    =  1.00D-22  ONEINT  =  1.00D-22  TWOINT  =  1.00D-22  PREFAC  =  1.00D-14  LOCALI  =  1.00D-09  EORDER  =  1.00D-04
 ENERGY  =  1.00D-12  ETEST   =  0.00D+00  EDENS   =  0.00D+00  THRDEDEF=  1.00D-06  GRADIENT=  1.00D-02  STEP    =  1.00D-03
 ORBITAL =  1.00D-05  CIVEC   =  1.00D-05  COEFF   =  1.00D-04  PRINTCI =  5.00D-02  PUNCHCI =  9.90D+01  OPTGRAD =  1.00D-08
 OPTENERG=  1.00D-06  OPTSTEP =  1.00D-08  THRGRAD =  1.00D-10  COMPRESS=  1.00D-11  VARMIN  =  1.00D-07  VARMAX  =  1.00D-03
 THRDOUB =  0.00D+00  THRDIV  =  1.00D-05  THRRED  =  1.00D-07  THRPSP  =  1.00D+00  THRDC   =  1.00D-10  THRCS   =  1.00D-10
 THRNRM  =  1.00D-08  THREQ   =  0.00D+00  THRDE   =  1.00D+00  THRREF  =  1.00D-05  SPARFAC =  1.00D+00  THRDLP  =  1.00D-07
 THRDIA  =  1.00D-10  THRDLS  =  1.00D-07  THRGPS  =  0.00D+00  THRKEX  =  0.00D+00  THRDIS  =  2.00D-01  THRVAR  =  1.00D-10
 THRLOC  =  1.00D-06  THRGAP  =  1.00D-06  THRLOCT = -1.00D+00  THRGAPT = -1.00D+00  THRORB  =  1.00D-06  THRMLTP =  0.00D+00
 THRCPQCI=  1.00D-10  KEXTA   =  0.00D+00  THRCOARS=  0.00D+00  SYMTOL  =  1.00D-06  GRADTOL =  1.00D-06  THROVL  =  1.00D-08
 THRORTH =  1.00D-08  GRID    =  1.00D-06  GRIDMAX =  1.00D-03  DTMAX   =  0.00D+00  THROCCDE=  1.00D-01  THROCCDE=  1.00D-01



 Input parameters for SORTINT:

 COMPRESS =    0.000000
 C_FINAL  =    1.000000
 DEBUG    =   -1.000000
 C_SORT1  =    0.000000
 C_SEWARD =    0.000000
 THRESH   =    0.000000
 IO       =  molpro                                                          
 SPRI     =    0.000000
 SETTING GEOMTYP        =    XYZ
 ZUNIT=BOHR
 

 Variable memory set to  995000000 words,  buffer space   230000 words

 SETTING BASIS          =    USERDEF


 Recomputing integrals since basis changed


 Using spherical harmonics

 Library entry H      S aug-cc-pVTZ          selected for orbital group  2
 Library entry H      P aug-cc-pVTZ          selected for orbital group  2
 Library entry H      D aug-cc-pVTZ          selected for orbital group  2


 PROGRAM * SEWARD (Integral evaluation for generally contracted gaussian basis sets)     Author: Roland Lindh, 1990

 Geometry written to block  1 of record 700


 Point group  Cs  



 ATOMIC COORDINATES

 NR  ATOM    CHARGE       X              Y              Z

   1  N       7.00    0.000000000   -0.160619127   -1.134469954
   2  H       1.00    0.000000000    1.669881863   -1.934027482
   3  O       8.00    0.000000000    0.032505054    1.117907844

 Bond lengths in Bohr (Angstrom)

 1-2  1.997504972  1-3  2.260642098
     ( 1.057034110)     ( 1.196280280)

 Bond angles

  2-1-3  108.69487694

 NUCLEAR CHARGE:                   16
 NUMBER OF PRIMITIVE AOS:         203
 NUMBER OF SYMMETRY AOS:          173
 NUMBER OF CONTRACTIONS:          171   ( 114A'  +  57A"  )
 NUMBER OF CORE ORBITALS:           2   (   2A'  +   0A"  )
 NUMBER OF VALENCE ORBITALS:        9   (   7A'  +   2A"  )


 NUCLEAR REPULSION ENERGY   30.58594713


 Eigenvalues of metric

         1 0.103E-02 0.239E-02 0.330E-02 0.634E-02 0.100E-01 0.137E-01 0.144E-01 0.230E-01
         2 0.368E-01 0.514E-01 0.694E-01 0.940E-01 0.131E+00 0.134E+00 0.141E+00 0.142E+00


 Contracted 2-electron integrals neglected if value below      1.0D-22

       46245151. INTEGRALS WRITTEN OUT IN   11294 BLOCKS ON RECORD 1290 OF FILE 1


 NUMBER OF SORTED TWO-ELECTRON INTEGRALS:   55360566.     BUFFER LENGTH:  32768
 NUMBER OF SEGMENTS:   4  SEGMENT LENGTH:   15997996      RECORD LENGTH: 524288

 Memory used in sort:      16.56 MW

 SORT1 READ    46245151. AND WROTE    46683553. INTEGRALS IN    136 RECORDS. CPU TIME:     0.77 SEC, REAL TIME:     1.08 SEC
 SORT2 READ    46683553. AND WROTE    55360566. INTEGRALS IN      4 RECORDS. CPU TIME:     0.68 SEC, REAL TIME:     0.89 SEC

 FILE SIZES:   FILE 1:   760.9 MBYTE,  FILE 4:   570.5 MBYTE,   TOTAL:   1331.4 MBYTE

 OPERATOR DM      FOR CENTER  0  COORDINATES:    0.000000    0.000000    0.000000


 **********************************************************************************************************************************
 DATASETS  * FILE   NREC   LENGTH (MB)   RECORD NAMES
              1      19      421.91       500      610      700      900      950      970     1000      129      960     1100   
                                          VAR    BASINP    GEOM    SYMINP    ZMAT    AOBASIS   BASIS     P2S    ABASIS      S 
                                         1400     1410     1200     1210     1080     1600     1650     1300     1700   
                                           T        V       H0       H01     AOSYM     SMH    MOLCAS    ERIS     OPER   

 PROGRAMS   *        TOTAL       INT
 CPU TIMES  *         4.26      4.15
 REAL TIME  *         5.71 SEC
 DISK USED  *         1.33 GB      
 **********************************************************************************************************************************


 PROGRAM * RHF-SCF (CLOSED SHELL)       Authors: W. Meyer, H.-J. Werner


 NUMBER OF ELECTRONS:       8+    8-
 CONVERGENCE THRESHOLDS:    1.00E-10 (Density)    1.00E-13 (Energy)
 MAX. NUMBER OF ITERATIONS:      500
 INTERPOLATION TYPE:            DIIS
 INTERPOLATION STEPS:              2 (START)      1 (STEP)
 LEVEL SHIFTS:                  0.00 (CLOSED)  0.00 (OPEN) 



 Orbital guess generated from atomic densities. Full valence occupancy:    9   2

 Molecular orbital dump at record        2100.2

 Initial occupancy:   7   1

 ITERATION    DDIFF          GRAD             ENERGY        2-EL.EN.            DIPOLE MOMENTS         DIIS   ORB.
    1      0.000D+00      0.000D+00      -129.79202066    154.442065    0.00000    0.56491   -0.97769    0    start
    2      0.000D+00      0.869D-02      -129.81923017    155.646568    0.00000    0.58905   -0.20149    1    diag
    3      0.357D-02      0.644D-02      -129.84030061    155.740391    0.00000    0.54072   -0.56760    2    diag
    4      0.137D-02      0.102D-02      -129.84106143    155.473587    0.00000    0.54882   -0.50716    3    diag
    5      0.326D-03      0.332D-03      -129.84117826    155.561171    0.00000    0.55496   -0.50987    4    diag
    6      0.151D-03      0.974D-04      -129.84119729    155.545187    0.00000    0.55560   -0.50594    5    diag
    7      0.604D-04      0.483D-04      -129.84120270    155.547872    0.00000    0.55698   -0.50361    6    diag
    8      0.406D-04      0.160D-04      -129.84120323    155.547099    0.00000    0.55704   -0.50278    7    diag
    9      0.133D-04      0.295D-05      -129.84120325    155.546994    0.00000    0.55700   -0.50261    8    diag
   10      0.262D-05      0.693D-06      -129.84120325    155.546979    0.00000    0.55696   -0.50258    9    orth
   11      0.823D-06      0.140D-06      -129.84120325    155.546975    0.00000    0.55695   -0.50258    9    diag
   12      0.200D-06      0.285D-07      -129.84120325    155.546974    0.00000    0.55695   -0.50258    9    diag
   13      0.487D-07      0.742D-08      -129.84120325    155.546974    0.00000    0.55695   -0.50258    9    diag
   14      0.112D-07      0.135D-08      -129.84120325    155.546974    0.00000    0.55695   -0.50258    9    diag
   15      0.155D-08      0.379D-09      -129.84120325    155.546974    0.00000    0.55695   -0.50258    9    diag
   16      0.341D-09      0.118D-09      -129.84120325    155.546974    0.00000    0.55695   -0.50258    9    diag
   17      0.927D-10      0.349D-10      -129.84120325    155.546974    0.00000    0.55695   -0.50258    9    diag
   18      0.313D-10      0.112D-10      -129.84120325    155.546974    0.00000    0.55695   -0.50258    0    orth

 Final occupancy:   7   1

 !RHF STATE 1.1 Energy               -129.841203254088
 Nuclear energy                        30.58594713
 One-electron energy                 -238.20063724
 Two-electron energy                   77.77348686
 Virial quotient                       -1.00134751
 !RHF STATE 1.1 Dipole moment           0.00000000     0.55694920    -0.50257772
 Dipole moment /Debye                   0.00000000     1.41553094    -1.27734148

 Orbital energies:

         1.1          2.1          3.1          4.1          5.1          6.1          7.1          8.1          9.1
    -20.650436   -15.709236    -1.537460    -0.989281    -0.748259    -0.667763    -0.424521     0.039815     0.192938

         1.2          2.2          3.2
     -0.599874     0.083073     0.239954

 HOMO      7.1    -0.424521 =     -11.5518eV
 LUMO      8.1     0.039815 =       1.0834eV
 LUMO-HOMO         0.464336 =      12.6352eV


 **********************************************************************************************************************************
 DATASETS  * FILE   NREC   LENGTH (MB)   RECORD NAMES
              1      19      421.91       500      610      700      900      950      970     1000      129      960     1100   
                                          VAR    BASINP    GEOM    SYMINP    ZMAT    AOBASIS   BASIS     P2S    ABASIS      S 
                                         1400     1410     1200     1210     1080     1600     1650     1300     1700   
                                           T        V       H0       H01     AOSYM     SMH    MOLCAS    ERIS     OPER   

              2       4        3.13       700     1000      520     2100   
                                         GEOM     BASIS   MCVARS     RHF  

 PROGRAMS   *        TOTAL        HF       INT
 CPU TIMES  *         8.95      4.70      4.15
 REAL TIME  *        11.35 SEC
 DISK USED  *         1.33 GB      
 **********************************************************************************************************************************


 PROGRAM * CCSD (Closed-shell coupled cluster)     Authors: C. Hampel, H.-J. Werner, 1991, M. Deegan, P.J. Knowles, 1992


 Convergence thresholds:  THRVAR = 1.00D-08  THRDEN = 1.00D-12

 CCSD(T)     terms to be evaluated (factor= 1.000)


 Number of closed-shell orbitals:   8 (   7   1 )
 Number of external orbitals:     163 ( 107  56 )

 Molecular orbitals read from record     2100.2  Type=RHF/CANONICAL (state 1.1)

 Number of N-1 electron functions:               8
 Number of N-2 electron functions:              36
 Number of singly external CSFs:               805
 Number of doubly external CSFs:            449165
 Total number of CSFs:                      449971

 Length of J-op  integral file:               0.00 MB
 Length of K-op  integral file:               1.15 MB
 Length of 3-ext integral record:             0.00 MB

 Memory could be reduced to 24.90 Mwords without degradation in triples

 Integral transformation finished. Total CPU:   0.89 sec, npass=  1  Memory used:   6.89 MW

 Reference energy:                   -129.84120325

 MP2 singlet pair energy:              -0.37789059
 MP2 triplet pair energy:              -0.18597315
 MP2 correlation energy:               -0.56386374
 MP2 total energy:                   -130.40506700

 SCS-MP2 correlation energy:           -0.56918534   (PS=  1.200000  PT=  0.333333)
 SCS-MP2 total energy:               -130.41038859

 ITER.      SQ.NORM     CORR.ENERGY   TOTAL ENERGY   ENERGY CHANGE        DEN1      VAR(S)    VAR(P)  DIIS     TIME  TIME/IT
   1      1.11871392    -0.56900607  -130.41020932    -0.00514233     0.01210920  0.32D-02  0.30D-02  1  1     1.88     1.02
   2      1.12932644    -0.56880374  -130.41000699     0.00020233    -0.01342770  0.86D-04  0.48D-03  2  2     2.87     1.05
   3      1.13442675    -0.56912015  -130.41032341    -0.00031641    -0.00232156  0.53D-04  0.65D-04  3  3     3.84     1.06
   4      1.13773123    -0.56911069  -130.41031394     0.00000946    -0.00135009  0.43D-05  0.93D-05  4  4     4.83     1.07
   5      1.13872533    -0.56913412  -130.41033737    -0.00002343    -0.00023313  0.16D-05  0.18D-05  5  5     5.83     1.07
   6      1.13911719    -0.56912869  -130.41033195     0.00000543    -0.00003740  0.14D-06  0.41D-06  6  6     6.83     1.07
   7      1.13920216    -0.56912883  -130.41033208    -0.00000014    -0.00000014  0.21D-07  0.90D-07  6  1     7.81     1.08
   8      1.13923644    -0.56912725  -130.41033050     0.00000158    -0.00000463  0.43D-08  0.13D-07  6  2     8.80     1.08
   9      1.13924151    -0.56912731  -130.41033057    -0.00000007     0.00000091  0.17D-08  0.16D-08  6  3     9.82     1.08
  10      1.13924307    -0.56912762  -130.41033087    -0.00000030    -0.00000056  0.38D-09  0.22D-09  6  4    10.84     1.08
  11      1.13924211    -0.56912775  -130.41033101    -0.00000013     0.00000034  0.93D-10  0.23D-10  6  5    11.84     1.08
  12      1.13924122    -0.56912788  -130.41033113    -0.00000013     0.00000034  0.98D-11  0.61D-11  6  6    12.82     1.08
  13      1.13924071    -0.56912789  -130.41033114    -0.00000001     0.00000011  0.43D-11  0.11D-11  6  1    13.80     1.08
  14      1.13924029    -0.56912791  -130.41033117    -0.00000002     0.00000010  0.45D-12  0.37D-12  6  3    14.82     1.08
  15      1.13924014    -0.56912792  -130.41033117    -0.00000000     0.00000002  0.11D-12  0.24D-13  6  2    15.83     1.09
  16      1.13924009    -0.56912792  -130.41033117    -0.00000000     0.00000001  0.25D-13  0.55D-14  6  4    16.83     1.09
  17      1.13924007    -0.56912792  -130.41033117    -0.00000000     0.00000001  0.39D-14  0.10D-14  6  5    17.80     1.09
  18      1.13924007    -0.56912792  -130.41033117    -0.00000000     0.00000000  0.38D-15  0.26D-15  6  6    18.79     1.09
  19      1.13924007    -0.56912792  -130.41033117     0.00000000    -0.00000000  0.44D-16  0.31D-16  6  1    19.78     1.09
  20      1.13924007    -0.56912792  -130.41033117     0.00000000    -0.00000000  0.19D-17  0.60D-17  6  3    20.80     1.09
  21      1.13924007    -0.56912792  -130.41033117     0.00000000    -0.00000000  0.94D-18  0.14D-17  6  2    21.79     1.09
  22      1.13924007    -0.56912792  -130.41033117     0.00000000    -0.00000000  0.14D-18  0.50D-18  6  4    22.81     1.09
  23      1.13924007    -0.56912792  -130.41033117    -0.00000000     0.00000000  0.87D-19  0.80D-19  6  5    23.78     1.09
  24      1.13924007    -0.56912792  -130.41033117     0.00000000    -0.00000000  0.44D-20  0.10D-19  6  1    24.78     1.09
  25      1.13924007    -0.56912792  -130.41033117     0.00000000     0.00000000  0.22D-21  0.12D-20  6  6    25.79     1.09
  26      1.13924007    -0.56912792  -130.41033117    -0.00000000     0.00000000  0.11D-21  0.27D-21  6  3    26.81     1.09

 Norm of t1 vector:      0.07627178      S-energy:     0.00000000      T1 diagnostic:  0.01348307
                                                                       D1 diagnostic:  0.04264427

 Doubles amplitudes (print threshold =  0.500E-01):

         I         J         SYM. A    SYM. B    A         B      T(IJ, AB)

         8         8         2         2         1         1     -0.13097320


 Total CPU time for triples:     19.38 sec


 RESULTS
 =======

  Reference energy                   -129.841203254088

  Correlated core orbitals:             1.1       2.1
  Orbital energies:                   -20.6504  -15.7092
 
  CCSD core-core energy                -0.079226961726
  CCSD core-valence energy             -0.036141318439
  CCSD valence correlation energy      -0.453759637783
 
  CCSD singlet pair energy             -0.406776355175
  CCSD triplet pair energy             -0.162351562775
  CCSD correlation energy              -0.569127917949

  Triples (T) contribution             -0.021961560216
  Total correlation energy             -0.591089478165

  CCSD total energy                  -130.410331172037
  CCSD[T] energy                     -130.433420551083
  CCSD-T energy                      -130.431863720138
 !CCSD(T) total energy               -130.432292732253

 Timing summary (sec):

 STEP                 CPU(USER)    SYS     CPU(TOT)    WALL
 Transformation          0.91      0.17      1.08      1.07
 CCSD iterations        25.91      2.48     28.39     28.41
 Triples                19.38      0.59     19.97     19.97

 Program statistics:

 Available memory in ccsd:               994999644
 Min. memory needed in ccsd:               1368037
 Max. memory used in ccsd:                 1750502
 Max. memory used in cckext:               2014357 (26 integral passes)



 **********************************************************************************************************************************
 DATASETS  * FILE   NREC   LENGTH (MB)   RECORD NAMES
              1      20      500.82       500      610      700      900      950      970     1000      129      960     1100   
                                          VAR    BASINP    GEOM    SYMINP    ZMAT    AOBASIS   BASIS     P2S    ABASIS      S 
                                         1400     1410     1200     1210     1080     1600     1650     1300     1700     1380   
                                           T        V       H0       H01     AOSYM     SMH    MOLCAS    ERIS     OPER     JKOP   

              2       4        3.13       700     1000      520     2100   
                                         GEOM     BASIS   MCVARS     RHF  

 PROGRAMS   *        TOTAL   CCSD(T)        HF       INT
 CPU TIMES  *        55.17     46.21      4.70      4.15
 REAL TIME  *        60.82 SEC
 DISK USED  *         1.33 GB      
 **********************************************************************************************************************************

 CCSD(T)/USERDEF energy=   -130.432292732253

        CCSD(T)         HF-SCF  
   -130.43229273   -129.84120325
 **********************************************************************************************************************************
 Molpro calculation terminated
 Variable memory released
