
 Primary working directories    : /tmp/r2666/235419.maple
 Secondary working directories  : /tmp/r2666/235419.maple
 Wavefunction directory         : /ddn/home4/r2666/wfu/
 Main file repository           : /tmp/r2666/235419.maple/

 SHA1      : d5ffa45e93fdbca01ffc919aa182cfdae0147319
 NAME      : 2015.1.35
 ARCHNAME  : linux/x86_64
 FC        : /opt/intel/composer_xe_2015.1.133/bin/intel64/ifort
 BLASLIB   : -Wl,-_start-group /opt/intel/mkl/lib/intel64/libmkl_intel_ilp64.a /opt/intel/mkl/lib/intel64/libmkl_intel_thread.a /opt/intel/mkl/lib/intel64/libmkl_core.a -Wl,-_end-group
 id        : olemiss

 Nodes     nprocs
 cn033        1

 Using customized tuning parameters: mindgm=1; mindgv=20; mindgc=4; mindgr=1; noblas=0; minvec=7
 default implementation of scratch files=df  

 ***,hno CCSD(T)/TZ-F12 QFF
 memory, 995, m;
 gthresh,energy=1.d-12,zero=1.d-22,oneint=1.d-22,twoint=1.d-22;
 gthresh,optgrad=1.d-8,optstep=1.d-8;
 nocompress;
 geomtyp=xyz
 bohr
 geometry={
 3
         16        16
 N        0.0000000000       -0.1562940370       -1.1626547811
 H        0.0000000000        1.6596243120       -1.9242505010
 O        0.0000000000        0.0384375150        1.1363156911
 }
 
 basis={
 default=aug-cc-pvtz
 s,C,8236.0,1235.0,280.8, 79.27,25.59, 8.997,3.319
 s,C,0.9059,0.3643,0.1285000
 p,C,56.0,18.71,4.133,0.2827,0.3827,0.1209
 d,C,30.0,10.0,3.3,1.097,0.318
 f,C,7.0,2.3,0.7610
 s,N,11420.0,1712.0,389.3,110.0,35.57,12.54,4.644
 s,N,1.293,0.5118,0.1787
 p,N,79.89,26.63,5.948,1.742,0.555,0.1725
 d,N,45.0,15.0,5.0,1.654,0.469
 f,N,9.9,3.3,1.093
 s,O,15330.0,2299.0,522.4,147.3,47.55,16.76,6.207
 s,O,1.752,0.6882,0.2384
 p,O,103.5,34.46,7.749,2.28,0.7156,0.214
 d,O,63.0,21.0,7.0,2.314,0.645
 f,O,12.9,4.3,1.428
 s,mg,164900.0,24710.0,5628.0,1596.0,521.0;
 s,mg,188.0,73.01,29.90,12.54,4.306,1.826;
 s,mg,0.7417,0.0761,0.145,0.033,0.0129;
 p,mg,950.70,316.90,74.86,23.72,8.669,3.363;
 p,mg,1.310,0.4911,0.2364,0.08733,0.03237,0.00745;
 d,mg,1.601,0.686,0.126,0.294,0.0468;
 f,mg,1.372,0.588,0.094,0.252;
 }
   {hf,maxit=500;accu,20;}
 {ccsd(t),nocheck,maxit=250;orbital,IGNORE_ERROR;core}

 Variables initialized (889), CPU time= 0.00 sec
 Commands  initialized (702), CPU time= 0.01 sec, 572 directives.
 Default parameters read. Elapsed time= 0.04 sec

 Checking input...
 Passed
1


                                         ***  PROGRAM SYSTEM MOLPRO  ***
                                       Copyright, TTI GmbH Stuttgart, 2015
                                    Version 2015.1 linked Jul  9 2018 13:16:40


 **********************************************************************************************************************************
 LABEL *   hno CCSD(T)/TZ-F12 QFF                                                        
  64 bit serial version                                                                  DATE: 08-Feb-20          TIME: 17:59:07  
 **********************************************************************************************************************************

 SHA1:             d5ffa45e93fdbca01ffc919aa182cfdae0147319
 **********************************************************************************************************************************

 THRESHOLDS:

 ZERO    =  1.00D-22  ONEINT  =  1.00D-22  TWOINT  =  1.00D-22  PREFAC  =  1.00D-14  LOCALI  =  1.00D-09  EORDER  =  1.00D-04
 ENERGY  =  1.00D-12  ETEST   =  0.00D+00  EDENS   =  0.00D+00  THRDEDEF=  1.00D-06  GRADIENT=  1.00D-02  STEP    =  1.00D-03
 ORBITAL =  1.00D-05  CIVEC   =  1.00D-05  COEFF   =  1.00D-04  PRINTCI =  5.00D-02  PUNCHCI =  9.90D+01  OPTGRAD =  3.00D-04
 OPTENERG=  1.00D-06  OPTSTEP =  3.00D-04  THRGRAD =  1.00D-10  COMPRESS=  1.00D-11  VARMIN  =  1.00D-07  VARMAX  =  1.00D-03
 THRDOUB =  0.00D+00  THRDIV  =  1.00D-05  THRRED  =  1.00D-07  THRPSP  =  1.00D+00  THRDC   =  1.00D-10  THRCS   =  1.00D-10
 THRNRM  =  1.00D-08  THREQ   =  0.00D+00  THRDE   =  1.00D+00  THRREF  =  1.00D-05  SPARFAC =  1.00D+00  THRDLP  =  1.00D-07
 THRDIA  =  1.00D-10  THRDLS  =  1.00D-07  THRGPS  =  0.00D+00  THRKEX  =  0.00D+00  THRDIS  =  2.00D-01  THRVAR  =  1.00D-10
 THRLOC  =  1.00D-06  THRGAP  =  1.00D-06  THRLOCT = -1.00D+00  THRGAPT = -1.00D+00  THRORB  =  1.00D-06  THRMLTP =  0.00D+00
 THRCPQCI=  1.00D-10  KEXTA   =  0.00D+00  THRCOARS=  0.00D+00  SYMTOL  =  1.00D-06  GRADTOL =  1.00D-06  THROVL  =  1.00D-08
 THRORTH =  1.00D-08  GRID    =  1.00D-06  GRIDMAX =  1.00D-03  DTMAX   =  0.00D+00  THROCCDE=  1.00D-01  THROCCDE=  1.00D-01



 THRESHOLDS:

 ZERO    =  1.00D-22  ONEINT  =  1.00D-22  TWOINT  =  1.00D-22  PREFAC  =  1.00D-14  LOCALI  =  1.00D-09  EORDER  =  1.00D-04
 ENERGY  =  1.00D-12  ETEST   =  0.00D+00  EDENS   =  0.00D+00  THRDEDEF=  1.00D-06  GRADIENT=  1.00D-02  STEP    =  1.00D-03
 ORBITAL =  1.00D-05  CIVEC   =  1.00D-05  COEFF   =  1.00D-04  PRINTCI =  5.00D-02  PUNCHCI =  9.90D+01  OPTGRAD =  1.00D-08
 OPTENERG=  1.00D-06  OPTSTEP =  1.00D-08  THRGRAD =  1.00D-10  COMPRESS=  1.00D-11  VARMIN  =  1.00D-07  VARMAX  =  1.00D-03
 THRDOUB =  0.00D+00  THRDIV  =  1.00D-05  THRRED  =  1.00D-07  THRPSP  =  1.00D+00  THRDC   =  1.00D-10  THRCS   =  1.00D-10
 THRNRM  =  1.00D-08  THREQ   =  0.00D+00  THRDE   =  1.00D+00  THRREF  =  1.00D-05  SPARFAC =  1.00D+00  THRDLP  =  1.00D-07
 THRDIA  =  1.00D-10  THRDLS  =  1.00D-07  THRGPS  =  0.00D+00  THRKEX  =  0.00D+00  THRDIS  =  2.00D-01  THRVAR  =  1.00D-10
 THRLOC  =  1.00D-06  THRGAP  =  1.00D-06  THRLOCT = -1.00D+00  THRGAPT = -1.00D+00  THRORB  =  1.00D-06  THRMLTP =  0.00D+00
 THRCPQCI=  1.00D-10  KEXTA   =  0.00D+00  THRCOARS=  0.00D+00  SYMTOL  =  1.00D-06  GRADTOL =  1.00D-06  THROVL  =  1.00D-08
 THRORTH =  1.00D-08  GRID    =  1.00D-06  GRIDMAX =  1.00D-03  DTMAX   =  0.00D+00  THROCCDE=  1.00D-01  THROCCDE=  1.00D-01



 Input parameters for SORTINT:

 COMPRESS =    0.000000
 C_FINAL  =    1.000000
 DEBUG    =   -1.000000
 C_SORT1  =    0.000000
 C_SEWARD =    0.000000
 THRESH   =    0.000000
 IO       =  molpro                                                          
 SPRI     =    0.000000
 SETTING GEOMTYP        =    XYZ
 ZUNIT=BOHR
 

 Variable memory set to  995000000 words,  buffer space   230000 words

 SETTING BASIS          =    USERDEF


 Recomputing integrals since basis changed


 Using spherical harmonics

 Library entry H      S aug-cc-pVTZ          selected for orbital group  2
 Library entry H      P aug-cc-pVTZ          selected for orbital group  2
 Library entry H      D aug-cc-pVTZ          selected for orbital group  2


 PROGRAM * SEWARD (Integral evaluation for generally contracted gaussian basis sets)     Author: Roland Lindh, 1990

 Geometry written to block  1 of record 700


 Point group  Cs  



 ATOMIC COORDINATES

 NR  ATOM    CHARGE       X              Y              Z

   1  N       7.00    0.000000000   -0.156294037   -1.162654781
   2  H       1.00    0.000000000    1.659624312   -1.924250501
   3  O       8.00    0.000000000    0.038437515    1.136315691

 Bond lengths in Bohr (Angstrom)

 1-2  1.969159082  1-3  2.307202984
     ( 1.042034111)     ( 1.220919240)

 Bond angles

  2-1-3  107.91155154

 NUCLEAR CHARGE:                   16
 NUMBER OF PRIMITIVE AOS:         203
 NUMBER OF SYMMETRY AOS:          173
 NUMBER OF CONTRACTIONS:          171   ( 114A'  +  57A"  )
 NUMBER OF CORE ORBITALS:           2   (   2A'  +   0A"  )
 NUMBER OF VALENCE ORBITALS:        9   (   7A'  +   2A"  )


 NUCLEAR REPULSION ENERGY   30.13648248


 Eigenvalues of metric

         1 0.104E-02 0.260E-02 0.335E-02 0.635E-02 0.953E-02 0.137E-01 0.146E-01 0.228E-01
         2 0.353E-01 0.548E-01 0.701E-01 0.942E-01 0.132E+00 0.134E+00 0.139E+00 0.142E+00


 Contracted 2-electron integrals neglected if value below      1.0D-22

       46078300. INTEGRALS WRITTEN OUT IN   11253 BLOCKS ON RECORD 1290 OF FILE 1


 NUMBER OF SORTED TWO-ELECTRON INTEGRALS:   55360566.     BUFFER LENGTH:  32768
 NUMBER OF SEGMENTS:   4  SEGMENT LENGTH:   15997996      RECORD LENGTH: 524288

 Memory used in sort:      16.56 MW

 SORT1 READ    46078300. AND WROTE    46515020. INTEGRALS IN    135 RECORDS. CPU TIME:     1.27 SEC, REAL TIME:     1.62 SEC
 SORT2 READ    46515020. AND WROTE    55360566. INTEGRALS IN      4 RECORDS. CPU TIME:     0.76 SEC, REAL TIME:     1.00 SEC

 FILE SIZES:   FILE 1:   758.2 MBYTE,  FILE 4:   566.3 MBYTE,   TOTAL:   1324.5 MBYTE

 OPERATOR DM      FOR CENTER  0  COORDINATES:    0.000000    0.000000    0.000000


 **********************************************************************************************************************************
 DATASETS  * FILE   NREC   LENGTH (MB)   RECORD NAMES
              1      19      420.79       500      610      700      900      950      970     1000      129      960     1100   
                                          VAR    BASINP    GEOM    SYMINP    ZMAT    AOBASIS   BASIS     P2S    ABASIS      S 
                                         1400     1410     1200     1210     1080     1600     1650     1300     1700   
                                           T        V       H0       H01     AOSYM     SMH    MOLCAS    ERIS     OPER   

 PROGRAMS   *        TOTAL       INT
 CPU TIMES  *         5.53      5.44
 REAL TIME  *         7.08 SEC
 DISK USED  *         1.32 GB      
 **********************************************************************************************************************************


 PROGRAM * RHF-SCF (CLOSED SHELL)       Authors: W. Meyer, H.-J. Werner


 NUMBER OF ELECTRONS:       8+    8-
 CONVERGENCE THRESHOLDS:    1.00E-10 (Density)    1.00E-13 (Energy)
 MAX. NUMBER OF ITERATIONS:      500
 INTERPOLATION TYPE:            DIIS
 INTERPOLATION STEPS:              2 (START)      1 (STEP)
 LEVEL SHIFTS:                  0.00 (CLOSED)  0.00 (OPEN) 



 Orbital guess generated from atomic densities. Full valence occupancy:    9   2

 Molecular orbital dump at record        2100.2

 Initial occupancy:   7   1

 ITERATION    DDIFF          GRAD             ENERGY        2-EL.EN.            DIPOLE MOMENTS         DIIS   ORB.
    1      0.000D+00      0.000D+00      -129.78609390    153.653014    0.00000    0.57915   -1.05292    0    start
    2      0.000D+00      0.887D-02      -129.81255099    154.788326    0.00000    0.60642   -0.19110    1    diag
    3      0.373D-02      0.691D-02      -129.83712847    154.940645    0.00000    0.55468   -0.60194    2    diag
    4      0.146D-02      0.105D-02      -129.83793620    154.658213    0.00000    0.56267   -0.53736    3    diag
    5      0.337D-03      0.342D-03      -129.83805951    154.746535    0.00000    0.56853   -0.53948    4    diag
    6      0.155D-03      0.999D-04      -129.83807959    154.730408    0.00000    0.56903   -0.53516    5    diag
    7      0.609D-04      0.509D-04      -129.83808576    154.732763    0.00000    0.57030   -0.53246    6    diag
    8      0.419D-04      0.181D-04      -129.83808650    154.731880    0.00000    0.57035   -0.53145    7    diag
    9      0.155D-04      0.340D-05      -129.83808653    154.731759    0.00000    0.57029   -0.53125    8    diag
   10      0.323D-05      0.751D-06      -129.83808653    154.731746    0.00000    0.57026   -0.53123    9    orth
   11      0.908D-06      0.148D-06      -129.83808653    154.731742    0.00000    0.57025   -0.53122    9    diag
   12      0.210D-06      0.317D-07      -129.83808653    154.731741    0.00000    0.57025   -0.53122    9    diag
   13      0.512D-07      0.865D-08      -129.83808653    154.731741    0.00000    0.57025   -0.53122    9    diag
   14      0.119D-07      0.152D-08      -129.83808653    154.731741    0.00000    0.57025   -0.53122    9    diag
   15      0.136D-08      0.401D-09      -129.83808653    154.731741    0.00000    0.57025   -0.53122    9    diag
   16      0.340D-09      0.116D-09      -129.83808653    154.731741    0.00000    0.57025   -0.53122    9    diag
   17      0.628D-10      0.304D-10      -129.83808653    154.731741    0.00000    0.57025   -0.53122    9    diag
   18      0.174D-10      0.987D-11      -129.83808653    154.731741    0.00000    0.57025   -0.53122    9    diag
   19      0.625D-11      0.224D-11      -129.83808653    154.731741    0.00000    0.57025   -0.53122    9    fixocc
   20      0.159D-11      0.521D-12      -129.83808653    154.731741    0.00000    0.57025   -0.53122    0    orth

 Final occupancy:   7   1

 !RHF STATE 1.1 Energy               -129.838086534410
 Nuclear energy                        30.13648248
 One-electron energy                 -237.34043961
 Two-electron energy                   77.36587059
 Virial quotient                       -1.00188051
 !RHF STATE 1.1 Dipole moment           0.00000000     0.57024695    -0.53122263
 Dipole moment /Debye                   0.00000000     1.44932824    -1.35014482

 Orbital energies:

         1.1          2.1          3.1          4.1          5.1          6.1          7.1          8.1          9.1
    -20.652263   -15.711515    -1.517866    -0.998314    -0.742409    -0.660493    -0.433433     0.039599     0.193092

         1.2          2.2          3.2
     -0.588056     0.074607     0.239187

 HOMO      7.1    -0.433433 =     -11.7943eV
 LUMO      8.1     0.039599 =       1.0775eV
 LUMO-HOMO         0.473032 =      12.8719eV


 **********************************************************************************************************************************
 DATASETS  * FILE   NREC   LENGTH (MB)   RECORD NAMES
              1      19      420.79       500      610      700      900      950      970     1000      129      960     1100   
                                          VAR    BASINP    GEOM    SYMINP    ZMAT    AOBASIS   BASIS     P2S    ABASIS      S 
                                         1400     1410     1200     1210     1080     1600     1650     1300     1700   
                                           T        V       H0       H01     AOSYM     SMH    MOLCAS    ERIS     OPER   

              2       4        3.13       700     1000      520     2100   
                                         GEOM     BASIS   MCVARS     RHF  

 PROGRAMS   *        TOTAL        HF       INT
 CPU TIMES  *        11.23      5.70      5.44
 REAL TIME  *        14.33 SEC
 DISK USED  *         1.32 GB      
 **********************************************************************************************************************************


 PROGRAM * CCSD (Closed-shell coupled cluster)     Authors: C. Hampel, H.-J. Werner, 1991, M. Deegan, P.J. Knowles, 1992


 Convergence thresholds:  THRVAR = 1.00D-08  THRDEN = 1.00D-12

 CCSD(T)     terms to be evaluated (factor= 1.000)


 Number of closed-shell orbitals:   8 (   7   1 )
 Number of external orbitals:     163 ( 107  56 )

 Molecular orbitals read from record     2100.2  Type=RHF/CANONICAL (state 1.1)

 Number of N-1 electron functions:               8
 Number of N-2 electron functions:              36
 Number of singly external CSFs:               805
 Number of doubly external CSFs:            449165
 Total number of CSFs:                      449971

 Length of J-op  integral file:               0.00 MB
 Length of K-op  integral file:               1.15 MB
 Length of 3-ext integral record:             0.00 MB

 Memory could be reduced to 24.90 Mwords without degradation in triples

 Integral transformation finished. Total CPU:   1.07 sec, npass=  1  Memory used:   6.89 MW

 Reference energy:                   -129.83808653

 MP2 singlet pair energy:              -0.38002527
 MP2 triplet pair energy:              -0.18733718
 MP2 correlation energy:               -0.56736244
 MP2 total energy:                   -130.40544898

 SCS-MP2 correlation energy:           -0.57259568   (PS=  1.200000  PT=  0.333333)
 SCS-MP2 total energy:               -130.41068221

 ITER.      SQ.NORM     CORR.ENERGY   TOTAL ENERGY   ENERGY CHANGE        DEN1      VAR(S)    VAR(P)  DIIS     TIME  TIME/IT
   1      1.12081910    -0.57162365  -130.40971018    -0.00426120     0.01394174  0.35D-02  0.32D-02  1  1     2.24     1.24
   2      1.13197785    -0.57121306  -130.40929960     0.00041058    -0.01401618  0.96D-04  0.52D-03  2  2     3.44     1.28
   3      1.13738134    -0.57154802  -130.40963456    -0.00033496    -0.00239133  0.58D-04  0.72D-04  3  3     4.65     1.29
   4      1.14096348    -0.57154202  -130.40962855     0.00000601    -0.00142376  0.48D-05  0.10D-04  4  4     5.85     1.30
   5      1.14208325    -0.57156748  -130.40965402    -0.00002547    -0.00026418  0.16D-05  0.19D-05  5  5     7.09     1.30
   6      1.14251303    -0.57156082  -130.40964735     0.00000666    -0.00004188  0.13D-06  0.42D-06  6  6     8.30     1.31
   7      1.14259622    -0.57156131  -130.40964785    -0.00000050     0.00000122  0.17D-07  0.98D-07  6  1     9.51     1.31
   8      1.14263006    -0.57155943  -130.40964596     0.00000189    -0.00000490  0.40D-08  0.15D-07  6  2    10.73     1.31
   9      1.14263444    -0.57155953  -130.40964607    -0.00000011     0.00000136  0.18D-08  0.19D-08  6  3    11.96     1.31
  10      1.14263619    -0.57155984  -130.40964637    -0.00000030    -0.00000073  0.44D-09  0.28D-09  6  4    13.19     1.31
  11      1.14263521    -0.57155998  -130.40964651    -0.00000014     0.00000035  0.11D-09  0.29D-10  6  5    14.37     1.31
  12      1.14263436    -0.57156012  -130.40964665    -0.00000014     0.00000034  0.11D-10  0.69D-11  6  6    15.57     1.31
  13      1.14263384    -0.57156013  -130.40964666    -0.00000001     0.00000010  0.42D-11  0.12D-11  6  1    16.79     1.32
  14      1.14263340    -0.57156016  -130.40964669    -0.00000003     0.00000010  0.42D-12  0.42D-12  6  3    17.98     1.32
  15      1.14263323    -0.57156016  -130.40964669    -0.00000000     0.00000002  0.10D-12  0.30D-13  6  2    19.23     1.32
  16      1.14263317    -0.57156016  -130.40964669    -0.00000000     0.00000001  0.23D-13  0.64D-14  6  4    20.45     1.32
  17      1.14263314    -0.57156016  -130.40964669    -0.00000000     0.00000001  0.45D-14  0.12D-14  6  5    21.64     1.32
  18      1.14263314    -0.57156016  -130.40964669    -0.00000000     0.00000000  0.52D-15  0.31D-15  6  6    22.86     1.32
  19      1.14263314    -0.57156016  -130.40964669     0.00000000    -0.00000000  0.66D-16  0.50D-16  6  1    24.07     1.32
  20      1.14263314    -0.57156016  -130.40964669     0.00000000    -0.00000000  0.27D-17  0.12D-16  6  3    25.30     1.32
  21      1.14263314    -0.57156016  -130.40964669     0.00000000    -0.00000000  0.15D-17  0.30D-17  6  2    26.53     1.32
  22      1.14263314    -0.57156016  -130.40964669     0.00000000    -0.00000000  0.42D-18  0.10D-17  6  4    27.77     1.32
  23      1.14263314    -0.57156016  -130.40964669    -0.00000000     0.00000000  0.19D-18  0.14D-18  6  5    28.98     1.32
  24      1.14263314    -0.57156016  -130.40964669     0.00000000    -0.00000000  0.30D-19  0.21D-19  6  6    30.21     1.32
  25      1.14263314    -0.57156016  -130.40964669     0.00000000    -0.00000000  0.76D-20  0.27D-20  6  1    31.43     1.32
  26      1.14263314    -0.57156016  -130.40964669     0.00000000    -0.00000000  0.13D-20  0.38D-21  6  3    32.65     1.32

 Norm of t1 vector:      0.07928188      S-energy:    -0.00000000      T1 diagnostic:  0.01401519
                                                                       D1 diagnostic:  0.04569112

 Doubles amplitudes (print threshold =  0.500E-01):

         I         J         SYM. A    SYM. B    A         B      T(IJ, AB)

         8         8         2         2         1         1     -0.13860911


 Total CPU time for triples:     19.77 sec


 RESULTS
 =======

  Reference energy                   -129.838086534410

  Correlated core orbitals:             1.1       2.1
  Orbital energies:                   -20.6523  -15.7115
 
  CCSD core-core energy                -0.079237760724
  CCSD core-valence energy             -0.036015735425
  CCSD valence correlation energy      -0.456306663723
 
  CCSD singlet pair energy             -0.408982878012
  CCSD triplet pair energy             -0.162577281860
  CCSD correlation energy              -0.571560159872

  Triples (T) contribution             -0.022630993186
  Total correlation energy             -0.594191153058

  CCSD total energy                  -130.409646694282
  CCSD[T] energy                     -130.433497794756
  CCSD-T energy                      -130.431825699719
 !CCSD(T) total energy               -130.432277687469

 Timing summary (sec):

 STEP                 CPU(USER)    SYS     CPU(TOT)    WALL
 Transformation          1.07      0.19      1.26      1.28
 CCSD iterations        31.58      2.75     34.33     34.33
 Triples                19.77      0.66     20.43     20.42

 Program statistics:

 Available memory in ccsd:               994999644
 Min. memory needed in ccsd:               1368037
 Max. memory used in ccsd:                 1750502
 Max. memory used in cckext:               2014357 (26 integral passes)



 **********************************************************************************************************************************
 DATASETS  * FILE   NREC   LENGTH (MB)   RECORD NAMES
              1      20      499.70       500      610      700      900      950      970     1000      129      960     1100   
                                          VAR    BASINP    GEOM    SYMINP    ZMAT    AOBASIS   BASIS     P2S    ABASIS      S 
                                         1400     1410     1200     1210     1080     1600     1650     1300     1700     1380   
                                           T        V       H0       H01     AOSYM     SMH    MOLCAS    ERIS     OPER     JKOP   

              2       4        3.13       700     1000      520     2100   
                                         GEOM     BASIS   MCVARS     RHF  

 PROGRAMS   *        TOTAL   CCSD(T)        HF       INT
 CPU TIMES  *        63.68     52.45      5.70      5.44
 REAL TIME  *        70.40 SEC
 DISK USED  *         1.32 GB      
 **********************************************************************************************************************************

 CCSD(T)/USERDEF energy=   -130.432277687469

        CCSD(T)         HF-SCF  
   -130.43227769   -129.83808653
 **********************************************************************************************************************************
 Molpro calculation terminated
 Variable memory released
