
 Primary working directories    : /tmp/r2666/235408.maple
 Secondary working directories  : /tmp/r2666/235408.maple
 Wavefunction directory         : /ddn/home4/r2666/wfu/
 Main file repository           : /tmp/r2666/235408.maple/

 SHA1      : d5ffa45e93fdbca01ffc919aa182cfdae0147319
 NAME      : 2015.1.35
 ARCHNAME  : linux/x86_64
 FC        : /opt/intel/composer_xe_2015.1.133/bin/intel64/ifort
 BLASLIB   : -Wl,-_start-group /opt/intel/mkl/lib/intel64/libmkl_intel_ilp64.a /opt/intel/mkl/lib/intel64/libmkl_intel_thread.a /opt/intel/mkl/lib/intel64/libmkl_core.a -Wl,-_end-group
 id        : olemiss

 Nodes     nprocs
 cn095        1

 Using customized tuning parameters: mindgm=1; mindgv=20; mindgc=4; mindgr=1; noblas=0; minvec=7
 default implementation of scratch files=df  

 ***,hno CCSD(T)/TZ-F12 QFF
 memory, 995, m;
 gthresh,energy=1.d-12,zero=1.d-22,oneint=1.d-22,twoint=1.d-22;
 gthresh,optgrad=1.d-8,optstep=1.d-8;
 nocompress;
 geomtyp=xyz
 bohr
 geometry={
 3
          5         5
 N        0.0000000000       -0.1452606113       -1.1532145289
 H        0.0000000000        1.6544466479       -1.9287909843
 O        0.0000000000        0.0325817534        1.1314159222
 }
 
 basis={
 default=aug-cc-pvtz
 s,C,8236.0,1235.0,280.8, 79.27,25.59, 8.997,3.319
 s,C,0.9059,0.3643,0.1285000
 p,C,56.0,18.71,4.133,0.2827,0.3827,0.1209
 d,C,30.0,10.0,3.3,1.097,0.318
 f,C,7.0,2.3,0.7610
 s,N,11420.0,1712.0,389.3,110.0,35.57,12.54,4.644
 s,N,1.293,0.5118,0.1787
 p,N,79.89,26.63,5.948,1.742,0.555,0.1725
 d,N,45.0,15.0,5.0,1.654,0.469
 f,N,9.9,3.3,1.093
 s,O,15330.0,2299.0,522.4,147.3,47.55,16.76,6.207
 s,O,1.752,0.6882,0.2384
 p,O,103.5,34.46,7.749,2.28,0.7156,0.214
 d,O,63.0,21.0,7.0,2.314,0.645
 f,O,12.9,4.3,1.428
 s,mg,164900.0,24710.0,5628.0,1596.0,521.0;
 s,mg,188.0,73.01,29.90,12.54,4.306,1.826;
 s,mg,0.7417,0.0761,0.145,0.033,0.0129;
 p,mg,950.70,316.90,74.86,23.72,8.669,3.363;
 p,mg,1.310,0.4911,0.2364,0.08733,0.03237,0.00745;
 d,mg,1.601,0.686,0.126,0.294,0.0468;
 f,mg,1.372,0.588,0.094,0.252;
 }
   {hf,maxit=500;accu,20;}
 {ccsd(t),nocheck,maxit=250;orbital,IGNORE_ERROR;core}

 Variables initialized (889), CPU time= 0.01 sec
 Commands  initialized (702), CPU time= 0.00 sec, 572 directives.
 Default parameters read. Elapsed time= 0.05 sec

 Checking input...
 Passed
1


                                         ***  PROGRAM SYSTEM MOLPRO  ***
                                       Copyright, TTI GmbH Stuttgart, 2015
                                    Version 2015.1 linked Jul  9 2018 13:16:40


 **********************************************************************************************************************************
 LABEL *   hno CCSD(T)/TZ-F12 QFF                                                        
  64 bit serial version                                                                  DATE: 08-Feb-20          TIME: 17:59:04  
 **********************************************************************************************************************************

 SHA1:             d5ffa45e93fdbca01ffc919aa182cfdae0147319
 **********************************************************************************************************************************

 THRESHOLDS:

 ZERO    =  1.00D-22  ONEINT  =  1.00D-22  TWOINT  =  1.00D-22  PREFAC  =  1.00D-14  LOCALI  =  1.00D-09  EORDER  =  1.00D-04
 ENERGY  =  1.00D-12  ETEST   =  0.00D+00  EDENS   =  0.00D+00  THRDEDEF=  1.00D-06  GRADIENT=  1.00D-02  STEP    =  1.00D-03
 ORBITAL =  1.00D-05  CIVEC   =  1.00D-05  COEFF   =  1.00D-04  PRINTCI =  5.00D-02  PUNCHCI =  9.90D+01  OPTGRAD =  3.00D-04
 OPTENERG=  1.00D-06  OPTSTEP =  3.00D-04  THRGRAD =  1.00D-10  COMPRESS=  1.00D-11  VARMIN  =  1.00D-07  VARMAX  =  1.00D-03
 THRDOUB =  0.00D+00  THRDIV  =  1.00D-05  THRRED  =  1.00D-07  THRPSP  =  1.00D+00  THRDC   =  1.00D-10  THRCS   =  1.00D-10
 THRNRM  =  1.00D-08  THREQ   =  0.00D+00  THRDE   =  1.00D+00  THRREF  =  1.00D-05  SPARFAC =  1.00D+00  THRDLP  =  1.00D-07
 THRDIA  =  1.00D-10  THRDLS  =  1.00D-07  THRGPS  =  0.00D+00  THRKEX  =  0.00D+00  THRDIS  =  2.00D-01  THRVAR  =  1.00D-10
 THRLOC  =  1.00D-06  THRGAP  =  1.00D-06  THRLOCT = -1.00D+00  THRGAPT = -1.00D+00  THRORB  =  1.00D-06  THRMLTP =  0.00D+00
 THRCPQCI=  1.00D-10  KEXTA   =  0.00D+00  THRCOARS=  0.00D+00  SYMTOL  =  1.00D-06  GRADTOL =  1.00D-06  THROVL  =  1.00D-08
 THRORTH =  1.00D-08  GRID    =  1.00D-06  GRIDMAX =  1.00D-03  DTMAX   =  0.00D+00  THROCCDE=  1.00D-01  THROCCDE=  1.00D-01



 THRESHOLDS:

 ZERO    =  1.00D-22  ONEINT  =  1.00D-22  TWOINT  =  1.00D-22  PREFAC  =  1.00D-14  LOCALI  =  1.00D-09  EORDER  =  1.00D-04
 ENERGY  =  1.00D-12  ETEST   =  0.00D+00  EDENS   =  0.00D+00  THRDEDEF=  1.00D-06  GRADIENT=  1.00D-02  STEP    =  1.00D-03
 ORBITAL =  1.00D-05  CIVEC   =  1.00D-05  COEFF   =  1.00D-04  PRINTCI =  5.00D-02  PUNCHCI =  9.90D+01  OPTGRAD =  1.00D-08
 OPTENERG=  1.00D-06  OPTSTEP =  1.00D-08  THRGRAD =  1.00D-10  COMPRESS=  1.00D-11  VARMIN  =  1.00D-07  VARMAX  =  1.00D-03
 THRDOUB =  0.00D+00  THRDIV  =  1.00D-05  THRRED  =  1.00D-07  THRPSP  =  1.00D+00  THRDC   =  1.00D-10  THRCS   =  1.00D-10
 THRNRM  =  1.00D-08  THREQ   =  0.00D+00  THRDE   =  1.00D+00  THRREF  =  1.00D-05  SPARFAC =  1.00D+00  THRDLP  =  1.00D-07
 THRDIA  =  1.00D-10  THRDLS  =  1.00D-07  THRGPS  =  0.00D+00  THRKEX  =  0.00D+00  THRDIS  =  2.00D-01  THRVAR  =  1.00D-10
 THRLOC  =  1.00D-06  THRGAP  =  1.00D-06  THRLOCT = -1.00D+00  THRGAPT = -1.00D+00  THRORB  =  1.00D-06  THRMLTP =  0.00D+00
 THRCPQCI=  1.00D-10  KEXTA   =  0.00D+00  THRCOARS=  0.00D+00  SYMTOL  =  1.00D-06  GRADTOL =  1.00D-06  THROVL  =  1.00D-08
 THRORTH =  1.00D-08  GRID    =  1.00D-06  GRIDMAX =  1.00D-03  DTMAX   =  0.00D+00  THROCCDE=  1.00D-01  THROCCDE=  1.00D-01



 Input parameters for SORTINT:

 COMPRESS =    0.000000
 C_FINAL  =    1.000000
 DEBUG    =   -1.000000
 C_SORT1  =    0.000000
 C_SEWARD =    0.000000
 THRESH   =    0.000000
 IO       =  molpro                                                          
 SPRI     =    0.000000
 SETTING GEOMTYP        =    XYZ
 ZUNIT=BOHR
 

 Variable memory set to  995000000 words,  buffer space   230000 words

 SETTING BASIS          =    USERDEF


 Recomputing integrals since basis changed


 Using spherical harmonics

 Library entry H      S aug-cc-pVTZ          selected for orbital group  2
 Library entry H      P aug-cc-pVTZ          selected for orbital group  2
 Library entry H      D aug-cc-pVTZ          selected for orbital group  2


 PROGRAM * SEWARD (Integral evaluation for generally contracted gaussian basis sets)     Author: Roland Lindh, 1990

 Geometry written to block  1 of record 700


 Point group  Cs  



 ATOMIC COORDINATES

 NR  ATOM    CHARGE       X              Y              Z

   1  N       7.00    0.000000000   -0.145260611   -1.153214529
   2  H       1.00    0.000000000    1.654446648   -1.928790984
   3  O       8.00    0.000000000    0.032581753    1.131415922

 Bond lengths in Bohr (Angstrom)

 1-2  1.959710452  1-3  2.291541884
     ( 1.037034111)     ( 1.212631743)

 Bond angles

  2-1-3  108.86233157

 NUCLEAR CHARGE:                   16
 NUMBER OF PRIMITIVE AOS:         203
 NUMBER OF SYMMETRY AOS:          173
 NUMBER OF CONTRACTIONS:          171   ( 114A'  +  57A"  )
 NUMBER OF CORE ORBITALS:           2   (   2A'  +   0A"  )
 NUMBER OF VALENCE ORBITALS:        9   (   7A'  +   2A"  )


 NUCLEAR REPULSION ENERGY   30.31950285


 Eigenvalues of metric

         1 0.102E-02 0.252E-02 0.330E-02 0.628E-02 0.935E-02 0.136E-01 0.145E-01 0.225E-01
         2 0.345E-01 0.536E-01 0.689E-01 0.942E-01 0.131E+00 0.134E+00 0.139E+00 0.142E+00


 Contracted 2-electron integrals neglected if value below      1.0D-22

       46127532. INTEGRALS WRITTEN OUT IN   11265 BLOCKS ON RECORD 1290 OF FILE 1


 NUMBER OF SORTED TWO-ELECTRON INTEGRALS:   55360566.     BUFFER LENGTH:  32768
 NUMBER OF SEGMENTS:   4  SEGMENT LENGTH:   15997996      RECORD LENGTH: 524288

 Memory used in sort:      16.56 MW

 SORT1 READ    46127532. AND WROTE    46564826. INTEGRALS IN    135 RECORDS. CPU TIME:     0.82 SEC, REAL TIME:     1.18 SEC
 SORT2 READ    46564826. AND WROTE    55360566. INTEGRALS IN      4 RECORDS. CPU TIME:     0.68 SEC, REAL TIME:     0.92 SEC

 FILE SIZES:   FILE 1:   759.0 MBYTE,  FILE 4:   566.3 MBYTE,   TOTAL:   1325.3 MBYTE

 OPERATOR DM      FOR CENTER  0  COORDINATES:    0.000000    0.000000    0.000000


 **********************************************************************************************************************************
 DATASETS  * FILE   NREC   LENGTH (MB)   RECORD NAMES
              1      19      421.13       500      610      700      900      950      970     1000      129      960     1100   
                                          VAR    BASINP    GEOM    SYMINP    ZMAT    AOBASIS   BASIS     P2S    ABASIS      S 
                                         1400     1410     1200     1210     1080     1600     1650     1300     1700   
                                           T        V       H0       H01     AOSYM     SMH    MOLCAS    ERIS     OPER   

 PROGRAMS   *        TOTAL       INT
 CPU TIMES  *         4.67      4.59
 REAL TIME  *         6.27 SEC
 DISK USED  *         1.33 GB      
 **********************************************************************************************************************************


 PROGRAM * RHF-SCF (CLOSED SHELL)       Authors: W. Meyer, H.-J. Werner


 NUMBER OF ELECTRONS:       8+    8-
 CONVERGENCE THRESHOLDS:    1.00E-10 (Density)    1.00E-13 (Energy)
 MAX. NUMBER OF ITERATIONS:      500
 INTERPOLATION TYPE:            DIIS
 INTERPOLATION STEPS:              2 (START)      1 (STEP)
 LEVEL SHIFTS:                  0.00 (CLOSED)  0.00 (OPEN) 



 Orbital guess generated from atomic densities. Full valence occupancy:    9   2

 Molecular orbital dump at record        2100.2

 Initial occupancy:   7   1

 ITERATION    DDIFF          GRAD             ENERGY        2-EL.EN.            DIPOLE MOMENTS         DIIS   ORB.
    1      0.000D+00      0.000D+00      -129.78905292    153.979633    0.00000    0.58711   -1.02770    0    start
    2      0.000D+00      0.876D-02      -129.81581455    155.131535    0.00000    0.60157   -0.20254    1    diag
    3      0.370D-02      0.668D-02      -129.83861655    155.265495    0.00000    0.55657   -0.59436    2    diag
    4      0.142D-02      0.105D-02      -129.83940911    154.989270    0.00000    0.56432   -0.53092    3    diag
    5      0.336D-03      0.337D-03      -129.83952814    155.076721    0.00000    0.57019   -0.53322    4    diag
    6      0.153D-03      0.978D-04      -129.83954736    155.060792    0.00000    0.57075   -0.52906    5    diag
    7      0.605D-04      0.495D-04      -129.83955313    155.063198    0.00000    0.57203   -0.52649    6    diag
    8      0.413D-04      0.171D-04      -129.83955378    155.062367    0.00000    0.57207   -0.52555    7    diag
    9      0.146D-04      0.320D-05      -129.83955381    155.062255    0.00000    0.57202   -0.52536    8    diag
   10      0.299D-05      0.725D-06      -129.83955381    155.062242    0.00000    0.57199   -0.52534    9    orth
   11      0.887D-06      0.143D-06      -129.83955381    155.062238    0.00000    0.57198   -0.52534    9    diag
   12      0.205D-06      0.298D-07      -129.83955381    155.062238    0.00000    0.57198   -0.52534    9    diag
   13      0.491D-07      0.791D-08      -129.83955381    155.062237    0.00000    0.57198   -0.52533    9    diag
   14      0.112D-07      0.139D-08      -129.83955381    155.062237    0.00000    0.57198   -0.52533    9    diag
   15      0.137D-08      0.368D-09      -129.83955381    155.062237    0.00000    0.57198   -0.52533    9    diag
   16      0.319D-09      0.105D-09      -129.83955381    155.062237    0.00000    0.57198   -0.52533    9    diag
   17      0.622D-10      0.269D-10      -129.83955381    155.062237    0.00000    0.57198   -0.52533    9    diag
   18      0.175D-10      0.850D-11      -129.83955381    155.062237    0.00000    0.57198   -0.52533    9    diag
   19      0.640D-11      0.180D-11      -129.83955381    155.062237    0.00000    0.57198   -0.52533    0    orth

 Final occupancy:   7   1

 !RHF STATE 1.1 Energy               -129.839553808669
 Nuclear energy                        30.31950285
 One-electron energy                 -237.69017538
 Two-electron energy                   77.53111873
 Virial quotient                       -1.00160738
 !RHF STATE 1.1 Dipole moment           0.00000000     0.57197801    -0.52533464
 Dipole moment /Debye                   0.00000000     1.45372788    -1.33518001

 Orbital energies:

         1.1          2.1          3.1          4.1          5.1          6.1          7.1          8.1          9.1
    -20.651614   -15.709246    -1.524092    -0.998300    -0.745406    -0.663025    -0.430577     0.039654     0.193827

         1.2          2.2          3.2
     -0.591710     0.077254     0.239569

 HOMO      7.1    -0.430577 =     -11.7166eV
 LUMO      8.1     0.039654 =       1.0790eV
 LUMO-HOMO         0.470231 =      12.7956eV


 **********************************************************************************************************************************
 DATASETS  * FILE   NREC   LENGTH (MB)   RECORD NAMES
              1      19      421.13       500      610      700      900      950      970     1000      129      960     1100   
                                          VAR    BASINP    GEOM    SYMINP    ZMAT    AOBASIS   BASIS     P2S    ABASIS      S 
                                         1400     1410     1200     1210     1080     1600     1650     1300     1700   
                                           T        V       H0       H01     AOSYM     SMH    MOLCAS    ERIS     OPER   

              2       4        3.13       700     1000      520     2100   
                                         GEOM     BASIS   MCVARS     RHF  

 PROGRAMS   *        TOTAL        HF       INT
 CPU TIMES  *        10.42      5.74      4.59
 REAL TIME  *        13.17 SEC
 DISK USED  *         1.33 GB      
 **********************************************************************************************************************************


 PROGRAM * CCSD (Closed-shell coupled cluster)     Authors: C. Hampel, H.-J. Werner, 1991, M. Deegan, P.J. Knowles, 1992


 Convergence thresholds:  THRVAR = 1.00D-08  THRDEN = 1.00D-12

 CCSD(T)     terms to be evaluated (factor= 1.000)


 Number of closed-shell orbitals:   8 (   7   1 )
 Number of external orbitals:     163 ( 107  56 )

 Molecular orbitals read from record     2100.2  Type=RHF/CANONICAL (state 1.1)

 Number of N-1 electron functions:               8
 Number of N-2 electron functions:              36
 Number of singly external CSFs:               805
 Number of doubly external CSFs:            449165
 Total number of CSFs:                      449971

 Length of J-op  integral file:               0.00 MB
 Length of K-op  integral file:               1.15 MB
 Length of 3-ext integral record:             0.00 MB

 Memory could be reduced to 24.90 Mwords without degradation in triples

 Integral transformation finished. Total CPU:   1.05 sec, npass=  1  Memory used:   6.89 MW

 Reference energy:                   -129.83955381

 MP2 singlet pair energy:              -0.37907251
 MP2 triplet pair energy:              -0.18675024
 MP2 correlation energy:               -0.56582275
 MP2 total energy:                   -130.40537656

 SCS-MP2 correlation energy:           -0.57108716   (PS=  1.200000  PT=  0.333333)
 SCS-MP2 total energy:               -130.41064097

 ITER.      SQ.NORM     CORR.ENERGY   TOTAL ENERGY   ENERGY CHANGE        DEN1      VAR(S)    VAR(P)  DIIS     TIME  TIME/IT
   1      1.11978545    -0.57041417  -130.40996797    -0.00459142     0.01320194  0.34D-02  0.31D-02  1  1     2.28     1.25
   2      1.13069930    -0.57008248  -130.40963628     0.00033169    -0.01376068  0.92D-04  0.50D-03  2  2     3.50     1.28
   3      1.13595976    -0.57040652  -130.40996033    -0.00032405    -0.00235243  0.55D-04  0.69D-04  3  3     4.74     1.29
   4      1.13942918    -0.57040007  -130.40995388     0.00000645    -0.00139117  0.45D-05  0.99D-05  4  4     5.96     1.30
   5      1.14049621    -0.57042447  -130.40997828    -0.00002440    -0.00025025  0.15D-05  0.19D-05  5  5     7.18     1.30
   6      1.14091011    -0.57041828  -130.40997209     0.00000619    -0.00003993  0.13D-06  0.43D-06  6  6     8.38     1.30
   7      1.14099338    -0.57041878  -130.40997259    -0.00000050     0.00000078  0.16D-07  0.99D-07  6  1     9.56     1.30
   8      1.14102716    -0.57041704  -130.40997085     0.00000174    -0.00000477  0.43D-08  0.14D-07  6  2    10.80     1.30
   9      1.14103166    -0.57041716  -130.40997097    -0.00000013     0.00000119  0.18D-08  0.18D-08  6  3    12.04     1.31
  10      1.14103326    -0.57041747  -130.40997128    -0.00000031    -0.00000065  0.43D-09  0.26D-09  6  4    13.29     1.31
  11      1.14103228    -0.57041761  -130.40997142    -0.00000014     0.00000034  0.10D-09  0.27D-10  6  5    14.50     1.31
  12      1.14103141    -0.57041775  -130.40997156    -0.00000014     0.00000034  0.10D-10  0.66D-11  6  6    15.71     1.31
  13      1.14103090    -0.57041776  -130.40997157    -0.00000001     0.00000010  0.42D-11  0.12D-11  6  1    16.92     1.31
  14      1.14103047    -0.57041779  -130.40997159    -0.00000003     0.00000010  0.43D-12  0.41D-12  6  3    18.13     1.31
  15      1.14103030    -0.57041779  -130.40997160    -0.00000000     0.00000002  0.10D-12  0.29D-13  6  2    19.34     1.31
  16      1.14103024    -0.57041779  -130.40997160    -0.00000000     0.00000001  0.23D-13  0.61D-14  6  4    20.54     1.31
  17      1.14103022    -0.57041779  -130.40997160    -0.00000000     0.00000001  0.42D-14  0.11D-14  6  5    21.78     1.31
  18      1.14103021    -0.57041779  -130.40997160    -0.00000000     0.00000000  0.47D-15  0.29D-15  6  6    23.04     1.31
  19      1.14103022    -0.57041779  -130.40997160     0.00000000    -0.00000000  0.57D-16  0.42D-16  6  1    24.24     1.31
  20      1.14103022    -0.57041779  -130.40997160     0.00000000    -0.00000000  0.24D-17  0.93D-17  6  3    25.47     1.32
  21      1.14103022    -0.57041779  -130.40997160     0.00000000    -0.00000000  0.13D-17  0.23D-17  6  2    26.64     1.32
  22      1.14103022    -0.57041779  -130.40997160     0.00000000    -0.00000000  0.33D-18  0.82D-18  6  4    27.89     1.32
  23      1.14103022    -0.57041779  -130.40997160    -0.00000000     0.00000000  0.15D-18  0.12D-18  6  5    29.05     1.31
  24      1.14103022    -0.57041779  -130.40997160     0.00000000    -0.00000000  0.52D-20  0.15D-19  6  1    30.23     1.31
  25      1.14103022    -0.57041779  -130.40997160     0.00000000     0.00000000  0.38D-21  0.15D-20  6  6    31.43     1.31
  26      1.14103022    -0.57041779  -130.40997160    -0.00000000     0.00000000  0.16D-21  0.21D-21  6  1    32.66     1.31

 Norm of t1 vector:      0.07795473      S-energy:     0.00000000      T1 diagnostic:  0.01378058
                                                                       D1 diagnostic:  0.04468278

 Doubles amplitudes (print threshold =  0.500E-01):

         I         J         SYM. A    SYM. B    A         B      T(IJ, AB)

         8         8         2         2         1         1     -0.13604306


 Total CPU time for triples:     20.97 sec


 RESULTS
 =======

  Reference energy                   -129.839553808669

  Correlated core orbitals:             1.1       2.1
  Orbital energies:                   -20.6516  -15.7092
 
  CCSD core-core energy                -0.079233891162
  CCSD core-valence energy             -0.036077599920
  CCSD valence correlation energy      -0.455106298602
 
  CCSD singlet pair energy             -0.407951974508
  CCSD triplet pair energy             -0.162465815177
  CCSD correlation energy              -0.570417789683

  Triples (T) contribution             -0.022339128154
  Total correlation energy             -0.592756917837

  CCSD total energy                  -130.409971598353
  CCSD[T] energy                     -130.433491037830
  CCSD-T energy                      -130.431869763189
 !CCSD(T) total energy               -130.432310726507

 Timing summary (sec):

 STEP                 CPU(USER)    SYS     CPU(TOT)    WALL
 Transformation          1.07      0.19      1.26      1.27
 CCSD iterations        31.61      2.52     34.13     34.11
 Triples                20.97      0.51     21.48     21.52

 Program statistics:

 Available memory in ccsd:               994999644
 Min. memory needed in ccsd:               1368037
 Max. memory used in ccsd:                 1750502
 Max. memory used in cckext:               2014357 (26 integral passes)



 **********************************************************************************************************************************
 DATASETS  * FILE   NREC   LENGTH (MB)   RECORD NAMES
              1      20      500.04       500      610      700      900      950      970     1000      129      960     1100   
                                          VAR    BASINP    GEOM    SYMINP    ZMAT    AOBASIS   BASIS     P2S    ABASIS      S 
                                         1400     1410     1200     1210     1080     1600     1650     1300     1700     1380   
                                           T        V       H0       H01     AOSYM     SMH    MOLCAS    ERIS     OPER     JKOP   

              2       4        3.13       700     1000      520     2100   
                                         GEOM     BASIS   MCVARS     RHF  

 PROGRAMS   *        TOTAL   CCSD(T)        HF       INT
 CPU TIMES  *        64.09     53.66      5.74      4.59
 REAL TIME  *        70.12 SEC
 DISK USED  *         1.33 GB      
 **********************************************************************************************************************************

 CCSD(T)/USERDEF energy=   -130.432310726507

        CCSD(T)         HF-SCF  
   -130.43231073   -129.83955381
 **********************************************************************************************************************************
 Molpro calculation terminated
 Variable memory released
