
 Primary working directories    : /tmp/r2666/235503.maple
 Secondary working directories  : /tmp/r2666/235503.maple
 Wavefunction directory         : /ddn/home4/r2666/wfu/
 Main file repository           : /tmp/r2666/235503.maple/

 SHA1      : d5ffa45e93fdbca01ffc919aa182cfdae0147319
 NAME      : 2015.1.35
 ARCHNAME  : linux/x86_64
 FC        : /opt/intel/composer_xe_2015.1.133/bin/intel64/ifort
 BLASLIB   : -Wl,-_start-group /opt/intel/mkl/lib/intel64/libmkl_intel_ilp64.a /opt/intel/mkl/lib/intel64/libmkl_intel_thread.a /opt/intel/mkl/lib/intel64/libmkl_core.a -Wl,-_end-group
 id        : olemiss

 Nodes     nprocs
 cn029        1

 Using customized tuning parameters: mindgm=1; mindgv=20; mindgc=4; mindgr=1; noblas=0; minvec=7
 default implementation of scratch files=df  

 ***,hno CCSD(T)/TZ-F12 QFF
 memory, 995, m;
 gthresh,energy=1.d-12,zero=1.d-22,oneint=1.d-22,twoint=1.d-22;
 gthresh,optgrad=1.d-8,optstep=1.d-8;
 nocompress;
 geomtyp=xyz
 bohr
 geometry={
 3
        100       100
 N        0.0000000000       -0.1722600250       -1.1573284142
 H        0.0000000000        1.6720201903       -1.9245680121
 O        0.0000000000        0.0420076248        1.1313068353
 }
 
 basis={
 default=aug-cc-pvtz
 s,C,8236.0,1235.0,280.8, 79.27,25.59, 8.997,3.319
 s,C,0.9059,0.3643,0.1285000
 p,C,56.0,18.71,4.133,0.2827,0.3827,0.1209
 d,C,30.0,10.0,3.3,1.097,0.318
 f,C,7.0,2.3,0.7610
 s,N,11420.0,1712.0,389.3,110.0,35.57,12.54,4.644
 s,N,1.293,0.5118,0.1787
 p,N,79.89,26.63,5.948,1.742,0.555,0.1725
 d,N,45.0,15.0,5.0,1.654,0.469
 f,N,9.9,3.3,1.093
 s,O,15330.0,2299.0,522.4,147.3,47.55,16.76,6.207
 s,O,1.752,0.6882,0.2384
 p,O,103.5,34.46,7.749,2.28,0.7156,0.214
 d,O,63.0,21.0,7.0,2.314,0.645
 f,O,12.9,4.3,1.428
 s,mg,164900.0,24710.0,5628.0,1596.0,521.0;
 s,mg,188.0,73.01,29.90,12.54,4.306,1.826;
 s,mg,0.7417,0.0761,0.145,0.033,0.0129;
 p,mg,950.70,316.90,74.86,23.72,8.669,3.363;
 p,mg,1.310,0.4911,0.2364,0.08733,0.03237,0.00745;
 d,mg,1.601,0.686,0.126,0.294,0.0468;
 f,mg,1.372,0.588,0.094,0.252;
 }
   {hf,maxit=500;accu,20;}
 {ccsd(t),nocheck,maxit=250;orbital,IGNORE_ERROR;core}

 Variables initialized (889), CPU time= 0.00 sec
 Commands  initialized (702), CPU time= 0.01 sec, 572 directives.
 Default parameters read. Elapsed time= 0.06 sec

 Checking input...
 Passed
1


                                         ***  PROGRAM SYSTEM MOLPRO  ***
                                       Copyright, TTI GmbH Stuttgart, 2015
                                    Version 2015.1 linked Jul  9 2018 13:16:40


 **********************************************************************************************************************************
 LABEL *   hno CCSD(T)/TZ-F12 QFF                                                        
  64 bit serial version                                                                  DATE: 08-Feb-20          TIME: 18:00:33  
 **********************************************************************************************************************************

 SHA1:             d5ffa45e93fdbca01ffc919aa182cfdae0147319
 **********************************************************************************************************************************

 THRESHOLDS:

 ZERO    =  1.00D-22  ONEINT  =  1.00D-22  TWOINT  =  1.00D-22  PREFAC  =  1.00D-14  LOCALI  =  1.00D-09  EORDER  =  1.00D-04
 ENERGY  =  1.00D-12  ETEST   =  0.00D+00  EDENS   =  0.00D+00  THRDEDEF=  1.00D-06  GRADIENT=  1.00D-02  STEP    =  1.00D-03
 ORBITAL =  1.00D-05  CIVEC   =  1.00D-05  COEFF   =  1.00D-04  PRINTCI =  5.00D-02  PUNCHCI =  9.90D+01  OPTGRAD =  3.00D-04
 OPTENERG=  1.00D-06  OPTSTEP =  3.00D-04  THRGRAD =  1.00D-10  COMPRESS=  1.00D-11  VARMIN  =  1.00D-07  VARMAX  =  1.00D-03
 THRDOUB =  0.00D+00  THRDIV  =  1.00D-05  THRRED  =  1.00D-07  THRPSP  =  1.00D+00  THRDC   =  1.00D-10  THRCS   =  1.00D-10
 THRNRM  =  1.00D-08  THREQ   =  0.00D+00  THRDE   =  1.00D+00  THRREF  =  1.00D-05  SPARFAC =  1.00D+00  THRDLP  =  1.00D-07
 THRDIA  =  1.00D-10  THRDLS  =  1.00D-07  THRGPS  =  0.00D+00  THRKEX  =  0.00D+00  THRDIS  =  2.00D-01  THRVAR  =  1.00D-10
 THRLOC  =  1.00D-06  THRGAP  =  1.00D-06  THRLOCT = -1.00D+00  THRGAPT = -1.00D+00  THRORB  =  1.00D-06  THRMLTP =  0.00D+00
 THRCPQCI=  1.00D-10  KEXTA   =  0.00D+00  THRCOARS=  0.00D+00  SYMTOL  =  1.00D-06  GRADTOL =  1.00D-06  THROVL  =  1.00D-08
 THRORTH =  1.00D-08  GRID    =  1.00D-06  GRIDMAX =  1.00D-03  DTMAX   =  0.00D+00  THROCCDE=  1.00D-01  THROCCDE=  1.00D-01



 THRESHOLDS:

 ZERO    =  1.00D-22  ONEINT  =  1.00D-22  TWOINT  =  1.00D-22  PREFAC  =  1.00D-14  LOCALI  =  1.00D-09  EORDER  =  1.00D-04
 ENERGY  =  1.00D-12  ETEST   =  0.00D+00  EDENS   =  0.00D+00  THRDEDEF=  1.00D-06  GRADIENT=  1.00D-02  STEP    =  1.00D-03
 ORBITAL =  1.00D-05  CIVEC   =  1.00D-05  COEFF   =  1.00D-04  PRINTCI =  5.00D-02  PUNCHCI =  9.90D+01  OPTGRAD =  1.00D-08
 OPTENERG=  1.00D-06  OPTSTEP =  1.00D-08  THRGRAD =  1.00D-10  COMPRESS=  1.00D-11  VARMIN  =  1.00D-07  VARMAX  =  1.00D-03
 THRDOUB =  0.00D+00  THRDIV  =  1.00D-05  THRRED  =  1.00D-07  THRPSP  =  1.00D+00  THRDC   =  1.00D-10  THRCS   =  1.00D-10
 THRNRM  =  1.00D-08  THREQ   =  0.00D+00  THRDE   =  1.00D+00  THRREF  =  1.00D-05  SPARFAC =  1.00D+00  THRDLP  =  1.00D-07
 THRDIA  =  1.00D-10  THRDLS  =  1.00D-07  THRGPS  =  0.00D+00  THRKEX  =  0.00D+00  THRDIS  =  2.00D-01  THRVAR  =  1.00D-10
 THRLOC  =  1.00D-06  THRGAP  =  1.00D-06  THRLOCT = -1.00D+00  THRGAPT = -1.00D+00  THRORB  =  1.00D-06  THRMLTP =  0.00D+00
 THRCPQCI=  1.00D-10  KEXTA   =  0.00D+00  THRCOARS=  0.00D+00  SYMTOL  =  1.00D-06  GRADTOL =  1.00D-06  THROVL  =  1.00D-08
 THRORTH =  1.00D-08  GRID    =  1.00D-06  GRIDMAX =  1.00D-03  DTMAX   =  0.00D+00  THROCCDE=  1.00D-01  THROCCDE=  1.00D-01



 Input parameters for SORTINT:

 COMPRESS =    0.000000
 C_FINAL  =    1.000000
 DEBUG    =   -1.000000
 C_SORT1  =    0.000000
 C_SEWARD =    0.000000
 THRESH   =    0.000000
 IO       =  molpro                                                          
 SPRI     =    0.000000
 SETTING GEOMTYP        =    XYZ
 ZUNIT=BOHR
 

 Variable memory set to  995000000 words,  buffer space   230000 words

 SETTING BASIS          =    USERDEF


 Recomputing integrals since basis changed


 Using spherical harmonics

 Library entry H      S aug-cc-pVTZ          selected for orbital group  2
 Library entry H      P aug-cc-pVTZ          selected for orbital group  2
 Library entry H      D aug-cc-pVTZ          selected for orbital group  2


 PROGRAM * SEWARD (Integral evaluation for generally contracted gaussian basis sets)     Author: Roland Lindh, 1990

 Geometry written to block  1 of record 700


 Point group  Cs  



 ATOMIC COORDINATES

 NR  ATOM    CHARGE       X              Y              Z

   1  N       7.00    0.000000000   -0.172260025   -1.157328414
   2  H       1.00    0.000000000    1.672020190   -1.924568012
   3  O       8.00    0.000000000    0.042007625    1.131306835

 Bond lengths in Bohr (Angstrom)

 1-2  1.997504972  1-3  2.298643498
     ( 1.057034110)     ( 1.216389755)

 Bond angles

  2-1-3  107.23923365

 NUCLEAR CHARGE:                   16
 NUMBER OF PRIMITIVE AOS:         203
 NUMBER OF SYMMETRY AOS:          173
 NUMBER OF CONTRACTIONS:          171   ( 114A'  +  57A"  )
 NUMBER OF CORE ORBITALS:           2   (   2A'  +   0A"  )
 NUMBER OF VALENCE ORBITALS:        9   (   7A'  +   2A"  )


 NUCLEAR REPULSION ENERGY   30.17641857


 Eigenvalues of metric

         1 0.107E-02 0.257E-02 0.339E-02 0.643E-02 0.100E-01 0.137E-01 0.146E-01 0.234E-01
         2 0.371E-01 0.545E-01 0.711E-01 0.941E-01 0.132E+00 0.134E+00 0.141E+00 0.142E+00


 Contracted 2-electron integrals neglected if value below      1.0D-22

       46108010. INTEGRALS WRITTEN OUT IN   11260 BLOCKS ON RECORD 1290 OF FILE 1


 NUMBER OF SORTED TWO-ELECTRON INTEGRALS:   55360566.     BUFFER LENGTH:  32768
 NUMBER OF SEGMENTS:   4  SEGMENT LENGTH:   15997996      RECORD LENGTH: 524288

 Memory used in sort:      16.56 MW

 SORT1 READ    46108010. AND WROTE    46545047. INTEGRALS IN    135 RECORDS. CPU TIME:     1.10 SEC, REAL TIME:     1.38 SEC
 SORT2 READ    46545047. AND WROTE    55360566. INTEGRALS IN      4 RECORDS. CPU TIME:     0.76 SEC, REAL TIME:     1.01 SEC

 FILE SIZES:   FILE 1:   758.7 MBYTE,  FILE 4:   566.3 MBYTE,   TOTAL:   1324.9 MBYTE

 OPERATOR DM      FOR CENTER  0  COORDINATES:    0.000000    0.000000    0.000000


 **********************************************************************************************************************************
 DATASETS  * FILE   NREC   LENGTH (MB)   RECORD NAMES
              1      19      420.99       500      610      700      900      950      970     1000      129      960     1100   
                                          VAR    BASINP    GEOM    SYMINP    ZMAT    AOBASIS   BASIS     P2S    ABASIS      S 
                                         1400     1410     1200     1210     1080     1600     1650     1300     1700   
                                           T        V       H0       H01     AOSYM     SMH    MOLCAS    ERIS     OPER   

 PROGRAMS   *        TOTAL       INT
 CPU TIMES  *         5.25      5.13
 REAL TIME  *         6.83 SEC
 DISK USED  *         1.33 GB      
 **********************************************************************************************************************************


 PROGRAM * RHF-SCF (CLOSED SHELL)       Authors: W. Meyer, H.-J. Werner


 NUMBER OF ELECTRONS:       8+    8-
 CONVERGENCE THRESHOLDS:    1.00E-10 (Density)    1.00E-13 (Energy)
 MAX. NUMBER OF ITERATIONS:      500
 INTERPOLATION TYPE:            DIIS
 INTERPOLATION STEPS:              2 (START)      1 (STEP)
 LEVEL SHIFTS:                  0.00 (CLOSED)  0.00 (OPEN) 



 Orbital guess generated from atomic densities. Full valence occupancy:    9   2

 Molecular orbital dump at record        2100.2

 Initial occupancy:   7   1

 ITERATION    DDIFF          GRAD             ENERGY        2-EL.EN.            DIPOLE MOMENTS         DIIS   ORB.
    1      0.000D+00      0.000D+00      -129.78619731    153.718102    0.00000    0.56166   -1.03938    0    start
    2      0.000D+00      0.890D-02      -129.81281460    154.876047    0.00000    0.60306   -0.18521    1    diag
    3      0.368D-02      0.691D-02      -129.83737671    155.015066    0.00000    0.54491   -0.59159    2    diag
    4      0.146D-02      0.104D-02      -129.83817583    154.734189    0.00000    0.55325   -0.52804    3    diag
    5      0.333D-03      0.343D-03      -129.83830064    154.823113    0.00000    0.55926   -0.53026    4    diag
    6      0.155D-03      0.101D-03      -129.83832118    154.806806    0.00000    0.55977   -0.52596    5    diag
    7      0.612D-04      0.510D-04      -129.83832737    154.809286    0.00000    0.56109   -0.52332    6    diag
    8      0.418D-04      0.179D-04      -129.83832809    154.808407    0.00000    0.56114   -0.52234    7    diag
    9      0.152D-04      0.337D-05      -129.83832812    154.808285    0.00000    0.56109   -0.52214    8    diag
   10      0.314D-05      0.748D-06      -129.83832812    154.808271    0.00000    0.56105   -0.52212    9    orth
   11      0.886D-06      0.148D-06      -129.83832812    154.808267    0.00000    0.56104   -0.52211    9    diag
   12      0.209D-06      0.315D-07      -129.83832812    154.808266    0.00000    0.56104   -0.52211    9    diag
   13      0.519D-07      0.851D-08      -129.83832812    154.808266    0.00000    0.56104   -0.52211    9    diag
   14      0.121D-07      0.148D-08      -129.83832812    154.808266    0.00000    0.56104   -0.52211    9    diag
   15      0.145D-08      0.390D-09      -129.83832812    154.808266    0.00000    0.56104   -0.52211    9    diag
   16      0.333D-09      0.111D-09      -129.83832812    154.808266    0.00000    0.56104   -0.52211    9    diag
   17      0.693D-10      0.295D-10      -129.83832812    154.808266    0.00000    0.56104   -0.52211    0    orth

 Final occupancy:   7   1

 !RHF STATE 1.1 Energy               -129.838328121102
 Nuclear energy                        30.17641857
 One-electron energy                 -237.41887963
 Two-electron energy                   77.40413294
 Virial quotient                       -1.00191182
 !RHF STATE 1.1 Dipole moment           0.00000000     0.56103921    -0.52211156
 Dipole moment /Debye                   0.00000000     1.42592604    -1.32698831

 Orbital energies:

         1.1          2.1          3.1          4.1          5.1          6.1          7.1          8.1          9.1
    -20.651930   -15.712875    -1.521622    -0.993051    -0.742121    -0.661646    -0.431620     0.039643     0.191991

         1.2          2.2          3.2
     -0.590442     0.076382     0.239132

 HOMO      7.1    -0.431620 =     -11.7450eV
 LUMO      8.1     0.039643 =       1.0787eV
 LUMO-HOMO         0.471263 =      12.8237eV


 **********************************************************************************************************************************
 DATASETS  * FILE   NREC   LENGTH (MB)   RECORD NAMES
              1      19      420.99       500      610      700      900      950      970     1000      129      960     1100   
                                          VAR    BASINP    GEOM    SYMINP    ZMAT    AOBASIS   BASIS     P2S    ABASIS      S 
                                         1400     1410     1200     1210     1080     1600     1650     1300     1700   
                                           T        V       H0       H01     AOSYM     SMH    MOLCAS    ERIS     OPER   

              2       4        3.13       700     1000      520     2100   
                                         GEOM     BASIS   MCVARS     RHF  

 PROGRAMS   *        TOTAL        HF       INT
 CPU TIMES  *        10.62      5.37      5.13
 REAL TIME  *        13.14 SEC
 DISK USED  *         1.33 GB      
 **********************************************************************************************************************************


 PROGRAM * CCSD (Closed-shell coupled cluster)     Authors: C. Hampel, H.-J. Werner, 1991, M. Deegan, P.J. Knowles, 1992


 Convergence thresholds:  THRVAR = 1.00D-08  THRDEN = 1.00D-12

 CCSD(T)     terms to be evaluated (factor= 1.000)


 Number of closed-shell orbitals:   8 (   7   1 )
 Number of external orbitals:     163 ( 107  56 )

 Molecular orbitals read from record     2100.2  Type=RHF/CANONICAL (state 1.1)

 Number of N-1 electron functions:               8
 Number of N-2 electron functions:              36
 Number of singly external CSFs:               805
 Number of doubly external CSFs:            449165
 Total number of CSFs:                      449971

 Length of J-op  integral file:               0.00 MB
 Length of K-op  integral file:               1.15 MB
 Length of 3-ext integral record:             0.00 MB

 Memory could be reduced to 24.90 Mwords without degradation in triples

 Integral transformation finished. Total CPU:   1.19 sec, npass=  1  Memory used:   6.89 MW

 Reference energy:                   -129.83832812

 MP2 singlet pair energy:              -0.37989685
 MP2 triplet pair energy:              -0.18722093
 MP2 correlation energy:               -0.56711778
 MP2 total energy:                   -130.40544590

 SCS-MP2 correlation energy:           -0.57236924   (PS=  1.200000  PT=  0.333333)
 SCS-MP2 total energy:               -130.41069737

 ITER.      SQ.NORM     CORR.ENERGY   TOTAL ENERGY   ENERGY CHANGE        DEN1      VAR(S)    VAR(P)  DIIS     TIME  TIME/IT
   1      1.12081050    -0.57151524  -130.40984336    -0.00439746     0.01371818  0.35D-02  0.32D-02  1  1     2.59     1.47
   2      1.13193112    -0.57113905  -130.40946717     0.00037619    -0.01396604  0.94D-04  0.51D-03  2  2     4.03     1.51
   3      1.13732218    -0.57147608  -130.40980420    -0.00033703    -0.00239696  0.58D-04  0.71D-04  3  3     5.52     1.53
   4      1.14087042    -0.57146852  -130.40979664     0.00000756    -0.00141905  0.48D-05  0.10D-04  4  4     7.00     1.54
   5      1.14197331    -0.57149401  -130.40982213    -0.00002549    -0.00026125  0.17D-05  0.19D-05  5  5     8.47     1.54
   6      1.14239721    -0.57148757  -130.40981569     0.00000644    -0.00004129  0.15D-06  0.40D-06  6  6     9.95     1.55
   7      1.14248100    -0.57148785  -130.40981597    -0.00000028     0.00000094  0.21D-07  0.93D-07  6  1    11.46     1.55
   8      1.14251514    -0.57148598  -130.40981410     0.00000187    -0.00000490  0.39D-08  0.14D-07  6  2    12.93     1.55
   9      1.14251985    -0.57148605  -130.40981417    -0.00000007     0.00000127  0.17D-08  0.19D-08  6  3    14.43     1.55
  10      1.14252167    -0.57148635  -130.40981447    -0.00000030    -0.00000072  0.41D-09  0.27D-09  6  4    15.90     1.55
  11      1.14252071    -0.57148648  -130.40981461    -0.00000014     0.00000034  0.10D-09  0.27D-10  6  5    17.41     1.55
  12      1.14251984    -0.57148662  -130.40981474    -0.00000014     0.00000034  0.11D-10  0.67D-11  6  6    18.89     1.55
  13      1.14251932    -0.57148663  -130.40981475    -0.00000001     0.00000010  0.43D-11  0.12D-11  6  1    20.38     1.55
  14      1.14251888    -0.57148666  -130.40981478    -0.00000003     0.00000010  0.44D-12  0.41D-12  6  3    21.88     1.55
  15      1.14251871    -0.57148666  -130.40981478    -0.00000000     0.00000002  0.11D-12  0.28D-13  6  2    23.37     1.56
  16      1.14251865    -0.57148666  -130.40981478    -0.00000000     0.00000001  0.25D-13  0.61D-14  6  4    24.86     1.56
  17      1.14251863    -0.57148666  -130.40981478    -0.00000000     0.00000001  0.46D-14  0.11D-14  6  5    26.36     1.56
  18      1.14251863    -0.57148666  -130.40981478    -0.00000000     0.00000000  0.50D-15  0.31D-15  6  6    27.85     1.56
  19      1.14251863    -0.57148666  -130.40981478     0.00000000    -0.00000000  0.63D-16  0.45D-16  6  1    29.29     1.56
  20      1.14251863    -0.57148666  -130.40981478     0.00000000    -0.00000000  0.26D-17  0.10D-16  6  3    30.77     1.56
  21      1.14251863    -0.57148666  -130.40981478     0.00000000    -0.00000000  0.13D-17  0.27D-17  6  2    32.24     1.56
  22      1.14251863    -0.57148666  -130.40981478     0.00000000    -0.00000000  0.28D-18  0.95D-18  6  4    33.76     1.56
  23      1.14251863    -0.57148666  -130.40981478    -0.00000000     0.00000000  0.15D-18  0.13D-18  6  5    35.28     1.56
  24      1.14251863    -0.57148666  -130.40981478     0.00000000    -0.00000000  0.64D-20  0.16D-19  6  1    36.78     1.56
  25      1.14251863    -0.57148666  -130.40981478     0.00000000     0.00000000  0.39D-21  0.15D-20  6  6    38.23     1.56
  26      1.14251863    -0.57148666  -130.40981478    -0.00000000     0.00000000  0.17D-21  0.21D-21  6  1    39.71     1.56

 Norm of t1 vector:      0.07900717      S-energy:     0.00000000      T1 diagnostic:  0.01396663
                                                                       D1 diagnostic:  0.04507445

 Doubles amplitudes (print threshold =  0.500E-01):

         I         J         SYM. A    SYM. B    A         B      T(IJ, AB)

         8         8         2         2         1         1     -0.13720453


 Total CPU time for triples:     23.10 sec


 RESULTS
 =======

  Reference energy                   -129.838328121103

  Correlated core orbitals:             1.1       2.1
  Orbital energies:                   -20.6519  -15.7129
 
  CCSD core-core energy                -0.079236696018
  CCSD core-valence energy             -0.036012576713
  CCSD valence correlation energy      -0.456237390314
 
  CCSD singlet pair energy             -0.408913299414
  CCSD triplet pair energy             -0.162573363639
  CCSD correlation energy              -0.571486663046

  Triples (T) contribution             -0.022579349407
  Total correlation energy             -0.594066012453

  CCSD total energy                  -130.409814784149
  CCSD[T] energy                     -130.433605107200
  CCSD-T energy                      -130.431942638908
 !CCSD(T) total energy               -130.432394133556

 Timing summary (sec):

 STEP                 CPU(USER)    SYS     CPU(TOT)    WALL
 Transformation          1.21      0.18      1.39      1.39
 CCSD iterations        38.50      2.00     40.50     40.52
 Triples                23.10      0.58     23.68     23.68

 Program statistics:

 Available memory in ccsd:               994999644
 Min. memory needed in ccsd:               1368037
 Max. memory used in ccsd:                 1750502
 Max. memory used in cckext:               2014357 (26 integral passes)



 **********************************************************************************************************************************
 DATASETS  * FILE   NREC   LENGTH (MB)   RECORD NAMES
              1      20      499.91       500      610      700      900      950      970     1000      129      960     1100   
                                          VAR    BASINP    GEOM    SYMINP    ZMAT    AOBASIS   BASIS     P2S    ABASIS      S 
                                         1400     1410     1200     1210     1080     1600     1650     1300     1700     1380   
                                           T        V       H0       H01     AOSYM     SMH    MOLCAS    ERIS     OPER     JKOP   

              2       4        3.13       700     1000      520     2100   
                                         GEOM     BASIS   MCVARS     RHF  

 PROGRAMS   *        TOTAL   CCSD(T)        HF       INT
 CPU TIMES  *        73.47     62.84      5.37      5.13
 REAL TIME  *        78.77 SEC
 DISK USED  *         1.33 GB      
 **********************************************************************************************************************************

 CCSD(T)/USERDEF energy=   -130.432394133556

        CCSD(T)         HF-SCF  
   -130.43239413   -129.83832812
 **********************************************************************************************************************************
 Molpro calculation terminated
 Variable memory released
