
 Primary working directories    : /tmp/r2666/235504.maple
 Secondary working directories  : /tmp/r2666/235504.maple
 Wavefunction directory         : /ddn/home4/r2666/wfu/
 Main file repository           : /tmp/r2666/235504.maple/

 SHA1      : d5ffa45e93fdbca01ffc919aa182cfdae0147319
 NAME      : 2015.1.35
 ARCHNAME  : linux/x86_64
 FC        : /opt/intel/composer_xe_2015.1.133/bin/intel64/ifort
 BLASLIB   : -Wl,-_start-group /opt/intel/mkl/lib/intel64/libmkl_intel_ilp64.a /opt/intel/mkl/lib/intel64/libmkl_intel_thread.a /opt/intel/mkl/lib/intel64/libmkl_core.a -Wl,-_end-group
 id        : olemiss

 Nodes     nprocs
 cn023        1

 Using customized tuning parameters: mindgm=1; mindgv=20; mindgc=4; mindgr=1; noblas=0; minvec=7
 default implementation of scratch files=df  

 ***,hno CCSD(T)/TZ-F12 QFF
 memory, 995, m;
 gthresh,energy=1.d-12,zero=1.d-22,oneint=1.d-22,twoint=1.d-22;
 gthresh,optgrad=1.d-8,optstep=1.d-8;
 nocompress;
 geomtyp=xyz
 bohr
 geometry={
 3
        101       101
 N        0.0000000000       -0.1751165026       -1.1630602634
 H        0.0000000000        1.6725120167       -1.9222012041
 O        0.0000000000        0.0443722760        1.1346718765
 }
 
 basis={
 default=aug-cc-pvtz
 s,C,8236.0,1235.0,280.8, 79.27,25.59, 8.997,3.319
 s,C,0.9059,0.3643,0.1285000
 p,C,56.0,18.71,4.133,0.2827,0.3827,0.1209
 d,C,30.0,10.0,3.3,1.097,0.318
 f,C,7.0,2.3,0.7610
 s,N,11420.0,1712.0,389.3,110.0,35.57,12.54,4.644
 s,N,1.293,0.5118,0.1787
 p,N,79.89,26.63,5.948,1.742,0.555,0.1725
 d,N,45.0,15.0,5.0,1.654,0.469
 f,N,9.9,3.3,1.093
 s,O,15330.0,2299.0,522.4,147.3,47.55,16.76,6.207
 s,O,1.752,0.6882,0.2384
 p,O,103.5,34.46,7.749,2.28,0.7156,0.214
 d,O,63.0,21.0,7.0,2.314,0.645
 f,O,12.9,4.3,1.428
 s,mg,164900.0,24710.0,5628.0,1596.0,521.0;
 s,mg,188.0,73.01,29.90,12.54,4.306,1.826;
 s,mg,0.7417,0.0761,0.145,0.033,0.0129;
 p,mg,950.70,316.90,74.86,23.72,8.669,3.363;
 p,mg,1.310,0.4911,0.2364,0.08733,0.03237,0.00745;
 d,mg,1.601,0.686,0.126,0.294,0.0468;
 f,mg,1.372,0.588,0.094,0.252;
 }
   {hf,maxit=500;accu,20;}
 {ccsd(t),nocheck,maxit=250;orbital,IGNORE_ERROR;core}

 Variables initialized (889), CPU time= 0.00 sec
 Commands  initialized (702), CPU time= 0.01 sec, 572 directives.
 Default parameters read. Elapsed time= 0.06 sec

 Checking input...
 Passed
1


                                         ***  PROGRAM SYSTEM MOLPRO  ***
                                       Copyright, TTI GmbH Stuttgart, 2015
                                    Version 2015.1 linked Jul  9 2018 13:16:40


 **********************************************************************************************************************************
 LABEL *   hno CCSD(T)/TZ-F12 QFF                                                        
  64 bit serial version                                                                  DATE: 08-Feb-20          TIME: 18:00:35  
 **********************************************************************************************************************************

 SHA1:             d5ffa45e93fdbca01ffc919aa182cfdae0147319
 **********************************************************************************************************************************

 THRESHOLDS:

 ZERO    =  1.00D-22  ONEINT  =  1.00D-22  TWOINT  =  1.00D-22  PREFAC  =  1.00D-14  LOCALI  =  1.00D-09  EORDER  =  1.00D-04
 ENERGY  =  1.00D-12  ETEST   =  0.00D+00  EDENS   =  0.00D+00  THRDEDEF=  1.00D-06  GRADIENT=  1.00D-02  STEP    =  1.00D-03
 ORBITAL =  1.00D-05  CIVEC   =  1.00D-05  COEFF   =  1.00D-04  PRINTCI =  5.00D-02  PUNCHCI =  9.90D+01  OPTGRAD =  3.00D-04
 OPTENERG=  1.00D-06  OPTSTEP =  3.00D-04  THRGRAD =  1.00D-10  COMPRESS=  1.00D-11  VARMIN  =  1.00D-07  VARMAX  =  1.00D-03
 THRDOUB =  0.00D+00  THRDIV  =  1.00D-05  THRRED  =  1.00D-07  THRPSP  =  1.00D+00  THRDC   =  1.00D-10  THRCS   =  1.00D-10
 THRNRM  =  1.00D-08  THREQ   =  0.00D+00  THRDE   =  1.00D+00  THRREF  =  1.00D-05  SPARFAC =  1.00D+00  THRDLP  =  1.00D-07
 THRDIA  =  1.00D-10  THRDLS  =  1.00D-07  THRGPS  =  0.00D+00  THRKEX  =  0.00D+00  THRDIS  =  2.00D-01  THRVAR  =  1.00D-10
 THRLOC  =  1.00D-06  THRGAP  =  1.00D-06  THRLOCT = -1.00D+00  THRGAPT = -1.00D+00  THRORB  =  1.00D-06  THRMLTP =  0.00D+00
 THRCPQCI=  1.00D-10  KEXTA   =  0.00D+00  THRCOARS=  0.00D+00  SYMTOL  =  1.00D-06  GRADTOL =  1.00D-06  THROVL  =  1.00D-08
 THRORTH =  1.00D-08  GRID    =  1.00D-06  GRIDMAX =  1.00D-03  DTMAX   =  0.00D+00  THROCCDE=  1.00D-01  THROCCDE=  1.00D-01



 THRESHOLDS:

 ZERO    =  1.00D-22  ONEINT  =  1.00D-22  TWOINT  =  1.00D-22  PREFAC  =  1.00D-14  LOCALI  =  1.00D-09  EORDER  =  1.00D-04
 ENERGY  =  1.00D-12  ETEST   =  0.00D+00  EDENS   =  0.00D+00  THRDEDEF=  1.00D-06  GRADIENT=  1.00D-02  STEP    =  1.00D-03
 ORBITAL =  1.00D-05  CIVEC   =  1.00D-05  COEFF   =  1.00D-04  PRINTCI =  5.00D-02  PUNCHCI =  9.90D+01  OPTGRAD =  1.00D-08
 OPTENERG=  1.00D-06  OPTSTEP =  1.00D-08  THRGRAD =  1.00D-10  COMPRESS=  1.00D-11  VARMIN  =  1.00D-07  VARMAX  =  1.00D-03
 THRDOUB =  0.00D+00  THRDIV  =  1.00D-05  THRRED  =  1.00D-07  THRPSP  =  1.00D+00  THRDC   =  1.00D-10  THRCS   =  1.00D-10
 THRNRM  =  1.00D-08  THREQ   =  0.00D+00  THRDE   =  1.00D+00  THRREF  =  1.00D-05  SPARFAC =  1.00D+00  THRDLP  =  1.00D-07
 THRDIA  =  1.00D-10  THRDLS  =  1.00D-07  THRGPS  =  0.00D+00  THRKEX  =  0.00D+00  THRDIS  =  2.00D-01  THRVAR  =  1.00D-10
 THRLOC  =  1.00D-06  THRGAP  =  1.00D-06  THRLOCT = -1.00D+00  THRGAPT = -1.00D+00  THRORB  =  1.00D-06  THRMLTP =  0.00D+00
 THRCPQCI=  1.00D-10  KEXTA   =  0.00D+00  THRCOARS=  0.00D+00  SYMTOL  =  1.00D-06  GRADTOL =  1.00D-06  THROVL  =  1.00D-08
 THRORTH =  1.00D-08  GRID    =  1.00D-06  GRIDMAX =  1.00D-03  DTMAX   =  0.00D+00  THROCCDE=  1.00D-01  THROCCDE=  1.00D-01



 Input parameters for SORTINT:

 COMPRESS =    0.000000
 C_FINAL  =    1.000000
 DEBUG    =   -1.000000
 C_SORT1  =    0.000000
 C_SEWARD =    0.000000
 THRESH   =    0.000000
 IO       =  molpro                                                          
 SPRI     =    0.000000
 SETTING GEOMTYP        =    XYZ
 ZUNIT=BOHR
 

 Variable memory set to  995000000 words,  buffer space   230000 words

 SETTING BASIS          =    USERDEF


 Recomputing integrals since basis changed


 Using spherical harmonics

 Library entry H      S aug-cc-pVTZ          selected for orbital group  2
 Library entry H      P aug-cc-pVTZ          selected for orbital group  2
 Library entry H      D aug-cc-pVTZ          selected for orbital group  2


 PROGRAM * SEWARD (Integral evaluation for generally contracted gaussian basis sets)     Author: Roland Lindh, 1990

 Geometry written to block  1 of record 700


 Point group  Cs  



 ATOMIC COORDINATES

 NR  ATOM    CHARGE       X              Y              Z

   1  N       7.00    0.000000000   -0.175116503   -1.163060263
   2  H       1.00    0.000000000    1.672512017   -1.922201204
   3  O       8.00    0.000000000    0.044372276    1.134671876

 Bond lengths in Bohr (Angstrom)

 1-2  1.997504972  1-3  2.308191567
     ( 1.057034110)     ( 1.221442376)

 Bond angles

  2-1-3  106.87987339

 NUCLEAR CHARGE:                   16
 NUMBER OF PRIMITIVE AOS:         203
 NUMBER OF SYMMETRY AOS:          173
 NUMBER OF CONTRACTIONS:          171   ( 114A'  +  57A"  )
 NUMBER OF CORE ORBITALS:           2   (   2A'  +   0A"  )
 NUMBER OF VALENCE ORBITALS:        9   (   7A'  +   2A"  )


 NUCLEAR REPULSION ENERGY   30.07564187


 Eigenvalues of metric

         1 0.108E-02 0.262E-02 0.341E-02 0.646E-02 0.100E-01 0.138E-01 0.146E-01 0.235E-01
         2 0.372E-01 0.552E-01 0.715E-01 0.942E-01 0.132E+00 0.134E+00 0.141E+00 0.142E+00


 Contracted 2-electron integrals neglected if value below      1.0D-22

       46080170. INTEGRALS WRITTEN OUT IN   11253 BLOCKS ON RECORD 1290 OF FILE 1


 NUMBER OF SORTED TWO-ELECTRON INTEGRALS:   55360566.     BUFFER LENGTH:  32768
 NUMBER OF SEGMENTS:   4  SEGMENT LENGTH:   15997996      RECORD LENGTH: 524288

 Memory used in sort:      16.56 MW

 SORT1 READ    46080170. AND WROTE    46516941. INTEGRALS IN    135 RECORDS. CPU TIME:     1.14 SEC, REAL TIME:     1.39 SEC
 SORT2 READ    46516941. AND WROTE    55360566. INTEGRALS IN      4 RECORDS. CPU TIME:     0.79 SEC, REAL TIME:     1.03 SEC

 FILE SIZES:   FILE 1:   758.2 MBYTE,  FILE 4:   566.3 MBYTE,   TOTAL:   1324.5 MBYTE

 OPERATOR DM      FOR CENTER  0  COORDINATES:    0.000000    0.000000    0.000000


 **********************************************************************************************************************************
 DATASETS  * FILE   NREC   LENGTH (MB)   RECORD NAMES
              1      19      420.81       500      610      700      900      950      970     1000      129      960     1100   
                                          VAR    BASINP    GEOM    SYMINP    ZMAT    AOBASIS   BASIS     P2S    ABASIS      S 
                                         1400     1410     1200     1210     1080     1600     1650     1300     1700   
                                           T        V       H0       H01     AOSYM     SMH    MOLCAS    ERIS     OPER   

 PROGRAMS   *        TOTAL       INT
 CPU TIMES  *         5.27      5.18
 REAL TIME  *         6.79 SEC
 DISK USED  *         1.32 GB      
 **********************************************************************************************************************************


 PROGRAM * RHF-SCF (CLOSED SHELL)       Authors: W. Meyer, H.-J. Werner


 NUMBER OF ELECTRONS:       8+    8-
 CONVERGENCE THRESHOLDS:    1.00E-10 (Density)    1.00E-13 (Energy)
 MAX. NUMBER OF ITERATIONS:      500
 INTERPOLATION TYPE:            DIIS
 INTERPOLATION STEPS:              2 (START)      1 (STEP)
 LEVEL SHIFTS:                  0.00 (CLOSED)  0.00 (OPEN) 



 Orbital guess generated from atomic densities. Full valence occupancy:    9   2

 Molecular orbital dump at record        2100.2

 Initial occupancy:   7   1

 ITERATION    DDIFF          GRAD             ENERGY        2-EL.EN.            DIPOLE MOMENTS         DIIS   ORB.
    1      0.000D+00      0.000D+00      -129.78452127    153.540141    0.00000    0.56056   -1.05499    0    start
    2      0.000D+00      0.895D-02      -129.81092703    154.684945    0.00000    0.60654   -0.18022    1    diag
    3      0.371D-02      0.704D-02      -129.83645599    154.835716    0.00000    0.54579   -0.59736    2    diag
    4      0.149D-02      0.105D-02      -129.83726413    154.551453    0.00000    0.55418   -0.53308    3    diag
    5      0.334D-03      0.345D-03      -129.83739092    154.640718    0.00000    0.56016   -0.53518    4    diag
    6      0.155D-03      0.102D-03      -129.83741185    154.624328    0.00000    0.56064   -0.53078    5    diag
    7      0.614D-04      0.517D-04      -129.83741825    154.626757    0.00000    0.56194   -0.52807    6    diag
    8      0.421D-04      0.184D-04      -129.83741902    154.625848    0.00000    0.56199   -0.52705    7    diag
    9      0.157D-04      0.348D-05      -129.83741905    154.625722    0.00000    0.56194   -0.52684    8    diag
   10      0.328D-05      0.762D-06      -129.83741905    154.625708    0.00000    0.56190   -0.52682    9    orth
   11      0.901D-06      0.151D-06      -129.83741905    154.625704    0.00000    0.56189   -0.52681    9    diag
   12      0.211D-06      0.326D-07      -129.83741905    154.625703    0.00000    0.56189   -0.52681    9    diag
   13      0.529D-07      0.891D-08      -129.83741905    154.625703    0.00000    0.56189   -0.52681    9    diag
   14      0.124D-07      0.155D-08      -129.83741905    154.625703    0.00000    0.56189   -0.52681    9    diag
   15      0.143D-08      0.405D-09      -129.83741905    154.625703    0.00000    0.56189   -0.52681    9    diag
   16      0.341D-09      0.115D-09      -129.83741905    154.625703    0.00000    0.56189   -0.52681    9    diag
   17      0.661D-10      0.301D-10      -129.83741905    154.625703    0.00000    0.56189   -0.52681    9    diag
   18      0.180D-10      0.965D-11      -129.83741905    154.625703    0.00000    0.56189   -0.52681    0    orth

 Final occupancy:   7   1

 !RHF STATE 1.1 Energy               -129.837419053862
 Nuclear energy                        30.07564187
 One-electron energy                 -237.22591219
 Two-electron energy                   77.31285126
 Virial quotient                       -1.00204458
 !RHF STATE 1.1 Dipole moment           0.00000000     0.56188922    -0.52681043
 Dipole moment /Debye                   0.00000000     1.42808642    -1.33893084

 Orbital energies:

         1.1          2.1          3.1          4.1          5.1          6.1          7.1          8.1          9.1
    -20.652308   -15.713788    -1.517753    -0.994009    -0.740607    -0.660150    -0.433347     0.039602     0.191767

         1.2          2.2          3.2
     -0.588144     0.074712     0.238949

 HOMO      7.1    -0.433347 =     -11.7920eV
 LUMO      8.1     0.039602 =       1.0776eV
 LUMO-HOMO         0.472949 =      12.8696eV


 **********************************************************************************************************************************
 DATASETS  * FILE   NREC   LENGTH (MB)   RECORD NAMES
              1      19      420.81       500      610      700      900      950      970     1000      129      960     1100   
                                          VAR    BASINP    GEOM    SYMINP    ZMAT    AOBASIS   BASIS     P2S    ABASIS      S 
                                         1400     1410     1200     1210     1080     1600     1650     1300     1700   
                                           T        V       H0       H01     AOSYM     SMH    MOLCAS    ERIS     OPER   

              2       4        3.13       700     1000      520     2100   
                                         GEOM     BASIS   MCVARS     RHF  

 PROGRAMS   *        TOTAL        HF       INT
 CPU TIMES  *        10.91      5.64      5.18
 REAL TIME  *        13.42 SEC
 DISK USED  *         1.32 GB      
 **********************************************************************************************************************************


 PROGRAM * CCSD (Closed-shell coupled cluster)     Authors: C. Hampel, H.-J. Werner, 1991, M. Deegan, P.J. Knowles, 1992


 Convergence thresholds:  THRVAR = 1.00D-08  THRDEN = 1.00D-12

 CCSD(T)     terms to be evaluated (factor= 1.000)


 Number of closed-shell orbitals:   8 (   7   1 )
 Number of external orbitals:     163 ( 107  56 )

 Molecular orbitals read from record     2100.2  Type=RHF/CANONICAL (state 1.1)

 Number of N-1 electron functions:               8
 Number of N-2 electron functions:              36
 Number of singly external CSFs:               805
 Number of doubly external CSFs:            449165
 Total number of CSFs:                      449971

 Length of J-op  integral file:               0.00 MB
 Length of K-op  integral file:               1.15 MB
 Length of 3-ext integral record:             0.00 MB

 Memory could be reduced to 24.90 Mwords without degradation in triples

 Integral transformation finished. Total CPU:   1.23 sec, npass=  1  Memory used:   6.89 MW

 Reference energy:                   -129.83741905

 MP2 singlet pair energy:              -0.38041411
 MP2 triplet pair energy:              -0.18754824
 MP2 correlation energy:               -0.56796234
 MP2 total energy:                   -130.40538140

 SCS-MP2 correlation energy:           -0.57319361   (PS=  1.200000  PT=  0.333333)
 SCS-MP2 total energy:               -130.41061266

 ITER.      SQ.NORM     CORR.ENERGY   TOTAL ENERGY   ENERGY CHANGE        DEN1      VAR(S)    VAR(P)  DIIS     TIME  TIME/IT
   1      1.12134737    -0.57216371  -130.40958277    -0.00420137     0.01414322  0.36D-02  0.33D-02  1  1     2.68     1.47
   2      1.13260198    -0.57173994  -130.40915900     0.00042377    -0.01410780  0.97D-04  0.52D-03  2  2     4.18     1.51
   3      1.13806992    -0.57208247  -130.40950152    -0.00034252    -0.00241624  0.59D-04  0.72D-04  3  3     5.67     1.53
   4      1.14168310    -0.57207548  -130.40949454     0.00000698    -0.00143687  0.50D-05  0.10D-04  4  4     7.16     1.53
   5      1.14281714    -0.57210157  -130.40952062    -0.00002608    -0.00026920  0.17D-05  0.19D-05  5  5     8.66     1.54
   6      1.14325067    -0.57209485  -130.40951391     0.00000671    -0.00004245  0.15D-06  0.40D-06  6  6    10.12     1.54
   7      1.14333445    -0.57209517  -130.40951423    -0.00000032     0.00000121  0.21D-07  0.94D-07  6  1    11.63     1.54
   8      1.14336859    -0.57209322  -130.40951228     0.00000195    -0.00000497  0.38D-08  0.15D-07  6  2    13.12     1.55
   9      1.14337319    -0.57209329  -130.40951234    -0.00000006     0.00000137  0.17D-08  0.19D-08  6  3    14.60     1.55
  10      1.14337507    -0.57209358  -130.40951264    -0.00000030    -0.00000076  0.42D-09  0.28D-09  6  4    16.10     1.55
  11      1.14337412    -0.57209373  -130.40951278    -0.00000014     0.00000035  0.11D-09  0.29D-10  6  5    17.56     1.55
  12      1.14337325    -0.57209386  -130.40951292    -0.00000014     0.00000034  0.11D-10  0.69D-11  6  6    19.05     1.55
  13      1.14337273    -0.57209387  -130.40951293    -0.00000001     0.00000010  0.43D-11  0.12D-11  6  1    20.53     1.55
  14      1.14337229    -0.57209390  -130.40951296    -0.00000003     0.00000011  0.43D-12  0.42D-12  6  3    22.03     1.55
  15      1.14337211    -0.57209390  -130.40951296    -0.00000000     0.00000002  0.11D-12  0.30D-13  6  2    23.52     1.55
  16      1.14337205    -0.57209391  -130.40951296    -0.00000000     0.00000001  0.24D-13  0.63D-14  6  4    25.01     1.55
  17      1.14337203    -0.57209391  -130.40951296    -0.00000000     0.00000001  0.47D-14  0.12D-14  6  5    26.49     1.55
  18      1.14337202    -0.57209391  -130.40951296    -0.00000000     0.00000000  0.53D-15  0.32D-15  6  6    27.96     1.55
  19      1.14337203    -0.57209391  -130.40951296     0.00000000    -0.00000000  0.69D-16  0.50D-16  6  1    29.40     1.55
  20      1.14337203    -0.57209391  -130.40951296     0.00000000    -0.00000000  0.28D-17  0.12D-16  6  3    30.85     1.55
  21      1.14337203    -0.57209391  -130.40951296     0.00000000    -0.00000000  0.14D-17  0.30D-17  6  2    32.33     1.55
  22      1.14337203    -0.57209391  -130.40951296     0.00000000    -0.00000000  0.34D-18  0.11D-17  6  4    33.83     1.55
  23      1.14337203    -0.57209391  -130.40951296    -0.00000000     0.00000000  0.18D-18  0.15D-18  6  5    35.28     1.55
  24      1.14337203    -0.57209391  -130.40951296     0.00000000    -0.00000000  0.68D-20  0.18D-19  6  1    36.75     1.55
  25      1.14337203    -0.57209391  -130.40951296     0.00000000     0.00000000  0.45D-21  0.16D-20  6  6    38.23     1.55
  26      1.14337203    -0.57209391  -130.40951296    -0.00000000     0.00000000  0.17D-21  0.24D-21  6  1    39.69     1.55

 Norm of t1 vector:      0.07973863      S-energy:     0.00000000      T1 diagnostic:  0.01409593
                                                                       D1 diagnostic:  0.04570683

 Doubles amplitudes (print threshold =  0.500E-01):

         I         J         SYM. A    SYM. B    A         B      T(IJ, AB)

         8         8         2         2         1         1     -0.13876062


 Total CPU time for triples:     23.06 sec


 RESULTS
 =======

  Reference energy                   -129.837419053861

  Correlated core orbitals:             1.1       2.1
  Orbital energies:                   -20.6523  -15.7138
 
  CCSD core-core energy                -0.079238824244
  CCSD core-valence energy             -0.035981800163
  CCSD valence correlation energy      -0.456873281753
 
  CCSD singlet pair energy             -0.409460827188
  CCSD triplet pair energy             -0.162633078975
  CCSD correlation energy              -0.572093906160

  Triples (T) contribution             -0.022739896759
  Total correlation energy             -0.594833802919

  CCSD total energy                  -130.409512960021
  CCSD[T] energy                     -130.433486150498
  CCSD-T energy                      -130.431795619529
 !CCSD(T) total energy               -130.432252856780

 Timing summary (sec):

 STEP                 CPU(USER)    SYS     CPU(TOT)    WALL
 Transformation          1.26      0.13      1.39      1.39
 CCSD iterations        38.43      2.01     40.44     40.44
 Triples                23.06      0.54     23.60     23.60

 Program statistics:

 Available memory in ccsd:               994999644
 Min. memory needed in ccsd:               1368037
 Max. memory used in ccsd:                 1750502
 Max. memory used in cckext:               2014357 (26 integral passes)



 **********************************************************************************************************************************
 DATASETS  * FILE   NREC   LENGTH (MB)   RECORD NAMES
              1      20      499.72       500      610      700      900      950      970     1000      129      960     1100   
                                          VAR    BASINP    GEOM    SYMINP    ZMAT    AOBASIS   BASIS     P2S    ABASIS      S 
                                         1400     1410     1200     1210     1080     1600     1650     1300     1700     1380   
                                           T        V       H0       H01     AOSYM     SMH    MOLCAS    ERIS     OPER     JKOP   

              2       4        3.13       700     1000      520     2100   
                                         GEOM     BASIS   MCVARS     RHF  

 PROGRAMS   *        TOTAL   CCSD(T)        HF       INT
 CPU TIMES  *        73.69     62.78      5.64      5.18
 REAL TIME  *        78.89 SEC
 DISK USED  *         1.32 GB      
 **********************************************************************************************************************************

 CCSD(T)/USERDEF energy=   -130.432252856780

        CCSD(T)         HF-SCF  
   -130.43225286   -129.83741905
 **********************************************************************************************************************************
 Molpro calculation terminated
 Variable memory released
