
 Primary working directories    : /tmp/r2666/235513.maple
 Secondary working directories  : /tmp/r2666/235513.maple
 Wavefunction directory         : /ddn/home4/r2666/wfu/
 Main file repository           : /tmp/r2666/235513.maple/

 SHA1      : d5ffa45e93fdbca01ffc919aa182cfdae0147319
 NAME      : 2015.1.35
 ARCHNAME  : linux/x86_64
 FC        : /opt/intel/composer_xe_2015.1.133/bin/intel64/ifort
 BLASLIB   : -Wl,-_start-group /opt/intel/mkl/lib/intel64/libmkl_intel_ilp64.a /opt/intel/mkl/lib/intel64/libmkl_intel_thread.a /opt/intel/mkl/lib/intel64/libmkl_core.a -Wl,-_end-group
 id        : olemiss

 Nodes     nprocs
 cn091        1

 Using customized tuning parameters: mindgm=1; mindgv=20; mindgc=4; mindgr=1; noblas=0; minvec=7
 default implementation of scratch files=df  

 ***,hno CCSD(T)/TZ-F12 QFF
 memory, 995, m;
 gthresh,energy=1.d-12,zero=1.d-22,oneint=1.d-22,twoint=1.d-22;
 gthresh,optgrad=1.d-8,optstep=1.d-8;
 nocompress;
 geomtyp=xyz
 bohr
 geometry={
 3
        110       110
 N        0.0000000000       -0.1628622964       -1.1530925039
 H        0.0000000000        1.6733011401       -1.9395592532
 O        0.0000000000        0.0313289463        1.1420621661
 }
 
 basis={
 default=aug-cc-pvtz
 s,C,8236.0,1235.0,280.8, 79.27,25.59, 8.997,3.319
 s,C,0.9059,0.3643,0.1285000
 p,C,56.0,18.71,4.133,0.2827,0.3827,0.1209
 d,C,30.0,10.0,3.3,1.097,0.318
 f,C,7.0,2.3,0.7610
 s,N,11420.0,1712.0,389.3,110.0,35.57,12.54,4.644
 s,N,1.293,0.5118,0.1787
 p,N,79.89,26.63,5.948,1.742,0.555,0.1725
 d,N,45.0,15.0,5.0,1.654,0.469
 f,N,9.9,3.3,1.093
 s,O,15330.0,2299.0,522.4,147.3,47.55,16.76,6.207
 s,O,1.752,0.6882,0.2384
 p,O,103.5,34.46,7.749,2.28,0.7156,0.214
 d,O,63.0,21.0,7.0,2.314,0.645
 f,O,12.9,4.3,1.428
 s,mg,164900.0,24710.0,5628.0,1596.0,521.0;
 s,mg,188.0,73.01,29.90,12.54,4.306,1.826;
 s,mg,0.7417,0.0761,0.145,0.033,0.0129;
 p,mg,950.70,316.90,74.86,23.72,8.669,3.363;
 p,mg,1.310,0.4911,0.2364,0.08733,0.03237,0.00745;
 d,mg,1.601,0.686,0.126,0.294,0.0468;
 f,mg,1.372,0.588,0.094,0.252;
 }
   {hf,maxit=500;accu,20;}
 {ccsd(t),nocheck,maxit=250;orbital,IGNORE_ERROR;core}

 Variables initialized (889), CPU time= 0.01 sec
 Commands  initialized (702), CPU time= 0.00 sec, 572 directives.
 Default parameters read. Elapsed time= 0.04 sec

 Checking input...
 Passed
1


                                         ***  PROGRAM SYSTEM MOLPRO  ***
                                       Copyright, TTI GmbH Stuttgart, 2015
                                    Version 2015.1 linked Jul  9 2018 13:16:40


 **********************************************************************************************************************************
 LABEL *   hno CCSD(T)/TZ-F12 QFF                                                        
  64 bit serial version                                                                  DATE: 08-Feb-20          TIME: 18:00:41  
 **********************************************************************************************************************************

 SHA1:             d5ffa45e93fdbca01ffc919aa182cfdae0147319
 **********************************************************************************************************************************

 THRESHOLDS:

 ZERO    =  1.00D-22  ONEINT  =  1.00D-22  TWOINT  =  1.00D-22  PREFAC  =  1.00D-14  LOCALI  =  1.00D-09  EORDER  =  1.00D-04
 ENERGY  =  1.00D-12  ETEST   =  0.00D+00  EDENS   =  0.00D+00  THRDEDEF=  1.00D-06  GRADIENT=  1.00D-02  STEP    =  1.00D-03
 ORBITAL =  1.00D-05  CIVEC   =  1.00D-05  COEFF   =  1.00D-04  PRINTCI =  5.00D-02  PUNCHCI =  9.90D+01  OPTGRAD =  3.00D-04
 OPTENERG=  1.00D-06  OPTSTEP =  3.00D-04  THRGRAD =  1.00D-10  COMPRESS=  1.00D-11  VARMIN  =  1.00D-07  VARMAX  =  1.00D-03
 THRDOUB =  0.00D+00  THRDIV  =  1.00D-05  THRRED  =  1.00D-07  THRPSP  =  1.00D+00  THRDC   =  1.00D-10  THRCS   =  1.00D-10
 THRNRM  =  1.00D-08  THREQ   =  0.00D+00  THRDE   =  1.00D+00  THRREF  =  1.00D-05  SPARFAC =  1.00D+00  THRDLP  =  1.00D-07
 THRDIA  =  1.00D-10  THRDLS  =  1.00D-07  THRGPS  =  0.00D+00  THRKEX  =  0.00D+00  THRDIS  =  2.00D-01  THRVAR  =  1.00D-10
 THRLOC  =  1.00D-06  THRGAP  =  1.00D-06  THRLOCT = -1.00D+00  THRGAPT = -1.00D+00  THRORB  =  1.00D-06  THRMLTP =  0.00D+00
 THRCPQCI=  1.00D-10  KEXTA   =  0.00D+00  THRCOARS=  0.00D+00  SYMTOL  =  1.00D-06  GRADTOL =  1.00D-06  THROVL  =  1.00D-08
 THRORTH =  1.00D-08  GRID    =  1.00D-06  GRIDMAX =  1.00D-03  DTMAX   =  0.00D+00  THROCCDE=  1.00D-01  THROCCDE=  1.00D-01



 THRESHOLDS:

 ZERO    =  1.00D-22  ONEINT  =  1.00D-22  TWOINT  =  1.00D-22  PREFAC  =  1.00D-14  LOCALI  =  1.00D-09  EORDER  =  1.00D-04
 ENERGY  =  1.00D-12  ETEST   =  0.00D+00  EDENS   =  0.00D+00  THRDEDEF=  1.00D-06  GRADIENT=  1.00D-02  STEP    =  1.00D-03
 ORBITAL =  1.00D-05  CIVEC   =  1.00D-05  COEFF   =  1.00D-04  PRINTCI =  5.00D-02  PUNCHCI =  9.90D+01  OPTGRAD =  1.00D-08
 OPTENERG=  1.00D-06  OPTSTEP =  1.00D-08  THRGRAD =  1.00D-10  COMPRESS=  1.00D-11  VARMIN  =  1.00D-07  VARMAX  =  1.00D-03
 THRDOUB =  0.00D+00  THRDIV  =  1.00D-05  THRRED  =  1.00D-07  THRPSP  =  1.00D+00  THRDC   =  1.00D-10  THRCS   =  1.00D-10
 THRNRM  =  1.00D-08  THREQ   =  0.00D+00  THRDE   =  1.00D+00  THRREF  =  1.00D-05  SPARFAC =  1.00D+00  THRDLP  =  1.00D-07
 THRDIA  =  1.00D-10  THRDLS  =  1.00D-07  THRGPS  =  0.00D+00  THRKEX  =  0.00D+00  THRDIS  =  2.00D-01  THRVAR  =  1.00D-10
 THRLOC  =  1.00D-06  THRGAP  =  1.00D-06  THRLOCT = -1.00D+00  THRGAPT = -1.00D+00  THRORB  =  1.00D-06  THRMLTP =  0.00D+00
 THRCPQCI=  1.00D-10  KEXTA   =  0.00D+00  THRCOARS=  0.00D+00  SYMTOL  =  1.00D-06  GRADTOL =  1.00D-06  THROVL  =  1.00D-08
 THRORTH =  1.00D-08  GRID    =  1.00D-06  GRIDMAX =  1.00D-03  DTMAX   =  0.00D+00  THROCCDE=  1.00D-01  THROCCDE=  1.00D-01



 Input parameters for SORTINT:

 COMPRESS =    0.000000
 C_FINAL  =    1.000000
 DEBUG    =   -1.000000
 C_SORT1  =    0.000000
 C_SEWARD =    0.000000
 THRESH   =    0.000000
 IO       =  molpro                                                          
 SPRI     =    0.000000
 SETTING GEOMTYP        =    XYZ
 ZUNIT=BOHR
 

 Variable memory set to  995000000 words,  buffer space   230000 words

 SETTING BASIS          =    USERDEF


 Recomputing integrals since basis changed


 Using spherical harmonics

 Library entry H      S aug-cc-pVTZ          selected for orbital group  2
 Library entry H      P aug-cc-pVTZ          selected for orbital group  2
 Library entry H      D aug-cc-pVTZ          selected for orbital group  2


 PROGRAM * SEWARD (Integral evaluation for generally contracted gaussian basis sets)     Author: Roland Lindh, 1990

 Geometry written to block  1 of record 700


 Point group  Cs  



 ATOMIC COORDINATES

 NR  ATOM    CHARGE       X              Y              Z

   1  N       7.00    0.000000000   -0.162862296   -1.153092504
   2  H       1.00    0.000000000    1.673301140   -1.939559253
   3  O       8.00    0.000000000    0.031328946    1.142062166

 Bond lengths in Bohr (Angstrom)

 1-2  1.997504972  1-3  2.303355204
     ( 1.057034110)     ( 1.218883083)

 Bond angles

  2-1-3  108.35021866

 NUCLEAR CHARGE:                   16
 NUMBER OF PRIMITIVE AOS:         203
 NUMBER OF SYMMETRY AOS:          173
 NUMBER OF CONTRACTIONS:          171   ( 114A'  +  57A"  )
 NUMBER OF CORE ORBITALS:           2   (   2A'  +   0A"  )
 NUMBER OF VALENCE ORBITALS:        9   (   7A'  +   2A"  )


 NUCLEAR REPULSION ENERGY   30.10783247


 Eigenvalues of metric

         1 0.107E-02 0.259E-02 0.341E-02 0.645E-02 0.100E-01 0.138E-01 0.146E-01 0.235E-01
         2 0.370E-01 0.548E-01 0.708E-01 0.943E-01 0.132E+00 0.135E+00 0.141E+00 0.142E+00


 Contracted 2-electron integrals neglected if value below      1.0D-22

       46090366. INTEGRALS WRITTEN OUT IN   11256 BLOCKS ON RECORD 1290 OF FILE 1


 NUMBER OF SORTED TWO-ELECTRON INTEGRALS:   55360566.     BUFFER LENGTH:  32768
 NUMBER OF SEGMENTS:   4  SEGMENT LENGTH:   15997996      RECORD LENGTH: 524288

 Memory used in sort:      16.56 MW

 SORT1 READ    46090366. AND WROTE    46527233. INTEGRALS IN    135 RECORDS. CPU TIME:     0.74 SEC, REAL TIME:     1.07 SEC
 SORT2 READ    46527233. AND WROTE    55360566. INTEGRALS IN      4 RECORDS. CPU TIME:     0.66 SEC, REAL TIME:     0.88 SEC

 FILE SIZES:   FILE 1:   758.4 MBYTE,  FILE 4:   566.3 MBYTE,   TOTAL:   1324.7 MBYTE

 OPERATOR DM      FOR CENTER  0  COORDINATES:    0.000000    0.000000    0.000000


 **********************************************************************************************************************************
 DATASETS  * FILE   NREC   LENGTH (MB)   RECORD NAMES
              1      19      420.87       500      610      700      900      950      970     1000      129      960     1100   
                                          VAR    BASINP    GEOM    SYMINP    ZMAT    AOBASIS   BASIS     P2S    ABASIS      S 
                                         1400     1410     1200     1210     1080     1600     1650     1300     1700   
                                           T        V       H0       H01     AOSYM     SMH    MOLCAS    ERIS     OPER   

 PROGRAMS   *        TOTAL       INT
 CPU TIMES  *         4.24      4.16
 REAL TIME  *         5.68 SEC
 DISK USED  *         1.33 GB      
 **********************************************************************************************************************************


 PROGRAM * RHF-SCF (CLOSED SHELL)       Authors: W. Meyer, H.-J. Werner


 NUMBER OF ELECTRONS:       8+    8-
 CONVERGENCE THRESHOLDS:    1.00E-10 (Density)    1.00E-13 (Energy)
 MAX. NUMBER OF ITERATIONS:      500
 INTERPOLATION TYPE:            DIIS
 INTERPOLATION STEPS:              2 (START)      1 (STEP)
 LEVEL SHIFTS:                  0.00 (CLOSED)  0.00 (OPEN) 



 Orbital guess generated from atomic densities. Full valence occupancy:    9   2

 Molecular orbital dump at record        2100.2

 Initial occupancy:   7   1

 ITERATION    DDIFF          GRAD             ENERGY        2-EL.EN.            DIPOLE MOMENTS         DIIS   ORB.
    1      0.000D+00      0.000D+00      -129.78552446    153.590878    0.00000    0.57272   -1.05016    0    start
    2      0.000D+00      0.891D-02      -129.81201529    154.748345    0.00000    0.60399   -0.18824    1    diag
    3      0.370D-02      0.696D-02      -129.83692536    154.891986    0.00000    0.55064   -0.59961    2    diag
    4      0.147D-02      0.105D-02      -129.83773252    154.608810    0.00000    0.55836   -0.53531    3    diag
    5      0.335D-03      0.343D-03      -129.83785784    154.698282    0.00000    0.56448   -0.53756    4    diag
    6      0.155D-03      0.101D-03      -129.83787842    154.681973    0.00000    0.56499   -0.53323    5    diag
    7      0.613D-04      0.511D-04      -129.83788465    154.684425    0.00000    0.56631   -0.53057    6    diag
    8      0.419D-04      0.181D-04      -129.83788539    154.683543    0.00000    0.56636   -0.52957    7    diag
    9      0.154D-04      0.343D-05      -129.83788542    154.683417    0.00000    0.56631   -0.52937    8    diag
   10      0.321D-05      0.765D-06      -129.83788543    154.683402    0.00000    0.56627   -0.52934    9    orth
   11      0.901D-06      0.151D-06      -129.83788543    154.683398    0.00000    0.56626   -0.52934    9    diag
   12      0.211D-06      0.321D-07      -129.83788543    154.683397    0.00000    0.56626   -0.52934    9    diag
   13      0.521D-07      0.873D-08      -129.83788543    154.683397    0.00000    0.56626   -0.52934    9    diag
   14      0.123D-07      0.153D-08      -129.83788543    154.683397    0.00000    0.56626   -0.52934    9    diag
   15      0.145D-08      0.402D-09      -129.83788543    154.683397    0.00000    0.56626   -0.52934    9    diag
   16      0.341D-09      0.114D-09      -129.83788543    154.683397    0.00000    0.56626   -0.52934    9    diag
   17      0.659D-10      0.298D-10      -129.83788543    154.683397    0.00000    0.56626   -0.52934    9    diag
   18      0.186D-10      0.956D-11      -129.83788543    154.683397    0.00000    0.56626   -0.52934    9    diag
   19      0.671D-11      0.205D-11      -129.83788543    154.683397    0.00000    0.56626   -0.52934    9    fixocc
   20      0.148D-11      0.955D-12      -129.83788543    154.683397    0.00000    0.56626   -0.52934    9    orth
   21      0.101D-12      0.339D-12      -129.83788543    154.683397    0.00000    0.56626   -0.52934    0    orth

 Final occupancy:   7   1

 !RHF STATE 1.1 Energy               -129.837885425541
 Nuclear energy                        30.10783247
 One-electron energy                 -237.28741630
 Two-electron energy                   77.34169840
 Virial quotient                       -1.00201446
 !RHF STATE 1.1 Dipole moment           0.00000000     0.56626122    -0.52933695
 Dipole moment /Debye                   0.00000000     1.43919820    -1.34535221

 Orbital energies:

         1.1          2.1          3.1          4.1          5.1          6.1          7.1          8.1          9.1
    -20.652417   -15.713082    -1.519037    -0.994290    -0.741312    -0.661115    -0.431629     0.039487     0.191770

         1.2          2.2          3.2
     -0.589127     0.075262     0.239150

 HOMO      7.1    -0.431629 =     -11.7452eV
 LUMO      8.1     0.039487 =       1.0745eV
 LUMO-HOMO         0.471115 =      12.8197eV


 **********************************************************************************************************************************
 DATASETS  * FILE   NREC   LENGTH (MB)   RECORD NAMES
              1      19      420.87       500      610      700      900      950      970     1000      129      960     1100   
                                          VAR    BASINP    GEOM    SYMINP    ZMAT    AOBASIS   BASIS     P2S    ABASIS      S 
                                         1400     1410     1200     1210     1080     1600     1650     1300     1700   
                                           T        V       H0       H01     AOSYM     SMH    MOLCAS    ERIS     OPER   

              2       4        3.13       700     1000      520     2100   
                                         GEOM     BASIS   MCVARS     RHF  

 PROGRAMS   *        TOTAL        HF       INT
 CPU TIMES  *         9.61      5.36      4.16
 REAL TIME  *        12.13 SEC
 DISK USED  *         1.33 GB      
 **********************************************************************************************************************************


 PROGRAM * CCSD (Closed-shell coupled cluster)     Authors: C. Hampel, H.-J. Werner, 1991, M. Deegan, P.J. Knowles, 1992


 Convergence thresholds:  THRVAR = 1.00D-08  THRDEN = 1.00D-12

 CCSD(T)     terms to be evaluated (factor= 1.000)


 Number of closed-shell orbitals:   8 (   7   1 )
 Number of external orbitals:     163 ( 107  56 )

 Molecular orbitals read from record     2100.2  Type=RHF/CANONICAL (state 1.1)

 Number of N-1 electron functions:               8
 Number of N-2 electron functions:              36
 Number of singly external CSFs:               805
 Number of doubly external CSFs:            449165
 Total number of CSFs:                      449971

 Length of J-op  integral file:               0.00 MB
 Length of K-op  integral file:               1.15 MB
 Length of 3-ext integral record:             0.00 MB

 Memory could be reduced to 24.90 Mwords without degradation in triples

 Integral transformation finished. Total CPU:   0.88 sec, npass=  1  Memory used:   6.89 MW

 Reference energy:                   -129.83788543

 MP2 singlet pair energy:              -0.38014578
 MP2 triplet pair energy:              -0.18737789
 MP2 correlation energy:               -0.56752367
 MP2 total energy:                   -130.40540910

 SCS-MP2 correlation energy:           -0.57276562   (PS=  1.200000  PT=  0.333333)
 SCS-MP2 total energy:               -130.41065105

 ITER.      SQ.NORM     CORR.ENERGY   TOTAL ENERGY   ENERGY CHANGE        DEN1      VAR(S)    VAR(P)  DIIS     TIME  TIME/IT
   1      1.12110429    -0.57182948  -130.40971490    -0.00430581     0.01394923  0.35D-02  0.33D-02  1  1     1.83     0.99
   2      1.13231349    -0.57142545  -130.40931088     0.00040402    -0.01405073  0.96D-04  0.52D-03  2  2     2.80     1.04
   3      1.13776466    -0.57176807  -130.40965350    -0.00034262    -0.00240829  0.59D-04  0.72D-04  3  3     3.80     1.05
   4      1.14136408    -0.57176042  -130.40964584     0.00000765    -0.00143155  0.50D-05  0.10D-04  4  4     4.81     1.06
   5      1.14249896    -0.57178633  -130.40967176    -0.00002591    -0.00026849  0.17D-05  0.19D-05  5  5     5.81     1.07
   6      1.14293646    -0.57177962  -130.40966505     0.00000671    -0.00004272  0.15D-06  0.42D-06  6  6     6.79     1.07
   7      1.14302263    -0.57177994  -130.40966537    -0.00000032     0.00000100  0.21D-07  0.97D-07  6  1     7.80     1.07
   8      1.14305758    -0.57177804  -130.40966346     0.00000190    -0.00000501  0.40D-08  0.15D-07  6  2     8.78     1.07
   9      1.14306252    -0.57177808  -130.40966351    -0.00000004     0.00000130  0.18D-08  0.20D-08  6  3     9.80     1.08
  10      1.14306441    -0.57177839  -130.40966382    -0.00000031    -0.00000075  0.44D-09  0.29D-09  6  4    10.83     1.08
  11      1.14306344    -0.57177854  -130.40966396    -0.00000015     0.00000035  0.11D-09  0.30D-10  6  5    11.85     1.08
  12      1.14306252    -0.57177868  -130.40966411    -0.00000014     0.00000036  0.12D-10  0.73D-11  6  6    12.82     1.08
  13      1.14306197    -0.57177869  -130.40966412    -0.00000001     0.00000011  0.47D-11  0.13D-11  6  1    13.79     1.09
  14      1.14306150    -0.57177872  -130.40966415    -0.00000003     0.00000011  0.47D-12  0.45D-12  6  3    14.80     1.09
  15      1.14306132    -0.57177872  -130.40966415    -0.00000000     0.00000002  0.12D-12  0.31D-13  6  2    15.82     1.09
  16      1.14306126    -0.57177872  -130.40966415    -0.00000000     0.00000001  0.26D-13  0.67D-14  6  4    16.81     1.09
  17      1.14306124    -0.57177873  -130.40966415    -0.00000000     0.00000001  0.49D-14  0.12D-14  6  5    17.79     1.09
  18      1.14306123    -0.57177873  -130.40966415    -0.00000000     0.00000000  0.53D-15  0.33D-15  6  6    18.75     1.09
  19      1.14306124    -0.57177873  -130.40966415     0.00000000    -0.00000000  0.69D-16  0.49D-16  6  1    19.77     1.09
  20      1.14306124    -0.57177873  -130.40966415     0.00000000    -0.00000000  0.29D-17  0.11D-16  6  3    20.76     1.09
  21      1.14306124    -0.57177873  -130.40966415     0.00000000    -0.00000000  0.15D-17  0.29D-17  6  2    21.77     1.09
  22      1.14306124    -0.57177873  -130.40966415     0.00000000    -0.00000000  0.32D-18  0.10D-17  6  4    22.78     1.09
  23      1.14306124    -0.57177873  -130.40966415    -0.00000000     0.00000000  0.18D-18  0.15D-18  6  5    23.78     1.09
  24      1.14306124    -0.57177873  -130.40966415     0.00000000    -0.00000000  0.68D-20  0.18D-19  6  1    24.79     1.09
  25      1.14306124    -0.57177873  -130.40966415     0.00000000     0.00000000  0.43D-21  0.18D-20  6  6    25.79     1.09
  26      1.14306124    -0.57177873  -130.40966415    -0.00000000     0.00000000  0.19D-21  0.24D-21  6  1    26.79     1.09

 Norm of t1 vector:      0.07974170      S-energy:     0.00000000      T1 diagnostic:  0.01409647
                                                                       D1 diagnostic:  0.04551053

 Doubles amplitudes (print threshold =  0.500E-01):

         I         J         SYM. A    SYM. B    A         B      T(IJ, AB)

         8         8         2         2         1         1     -0.13779363


 Total CPU time for triples:     19.29 sec


 RESULTS
 =======

  Reference energy                   -129.837885425541

  Correlated core orbitals:             1.1       2.1
  Orbital energies:                   -20.6524  -15.7131
 
  CCSD core-core energy                -0.079239286509
  CCSD core-valence energy             -0.035996570352
  CCSD valence correlation energy      -0.456542868425
 
  CCSD singlet pair energy             -0.409181943385
  CCSD triplet pair energy             -0.162596781902
  CCSD correlation energy              -0.571778725286

  Triples (T) contribution             -0.022670322549
  Total correlation energy             -0.594449047835

  CCSD total energy                  -130.409664150827
  CCSD[T] energy                     -130.433563380758
  CCSD-T energy                      -130.431878442154
 !CCSD(T) total energy               -130.432334473377

 Timing summary (sec):

 STEP                 CPU(USER)    SYS     CPU(TOT)    WALL
 Transformation          0.90      0.15      1.05      1.05
 CCSD iterations        25.91      2.44     28.35     28.34
 Triples                19.29      0.60     19.89     19.90

 Program statistics:

 Available memory in ccsd:               994999644
 Min. memory needed in ccsd:               1368037
 Max. memory used in ccsd:                 1750502
 Max. memory used in cckext:               2014357 (26 integral passes)



 **********************************************************************************************************************************
 DATASETS  * FILE   NREC   LENGTH (MB)   RECORD NAMES
              1      20      499.78       500      610      700      900      950      970     1000      129      960     1100   
                                          VAR    BASINP    GEOM    SYMINP    ZMAT    AOBASIS   BASIS     P2S    ABASIS      S 
                                         1400     1410     1200     1210     1080     1600     1650     1300     1700     1380   
                                           T        V       H0       H01     AOSYM     SMH    MOLCAS    ERIS     OPER     JKOP   

              2       4        3.13       700     1000      520     2100   
                                         GEOM     BASIS   MCVARS     RHF  

 PROGRAMS   *        TOTAL   CCSD(T)        HF       INT
 CPU TIMES  *        55.73     46.13      5.36      4.16
 REAL TIME  *        61.46 SEC
 DISK USED  *         1.33 GB      
 **********************************************************************************************************************************

 CCSD(T)/USERDEF energy=   -130.432334473377

        CCSD(T)         HF-SCF  
   -130.43233447   -129.83788543
 **********************************************************************************************************************************
 Molpro calculation terminated
 Variable memory released
