
 Primary working directories    : /tmp/r2666/235477.maple
 Secondary working directories  : /tmp/r2666/235477.maple
 Wavefunction directory         : /ddn/home4/r2666/wfu/
 Main file repository           : /tmp/r2666/235477.maple/

 SHA1      : d5ffa45e93fdbca01ffc919aa182cfdae0147319
 NAME      : 2015.1.35
 ARCHNAME  : linux/x86_64
 FC        : /opt/intel/composer_xe_2015.1.133/bin/intel64/ifort
 BLASLIB   : -Wl,-_start-group /opt/intel/mkl/lib/intel64/libmkl_intel_ilp64.a /opt/intel/mkl/lib/intel64/libmkl_intel_thread.a /opt/intel/mkl/lib/intel64/libmkl_core.a -Wl,-_end-group
 id        : olemiss

 Nodes     nprocs
 cn030        1

 Using customized tuning parameters: mindgm=1; mindgv=20; mindgc=4; mindgr=1; noblas=0; minvec=7
 default implementation of scratch files=df  

 ***,hno CCSD(T)/TZ-F12 QFF
 memory, 995, m;
 gthresh,energy=1.d-12,zero=1.d-22,oneint=1.d-22,twoint=1.d-22;
 gthresh,optgrad=1.d-8,optstep=1.d-8;
 nocompress;
 geomtyp=xyz
 bohr
 geometry={
 3
         74        74
 N        0.0000000000       -0.1628606138       -1.1558002927
 H        0.0000000000        1.6681522482       -1.9302419746
 O        0.0000000000        0.0364761556        1.1354526763
 }
 
 basis={
 default=aug-cc-pvtz
 s,C,8236.0,1235.0,280.8, 79.27,25.59, 8.997,3.319
 s,C,0.9059,0.3643,0.1285000
 p,C,56.0,18.71,4.133,0.2827,0.3827,0.1209
 d,C,30.0,10.0,3.3,1.097,0.318
 f,C,7.0,2.3,0.7610
 s,N,11420.0,1712.0,389.3,110.0,35.57,12.54,4.644
 s,N,1.293,0.5118,0.1787
 p,N,79.89,26.63,5.948,1.742,0.555,0.1725
 d,N,45.0,15.0,5.0,1.654,0.469
 f,N,9.9,3.3,1.093
 s,O,15330.0,2299.0,522.4,147.3,47.55,16.76,6.207
 s,O,1.752,0.6882,0.2384
 p,O,103.5,34.46,7.749,2.28,0.7156,0.214
 d,O,63.0,21.0,7.0,2.314,0.645
 f,O,12.9,4.3,1.428
 s,mg,164900.0,24710.0,5628.0,1596.0,521.0;
 s,mg,188.0,73.01,29.90,12.54,4.306,1.826;
 s,mg,0.7417,0.0761,0.145,0.033,0.0129;
 p,mg,950.70,316.90,74.86,23.72,8.669,3.363;
 p,mg,1.310,0.4911,0.2364,0.08733,0.03237,0.00745;
 d,mg,1.601,0.686,0.126,0.294,0.0468;
 f,mg,1.372,0.588,0.094,0.252;
 }
   {hf,maxit=500;accu,20;}
 {ccsd(t),nocheck,maxit=250;orbital,IGNORE_ERROR;core}

 Variables initialized (889), CPU time= 0.01 sec
 Commands  initialized (702), CPU time= 0.00 sec, 572 directives.
 Default parameters read. Elapsed time= 0.05 sec

 Checking input...
 Passed
1


                                         ***  PROGRAM SYSTEM MOLPRO  ***
                                       Copyright, TTI GmbH Stuttgart, 2015
                                    Version 2015.1 linked Jul  9 2018 13:16:40


 **********************************************************************************************************************************
 LABEL *   hno CCSD(T)/TZ-F12 QFF                                                        
  64 bit serial version                                                                  DATE: 08-Feb-20          TIME: 18:00:14  
 **********************************************************************************************************************************

 SHA1:             d5ffa45e93fdbca01ffc919aa182cfdae0147319
 **********************************************************************************************************************************

 THRESHOLDS:

 ZERO    =  1.00D-22  ONEINT  =  1.00D-22  TWOINT  =  1.00D-22  PREFAC  =  1.00D-14  LOCALI  =  1.00D-09  EORDER  =  1.00D-04
 ENERGY  =  1.00D-12  ETEST   =  0.00D+00  EDENS   =  0.00D+00  THRDEDEF=  1.00D-06  GRADIENT=  1.00D-02  STEP    =  1.00D-03
 ORBITAL =  1.00D-05  CIVEC   =  1.00D-05  COEFF   =  1.00D-04  PRINTCI =  5.00D-02  PUNCHCI =  9.90D+01  OPTGRAD =  3.00D-04
 OPTENERG=  1.00D-06  OPTSTEP =  3.00D-04  THRGRAD =  1.00D-10  COMPRESS=  1.00D-11  VARMIN  =  1.00D-07  VARMAX  =  1.00D-03
 THRDOUB =  0.00D+00  THRDIV  =  1.00D-05  THRRED  =  1.00D-07  THRPSP  =  1.00D+00  THRDC   =  1.00D-10  THRCS   =  1.00D-10
 THRNRM  =  1.00D-08  THREQ   =  0.00D+00  THRDE   =  1.00D+00  THRREF  =  1.00D-05  SPARFAC =  1.00D+00  THRDLP  =  1.00D-07
 THRDIA  =  1.00D-10  THRDLS  =  1.00D-07  THRGPS  =  0.00D+00  THRKEX  =  0.00D+00  THRDIS  =  2.00D-01  THRVAR  =  1.00D-10
 THRLOC  =  1.00D-06  THRGAP  =  1.00D-06  THRLOCT = -1.00D+00  THRGAPT = -1.00D+00  THRORB  =  1.00D-06  THRMLTP =  0.00D+00
 THRCPQCI=  1.00D-10  KEXTA   =  0.00D+00  THRCOARS=  0.00D+00  SYMTOL  =  1.00D-06  GRADTOL =  1.00D-06  THROVL  =  1.00D-08
 THRORTH =  1.00D-08  GRID    =  1.00D-06  GRIDMAX =  1.00D-03  DTMAX   =  0.00D+00  THROCCDE=  1.00D-01  THROCCDE=  1.00D-01



 THRESHOLDS:

 ZERO    =  1.00D-22  ONEINT  =  1.00D-22  TWOINT  =  1.00D-22  PREFAC  =  1.00D-14  LOCALI  =  1.00D-09  EORDER  =  1.00D-04
 ENERGY  =  1.00D-12  ETEST   =  0.00D+00  EDENS   =  0.00D+00  THRDEDEF=  1.00D-06  GRADIENT=  1.00D-02  STEP    =  1.00D-03
 ORBITAL =  1.00D-05  CIVEC   =  1.00D-05  COEFF   =  1.00D-04  PRINTCI =  5.00D-02  PUNCHCI =  9.90D+01  OPTGRAD =  1.00D-08
 OPTENERG=  1.00D-06  OPTSTEP =  1.00D-08  THRGRAD =  1.00D-10  COMPRESS=  1.00D-11  VARMIN  =  1.00D-07  VARMAX  =  1.00D-03
 THRDOUB =  0.00D+00  THRDIV  =  1.00D-05  THRRED  =  1.00D-07  THRPSP  =  1.00D+00  THRDC   =  1.00D-10  THRCS   =  1.00D-10
 THRNRM  =  1.00D-08  THREQ   =  0.00D+00  THRDE   =  1.00D+00  THRREF  =  1.00D-05  SPARFAC =  1.00D+00  THRDLP  =  1.00D-07
 THRDIA  =  1.00D-10  THRDLS  =  1.00D-07  THRGPS  =  0.00D+00  THRKEX  =  0.00D+00  THRDIS  =  2.00D-01  THRVAR  =  1.00D-10
 THRLOC  =  1.00D-06  THRGAP  =  1.00D-06  THRLOCT = -1.00D+00  THRGAPT = -1.00D+00  THRORB  =  1.00D-06  THRMLTP =  0.00D+00
 THRCPQCI=  1.00D-10  KEXTA   =  0.00D+00  THRCOARS=  0.00D+00  SYMTOL  =  1.00D-06  GRADTOL =  1.00D-06  THROVL  =  1.00D-08
 THRORTH =  1.00D-08  GRID    =  1.00D-06  GRIDMAX =  1.00D-03  DTMAX   =  0.00D+00  THROCCDE=  1.00D-01  THROCCDE=  1.00D-01



 Input parameters for SORTINT:

 COMPRESS =    0.000000
 C_FINAL  =    1.000000
 DEBUG    =   -1.000000
 C_SORT1  =    0.000000
 C_SEWARD =    0.000000
 THRESH   =    0.000000
 IO       =  molpro                                                          
 SPRI     =    0.000000
 SETTING GEOMTYP        =    XYZ
 ZUNIT=BOHR
 

 Variable memory set to  995000000 words,  buffer space   230000 words

 SETTING BASIS          =    USERDEF


 Recomputing integrals since basis changed


 Using spherical harmonics

 Library entry H      S aug-cc-pVTZ          selected for orbital group  2
 Library entry H      P aug-cc-pVTZ          selected for orbital group  2
 Library entry H      D aug-cc-pVTZ          selected for orbital group  2


 PROGRAM * SEWARD (Integral evaluation for generally contracted gaussian basis sets)     Author: Roland Lindh, 1990

 Geometry written to block  1 of record 700


 Point group  Cs  



 ATOMIC COORDINATES

 NR  ATOM    CHARGE       X              Y              Z

   1  N       7.00    0.000000000   -0.162860614   -1.155800293
   2  H       1.00    0.000000000    1.668152248   -1.930241975
   3  O       8.00    0.000000000    0.036476156    1.135452676

 Bond lengths in Bohr (Angstrom)

 1-2  1.988056342  1-3  2.299907675
     ( 1.052034110)     ( 1.217058729)

 Bond angles

  2-1-3  107.95416710

 NUCLEAR CHARGE:                   16
 NUMBER OF PRIMITIVE AOS:         203
 NUMBER OF SYMMETRY AOS:          173
 NUMBER OF CONTRACTIONS:          171   ( 114A'  +  57A"  )
 NUMBER OF CORE ORBITALS:           2   (   2A'  +   0A"  )
 NUMBER OF VALENCE ORBITALS:        9   (   7A'  +   2A"  )


 NUCLEAR REPULSION ENERGY   30.17339835


 Eigenvalues of metric

         1 0.106E-02 0.257E-02 0.337E-02 0.640E-02 0.985E-02 0.137E-01 0.146E-01 0.232E-01
         2 0.365E-01 0.545E-01 0.705E-01 0.942E-01 0.132E+00 0.134E+00 0.140E+00 0.142E+00


 Contracted 2-electron integrals neglected if value below      1.0D-22

       46101446. INTEGRALS WRITTEN OUT IN   11258 BLOCKS ON RECORD 1290 OF FILE 1


 NUMBER OF SORTED TWO-ELECTRON INTEGRALS:   55360566.     BUFFER LENGTH:  32768
 NUMBER OF SEGMENTS:   4  SEGMENT LENGTH:   15997996      RECORD LENGTH: 524288

 Memory used in sort:      16.56 MW

 SORT1 READ    46101446. AND WROTE    46538430. INTEGRALS IN    135 RECORDS. CPU TIME:     1.27 SEC, REAL TIME:     1.61 SEC
 SORT2 READ    46538430. AND WROTE    55360566. INTEGRALS IN      4 RECORDS. CPU TIME:     0.72 SEC, REAL TIME:     1.00 SEC

 FILE SIZES:   FILE 1:   758.5 MBYTE,  FILE 4:   566.3 MBYTE,   TOTAL:   1324.8 MBYTE

 OPERATOR DM      FOR CENTER  0  COORDINATES:    0.000000    0.000000    0.000000


 **********************************************************************************************************************************
 DATASETS  * FILE   NREC   LENGTH (MB)   RECORD NAMES
              1      19      420.95       500      610      700      900      950      970     1000      129      960     1100   
                                          VAR    BASINP    GEOM    SYMINP    ZMAT    AOBASIS   BASIS     P2S    ABASIS      S 
                                         1400     1410     1200     1210     1080     1600     1650     1300     1700   
                                           T        V       H0       H01     AOSYM     SMH    MOLCAS    ERIS     OPER   

 PROGRAMS   *        TOTAL       INT
 CPU TIMES  *         5.46      5.37
 REAL TIME  *         7.14 SEC
 DISK USED  *         1.33 GB      
 **********************************************************************************************************************************


 PROGRAM * RHF-SCF (CLOSED SHELL)       Authors: W. Meyer, H.-J. Werner


 NUMBER OF ELECTRONS:       8+    8-
 CONVERGENCE THRESHOLDS:    1.00E-10 (Density)    1.00E-13 (Energy)
 MAX. NUMBER OF ITERATIONS:      500
 INTERPOLATION TYPE:            DIIS
 INTERPOLATION STEPS:              2 (START)      1 (STEP)
 LEVEL SHIFTS:                  0.00 (CLOSED)  0.00 (OPEN) 



 Orbital guess generated from atomic densities. Full valence occupancy:    9   2

 Molecular orbital dump at record        2100.2

 Initial occupancy:   7   1

 ITERATION    DDIFF          GRAD             ENERGY        2-EL.EN.            DIPOLE MOMENTS         DIIS   ORB.
    1      0.000D+00      0.000D+00      -129.78651969    153.712988    0.00000    0.57161   -1.04250    0    start
    2      0.000D+00      0.888D-02      -129.81310953    154.867274    0.00000    0.60345   -0.18985    1    diag
    3      0.369D-02      0.689D-02      -129.83748302    155.008480    0.00000    0.54986   -0.59588    2    diag
    4      0.146D-02      0.105D-02      -129.83828456    154.727457    0.00000    0.55786   -0.53199    3    diag
    5      0.334D-03      0.342D-03      -129.83840839    154.816246    0.00000    0.56386   -0.53422    4    diag
    6      0.154D-03      0.100D-03      -129.83842867    154.800023    0.00000    0.56438   -0.52993    5    diag
    7      0.611D-04      0.508D-04      -129.83843481    154.802469    0.00000    0.56569   -0.52729    6    diag
    8      0.418D-04      0.179D-04      -129.83843552    154.801597    0.00000    0.56574   -0.52631    7    diag
    9      0.152D-04      0.336D-05      -129.83843555    154.801475    0.00000    0.56569   -0.52611    8    diag
   10      0.314D-05      0.750D-06      -129.83843555    154.801461    0.00000    0.56565   -0.52608    9    orth
   11      0.893D-06      0.148D-06      -129.83843555    154.801457    0.00000    0.56564   -0.52608    9    diag
   12      0.209D-06      0.314D-07      -129.83843555    154.801457    0.00000    0.56564   -0.52608    9    diag
   13      0.514D-07      0.849D-08      -129.83843555    154.801456    0.00000    0.56564   -0.52608    9    diag
   14      0.120D-07      0.148D-08      -129.83843555    154.801456    0.00000    0.56564   -0.52608    9    diag
   15      0.143D-08      0.390D-09      -129.83843555    154.801456    0.00000    0.56564   -0.52608    9    diag
   16      0.333D-09      0.111D-09      -129.83843555    154.801456    0.00000    0.56564   -0.52608    9    diag
   17      0.656D-10      0.289D-10      -129.83843555    154.801456    0.00000    0.56564   -0.52608    9    diag
   18      0.185D-10      0.923D-11      -129.83843555    154.801456    0.00000    0.56564   -0.52608    9    diag
   19      0.679D-11      0.210D-11      -129.83843555    154.801456    0.00000    0.56564   -0.52608    9    fixocc
   20      0.138D-11      0.543D-12      -129.83843555    154.801456    0.00000    0.56564   -0.52608    9    orth
   21      0.272D-12      0.439D-12      -129.83843555    154.801456    0.00000    0.56564   -0.52608    9    diag
   22      0.498D-13      0.437D-12      -129.83843555    154.801456    0.00000    0.56564   -0.52608    0    orth

 Final occupancy:   7   1

 !RHF STATE 1.1 Energy               -129.838435552333
 Nuclear energy                        30.17339835
 One-electron energy                 -237.41256201
 Two-electron energy                   77.40072811
 Virial quotient                       -1.00189290
 !RHF STATE 1.1 Dipole moment           0.00000000     0.56563830    -0.52608000
 Dipole moment /Debye                   0.00000000     1.43761500    -1.33707440

 Orbital energies:

         1.1          2.1          3.1          4.1          5.1          6.1          7.1          8.1          9.1
    -20.652070   -15.712186    -1.520776    -0.994882    -0.742442    -0.661579    -0.431656     0.039589     0.192369

         1.2          2.2          3.2
     -0.589962     0.075972     0.239220

 HOMO      7.1    -0.431656 =     -11.7459eV
 LUMO      8.1     0.039589 =       1.0773eV
 LUMO-HOMO         0.471245 =      12.8232eV


 **********************************************************************************************************************************
 DATASETS  * FILE   NREC   LENGTH (MB)   RECORD NAMES
              1      19      420.95       500      610      700      900      950      970     1000      129      960     1100   
                                          VAR    BASINP    GEOM    SYMINP    ZMAT    AOBASIS   BASIS     P2S    ABASIS      S 
                                         1400     1410     1200     1210     1080     1600     1650     1300     1700   
                                           T        V       H0       H01     AOSYM     SMH    MOLCAS    ERIS     OPER   

              2       4        3.13       700     1000      520     2100   
                                         GEOM     BASIS   MCVARS     RHF  

 PROGRAMS   *        TOTAL        HF       INT
 CPU TIMES  *        11.87      6.41      5.37
 REAL TIME  *        15.11 SEC
 DISK USED  *         1.33 GB      
 **********************************************************************************************************************************


 PROGRAM * CCSD (Closed-shell coupled cluster)     Authors: C. Hampel, H.-J. Werner, 1991, M. Deegan, P.J. Knowles, 1992


 Convergence thresholds:  THRVAR = 1.00D-08  THRDEN = 1.00D-12

 CCSD(T)     terms to be evaluated (factor= 1.000)


 Number of closed-shell orbitals:   8 (   7   1 )
 Number of external orbitals:     163 ( 107  56 )

 Molecular orbitals read from record     2100.2  Type=RHF/CANONICAL (state 1.1)

 Number of N-1 electron functions:               8
 Number of N-2 electron functions:              36
 Number of singly external CSFs:               805
 Number of doubly external CSFs:            449165
 Total number of CSFs:                      449971

 Length of J-op  integral file:               0.00 MB
 Length of K-op  integral file:               1.15 MB
 Length of 3-ext integral record:             0.00 MB

 Memory could be reduced to 24.90 Mwords without degradation in triples

 Integral transformation finished. Total CPU:   1.01 sec, npass=  1  Memory used:   6.89 MW

 Reference energy:                   -129.83843555

 MP2 singlet pair energy:              -0.37985011
 MP2 triplet pair energy:              -0.18720320
 MP2 correlation energy:               -0.56705330
 MP2 total energy:                   -130.40548886

 SCS-MP2 correlation energy:           -0.57230212   (PS=  1.200000  PT=  0.333333)
 SCS-MP2 total energy:               -130.41073767

 ITER.      SQ.NORM     CORR.ENERGY   TOTAL ENERGY   ENERGY CHANGE        DEN1      VAR(S)    VAR(P)  DIIS     TIME  TIME/IT
   1      1.12073111    -0.57143936  -130.40987491    -0.00438605     0.01372883  0.35D-02  0.32D-02  1  1     2.17     1.26
   2      1.13184876    -0.57105803  -130.40949358     0.00038133    -0.01396368  0.95D-04  0.51D-03  2  2     3.41     1.29
   3      1.13723776    -0.57139433  -130.40982988    -0.00033630    -0.00239231  0.58D-04  0.71D-04  3  3     4.64     1.30
   4      1.14079224    -0.57138707  -130.40982262     0.00000726    -0.00141873  0.48D-05  0.10D-04  4  4     5.85     1.30
   5      1.14190083    -0.57141249  -130.40984804    -0.00002543    -0.00026196  0.17D-05  0.19D-05  5  5     7.09     1.31
   6      1.14232792    -0.57140598  -130.40984153     0.00000651    -0.00004157  0.14D-06  0.41D-06  6  6     8.28     1.31
   7      1.14241227    -0.57140633  -130.40984188    -0.00000035     0.00000097  0.20D-07  0.96D-07  6  1     9.54     1.31
   8      1.14244655    -0.57140447  -130.40984002     0.00000186    -0.00000491  0.40D-08  0.15D-07  6  2    10.76     1.31
   9      1.14245126    -0.57140454  -130.40984010    -0.00000007     0.00000127  0.18D-08  0.19D-08  6  3    11.97     1.31
  10      1.14245305    -0.57140485  -130.40984040    -0.00000031    -0.00000072  0.43D-09  0.27D-09  6  4    13.19     1.31
  11      1.14245208    -0.57140499  -130.40984054    -0.00000014     0.00000035  0.11D-09  0.28D-10  6  5    14.36     1.31
  12      1.14245120    -0.57140513  -130.40984068    -0.00000014     0.00000035  0.11D-10  0.69D-11  6  6    15.58     1.31
  13      1.14245066    -0.57140514  -130.40984069    -0.00000001     0.00000011  0.44D-11  0.12D-11  6  1    16.80     1.31
  14      1.14245022    -0.57140517  -130.40984072    -0.00000003     0.00000011  0.45D-12  0.42D-12  6  3    18.01     1.31
  15      1.14245004    -0.57140517  -130.40984072    -0.00000000     0.00000002  0.11D-12  0.30D-13  6  2    19.23     1.31
  16      1.14244998    -0.57140517  -130.40984072    -0.00000000     0.00000001  0.25D-13  0.63D-14  6  4    20.46     1.31
  17      1.14244996    -0.57140517  -130.40984072    -0.00000000     0.00000001  0.46D-14  0.12D-14  6  5    21.67     1.31
  18      1.14244996    -0.57140517  -130.40984073    -0.00000000     0.00000000  0.51D-15  0.31D-15  6  6    22.91     1.31
  19      1.14244996    -0.57140517  -130.40984073     0.00000000    -0.00000000  0.64D-16  0.47D-16  6  1    24.13     1.31
  20      1.14244996    -0.57140517  -130.40984072     0.00000000    -0.00000000  0.27D-17  0.11D-16  6  3    25.34     1.31
  21      1.14244996    -0.57140517  -130.40984072     0.00000000    -0.00000000  0.14D-17  0.27D-17  6  2    26.57     1.32
  22      1.14244996    -0.57140517  -130.40984072     0.00000000    -0.00000000  0.31D-18  0.96D-18  6  4    27.75     1.32
  23      1.14244996    -0.57140517  -130.40984072    -0.00000000     0.00000000  0.16D-18  0.14D-18  6  5    28.99     1.32
  24      1.14244996    -0.57140517  -130.40984072     0.00000000    -0.00000000  0.63D-20  0.17D-19  6  1    30.21     1.32
  25      1.14244996    -0.57140517  -130.40984072     0.00000000     0.00000000  0.41D-21  0.16D-20  6  6    31.43     1.32
  26      1.14244996    -0.57140517  -130.40984072    -0.00000000     0.00000000  0.17D-21  0.22D-21  6  1    32.64     1.32

 Norm of t1 vector:      0.07909430      S-energy:     0.00000000      T1 diagnostic:  0.01398203
                                                                       D1 diagnostic:  0.04521576

 Doubles amplitudes (print threshold =  0.500E-01):

         I         J         SYM. A    SYM. B    A         B      T(IJ, AB)

         8         8         2         2         1         1     -0.13735135


 Total CPU time for triples:     15.03 sec


 RESULTS
 =======

  Reference energy                   -129.838435552333

  Correlated core orbitals:             1.1       2.1
  Orbital energies:                   -20.6521  -15.7122
 
  CCSD core-core energy                -0.079237243450
  CCSD core-valence energy             -0.036018346408
  CCSD valence correlation energy      -0.456149582623
 
  CCSD singlet pair energy             -0.408842811196
  CCSD triplet pair energy             -0.162562361284
  CCSD correlation energy              -0.571405172481

  Triples (T) contribution             -0.022573205610
  Total correlation energy             -0.593978378090

  CCSD total energy                  -130.409840724814
  CCSD[T] energy                     -130.433626444351
  CCSD-T energy                      -130.431962695952
 !CCSD(T) total energy               -130.432413930424

 Timing summary (sec):

 STEP                 CPU(USER)    SYS     CPU(TOT)    WALL
 Transformation          1.03      0.20      1.23      1.24
 CCSD iterations        31.62      2.63     34.25     34.25
 Triples                15.03      0.47     15.50     15.51

 Program statistics:

 Available memory in ccsd:               994999644
 Min. memory needed in ccsd:               1368037
 Max. memory used in ccsd:                 1750502
 Max. memory used in cckext:               2014357 (26 integral passes)



 **********************************************************************************************************************************
 DATASETS  * FILE   NREC   LENGTH (MB)   RECORD NAMES
              1      20      499.86       500      610      700      900      950      970     1000      129      960     1100   
                                          VAR    BASINP    GEOM    SYMINP    ZMAT    AOBASIS   BASIS     P2S    ABASIS      S 
                                         1400     1410     1200     1210     1080     1600     1650     1300     1700     1380   
                                           T        V       H0       H01     AOSYM     SMH    MOLCAS    ERIS     OPER     JKOP   

              2       4        3.13       700     1000      520     2100   
                                         GEOM     BASIS   MCVARS     RHF  

 PROGRAMS   *        TOTAL   CCSD(T)        HF       INT
 CPU TIMES  *        59.57     47.70      6.41      5.37
 REAL TIME  *        66.15 SEC
 DISK USED  *         1.33 GB      
 **********************************************************************************************************************************

 CCSD(T)/USERDEF energy=   -130.432413930424

        CCSD(T)         HF-SCF  
   -130.43241393   -129.83843555
 **********************************************************************************************************************************
 Molpro calculation terminated
 Variable memory released
