
 Primary working directories    : /tmp/r2666/235482.maple
 Secondary working directories  : /tmp/r2666/235482.maple
 Wavefunction directory         : /ddn/home4/r2666/wfu/
 Main file repository           : /tmp/r2666/235482.maple/

 SHA1      : d5ffa45e93fdbca01ffc919aa182cfdae0147319
 NAME      : 2015.1.35
 ARCHNAME  : linux/x86_64
 FC        : /opt/intel/composer_xe_2015.1.133/bin/intel64/ifort
 BLASLIB   : -Wl,-_start-group /opt/intel/mkl/lib/intel64/libmkl_intel_ilp64.a /opt/intel/mkl/lib/intel64/libmkl_intel_thread.a /opt/intel/mkl/lib/intel64/libmkl_core.a -Wl,-_end-group
 id        : olemiss

 Nodes     nprocs
 cn037        1

 Using customized tuning parameters: mindgm=1; mindgv=20; mindgc=4; mindgr=1; noblas=0; minvec=7
 default implementation of scratch files=df  

 ***,hno CCSD(T)/TZ-F12 QFF
 memory, 995, m;
 gthresh,energy=1.d-12,zero=1.d-22,oneint=1.d-22,twoint=1.d-22;
 gthresh,optgrad=1.d-8,optstep=1.d-8;
 nocompress;
 geomtyp=xyz
 bohr
 geometry={
 3
         79        79
 N        0.0000000000       -0.1587603528       -1.1525155113
 H        0.0000000000        1.6683945186       -1.9360160507
 O        0.0000000000        0.0321336241        1.1379419710
 }
 
 basis={
 default=aug-cc-pvtz
 s,C,8236.0,1235.0,280.8, 79.27,25.59, 8.997,3.319
 s,C,0.9059,0.3643,0.1285000
 p,C,56.0,18.71,4.133,0.2827,0.3827,0.1209
 d,C,30.0,10.0,3.3,1.097,0.318
 f,C,7.0,2.3,0.7610
 s,N,11420.0,1712.0,389.3,110.0,35.57,12.54,4.644
 s,N,1.293,0.5118,0.1787
 p,N,79.89,26.63,5.948,1.742,0.555,0.1725
 d,N,45.0,15.0,5.0,1.654,0.469
 f,N,9.9,3.3,1.093
 s,O,15330.0,2299.0,522.4,147.3,47.55,16.76,6.207
 s,O,1.752,0.6882,0.2384
 p,O,103.5,34.46,7.749,2.28,0.7156,0.214
 d,O,63.0,21.0,7.0,2.314,0.645
 f,O,12.9,4.3,1.428
 s,mg,164900.0,24710.0,5628.0,1596.0,521.0;
 s,mg,188.0,73.01,29.90,12.54,4.306,1.826;
 s,mg,0.7417,0.0761,0.145,0.033,0.0129;
 p,mg,950.70,316.90,74.86,23.72,8.669,3.363;
 p,mg,1.310,0.4911,0.2364,0.08733,0.03237,0.00745;
 d,mg,1.601,0.686,0.126,0.294,0.0468;
 f,mg,1.372,0.588,0.094,0.252;
 }
   {hf,maxit=500;accu,20;}
 {ccsd(t),nocheck,maxit=250;orbital,IGNORE_ERROR;core}

 Variables initialized (889), CPU time= 0.00 sec
 Commands  initialized (702), CPU time= 0.01 sec, 572 directives.
 Default parameters read. Elapsed time= 0.08 sec

 Checking input...
 Passed
1


                                         ***  PROGRAM SYSTEM MOLPRO  ***
                                       Copyright, TTI GmbH Stuttgart, 2015
                                    Version 2015.1 linked Jul  9 2018 13:16:40


 **********************************************************************************************************************************
 LABEL *   hno CCSD(T)/TZ-F12 QFF                                                        
  64 bit serial version                                                                  DATE: 08-Feb-20          TIME: 18:00:19  
 **********************************************************************************************************************************

 SHA1:             d5ffa45e93fdbca01ffc919aa182cfdae0147319
 **********************************************************************************************************************************

 THRESHOLDS:

 ZERO    =  1.00D-22  ONEINT  =  1.00D-22  TWOINT  =  1.00D-22  PREFAC  =  1.00D-14  LOCALI  =  1.00D-09  EORDER  =  1.00D-04
 ENERGY  =  1.00D-12  ETEST   =  0.00D+00  EDENS   =  0.00D+00  THRDEDEF=  1.00D-06  GRADIENT=  1.00D-02  STEP    =  1.00D-03
 ORBITAL =  1.00D-05  CIVEC   =  1.00D-05  COEFF   =  1.00D-04  PRINTCI =  5.00D-02  PUNCHCI =  9.90D+01  OPTGRAD =  3.00D-04
 OPTENERG=  1.00D-06  OPTSTEP =  3.00D-04  THRGRAD =  1.00D-10  COMPRESS=  1.00D-11  VARMIN  =  1.00D-07  VARMAX  =  1.00D-03
 THRDOUB =  0.00D+00  THRDIV  =  1.00D-05  THRRED  =  1.00D-07  THRPSP  =  1.00D+00  THRDC   =  1.00D-10  THRCS   =  1.00D-10
 THRNRM  =  1.00D-08  THREQ   =  0.00D+00  THRDE   =  1.00D+00  THRREF  =  1.00D-05  SPARFAC =  1.00D+00  THRDLP  =  1.00D-07
 THRDIA  =  1.00D-10  THRDLS  =  1.00D-07  THRGPS  =  0.00D+00  THRKEX  =  0.00D+00  THRDIS  =  2.00D-01  THRVAR  =  1.00D-10
 THRLOC  =  1.00D-06  THRGAP  =  1.00D-06  THRLOCT = -1.00D+00  THRGAPT = -1.00D+00  THRORB  =  1.00D-06  THRMLTP =  0.00D+00
 THRCPQCI=  1.00D-10  KEXTA   =  0.00D+00  THRCOARS=  0.00D+00  SYMTOL  =  1.00D-06  GRADTOL =  1.00D-06  THROVL  =  1.00D-08
 THRORTH =  1.00D-08  GRID    =  1.00D-06  GRIDMAX =  1.00D-03  DTMAX   =  0.00D+00  THROCCDE=  1.00D-01  THROCCDE=  1.00D-01



 THRESHOLDS:

 ZERO    =  1.00D-22  ONEINT  =  1.00D-22  TWOINT  =  1.00D-22  PREFAC  =  1.00D-14  LOCALI  =  1.00D-09  EORDER  =  1.00D-04
 ENERGY  =  1.00D-12  ETEST   =  0.00D+00  EDENS   =  0.00D+00  THRDEDEF=  1.00D-06  GRADIENT=  1.00D-02  STEP    =  1.00D-03
 ORBITAL =  1.00D-05  CIVEC   =  1.00D-05  COEFF   =  1.00D-04  PRINTCI =  5.00D-02  PUNCHCI =  9.90D+01  OPTGRAD =  1.00D-08
 OPTENERG=  1.00D-06  OPTSTEP =  1.00D-08  THRGRAD =  1.00D-10  COMPRESS=  1.00D-11  VARMIN  =  1.00D-07  VARMAX  =  1.00D-03
 THRDOUB =  0.00D+00  THRDIV  =  1.00D-05  THRRED  =  1.00D-07  THRPSP  =  1.00D+00  THRDC   =  1.00D-10  THRCS   =  1.00D-10
 THRNRM  =  1.00D-08  THREQ   =  0.00D+00  THRDE   =  1.00D+00  THRREF  =  1.00D-05  SPARFAC =  1.00D+00  THRDLP  =  1.00D-07
 THRDIA  =  1.00D-10  THRDLS  =  1.00D-07  THRGPS  =  0.00D+00  THRKEX  =  0.00D+00  THRDIS  =  2.00D-01  THRVAR  =  1.00D-10
 THRLOC  =  1.00D-06  THRGAP  =  1.00D-06  THRLOCT = -1.00D+00  THRGAPT = -1.00D+00  THRORB  =  1.00D-06  THRMLTP =  0.00D+00
 THRCPQCI=  1.00D-10  KEXTA   =  0.00D+00  THRCOARS=  0.00D+00  SYMTOL  =  1.00D-06  GRADTOL =  1.00D-06  THROVL  =  1.00D-08
 THRORTH =  1.00D-08  GRID    =  1.00D-06  GRIDMAX =  1.00D-03  DTMAX   =  0.00D+00  THROCCDE=  1.00D-01  THROCCDE=  1.00D-01



 Input parameters for SORTINT:

 COMPRESS =    0.000000
 C_FINAL  =    1.000000
 DEBUG    =   -1.000000
 C_SORT1  =    0.000000
 C_SEWARD =    0.000000
 THRESH   =    0.000000
 IO       =  molpro                                                          
 SPRI     =    0.000000
 SETTING GEOMTYP        =    XYZ
 ZUNIT=BOHR
 

 Variable memory set to  995000000 words,  buffer space   230000 words

 SETTING BASIS          =    USERDEF


 Recomputing integrals since basis changed


 Using spherical harmonics

 Library entry H      S aug-cc-pVTZ          selected for orbital group  2
 Library entry H      P aug-cc-pVTZ          selected for orbital group  2
 Library entry H      D aug-cc-pVTZ          selected for orbital group  2


 PROGRAM * SEWARD (Integral evaluation for generally contracted gaussian basis sets)     Author: Roland Lindh, 1990

 Geometry written to block  1 of record 700


 Point group  Cs  



 ATOMIC COORDINATES

 NR  ATOM    CHARGE       X              Y              Z

   1  N       7.00    0.000000000   -0.158760353   -1.152515511
   2  H       1.00    0.000000000    1.668394519   -1.936016051
   3  O       8.00    0.000000000    0.032133624    1.137941971

 Bond lengths in Bohr (Angstrom)

 1-2  1.988056342  1-3  2.298398570
     ( 1.052034110)     ( 1.216260145)

 Bond angles

  2-1-3  108.44589032

 NUCLEAR CHARGE:                   16
 NUMBER OF PRIMITIVE AOS:         203
 NUMBER OF SYMMETRY AOS:          173
 NUMBER OF CONTRACTIONS:          171   ( 114A'  +  57A"  )
 NUMBER OF CORE ORBITALS:           2   (   2A'  +   0A"  )
 NUMBER OF VALENCE ORBITALS:        9   (   7A'  +   2A"  )


 NUCLEAR REPULSION ENERGY   30.18313522


 Eigenvalues of metric

         1 0.105E-02 0.256E-02 0.337E-02 0.640E-02 0.985E-02 0.137E-01 0.145E-01 0.232E-01
         2 0.364E-01 0.543E-01 0.703E-01 0.943E-01 0.131E+00 0.134E+00 0.140E+00 0.142E+00


 Contracted 2-electron integrals neglected if value below      1.0D-22

       46104554. INTEGRALS WRITTEN OUT IN   11259 BLOCKS ON RECORD 1290 OF FILE 1


 NUMBER OF SORTED TWO-ELECTRON INTEGRALS:   55360566.     BUFFER LENGTH:  32768
 NUMBER OF SEGMENTS:   4  SEGMENT LENGTH:   15997996      RECORD LENGTH: 524288

 Memory used in sort:      16.56 MW

 SORT1 READ    46104554. AND WROTE    46541540. INTEGRALS IN    135 RECORDS. CPU TIME:     1.29 SEC, REAL TIME:     1.62 SEC
 SORT2 READ    46541540. AND WROTE    55360566. INTEGRALS IN      4 RECORDS. CPU TIME:     0.74 SEC, REAL TIME:     1.01 SEC

 FILE SIZES:   FILE 1:   758.6 MBYTE,  FILE 4:   566.3 MBYTE,   TOTAL:   1324.9 MBYTE

 OPERATOR DM      FOR CENTER  0  COORDINATES:    0.000000    0.000000    0.000000


 **********************************************************************************************************************************
 DATASETS  * FILE   NREC   LENGTH (MB)   RECORD NAMES
              1      19      420.97       500      610      700      900      950      970     1000      129      960     1100   
                                          VAR    BASINP    GEOM    SYMINP    ZMAT    AOBASIS   BASIS     P2S    ABASIS      S 
                                         1400     1410     1200     1210     1080     1600     1650     1300     1700   
                                           T        V       H0       H01     AOSYM     SMH    MOLCAS    ERIS     OPER   

 PROGRAMS   *        TOTAL       INT
 CPU TIMES  *         5.60      5.50
 REAL TIME  *         7.41 SEC
 DISK USED  *         1.33 GB      
 **********************************************************************************************************************************


 PROGRAM * RHF-SCF (CLOSED SHELL)       Authors: W. Meyer, H.-J. Werner


 NUMBER OF ELECTRONS:       8+    8-
 CONVERGENCE THRESHOLDS:    1.00E-10 (Density)    1.00E-13 (Energy)
 MAX. NUMBER OF ITERATIONS:      500
 INTERPOLATION TYPE:            DIIS
 INTERPOLATION STEPS:              2 (START)      1 (STEP)
 LEVEL SHIFTS:                  0.00 (CLOSED)  0.00 (OPEN) 



 Orbital guess generated from atomic densities. Full valence occupancy:    9   2

 Molecular orbital dump at record        2100.2

 Initial occupancy:   7   1

 ITERATION    DDIFF          GRAD             ENERGY        2-EL.EN.            DIPOLE MOMENTS         DIIS   ORB.
    1      0.000D+00      0.000D+00      -129.78680252    153.728263    0.00000    0.57564   -1.04108    0    start
    2      0.000D+00      0.886D-02      -129.81341422    154.886525    0.00000    0.60270   -0.19245    1    diag
    3      0.369D-02      0.686D-02      -129.83759865    155.025468    0.00000    0.55150   -0.59668    2    diag
    4      0.145D-02      0.105D-02      -129.83839990    154.744793    0.00000    0.55928   -0.53279    3    diag
    5      0.335D-03      0.341D-03      -129.83852325    154.833652    0.00000    0.56533   -0.53507    4    diag
    6      0.154D-03      0.100D-03      -129.83854342    154.817453    0.00000    0.56586   -0.53080    5    diag
    7      0.611D-04      0.506D-04      -129.83854950    154.819906    0.00000    0.56717   -0.52817    6    diag
    8      0.417D-04      0.178D-04      -129.83855020    154.819042    0.00000    0.56722   -0.52720    7    diag
    9      0.151D-04      0.335D-05      -129.83855023    154.818921    0.00000    0.56717   -0.52700    8    diag
   10      0.312D-05      0.751D-06      -129.83855024    154.818906    0.00000    0.56713   -0.52698    9    orth
   11      0.894D-06      0.148D-06      -129.83855024    154.818902    0.00000    0.56712   -0.52697    9    diag
   12      0.209D-06      0.313D-07      -129.83855024    154.818901    0.00000    0.56712   -0.52697    9    diag
   13      0.512D-07      0.844D-08      -129.83855024    154.818901    0.00000    0.56712   -0.52697    9    diag
   14      0.120D-07      0.148D-08      -129.83855024    154.818901    0.00000    0.56712   -0.52697    9    diag
   15      0.143D-08      0.389D-09      -129.83855024    154.818901    0.00000    0.56712   -0.52697    9    diag
   16      0.333D-09      0.111D-09      -129.83855024    154.818901    0.00000    0.56712   -0.52697    9    diag
   17      0.656D-10      0.288D-10      -129.83855024    154.818901    0.00000    0.56712   -0.52697    9    diag
   18      0.187D-10      0.920D-11      -129.83855024    154.818901    0.00000    0.56712   -0.52697    9    diag
   19      0.687D-11      0.198D-11      -129.83855024    154.818901    0.00000    0.56712   -0.52697    0    orth

 Final occupancy:   7   1

 !RHF STATE 1.1 Energy               -129.838550235814
 Nuclear energy                        30.18313522
 One-electron energy                 -237.43113597
 Two-electron energy                   77.40945051
 Virial quotient                       -1.00188374
 !RHF STATE 1.1 Dipole moment           0.00000000     0.56712042    -0.52697069
 Dipole moment /Debye                   0.00000000     1.44138192    -1.33933817

 Orbital energies:

         1.1          2.1          3.1          4.1          5.1          6.1          7.1          8.1          9.1
    -20.652110   -15.711956    -1.521163    -0.994992    -0.742662    -0.661888    -0.431080     0.039550     0.192359

         1.2          2.2          3.2
     -0.590267     0.076136     0.239289

 HOMO      7.1    -0.431080 =     -11.7303eV
 LUMO      8.1     0.039550 =       1.0762eV
 LUMO-HOMO         0.470629 =      12.8065eV


 **********************************************************************************************************************************
 DATASETS  * FILE   NREC   LENGTH (MB)   RECORD NAMES
              1      19      420.97       500      610      700      900      950      970     1000      129      960     1100   
                                          VAR    BASINP    GEOM    SYMINP    ZMAT    AOBASIS   BASIS     P2S    ABASIS      S 
                                         1400     1410     1200     1210     1080     1600     1650     1300     1700   
                                           T        V       H0       H01     AOSYM     SMH    MOLCAS    ERIS     OPER   

              2       4        3.13       700     1000      520     2100   
                                         GEOM     BASIS   MCVARS     RHF  

 PROGRAMS   *        TOTAL        HF       INT
 CPU TIMES  *        11.17      5.57      5.50
 REAL TIME  *        14.40 SEC
 DISK USED  *         1.33 GB      
 **********************************************************************************************************************************


 PROGRAM * CCSD (Closed-shell coupled cluster)     Authors: C. Hampel, H.-J. Werner, 1991, M. Deegan, P.J. Knowles, 1992


 Convergence thresholds:  THRVAR = 1.00D-08  THRDEN = 1.00D-12

 CCSD(T)     terms to be evaluated (factor= 1.000)


 Number of closed-shell orbitals:   8 (   7   1 )
 Number of external orbitals:     163 ( 107  56 )

 Molecular orbitals read from record     2100.2  Type=RHF/CANONICAL (state 1.1)

 Number of N-1 electron functions:               8
 Number of N-2 electron functions:              36
 Number of singly external CSFs:               805
 Number of doubly external CSFs:            449165
 Total number of CSFs:                      449971

 Length of J-op  integral file:               0.00 MB
 Length of K-op  integral file:               1.15 MB
 Length of 3-ext integral record:             0.00 MB

 Memory could be reduced to 24.90 Mwords without degradation in triples

 Integral transformation finished. Total CPU:   1.09 sec, npass=  1  Memory used:   6.89 MW

 Reference energy:                   -129.83855024

 MP2 singlet pair energy:              -0.37976750
 MP2 triplet pair energy:              -0.18715168
 MP2 correlation energy:               -0.56691918
 MP2 total energy:                   -130.40546942

 SCS-MP2 correlation energy:           -0.57217094   (PS=  1.200000  PT=  0.333333)
 SCS-MP2 total energy:               -130.41072117

 ITER.      SQ.NORM     CORR.ENERGY   TOTAL ENERGY   ENERGY CHANGE        DEN1      VAR(S)    VAR(P)  DIIS     TIME  TIME/IT
   1      1.12065677    -0.57133708  -130.40988731    -0.00441790     0.01367021  0.35D-02  0.32D-02  1  1     2.30     1.26
   2      1.13176109    -0.57096164  -130.40951187     0.00037544    -0.01394654  0.95D-04  0.51D-03  2  2     3.55     1.30
   3      1.13714553    -0.57129806  -130.40984830    -0.00033643    -0.00238989  0.58D-04  0.71D-04  3  3     4.73     1.31
   4      1.14069639    -0.57129061  -130.40984084     0.00000746    -0.00141721  0.48D-05  0.10D-04  4  4     5.98     1.32
   5      1.14180581    -0.57131599  -130.40986623    -0.00002539    -0.00026186  0.17D-05  0.19D-05  5  5     7.25     1.32
   6      1.14223446    -0.57130948  -130.40985972     0.00000651    -0.00004169  0.14D-06  0.42D-06  6  6     8.49     1.33
   7      1.14231965    -0.57130983  -130.40986007    -0.00000035     0.00000089  0.20D-07  0.97D-07  6  1     9.72     1.33
   8      1.14235422    -0.57130799  -130.40985822     0.00000185    -0.00000493  0.41D-08  0.15D-07  6  2    10.97     1.33
   9      1.14235904    -0.57130806  -130.40985829    -0.00000007     0.00000125  0.18D-08  0.19D-08  6  3    12.23     1.33
  10      1.14236083    -0.57130836  -130.40985860    -0.00000031    -0.00000072  0.43D-09  0.28D-09  6  4    13.46     1.33
  11      1.14235985    -0.57130851  -130.40985874    -0.00000014     0.00000035  0.11D-09  0.29D-10  6  5    14.69     1.33
  12      1.14235896    -0.57130865  -130.40985889    -0.00000014     0.00000035  0.11D-10  0.71D-11  6  6    15.93     1.34
  13      1.14235841    -0.57130866  -130.40985890    -0.00000001     0.00000011  0.46D-11  0.13D-11  6  1    17.16     1.34
  14      1.14235796    -0.57130869  -130.40985892    -0.00000003     0.00000011  0.46D-12  0.43D-12  6  3    18.39     1.34
  15      1.14235778    -0.57130869  -130.40985892    -0.00000000     0.00000002  0.12D-12  0.30D-13  6  2    19.65     1.34
  16      1.14235772    -0.57130869  -130.40985893    -0.00000000     0.00000001  0.25D-13  0.65D-14  6  4    20.90     1.34
  17      1.14235770    -0.57130869  -130.40985893    -0.00000000     0.00000001  0.47D-14  0.12D-14  6  5    22.14     1.34
  18      1.14235770    -0.57130869  -130.40985893    -0.00000000     0.00000000  0.51D-15  0.31D-15  6  6    23.39     1.34
  19      1.14235770    -0.57130869  -130.40985893     0.00000000    -0.00000000  0.65D-16  0.46D-16  6  1    24.61     1.34
  20      1.14235770    -0.57130869  -130.40985893     0.00000000    -0.00000000  0.27D-17  0.10D-16  6  3    25.83     1.34
  21      1.14235770    -0.57130869  -130.40985893     0.00000000    -0.00000000  0.14D-17  0.26D-17  6  2    27.08     1.34
  22      1.14235770    -0.57130869  -130.40985893     0.00000000    -0.00000000  0.31D-18  0.95D-18  6  4    28.32     1.34
  23      1.14235770    -0.57130869  -130.40985893    -0.00000000     0.00000000  0.17D-18  0.14D-18  6  5    29.59     1.34
  24      1.14235770    -0.57130869  -130.40985893     0.00000000    -0.00000000  0.63D-20  0.17D-19  6  1    30.84     1.34
  25      1.14235770    -0.57130869  -130.40985893     0.00000000     0.00000000  0.40D-21  0.16D-20  6  6    32.08     1.34
  26      1.14235770    -0.57130869  -130.40985893    -0.00000000     0.00000000  0.18D-21  0.22D-21  6  1    33.30     1.34

 Norm of t1 vector:      0.07910482      S-energy:     0.00000000      T1 diagnostic:  0.01398389
                                                                       D1 diagnostic:  0.04515882

 Doubles amplitudes (print threshold =  0.500E-01):

         I         J         SYM. A    SYM. B    A         B      T(IJ, AB)

         8         8         2         2         1         1     -0.13704280


 Total CPU time for triples:     15.62 sec


 RESULTS
 =======

  Reference energy                   -129.838550235814

  Correlated core orbitals:             1.1       2.1
  Orbital energies:                   -20.6521  -15.7120
 
  CCSD core-core energy                -0.079237414291
  CCSD core-valence energy             -0.036023075377
  CCSD valence correlation energy      -0.456048202760
 
  CCSD singlet pair energy             -0.408756891178
  CCSD triplet pair energy             -0.162551801251
  CCSD correlation energy              -0.571308692428

  Triples (T) contribution             -0.022552167786
  Total correlation energy             -0.593860860214

  CCSD total energy                  -130.409858928242
  CCSD[T] energy                     -130.433622427789
  CCSD-T energy                      -130.431960213324
 !CCSD(T) total energy               -130.432411096028

 Timing summary (sec):

 STEP                 CPU(USER)    SYS     CPU(TOT)    WALL
 Transformation          1.11      0.17      1.28      1.28
 CCSD iterations        32.19      2.69     34.88     34.88
 Triples                15.62      0.50     16.12     16.12

 Program statistics:

 Available memory in ccsd:               994999644
 Min. memory needed in ccsd:               1368037
 Max. memory used in ccsd:                 1750502
 Max. memory used in cckext:               2014357 (26 integral passes)



 **********************************************************************************************************************************
 DATASETS  * FILE   NREC   LENGTH (MB)   RECORD NAMES
              1      20      499.88       500      610      700      900      950      970     1000      129      960     1100   
                                          VAR    BASINP    GEOM    SYMINP    ZMAT    AOBASIS   BASIS     P2S    ABASIS      S 
                                         1400     1410     1200     1210     1080     1600     1650     1300     1700     1380   
                                           T        V       H0       H01     AOSYM     SMH    MOLCAS    ERIS     OPER     JKOP   

              2       4        3.13       700     1000      520     2100   
                                         GEOM     BASIS   MCVARS     RHF  

 PROGRAMS   *        TOTAL   CCSD(T)        HF       INT
 CPU TIMES  *        60.12     48.95      5.57      5.50
 REAL TIME  *        66.73 SEC
 DISK USED  *         1.33 GB      
 **********************************************************************************************************************************

 CCSD(T)/USERDEF energy=   -130.432411096028

        CCSD(T)         HF-SCF  
   -130.43241110   -129.83855024
 **********************************************************************************************************************************
 Molpro calculation terminated
 Variable memory released
