
 Primary working directories    : /tmp/r2666/235427.maple
 Secondary working directories  : /tmp/r2666/235427.maple
 Wavefunction directory         : /ddn/home4/r2666/wfu/
 Main file repository           : /tmp/r2666/235427.maple/

 SHA1      : d5ffa45e93fdbca01ffc919aa182cfdae0147319
 NAME      : 2015.1.35
 ARCHNAME  : linux/x86_64
 FC        : /opt/intel/composer_xe_2015.1.133/bin/intel64/ifort
 BLASLIB   : -Wl,-_start-group /opt/intel/mkl/lib/intel64/libmkl_intel_ilp64.a /opt/intel/mkl/lib/intel64/libmkl_intel_thread.a /opt/intel/mkl/lib/intel64/libmkl_core.a -Wl,-_end-group
 id        : olemiss

 Nodes     nprocs
 cn036        1

 Using customized tuning parameters: mindgm=1; mindgv=20; mindgc=4; mindgr=1; noblas=0; minvec=7
 default implementation of scratch files=df  

 ***,hno CCSD(T)/TZ-F12 QFF
 memory, 995, m;
 gthresh,energy=1.d-12,zero=1.d-22,oneint=1.d-22,twoint=1.d-22;
 gthresh,optgrad=1.d-8,optstep=1.d-8;
 nocompress;
 geomtyp=xyz
 bohr
 geometry={
 3
         24        24
 N        0.0000000000       -0.1611503661       -1.1503833361
 H        0.0000000000        1.6616963689       -1.9198755448
 O        0.0000000000        0.0412217872        1.1196692899
 }
 
 basis={
 default=aug-cc-pvtz
 s,C,8236.0,1235.0,280.8, 79.27,25.59, 8.997,3.319
 s,C,0.9059,0.3643,0.1285000
 p,C,56.0,18.71,4.133,0.2827,0.3827,0.1209
 d,C,30.0,10.0,3.3,1.097,0.318
 f,C,7.0,2.3,0.7610
 s,N,11420.0,1712.0,389.3,110.0,35.57,12.54,4.644
 s,N,1.293,0.5118,0.1787
 p,N,79.89,26.63,5.948,1.742,0.555,0.1725
 d,N,45.0,15.0,5.0,1.654,0.469
 f,N,9.9,3.3,1.093
 s,O,15330.0,2299.0,522.4,147.3,47.55,16.76,6.207
 s,O,1.752,0.6882,0.2384
 p,O,103.5,34.46,7.749,2.28,0.7156,0.214
 d,O,63.0,21.0,7.0,2.314,0.645
 f,O,12.9,4.3,1.428
 s,mg,164900.0,24710.0,5628.0,1596.0,521.0;
 s,mg,188.0,73.01,29.90,12.54,4.306,1.826;
 s,mg,0.7417,0.0761,0.145,0.033,0.0129;
 p,mg,950.70,316.90,74.86,23.72,8.669,3.363;
 p,mg,1.310,0.4911,0.2364,0.08733,0.03237,0.00745;
 d,mg,1.601,0.686,0.126,0.294,0.0468;
 f,mg,1.372,0.588,0.094,0.252;
 }
   {hf,maxit=500;accu,20;}
 {ccsd(t),nocheck,maxit=250;orbital,IGNORE_ERROR;core}

 Variables initialized (889), CPU time= 0.00 sec
 Commands  initialized (702), CPU time= 0.01 sec, 572 directives.
 Default parameters read. Elapsed time= 0.04 sec

 Checking input...
 Passed
1


                                         ***  PROGRAM SYSTEM MOLPRO  ***
                                       Copyright, TTI GmbH Stuttgart, 2015
                                    Version 2015.1 linked Jul  9 2018 13:16:40


 **********************************************************************************************************************************
 LABEL *   hno CCSD(T)/TZ-F12 QFF                                                        
  64 bit serial version                                                                  DATE: 08-Feb-20          TIME: 17:59:11  
 **********************************************************************************************************************************

 SHA1:             d5ffa45e93fdbca01ffc919aa182cfdae0147319
 **********************************************************************************************************************************

 THRESHOLDS:

 ZERO    =  1.00D-22  ONEINT  =  1.00D-22  TWOINT  =  1.00D-22  PREFAC  =  1.00D-14  LOCALI  =  1.00D-09  EORDER  =  1.00D-04
 ENERGY  =  1.00D-12  ETEST   =  0.00D+00  EDENS   =  0.00D+00  THRDEDEF=  1.00D-06  GRADIENT=  1.00D-02  STEP    =  1.00D-03
 ORBITAL =  1.00D-05  CIVEC   =  1.00D-05  COEFF   =  1.00D-04  PRINTCI =  5.00D-02  PUNCHCI =  9.90D+01  OPTGRAD =  3.00D-04
 OPTENERG=  1.00D-06  OPTSTEP =  3.00D-04  THRGRAD =  1.00D-10  COMPRESS=  1.00D-11  VARMIN  =  1.00D-07  VARMAX  =  1.00D-03
 THRDOUB =  0.00D+00  THRDIV  =  1.00D-05  THRRED  =  1.00D-07  THRPSP  =  1.00D+00  THRDC   =  1.00D-10  THRCS   =  1.00D-10
 THRNRM  =  1.00D-08  THREQ   =  0.00D+00  THRDE   =  1.00D+00  THRREF  =  1.00D-05  SPARFAC =  1.00D+00  THRDLP  =  1.00D-07
 THRDIA  =  1.00D-10  THRDLS  =  1.00D-07  THRGPS  =  0.00D+00  THRKEX  =  0.00D+00  THRDIS  =  2.00D-01  THRVAR  =  1.00D-10
 THRLOC  =  1.00D-06  THRGAP  =  1.00D-06  THRLOCT = -1.00D+00  THRGAPT = -1.00D+00  THRORB  =  1.00D-06  THRMLTP =  0.00D+00
 THRCPQCI=  1.00D-10  KEXTA   =  0.00D+00  THRCOARS=  0.00D+00  SYMTOL  =  1.00D-06  GRADTOL =  1.00D-06  THROVL  =  1.00D-08
 THRORTH =  1.00D-08  GRID    =  1.00D-06  GRIDMAX =  1.00D-03  DTMAX   =  0.00D+00  THROCCDE=  1.00D-01  THROCCDE=  1.00D-01



 THRESHOLDS:

 ZERO    =  1.00D-22  ONEINT  =  1.00D-22  TWOINT  =  1.00D-22  PREFAC  =  1.00D-14  LOCALI  =  1.00D-09  EORDER  =  1.00D-04
 ENERGY  =  1.00D-12  ETEST   =  0.00D+00  EDENS   =  0.00D+00  THRDEDEF=  1.00D-06  GRADIENT=  1.00D-02  STEP    =  1.00D-03
 ORBITAL =  1.00D-05  CIVEC   =  1.00D-05  COEFF   =  1.00D-04  PRINTCI =  5.00D-02  PUNCHCI =  9.90D+01  OPTGRAD =  1.00D-08
 OPTENERG=  1.00D-06  OPTSTEP =  1.00D-08  THRGRAD =  1.00D-10  COMPRESS=  1.00D-11  VARMIN  =  1.00D-07  VARMAX  =  1.00D-03
 THRDOUB =  0.00D+00  THRDIV  =  1.00D-05  THRRED  =  1.00D-07  THRPSP  =  1.00D+00  THRDC   =  1.00D-10  THRCS   =  1.00D-10
 THRNRM  =  1.00D-08  THREQ   =  0.00D+00  THRDE   =  1.00D+00  THRREF  =  1.00D-05  SPARFAC =  1.00D+00  THRDLP  =  1.00D-07
 THRDIA  =  1.00D-10  THRDLS  =  1.00D-07  THRGPS  =  0.00D+00  THRKEX  =  0.00D+00  THRDIS  =  2.00D-01  THRVAR  =  1.00D-10
 THRLOC  =  1.00D-06  THRGAP  =  1.00D-06  THRLOCT = -1.00D+00  THRGAPT = -1.00D+00  THRORB  =  1.00D-06  THRMLTP =  0.00D+00
 THRCPQCI=  1.00D-10  KEXTA   =  0.00D+00  THRCOARS=  0.00D+00  SYMTOL  =  1.00D-06  GRADTOL =  1.00D-06  THROVL  =  1.00D-08
 THRORTH =  1.00D-08  GRID    =  1.00D-06  GRIDMAX =  1.00D-03  DTMAX   =  0.00D+00  THROCCDE=  1.00D-01  THROCCDE=  1.00D-01



 Input parameters for SORTINT:

 COMPRESS =    0.000000
 C_FINAL  =    1.000000
 DEBUG    =   -1.000000
 C_SORT1  =    0.000000
 C_SEWARD =    0.000000
 THRESH   =    0.000000
 IO       =  molpro                                                          
 SPRI     =    0.000000
 SETTING GEOMTYP        =    XYZ
 ZUNIT=BOHR
 

 Variable memory set to  995000000 words,  buffer space   230000 words

 SETTING BASIS          =    USERDEF


 Recomputing integrals since basis changed


 Using spherical harmonics

 Library entry H      S aug-cc-pVTZ          selected for orbital group  2
 Library entry H      P aug-cc-pVTZ          selected for orbital group  2
 Library entry H      D aug-cc-pVTZ          selected for orbital group  2


 PROGRAM * SEWARD (Integral evaluation for generally contracted gaussian basis sets)     Author: Roland Lindh, 1990

 Geometry written to block  1 of record 700


 Point group  Cs  



 ATOMIC COORDINATES

 NR  ATOM    CHARGE       X              Y              Z

   1  N       7.00    0.000000000   -0.161150366   -1.150383336
   2  H       1.00    0.000000000    1.661696369   -1.919875545
   3  O       8.00    0.000000000    0.041221787    1.119669290

 Bond lengths in Bohr (Angstrom)

 1-2  1.978607712  1-3  2.279055377
     ( 1.047034111)     ( 1.206024168)

 Bond angles

  2-1-3  107.79206356

 NUCLEAR CHARGE:                   16
 NUMBER OF PRIMITIVE AOS:         203
 NUMBER OF SYMMETRY AOS:          173
 NUMBER OF CONTRACTIONS:          171   ( 114A'  +  57A"  )
 NUMBER OF CORE ORBITALS:           2   (   2A'  +   0A"  )
 NUMBER OF VALENCE ORBITALS:        9   (   7A'  +   2A"  )


 NUCLEAR REPULSION ENERGY   30.43194952


 Eigenvalues of metric

         1 0.103E-02 0.247E-02 0.330E-02 0.631E-02 0.969E-02 0.136E-01 0.145E-01 0.228E-01
         2 0.358E-01 0.528E-01 0.695E-01 0.940E-01 0.131E+00 0.134E+00 0.140E+00 0.142E+00


 Contracted 2-electron integrals neglected if value below      1.0D-22

       46165174. INTEGRALS WRITTEN OUT IN   11274 BLOCKS ON RECORD 1290 OF FILE 1


 NUMBER OF SORTED TWO-ELECTRON INTEGRALS:   55360566.     BUFFER LENGTH:  32768
 NUMBER OF SEGMENTS:   4  SEGMENT LENGTH:   15997996      RECORD LENGTH: 524288

 Memory used in sort:      16.56 MW

 SORT1 READ    46165174. AND WROTE    46602753. INTEGRALS IN    135 RECORDS. CPU TIME:     1.29 SEC, REAL TIME:     1.63 SEC
 SORT2 READ    46602753. AND WROTE    55360566. INTEGRALS IN      4 RECORDS. CPU TIME:     0.74 SEC, REAL TIME:     1.01 SEC

 FILE SIZES:   FILE 1:   759.6 MBYTE,  FILE 4:   566.3 MBYTE,   TOTAL:   1325.8 MBYTE

 OPERATOR DM      FOR CENTER  0  COORDINATES:    0.000000    0.000000    0.000000


 **********************************************************************************************************************************
 DATASETS  * FILE   NREC   LENGTH (MB)   RECORD NAMES
              1      19      421.38       500      610      700      900      950      970     1000      129      960     1100   
                                          VAR    BASINP    GEOM    SYMINP    ZMAT    AOBASIS   BASIS     P2S    ABASIS      S 
                                         1400     1410     1200     1210     1080     1600     1650     1300     1700   
                                           T        V       H0       H01     AOSYM     SMH    MOLCAS    ERIS     OPER   

 PROGRAMS   *        TOTAL       INT
 CPU TIMES  *         5.57      5.48
 REAL TIME  *         7.11 SEC
 DISK USED  *         1.33 GB      
 **********************************************************************************************************************************


 PROGRAM * RHF-SCF (CLOSED SHELL)       Authors: W. Meyer, H.-J. Werner


 NUMBER OF ELECTRONS:       8+    8-
 CONVERGENCE THRESHOLDS:    1.00E-10 (Density)    1.00E-13 (Energy)
 MAX. NUMBER OF ITERATIONS:      500
 INTERPOLATION TYPE:            DIIS
 INTERPOLATION STEPS:              2 (START)      1 (STEP)
 LEVEL SHIFTS:                  0.00 (CLOSED)  0.00 (OPEN) 



 Orbital guess generated from atomic densities. Full valence occupancy:    9   2

 Molecular orbital dump at record        2100.2

 Initial occupancy:   7   1

 ITERATION    DDIFF          GRAD             ENERGY        2-EL.EN.            DIPOLE MOMENTS         DIIS   ORB.
    1      0.000D+00      0.000D+00      -129.79016005    154.179227    0.00000    0.56857   -1.00590    0    start
    2      0.000D+00      0.875D-02      -129.81714495    155.349775    0.00000    0.59702   -0.19771    1    diag
    3      0.364D-02      0.661D-02      -129.83940921    155.468132    0.00000    0.54574   -0.57983    2    diag
    4      0.140D-02      0.103D-02      -129.84018661    155.195842    0.00000    0.55411   -0.51790    3    diag
    5      0.331D-03      0.336D-03      -129.84030550    155.283213    0.00000    0.56003   -0.52029    4    diag
    6      0.153D-03      0.983D-04      -129.84032484    155.267207    0.00000    0.56060   -0.51622    5    diag
    7      0.605D-04      0.492D-04      -129.84033052    155.269739    0.00000    0.56192   -0.51372    6    diag
    8      0.410D-04      0.167D-04      -129.84033112    155.268922    0.00000    0.56197   -0.51283    7    diag
    9      0.140D-04      0.310D-05      -129.84033114    155.268813    0.00000    0.56192   -0.51265    8    diag
   10      0.284D-05      0.708D-06      -129.84033114    155.268800    0.00000    0.56189   -0.51262    9    orth
   11      0.857D-06      0.141D-06      -129.84033114    155.268796    0.00000    0.56188   -0.51262    9    diag
   12      0.203D-06      0.292D-07      -129.84033114    155.268795    0.00000    0.56188   -0.51262    9    diag
   13      0.493D-07      0.768D-08      -129.84033114    155.268795    0.00000    0.56188   -0.51262    9    diag
   14      0.112D-07      0.135D-08      -129.84033114    155.268795    0.00000    0.56188   -0.51262    9    diag
   15      0.145D-08      0.366D-09      -129.84033114    155.268795    0.00000    0.56188   -0.51262    9    diag
   16      0.323D-09      0.109D-09      -129.84033114    155.268795    0.00000    0.56188   -0.51262    9    diag
   17      0.767D-10      0.303D-10      -129.84033114    155.268795    0.00000    0.56188   -0.51262    9    diag
   18      0.242D-10      0.101D-10      -129.84033114    155.268795    0.00000    0.56188   -0.51262    9    diag
   19      0.975D-11      0.248D-11      -129.84033114    155.268795    0.00000    0.56188   -0.51262    9    fixocc
   20      0.239D-11      0.762D-12      -129.84033114    155.268795    0.00000    0.56188   -0.51262    9    orth
   21      0.329D-12      0.381D-12      -129.84033114    155.268795    0.00000    0.56188   -0.51262    0    orth

 Final occupancy:   7   1

 !RHF STATE 1.1 Energy               -129.840331144703
 Nuclear energy                        30.43194952
 One-electron energy                 -237.90667820
 Two-electron energy                   77.63439754
 Virial quotient                       -1.00150365
 !RHF STATE 1.1 Dipole moment           0.00000000     0.56187899    -0.51261918
 Dipole moment /Debye                   0.00000000     1.42806040    -1.30286266

 Orbital energies:

         1.1          2.1          3.1          4.1          5.1          6.1          7.1          8.1          9.1
    -20.650910   -15.709681    -1.529913    -0.993492    -0.746371    -0.664723    -0.428732     0.039808     0.193387

         1.2          2.2          3.2
     -0.595120     0.079852     0.239602

 HOMO      7.1    -0.428732 =     -11.6664eV
 LUMO      8.1     0.039808 =       1.0832eV
 LUMO-HOMO         0.468540 =      12.7496eV


 **********************************************************************************************************************************
 DATASETS  * FILE   NREC   LENGTH (MB)   RECORD NAMES
              1      19      421.38       500      610      700      900      950      970     1000      129      960     1100   
                                          VAR    BASINP    GEOM    SYMINP    ZMAT    AOBASIS   BASIS     P2S    ABASIS      S 
                                         1400     1410     1200     1210     1080     1600     1650     1300     1700   
                                           T        V       H0       H01     AOSYM     SMH    MOLCAS    ERIS     OPER   

              2       4        3.13       700     1000      520     2100   
                                         GEOM     BASIS   MCVARS     RHF  

 PROGRAMS   *        TOTAL        HF       INT
 CPU TIMES  *        11.74      6.17      5.48
 REAL TIME  *        14.76 SEC
 DISK USED  *         1.33 GB      
 **********************************************************************************************************************************


 PROGRAM * CCSD (Closed-shell coupled cluster)     Authors: C. Hampel, H.-J. Werner, 1991, M. Deegan, P.J. Knowles, 1992


 Convergence thresholds:  THRVAR = 1.00D-08  THRDEN = 1.00D-12

 CCSD(T)     terms to be evaluated (factor= 1.000)


 Number of closed-shell orbitals:   8 (   7   1 )
 Number of external orbitals:     163 ( 107  56 )

 Molecular orbitals read from record     2100.2  Type=RHF/CANONICAL (state 1.1)

 Number of N-1 electron functions:               8
 Number of N-2 electron functions:              36
 Number of singly external CSFs:               805
 Number of doubly external CSFs:            449165
 Total number of CSFs:                      449971

 Length of J-op  integral file:               0.00 MB
 Length of K-op  integral file:               1.15 MB
 Length of 3-ext integral record:             0.00 MB

 Memory could be reduced to 24.90 Mwords without degradation in triples

 Integral transformation finished. Total CPU:   1.06 sec, npass=  1  Memory used:   6.89 MW

 Reference energy:                   -129.84033114

 MP2 singlet pair energy:              -0.37863026
 MP2 triplet pair energy:              -0.18645071
 MP2 correlation energy:               -0.56508097
 MP2 total energy:                   -130.40541212

 SCS-MP2 correlation energy:           -0.57037009   (PS=  1.200000  PT=  0.333333)
 SCS-MP2 total energy:               -130.41070123

 ITER.      SQ.NORM     CORR.ENERGY   TOTAL ENERGY   ENERGY CHANGE        DEN1      VAR(S)    VAR(P)  DIIS     TIME  TIME/IT
   1      1.11938152    -0.56989253  -130.41022368    -0.00481156     0.01275327  0.33D-02  0.31D-02  1  1     2.22     1.24
   2      1.13016397    -0.56961651  -130.40994765     0.00027602    -0.01362189  0.89D-04  0.49D-03  2  2     3.47     1.28
   3      1.13534900    -0.56993619  -130.41026734    -0.00031968    -0.00234114  0.54D-04  0.67D-04  3  3     4.69     1.30
   4      1.13873896    -0.56992853  -130.41025968     0.00000766    -0.00137291  0.43D-05  0.95D-05  4  4     5.92     1.30
   5      1.13976513    -0.56995247  -130.41028361    -0.00002394    -0.00024126  0.15D-05  0.18D-05  5  5     7.15     1.31
   6      1.14016365    -0.56994667  -130.41027781     0.00000580    -0.00003829  0.13D-06  0.41D-06  6  6     8.38     1.31
   7      1.14024578    -0.56994699  -130.41027813    -0.00000032     0.00000047  0.19D-07  0.93D-07  6  1     9.62     1.32
   8      1.14027916    -0.56994530  -130.41027644     0.00000169    -0.00000466  0.41D-08  0.13D-07  6  2    10.82     1.32
   9      1.14028373    -0.56994541  -130.41027656    -0.00000011     0.00000109  0.17D-08  0.17D-08  6  3    12.05     1.32
  10      1.14028529    -0.56994571  -130.41027685    -0.00000030    -0.00000061  0.40D-09  0.24D-09  6  4    13.28     1.32
  11      1.14028434    -0.56994584  -130.41027699    -0.00000013     0.00000033  0.96D-10  0.24D-10  6  5    14.51     1.32
  12      1.14028349    -0.56994597  -130.41027712    -0.00000013     0.00000033  0.97D-11  0.61D-11  6  6    15.73     1.32
  13      1.14028299    -0.56994598  -130.41027713    -0.00000001     0.00000010  0.40D-11  0.11D-11  6  1    16.96     1.32
  14      1.14028258    -0.56994601  -130.41027715    -0.00000003     0.00000010  0.42D-12  0.37D-12  6  3    18.16     1.32
  15      1.14028242    -0.56994601  -130.41027715    -0.00000000     0.00000002  0.10D-12  0.25D-13  6  2    19.39     1.32
  16      1.14028237    -0.56994601  -130.41027716    -0.00000000     0.00000001  0.23D-13  0.55D-14  6  4    20.60     1.32
  17      1.14028235    -0.56994601  -130.41027716    -0.00000000     0.00000001  0.40D-14  0.10D-14  6  5    21.80     1.32
  18      1.14028235    -0.56994601  -130.41027716    -0.00000000     0.00000000  0.42D-15  0.27D-15  6  6    23.00     1.32
  19      1.14028235    -0.56994601  -130.41027716     0.00000000    -0.00000000  0.50D-16  0.36D-16  6  1    24.22     1.33
  20      1.14028235    -0.56994601  -130.41027716     0.00000000    -0.00000000  0.20D-17  0.78D-17  6  3    25.44     1.33
  21      1.14028235    -0.56994601  -130.41027716     0.00000000    -0.00000000  0.10D-17  0.19D-17  6  2    26.70     1.33
  22      1.14028235    -0.56994601  -130.41027716     0.00000000    -0.00000000  0.21D-18  0.69D-18  6  4    27.93     1.33
  23      1.14028235    -0.56994601  -130.41027716    -0.00000000     0.00000000  0.12D-18  0.10D-18  6  5    29.14     1.33
  24      1.14028235    -0.56994601  -130.41027716     0.00000000    -0.00000000  0.50D-20  0.13D-19  6  1    30.34     1.33
  25      1.14028235    -0.56994601  -130.41027716     0.00000000     0.00000000  0.29D-21  0.13D-20  6  6    31.72     1.33
  26      1.14028235    -0.56994601  -130.41027716    -0.00000000     0.00000000  0.97D-22  0.29D-21  6  3    33.09     1.34

 Norm of t1 vector:      0.07704453      S-energy:     0.00000000      T1 diagnostic:  0.01361968
                                                                       D1 diagnostic:  0.04376283

 Doubles amplitudes (print threshold =  0.500E-01):

         I         J         SYM. A    SYM. B    A         B      T(IJ, AB)

         8         8         2         2         1         1     -0.13411892


 Total CPU time for triples:     18.71 sec


 RESULTS
 =======

  Reference energy                   -129.840331144703

  Correlated core orbitals:             1.1       2.1
  Orbital energies:                   -20.6509  -15.7097
 
  CCSD core-core energy                -0.079230387828
  CCSD core-valence energy             -0.036098736403
  CCSD valence correlation energy      -0.454616887100
 
  CCSD singlet pair energy             -0.407520358503
  CCSD triplet pair energy             -0.162425652828
  CCSD correlation energy              -0.569946011331

  Triples (T) contribution             -0.022186135908
  Total correlation energy             -0.592132147239

  CCSD total energy                  -130.410277156033
  CCSD[T] energy                     -130.433618546456
  CCSD-T energy                      -130.432027776425
 !CCSD(T) total energy               -130.432463291941

 Timing summary (sec):

 STEP                 CPU(USER)    SYS     CPU(TOT)    WALL
 Transformation          1.09      0.17      1.26      1.27
 CCSD iterations        32.01      2.81     34.82     34.82
 Triples                18.71      0.66     19.37     19.37

 Program statistics:

 Available memory in ccsd:               994999644
 Min. memory needed in ccsd:               1368037
 Max. memory used in ccsd:                 1750502
 Max. memory used in cckext:               2014357 (26 integral passes)



 **********************************************************************************************************************************
 DATASETS  * FILE   NREC   LENGTH (MB)   RECORD NAMES
              1      20      500.30       500      610      700      900      950      970     1000      129      960     1100   
                                          VAR    BASINP    GEOM    SYMINP    ZMAT    AOBASIS   BASIS     P2S    ABASIS      S 
                                         1400     1410     1200     1210     1080     1600     1650     1300     1700     1380   
                                           T        V       H0       H01     AOSYM     SMH    MOLCAS    ERIS     OPER     JKOP   

              2       4        3.13       700     1000      520     2100   
                                         GEOM     BASIS   MCVARS     RHF  

 PROGRAMS   *        TOTAL   CCSD(T)        HF       INT
 CPU TIMES  *        63.58     51.84      6.17      5.48
 REAL TIME  *        70.26 SEC
 DISK USED  *         1.33 GB      
 **********************************************************************************************************************************

 CCSD(T)/USERDEF energy=   -130.432463291941

        CCSD(T)         HF-SCF  
   -130.43246329   -129.84033114
 **********************************************************************************************************************************
 Molpro calculation terminated
 Variable memory released
