
 Primary working directories    : /tmp/r2666/235575.maple
 Secondary working directories  : /tmp/r2666/235575.maple
 Wavefunction directory         : /ddn/home4/r2666/wfu/
 Main file repository           : /tmp/r2666/235575.maple/

 SHA1      : d5ffa45e93fdbca01ffc919aa182cfdae0147319
 NAME      : 2015.1.35
 ARCHNAME  : linux/x86_64
 FC        : /opt/intel/composer_xe_2015.1.133/bin/intel64/ifort
 BLASLIB   : -Wl,-_start-group /opt/intel/mkl/lib/intel64/libmkl_intel_ilp64.a /opt/intel/mkl/lib/intel64/libmkl_intel_thread.a /opt/intel/mkl/lib/intel64/libmkl_core.a -Wl,-_end-group
 id        : olemiss

 Nodes     nprocs
 cn096        1

 Using customized tuning parameters: mindgm=1; mindgv=20; mindgc=4; mindgr=1; noblas=0; minvec=7
 default implementation of scratch files=df  

 ***,hno CCSD(T)/TZ-F12 QFF
 memory, 995, m;
 gthresh,energy=1.d-12,zero=1.d-22,oneint=1.d-22,twoint=1.d-22;
 gthresh,optgrad=1.d-8,optstep=1.d-8;
 nocompress;
 geomtyp=xyz
 bohr
 geometry={
 3
         48        48
 N        0.0000000000       -0.1647963980       -1.1405073955
 H        0.0000000000        1.6645343148       -1.9189142060
 O        0.0000000000        0.0420298732        1.1088320105
 }
 
 basis={
 default=aug-cc-pvtz
 s,C,8236.0,1235.0,280.8, 79.27,25.59, 8.997,3.319
 s,C,0.9059,0.3643,0.1285000
 p,C,56.0,18.71,4.133,0.2827,0.3827,0.1209
 d,C,30.0,10.0,3.3,1.097,0.318
 f,C,7.0,2.3,0.7610
 s,N,11420.0,1712.0,389.3,110.0,35.57,12.54,4.644
 s,N,1.293,0.5118,0.1787
 p,N,79.89,26.63,5.948,1.742,0.555,0.1725
 d,N,45.0,15.0,5.0,1.654,0.469
 f,N,9.9,3.3,1.093
 s,O,15330.0,2299.0,522.4,147.3,47.55,16.76,6.207
 s,O,1.752,0.6882,0.2384
 p,O,103.5,34.46,7.749,2.28,0.7156,0.214
 d,O,63.0,21.0,7.0,2.314,0.645
 f,O,12.9,4.3,1.428
 s,mg,164900.0,24710.0,5628.0,1596.0,521.0;
 s,mg,188.0,73.01,29.90,12.54,4.306,1.826;
 s,mg,0.7417,0.0761,0.145,0.033,0.0129;
 p,mg,950.70,316.90,74.86,23.72,8.669,3.363;
 p,mg,1.310,0.4911,0.2364,0.08733,0.03237,0.00745;
 d,mg,1.601,0.686,0.126,0.294,0.0468;
 f,mg,1.372,0.588,0.094,0.252;
 }
   {hf,maxit=500;accu,20;}
 {ccsd(t),nocheck,maxit=250;orbital,IGNORE_ERROR;core}

 Variables initialized (889), CPU time= 0.01 sec
 Commands  initialized (702), CPU time= 0.01 sec, 572 directives.
 Default parameters read. Elapsed time= 0.05 sec

 Checking input...
 Passed
1


                                         ***  PROGRAM SYSTEM MOLPRO  ***
                                       Copyright, TTI GmbH Stuttgart, 2015
                                    Version 2015.1 linked Jul  9 2018 13:16:40


 **********************************************************************************************************************************
 LABEL *   hno CCSD(T)/TZ-F12 QFF                                                        
  64 bit serial version                                                                  DATE: 09-Feb-20          TIME: 14:36:33  
 **********************************************************************************************************************************

 SHA1:             d5ffa45e93fdbca01ffc919aa182cfdae0147319
 **********************************************************************************************************************************

 THRESHOLDS:

 ZERO    =  1.00D-22  ONEINT  =  1.00D-22  TWOINT  =  1.00D-22  PREFAC  =  1.00D-14  LOCALI  =  1.00D-09  EORDER  =  1.00D-04
 ENERGY  =  1.00D-12  ETEST   =  0.00D+00  EDENS   =  0.00D+00  THRDEDEF=  1.00D-06  GRADIENT=  1.00D-02  STEP    =  1.00D-03
 ORBITAL =  1.00D-05  CIVEC   =  1.00D-05  COEFF   =  1.00D-04  PRINTCI =  5.00D-02  PUNCHCI =  9.90D+01  OPTGRAD =  3.00D-04
 OPTENERG=  1.00D-06  OPTSTEP =  3.00D-04  THRGRAD =  1.00D-10  COMPRESS=  1.00D-11  VARMIN  =  1.00D-07  VARMAX  =  1.00D-03
 THRDOUB =  0.00D+00  THRDIV  =  1.00D-05  THRRED  =  1.00D-07  THRPSP  =  1.00D+00  THRDC   =  1.00D-10  THRCS   =  1.00D-10
 THRNRM  =  1.00D-08  THREQ   =  0.00D+00  THRDE   =  1.00D+00  THRREF  =  1.00D-05  SPARFAC =  1.00D+00  THRDLP  =  1.00D-07
 THRDIA  =  1.00D-10  THRDLS  =  1.00D-07  THRGPS  =  0.00D+00  THRKEX  =  0.00D+00  THRDIS  =  2.00D-01  THRVAR  =  1.00D-10
 THRLOC  =  1.00D-06  THRGAP  =  1.00D-06  THRLOCT = -1.00D+00  THRGAPT = -1.00D+00  THRORB  =  1.00D-06  THRMLTP =  0.00D+00
 THRCPQCI=  1.00D-10  KEXTA   =  0.00D+00  THRCOARS=  0.00D+00  SYMTOL  =  1.00D-06  GRADTOL =  1.00D-06  THROVL  =  1.00D-08
 THRORTH =  1.00D-08  GRID    =  1.00D-06  GRIDMAX =  1.00D-03  DTMAX   =  0.00D+00  THROCCDE=  1.00D-01  THROCCDE=  1.00D-01



 THRESHOLDS:

 ZERO    =  1.00D-22  ONEINT  =  1.00D-22  TWOINT  =  1.00D-22  PREFAC  =  1.00D-14  LOCALI  =  1.00D-09  EORDER  =  1.00D-04
 ENERGY  =  1.00D-12  ETEST   =  0.00D+00  EDENS   =  0.00D+00  THRDEDEF=  1.00D-06  GRADIENT=  1.00D-02  STEP    =  1.00D-03
 ORBITAL =  1.00D-05  CIVEC   =  1.00D-05  COEFF   =  1.00D-04  PRINTCI =  5.00D-02  PUNCHCI =  9.90D+01  OPTGRAD =  1.00D-08
 OPTENERG=  1.00D-06  OPTSTEP =  1.00D-08  THRGRAD =  1.00D-10  COMPRESS=  1.00D-11  VARMIN  =  1.00D-07  VARMAX  =  1.00D-03
 THRDOUB =  0.00D+00  THRDIV  =  1.00D-05  THRRED  =  1.00D-07  THRPSP  =  1.00D+00  THRDC   =  1.00D-10  THRCS   =  1.00D-10
 THRNRM  =  1.00D-08  THREQ   =  0.00D+00  THRDE   =  1.00D+00  THRREF  =  1.00D-05  SPARFAC =  1.00D+00  THRDLP  =  1.00D-07
 THRDIA  =  1.00D-10  THRDLS  =  1.00D-07  THRGPS  =  0.00D+00  THRKEX  =  0.00D+00  THRDIS  =  2.00D-01  THRVAR  =  1.00D-10
 THRLOC  =  1.00D-06  THRGAP  =  1.00D-06  THRLOCT = -1.00D+00  THRGAPT = -1.00D+00  THRORB  =  1.00D-06  THRMLTP =  0.00D+00
 THRCPQCI=  1.00D-10  KEXTA   =  0.00D+00  THRCOARS=  0.00D+00  SYMTOL  =  1.00D-06  GRADTOL =  1.00D-06  THROVL  =  1.00D-08
 THRORTH =  1.00D-08  GRID    =  1.00D-06  GRIDMAX =  1.00D-03  DTMAX   =  0.00D+00  THROCCDE=  1.00D-01  THROCCDE=  1.00D-01



 Input parameters for SORTINT:

 COMPRESS =    0.000000
 C_FINAL  =    1.000000
 DEBUG    =   -1.000000
 C_SORT1  =    0.000000
 C_SEWARD =    0.000000
 THRESH   =    0.000000
 IO       =  molpro                                                          
 SPRI     =    0.000000
 SETTING GEOMTYP        =    XYZ
 ZUNIT=BOHR
 

 Variable memory set to  995000000 words,  buffer space   230000 words

 SETTING BASIS          =    USERDEF


 Recomputing integrals since basis changed


 Using spherical harmonics

 Library entry H      S aug-cc-pVTZ          selected for orbital group  2
 Library entry H      P aug-cc-pVTZ          selected for orbital group  2
 Library entry H      D aug-cc-pVTZ          selected for orbital group  2


 PROGRAM * SEWARD (Integral evaluation for generally contracted gaussian basis sets)     Author: Roland Lindh, 1990

 Geometry written to block  1 of record 700


 Point group  Cs  



 ATOMIC COORDINATES

 NR  ATOM    CHARGE       X              Y              Z

   1  N       7.00    0.000000000   -0.164796398   -1.140507396
   2  H       1.00    0.000000000    1.664534315   -1.918914206
   3  O       8.00    0.000000000    0.042029873    1.108832011

 Bond lengths in Bohr (Angstrom)

 1-2  1.988056342  1-3  2.258828207
     ( 1.052034110)     ( 1.195320411)

 Bond angles

  2-1-3  107.79689599

 NUCLEAR CHARGE:                   16
 NUMBER OF PRIMITIVE AOS:         203
 NUMBER OF SYMMETRY AOS:          173
 NUMBER OF CONTRACTIONS:          171   ( 114A'  +  57A"  )
 NUMBER OF CORE ORBITALS:           2   (   2A'  +   0A"  )
 NUMBER OF VALENCE ORBITALS:        9   (   7A'  +   2A"  )


 NUCLEAR REPULSION ENERGY   30.64155525


 Eigenvalues of metric

         1 0.102E-02 0.239E-02 0.327E-02 0.629E-02 0.985E-02 0.136E-01 0.144E-01 0.228E-01
         2 0.363E-01 0.512E-01 0.693E-01 0.939E-01 0.131E+00 0.134E+00 0.140E+00 0.142E+00


 Contracted 2-electron integrals neglected if value below      1.0D-22

       46253564. INTEGRALS WRITTEN OUT IN   11296 BLOCKS ON RECORD 1290 OF FILE 1


 NUMBER OF SORTED TWO-ELECTRON INTEGRALS:   55360566.     BUFFER LENGTH:  32768
 NUMBER OF SEGMENTS:   4  SEGMENT LENGTH:   15997996      RECORD LENGTH: 524288

 Memory used in sort:      16.56 MW

 SORT1 READ    46253564. AND WROTE    46692047. INTEGRALS IN    136 RECORDS. CPU TIME:     0.78 SEC, REAL TIME:     1.09 SEC
 SORT2 READ    46692047. AND WROTE    55360566. INTEGRALS IN      4 RECORDS. CPU TIME:     0.64 SEC, REAL TIME:     0.88 SEC

 FILE SIZES:   FILE 1:   761.0 MBYTE,  FILE 4:   570.5 MBYTE,   TOTAL:   1331.5 MBYTE

 OPERATOR DM      FOR CENTER  0  COORDINATES:    0.000000    0.000000    0.000000


 **********************************************************************************************************************************
 DATASETS  * FILE   NREC   LENGTH (MB)   RECORD NAMES
              1      19      421.97       500      610      700      900      950      970     1000      129      960     1100   
                                          VAR    BASINP    GEOM    SYMINP    ZMAT    AOBASIS   BASIS     P2S    ABASIS      S 
                                         1400     1410     1200     1210     1080     1600     1650     1300     1700   
                                           T        V       H0       H01     AOSYM     SMH    MOLCAS    ERIS     OPER   

 PROGRAMS   *        TOTAL       INT
 CPU TIMES  *         4.16      4.08
 REAL TIME  *         5.61 SEC
 DISK USED  *         1.33 GB      
 **********************************************************************************************************************************


 PROGRAM * RHF-SCF (CLOSED SHELL)       Authors: W. Meyer, H.-J. Werner


 NUMBER OF ELECTRONS:       8+    8-
 CONVERGENCE THRESHOLDS:    1.00E-10 (Density)    1.00E-13 (Energy)
 MAX. NUMBER OF ITERATIONS:      500
 INTERPOLATION TYPE:            DIIS
 INTERPOLATION STEPS:              2 (START)      1 (STEP)
 LEVEL SHIFTS:                  0.00 (CLOSED)  0.00 (OPEN) 



 Orbital guess generated from atomic densities. Full valence occupancy:    9   2

 Molecular orbital dump at record        2100.2

 Initial occupancy:   7   1

 ITERATION    DDIFF          GRAD             ENERGY        2-EL.EN.            DIPOLE MOMENTS         DIIS   ORB.
    1      0.000D+00      0.000D+00      -129.79254285    154.550011    0.00000    0.56029   -0.97227    0    start
    2      0.000D+00      0.866D-02      -129.81979629    155.745700    0.00000    0.58945   -0.20031    1    diag
    3      0.358D-02      0.640D-02      -129.84059084    155.839938    0.00000    0.53864   -0.56339    2    diag
    4      0.136D-02      0.102D-02      -129.84134616    155.574943    0.00000    0.54723   -0.50339    3    diag
    5      0.326D-03      0.331D-03      -129.84146196    155.661786    0.00000    0.55321   -0.50601    4    diag
    6      0.151D-03      0.971D-04      -129.84148077    155.645862    0.00000    0.55384   -0.50212    5    diag
    7      0.602D-04      0.481D-04      -129.84148613    155.648531    0.00000    0.55521   -0.49978    6    diag
    8      0.404D-04      0.158D-04      -129.84148665    155.647759    0.00000    0.55527   -0.49896    7    diag
    9      0.131D-04      0.291D-05      -129.84148667    155.647657    0.00000    0.55522   -0.49880    8    diag
   10      0.259D-05      0.680D-06      -129.84148667    155.647643    0.00000    0.55518   -0.49877    9    orth
   11      0.818D-06      0.138D-06      -129.84148667    155.647639    0.00000    0.55518   -0.49877    9    diag
   12      0.199D-06      0.281D-07      -129.84148667    155.647638    0.00000    0.55517   -0.49876    9    diag
   13      0.485D-07      0.730D-08      -129.84148667    155.647638    0.00000    0.55517   -0.49876    9    diag
   14      0.110D-07      0.133D-08      -129.84148667    155.647638    0.00000    0.55517   -0.49876    9    diag
   15      0.154D-08      0.375D-09      -129.84148667    155.647638    0.00000    0.55517   -0.49876    9    diag
   16      0.339D-09      0.118D-09      -129.84148667    155.647638    0.00000    0.55517   -0.49876    9    diag
   17      0.938D-10      0.348D-10      -129.84148667    155.647638    0.00000    0.55517   -0.49876    0    orth

 Final occupancy:   7   1

 !RHF STATE 1.1 Energy               -129.841486669780
 Nuclear energy                        30.64155525
 One-electron energy                 -238.30686099
 Two-electron energy                   77.82381907
 Virial quotient                       -1.00123153
 !RHF STATE 1.1 Dipole moment           0.00000000     0.55517366    -0.49876358
 Dipole moment /Debye                   0.00000000     1.41101828    -1.26764755

 Orbital energies:

         1.1          2.1          3.1          4.1          5.1          6.1          7.1          8.1          9.1
    -20.650008   -15.708559    -1.538771    -0.989758    -0.749171    -0.667840    -0.425126     0.039949     0.193486

         1.2          2.2          3.2
     -0.600378     0.083633     0.239925

 HOMO      7.1    -0.425126 =     -11.5683eV
 LUMO      8.1     0.039949 =       1.0871eV
 LUMO-HOMO         0.465074 =      12.6553eV


 **********************************************************************************************************************************
 DATASETS  * FILE   NREC   LENGTH (MB)   RECORD NAMES
              1      19      421.97       500      610      700      900      950      970     1000      129      960     1100   
                                          VAR    BASINP    GEOM    SYMINP    ZMAT    AOBASIS   BASIS     P2S    ABASIS      S 
                                         1400     1410     1200     1210     1080     1600     1650     1300     1700   
                                           T        V       H0       H01     AOSYM     SMH    MOLCAS    ERIS     OPER   

              2       4        3.13       700     1000      520     2100   
                                         GEOM     BASIS   MCVARS     RHF  

 PROGRAMS   *        TOTAL        HF       INT
 CPU TIMES  *         8.54      4.37      4.08
 REAL TIME  *        10.90 SEC
 DISK USED  *         1.33 GB      
 **********************************************************************************************************************************


 PROGRAM * CCSD (Closed-shell coupled cluster)     Authors: C. Hampel, H.-J. Werner, 1991, M. Deegan, P.J. Knowles, 1992


 Convergence thresholds:  THRVAR = 1.00D-08  THRDEN = 1.00D-12

 CCSD(T)     terms to be evaluated (factor= 1.000)


 Number of closed-shell orbitals:   8 (   7   1 )
 Number of external orbitals:     163 ( 107  56 )

 Molecular orbitals read from record     2100.2  Type=RHF/CANONICAL (state 1.1)

 Number of N-1 electron functions:               8
 Number of N-2 electron functions:              36
 Number of singly external CSFs:               805
 Number of doubly external CSFs:            449165
 Total number of CSFs:                      449971

 Length of J-op  integral file:               0.00 MB
 Length of K-op  integral file:               1.15 MB
 Length of 3-ext integral record:             0.00 MB

 Memory could be reduced to 24.90 Mwords without degradation in triples

 Integral transformation finished. Total CPU:   0.93 sec, npass=  1  Memory used:   6.89 MW

 Reference energy:                   -129.84148667

 MP2 singlet pair energy:              -0.37768575
 MP2 triplet pair energy:              -0.18585365
 MP2 correlation energy:               -0.56353940
 MP2 total energy:                   -130.40502607

 SCS-MP2 correlation energy:           -0.56886517   (PS=  1.200000  PT=  0.333333)
 SCS-MP2 total energy:               -130.41035184

 ITER.      SQ.NORM     CORR.ENERGY   TOTAL ENERGY   ENERGY CHANGE        DEN1      VAR(S)    VAR(P)  DIIS     TIME  TIME/IT
   1      1.11842219    -0.56872824  -130.41021491    -0.00518884     0.01195636  0.32D-02  0.30D-02  1  1     1.87     1.02
   2      1.12896002    -0.56854055  -130.41002722     0.00018769    -0.01336136  0.85D-04  0.48D-03  2  2     2.85     1.04
   3      1.13400614    -0.56885103  -130.41033770    -0.00031048    -0.00230860  0.51D-04  0.64D-04  3  3     3.87     1.06
   4      1.13727220    -0.56884222  -130.41032889     0.00000881    -0.00133931  0.41D-05  0.91D-05  4  4     4.84     1.06
   5      1.13824252    -0.56886528  -130.41035195    -0.00002305    -0.00022743  0.15D-05  0.18D-05  5  5     5.80     1.07
   6      1.13862340    -0.56886002  -130.41034669     0.00000526    -0.00003625  0.13D-06  0.41D-06  6  6     6.77     1.07
   7      1.13870570    -0.56886020  -130.41034687    -0.00000018    -0.00000009  0.20D-07  0.89D-07  6  1     7.77     1.07
   8      1.13873901    -0.56885864  -130.41034531     0.00000156    -0.00000452  0.41D-08  0.12D-07  6  2     8.77     1.07
   9      1.13874374    -0.56885874  -130.41034541    -0.00000010     0.00000092  0.16D-08  0.15D-08  6  3     9.80     1.08
  10      1.13874521    -0.56885904  -130.41034571    -0.00000029    -0.00000053  0.37D-09  0.21D-09  6  4    10.81     1.08
  11      1.13874427    -0.56885917  -130.41034584    -0.00000013     0.00000033  0.88D-10  0.21D-10  6  5    11.83     1.08
  12      1.13874342    -0.56885929  -130.41034596    -0.00000012     0.00000033  0.91D-11  0.56D-11  6  6    12.88     1.09
  13      1.13874294    -0.56885930  -130.41034597    -0.00000001     0.00000010  0.39D-11  0.99D-12  6  1    13.85     1.09
  14      1.13874254    -0.56885932  -130.41034599    -0.00000002     0.00000009  0.42D-12  0.33D-12  6  3    14.81     1.09
  15      1.13874239    -0.56885932  -130.41034599    -0.00000000     0.00000002  0.10D-12  0.22D-13  6  2    15.78     1.09
  16      1.13874235    -0.56885932  -130.41034599    -0.00000000     0.00000001  0.23D-13  0.51D-14  6  4    16.78     1.09
  17      1.13874233    -0.56885932  -130.41034599    -0.00000000     0.00000000  0.37D-14  0.97D-15  6  5    17.77     1.09
  18      1.13874233    -0.56885933  -130.41034599    -0.00000000     0.00000000  0.36D-15  0.24D-15  6  6    18.80     1.09
  19      1.13874233    -0.56885932  -130.41034599     0.00000000    -0.00000000  0.41D-16  0.29D-16  6  1    19.81     1.09
  20      1.13874233    -0.56885932  -130.41034599     0.00000000    -0.00000000  0.17D-17  0.58D-17  6  3    20.80     1.09
  21      1.13874233    -0.56885932  -130.41034599     0.00000000    -0.00000000  0.84D-18  0.13D-17  6  2    21.85     1.09
  22      1.13874233    -0.56885932  -130.41034599     0.00000000    -0.00000000  0.13D-18  0.48D-18  6  4    22.87     1.09
  23      1.13874233    -0.56885932  -130.41034599    -0.00000000     0.00000000  0.38D-19  0.74D-19  6  2    23.90     1.09
  24      1.13874233    -0.56885932  -130.41034599     0.00000000    -0.00000000  0.22D-20  0.13D-19  6  1    24.89     1.09
  25      1.13874233    -0.56885932  -130.41034599    -0.00000000     0.00000000  0.68D-21  0.94D-21  6  5    25.89     1.09
  26      1.13874233    -0.56885932  -130.41034599     0.00000000     0.00000000  0.36D-21  0.15D-21  6  6    26.86     1.09

 Norm of t1 vector:      0.07563501      S-energy:     0.00000000      T1 diagnostic:  0.01337051
                                                                       D1 diagnostic:  0.04243895

 Doubles amplitudes (print threshold =  0.500E-01):

         I         J         SYM. A    SYM. B    A         B      T(IJ, AB)

         8         8         2         2         1         1     -0.13086991


 Total CPU time for triples:     19.20 sec


 RESULTS
 =======

  Reference energy                   -129.841486669780

  Correlated core orbitals:             1.1       2.1
  Orbital energies:                   -20.6500  -15.7086
 
  CCSD core-core energy                -0.079224653682
  CCSD core-valence energy             -0.036158733899
  CCSD valence correlation energy      -0.453475937098
 
  CCSD singlet pair energy             -0.406533169091
  CCSD triplet pair energy             -0.162326155595
  CCSD correlation energy              -0.568859324679

  Triples (T) contribution             -0.021888116178
  Total correlation energy             -0.590747440857

  CCSD total energy                  -130.410345994459
  CCSD[T] energy                     -130.433347829309
  CCSD-T energy                      -130.431809508568
 !CCSD(T) total energy               -130.432234110637

 Timing summary (sec):

 STEP                 CPU(USER)    SYS     CPU(TOT)    WALL
 Transformation          0.94      0.14      1.08      1.08
 CCSD iterations        25.92      2.36     28.28     28.30
 Triples                19.21      0.55     19.76     19.75

 Program statistics:

 Available memory in ccsd:               994999644
 Min. memory needed in ccsd:               1368037
 Max. memory used in ccsd:                 1750502
 Max. memory used in cckext:               2014357 (26 integral passes)



 **********************************************************************************************************************************
 DATASETS  * FILE   NREC   LENGTH (MB)   RECORD NAMES
              1      20      500.88       500      610      700      900      950      970     1000      129      960     1100   
                                          VAR    BASINP    GEOM    SYMINP    ZMAT    AOBASIS   BASIS     P2S    ABASIS      S 
                                         1400     1410     1200     1210     1080     1600     1650     1300     1700     1380   
                                           T        V       H0       H01     AOSYM     SMH    MOLCAS    ERIS     OPER     JKOP   

              2       4        3.13       700     1000      520     2100   
                                         GEOM     BASIS   MCVARS     RHF  

 PROGRAMS   *        TOTAL   CCSD(T)        HF       INT
 CPU TIMES  *        54.63     46.10      4.37      4.08
 REAL TIME  *        60.06 SEC
 DISK USED  *         1.33 GB      
 **********************************************************************************************************************************

 CCSD(T)/USERDEF energy=   -130.432234110637

        CCSD(T)         HF-SCF  
   -130.43223411   -129.84148667
 **********************************************************************************************************************************
 Molpro calculation terminated
 Variable memory released
