
 Primary working directories    : /tmp/r2666/235431.maple
 Secondary working directories  : /tmp/r2666/235431.maple
 Wavefunction directory         : /ddn/home4/r2666/wfu/
 Main file repository           : /tmp/r2666/235431.maple/

 SHA1      : d5ffa45e93fdbca01ffc919aa182cfdae0147319
 NAME      : 2015.1.35
 ARCHNAME  : linux/x86_64
 FC        : /opt/intel/composer_xe_2015.1.133/bin/intel64/ifort
 BLASLIB   : -Wl,-_start-group /opt/intel/mkl/lib/intel64/libmkl_intel_ilp64.a /opt/intel/mkl/lib/intel64/libmkl_intel_thread.a /opt/intel/mkl/lib/intel64/libmkl_core.a -Wl,-_end-group
 id        : olemiss

 Nodes     nprocs
 cn022        1

 Using customized tuning parameters: mindgm=1; mindgv=20; mindgc=4; mindgr=1; noblas=0; minvec=7
 default implementation of scratch files=df  

 ***,hno CCSD(T)/TZ-F12 QFF
 memory, 995, m;
 gthresh,energy=1.d-12,zero=1.d-22,oneint=1.d-22,twoint=1.d-22;
 gthresh,optgrad=1.d-8,optstep=1.d-8;
 nocompress;
 geomtyp=xyz
 bohr
 geometry={
 3
         28        28
 N        0.0000000000       -0.1599481529       -1.1527880629
 H        0.0000000000        1.6624705526       -1.9232934427
 O        0.0000000000        0.0392453903        1.1254919147
 }
 
 basis={
 default=aug-cc-pvtz
 s,C,8236.0,1235.0,280.8, 79.27,25.59, 8.997,3.319
 s,C,0.9059,0.3643,0.1285000
 p,C,56.0,18.71,4.133,0.2827,0.3827,0.1209
 d,C,30.0,10.0,3.3,1.097,0.318
 f,C,7.0,2.3,0.7610
 s,N,11420.0,1712.0,389.3,110.0,35.57,12.54,4.644
 s,N,1.293,0.5118,0.1787
 p,N,79.89,26.63,5.948,1.742,0.555,0.1725
 d,N,45.0,15.0,5.0,1.654,0.469
 f,N,9.9,3.3,1.093
 s,O,15330.0,2299.0,522.4,147.3,47.55,16.76,6.207
 s,O,1.752,0.6882,0.2384
 p,O,103.5,34.46,7.749,2.28,0.7156,0.214
 d,O,63.0,21.0,7.0,2.314,0.645
 f,O,12.9,4.3,1.428
 s,mg,164900.0,24710.0,5628.0,1596.0,521.0;
 s,mg,188.0,73.01,29.90,12.54,4.306,1.826;
 s,mg,0.7417,0.0761,0.145,0.033,0.0129;
 p,mg,950.70,316.90,74.86,23.72,8.669,3.363;
 p,mg,1.310,0.4911,0.2364,0.08733,0.03237,0.00745;
 d,mg,1.601,0.686,0.126,0.294,0.0468;
 f,mg,1.372,0.588,0.094,0.252;
 }
   {hf,maxit=500;accu,20;}
 {ccsd(t),nocheck,maxit=250;orbital,IGNORE_ERROR;core}

 Variables initialized (889), CPU time= 0.00 sec
 Commands  initialized (702), CPU time= 0.01 sec, 572 directives.
 Default parameters read. Elapsed time= 0.05 sec

 Checking input...
 Passed
1


                                         ***  PROGRAM SYSTEM MOLPRO  ***
                                       Copyright, TTI GmbH Stuttgart, 2015
                                    Version 2015.1 linked Jul  9 2018 13:16:40


 **********************************************************************************************************************************
 LABEL *   hno CCSD(T)/TZ-F12 QFF                                                        
  64 bit serial version                                                                  DATE: 08-Feb-20          TIME: 17:59:14  
 **********************************************************************************************************************************

 SHA1:             d5ffa45e93fdbca01ffc919aa182cfdae0147319
 **********************************************************************************************************************************

 THRESHOLDS:

 ZERO    =  1.00D-22  ONEINT  =  1.00D-22  TWOINT  =  1.00D-22  PREFAC  =  1.00D-14  LOCALI  =  1.00D-09  EORDER  =  1.00D-04
 ENERGY  =  1.00D-12  ETEST   =  0.00D+00  EDENS   =  0.00D+00  THRDEDEF=  1.00D-06  GRADIENT=  1.00D-02  STEP    =  1.00D-03
 ORBITAL =  1.00D-05  CIVEC   =  1.00D-05  COEFF   =  1.00D-04  PRINTCI =  5.00D-02  PUNCHCI =  9.90D+01  OPTGRAD =  3.00D-04
 OPTENERG=  1.00D-06  OPTSTEP =  3.00D-04  THRGRAD =  1.00D-10  COMPRESS=  1.00D-11  VARMIN  =  1.00D-07  VARMAX  =  1.00D-03
 THRDOUB =  0.00D+00  THRDIV  =  1.00D-05  THRRED  =  1.00D-07  THRPSP  =  1.00D+00  THRDC   =  1.00D-10  THRCS   =  1.00D-10
 THRNRM  =  1.00D-08  THREQ   =  0.00D+00  THRDE   =  1.00D+00  THRREF  =  1.00D-05  SPARFAC =  1.00D+00  THRDLP  =  1.00D-07
 THRDIA  =  1.00D-10  THRDLS  =  1.00D-07  THRGPS  =  0.00D+00  THRKEX  =  0.00D+00  THRDIS  =  2.00D-01  THRVAR  =  1.00D-10
 THRLOC  =  1.00D-06  THRGAP  =  1.00D-06  THRLOCT = -1.00D+00  THRGAPT = -1.00D+00  THRORB  =  1.00D-06  THRMLTP =  0.00D+00
 THRCPQCI=  1.00D-10  KEXTA   =  0.00D+00  THRCOARS=  0.00D+00  SYMTOL  =  1.00D-06  GRADTOL =  1.00D-06  THROVL  =  1.00D-08
 THRORTH =  1.00D-08  GRID    =  1.00D-06  GRIDMAX =  1.00D-03  DTMAX   =  0.00D+00  THROCCDE=  1.00D-01  THROCCDE=  1.00D-01



 THRESHOLDS:

 ZERO    =  1.00D-22  ONEINT  =  1.00D-22  TWOINT  =  1.00D-22  PREFAC  =  1.00D-14  LOCALI  =  1.00D-09  EORDER  =  1.00D-04
 ENERGY  =  1.00D-12  ETEST   =  0.00D+00  EDENS   =  0.00D+00  THRDEDEF=  1.00D-06  GRADIENT=  1.00D-02  STEP    =  1.00D-03
 ORBITAL =  1.00D-05  CIVEC   =  1.00D-05  COEFF   =  1.00D-04  PRINTCI =  5.00D-02  PUNCHCI =  9.90D+01  OPTGRAD =  1.00D-08
 OPTENERG=  1.00D-06  OPTSTEP =  1.00D-08  THRGRAD =  1.00D-10  COMPRESS=  1.00D-11  VARMIN  =  1.00D-07  VARMAX  =  1.00D-03
 THRDOUB =  0.00D+00  THRDIV  =  1.00D-05  THRRED  =  1.00D-07  THRPSP  =  1.00D+00  THRDC   =  1.00D-10  THRCS   =  1.00D-10
 THRNRM  =  1.00D-08  THREQ   =  0.00D+00  THRDE   =  1.00D+00  THRREF  =  1.00D-05  SPARFAC =  1.00D+00  THRDLP  =  1.00D-07
 THRDIA  =  1.00D-10  THRDLS  =  1.00D-07  THRGPS  =  0.00D+00  THRKEX  =  0.00D+00  THRDIS  =  2.00D-01  THRVAR  =  1.00D-10
 THRLOC  =  1.00D-06  THRGAP  =  1.00D-06  THRLOCT = -1.00D+00  THRGAPT = -1.00D+00  THRORB  =  1.00D-06  THRMLTP =  0.00D+00
 THRCPQCI=  1.00D-10  KEXTA   =  0.00D+00  THRCOARS=  0.00D+00  SYMTOL  =  1.00D-06  GRADTOL =  1.00D-06  THROVL  =  1.00D-08
 THRORTH =  1.00D-08  GRID    =  1.00D-06  GRIDMAX =  1.00D-03  DTMAX   =  0.00D+00  THROCCDE=  1.00D-01  THROCCDE=  1.00D-01



 Input parameters for SORTINT:

 COMPRESS =    0.000000
 C_FINAL  =    1.000000
 DEBUG    =   -1.000000
 C_SORT1  =    0.000000
 C_SEWARD =    0.000000
 THRESH   =    0.000000
 IO       =  molpro                                                          
 SPRI     =    0.000000
 SETTING GEOMTYP        =    XYZ
 ZUNIT=BOHR
 

 Variable memory set to  995000000 words,  buffer space   230000 words

 SETTING BASIS          =    USERDEF


 Recomputing integrals since basis changed


 Using spherical harmonics

 Library entry H      S aug-cc-pVTZ          selected for orbital group  2
 Library entry H      P aug-cc-pVTZ          selected for orbital group  2
 Library entry H      D aug-cc-pVTZ          selected for orbital group  2


 PROGRAM * SEWARD (Integral evaluation for generally contracted gaussian basis sets)     Author: Roland Lindh, 1990

 Geometry written to block  1 of record 700


 Point group  Cs  



 ATOMIC COORDINATES

 NR  ATOM    CHARGE       X              Y              Z

   1  N       7.00    0.000000000   -0.159948153   -1.152788063
   2  H       1.00    0.000000000    1.662470553   -1.923293443
   3  O       8.00    0.000000000    0.039245390    1.125491915

 Bond lengths in Bohr (Angstrom)

 1-2  1.978607712  1-3  2.286971299
     ( 1.047034111)     ( 1.210213094)

 Bond angles

  2-1-3  107.92153574

 NUCLEAR CHARGE:                   16
 NUMBER OF PRIMITIVE AOS:         203
 NUMBER OF SYMMETRY AOS:          173
 NUMBER OF CONTRACTIONS:          171   ( 114A'  +  57A"  )
 NUMBER OF CORE ORBITALS:           2   (   2A'  +   0A"  )
 NUMBER OF VALENCE ORBITALS:        9   (   7A'  +   2A"  )


 NUCLEAR REPULSION ENERGY   30.34054614


 Eigenvalues of metric

         1 0.104E-02 0.251E-02 0.332E-02 0.633E-02 0.969E-02 0.136E-01 0.145E-01 0.229E-01
         2 0.358E-01 0.534E-01 0.697E-01 0.941E-01 0.131E+00 0.134E+00 0.140E+00 0.142E+00


 Contracted 2-electron integrals neglected if value below      1.0D-22

       46141115. INTEGRALS WRITTEN OUT IN   11268 BLOCKS ON RECORD 1290 OF FILE 1


 NUMBER OF SORTED TWO-ELECTRON INTEGRALS:   55360566.     BUFFER LENGTH:  32768
 NUMBER OF SEGMENTS:   4  SEGMENT LENGTH:   15997996      RECORD LENGTH: 524288

 Memory used in sort:      16.56 MW

 SORT1 READ    46141115. AND WROTE    46578531. INTEGRALS IN    135 RECORDS. CPU TIME:     1.11 SEC, REAL TIME:     1.38 SEC
 SORT2 READ    46578531. AND WROTE    55360566. INTEGRALS IN      4 RECORDS. CPU TIME:     0.79 SEC, REAL TIME:     1.02 SEC

 FILE SIZES:   FILE 1:   759.2 MBYTE,  FILE 4:   566.3 MBYTE,   TOTAL:   1325.5 MBYTE

 OPERATOR DM      FOR CENTER  0  COORDINATES:    0.000000    0.000000    0.000000


 **********************************************************************************************************************************
 DATASETS  * FILE   NREC   LENGTH (MB)   RECORD NAMES
              1      19      421.22       500      610      700      900      950      970     1000      129      960     1100   
                                          VAR    BASINP    GEOM    SYMINP    ZMAT    AOBASIS   BASIS     P2S    ABASIS      S 
                                         1400     1410     1200     1210     1080     1600     1650     1300     1700   
                                           T        V       H0       H01     AOSYM     SMH    MOLCAS    ERIS     OPER   

 PROGRAMS   *        TOTAL       INT
 CPU TIMES  *         5.22      5.11
 REAL TIME  *         6.77 SEC
 DISK USED  *         1.33 GB      
 **********************************************************************************************************************************


 PROGRAM * RHF-SCF (CLOSED SHELL)       Authors: W. Meyer, H.-J. Werner


 NUMBER OF ELECTRONS:       8+    8-
 CONVERGENCE THRESHOLDS:    1.00E-10 (Density)    1.00E-13 (Energy)
 MAX. NUMBER OF ITERATIONS:      500
 INTERPOLATION TYPE:            DIIS
 INTERPOLATION STEPS:              2 (START)      1 (STEP)
 LEVEL SHIFTS:                  0.00 (CLOSED)  0.00 (OPEN) 



 Orbital guess generated from atomic densities. Full valence occupancy:    9   2

 Molecular orbital dump at record        2100.2

 Initial occupancy:   7   1

 ITERATION    DDIFF          GRAD             ENERGY        2-EL.EN.            DIPOLE MOMENTS         DIIS   ORB.
    1      0.000D+00      0.000D+00      -129.78899123    154.015154    0.00000    0.57155   -1.01959    0    start
    2      0.000D+00      0.879D-02      -129.81584247    155.178157    0.00000    0.59960   -0.19598    1    diag
    3      0.366D-02      0.670D-02      -129.83879025    155.305489    0.00000    0.54824   -0.58640    2    diag
    4      0.142D-02      0.104D-02      -129.83957681    155.030077    0.00000    0.55645   -0.52369    3    diag
    5      0.332D-03      0.338D-03      -129.83969720    155.117851    0.00000    0.56238   -0.52602    4    diag
    6      0.153D-03      0.988D-04      -129.83971680    155.101792    0.00000    0.56293   -0.52187    5    diag
    7      0.607D-04      0.497D-04      -129.83972263    155.104280    0.00000    0.56424   -0.51932    6    diag
    8      0.413D-04      0.171D-04      -129.83972327    155.103445    0.00000    0.56429   -0.51839    7    diag
    9      0.144D-04      0.319D-05      -129.83972330    155.103332    0.00000    0.56424   -0.51821    8    diag
   10      0.295D-05      0.722D-06      -129.83972330    155.103319    0.00000    0.56421   -0.51818    9    orth
   11      0.871D-06      0.143D-06      -129.83972330    155.103315    0.00000    0.56420   -0.51818    9    diag
   12      0.205D-06      0.298D-07      -129.83972330    155.103315    0.00000    0.56420   -0.51818    9    diag
   13      0.499D-07      0.792D-08      -129.83972330    155.103314    0.00000    0.56420   -0.51817    9    diag
   14      0.114D-07      0.139D-08      -129.83972330    155.103314    0.00000    0.56420   -0.51817    9    diag
   15      0.143D-08      0.370D-09      -129.83972330    155.103314    0.00000    0.56420   -0.51817    9    diag
   16      0.322D-09      0.107D-09      -129.83972330    155.103314    0.00000    0.56420   -0.51817    9    diag
   17      0.706D-10      0.288D-10      -129.83972330    155.103314    0.00000    0.56420   -0.51817    9    diag
   18      0.212D-10      0.949D-11      -129.83972330    155.103314    0.00000    0.56420   -0.51817    0    orth

 Final occupancy:   7   1

 !RHF STATE 1.1 Energy               -129.839723299196
 Nuclear energy                        30.34054614
 One-electron energy                 -237.73192655
 Two-electron energy                   77.55165711
 Virial quotient                       -1.00163284
 !RHF STATE 1.1 Dipole moment           0.00000000     0.56419746    -0.51817477
 Dipole moment /Debye                   0.00000000     1.43395298    -1.31698264

 Orbital energies:

         1.1          2.1          3.1          4.1          5.1          6.1          7.1          8.1          9.1
    -20.651336   -15.710365    -1.526412    -0.994543    -0.745078    -0.663541    -0.429920     0.039729     0.193169

         1.2          2.2          3.2
     -0.593111     0.078353     0.239479

 HOMO      7.1    -0.429920 =     -11.6987eV
 LUMO      8.1     0.039729 =       1.0811eV
 LUMO-HOMO         0.469649 =      12.7798eV


 **********************************************************************************************************************************
 DATASETS  * FILE   NREC   LENGTH (MB)   RECORD NAMES
              1      19      421.22       500      610      700      900      950      970     1000      129      960     1100   
                                          VAR    BASINP    GEOM    SYMINP    ZMAT    AOBASIS   BASIS     P2S    ABASIS      S 
                                         1400     1410     1200     1210     1080     1600     1650     1300     1700   
                                           T        V       H0       H01     AOSYM     SMH    MOLCAS    ERIS     OPER   

              2       4        3.13       700     1000      520     2100   
                                         GEOM     BASIS   MCVARS     RHF  

 PROGRAMS   *        TOTAL        HF       INT
 CPU TIMES  *        10.85      5.63      5.11
 REAL TIME  *        13.40 SEC
 DISK USED  *         1.33 GB      
 **********************************************************************************************************************************


 PROGRAM * CCSD (Closed-shell coupled cluster)     Authors: C. Hampel, H.-J. Werner, 1991, M. Deegan, P.J. Knowles, 1992


 Convergence thresholds:  THRVAR = 1.00D-08  THRDEN = 1.00D-12

 CCSD(T)     terms to be evaluated (factor= 1.000)


 Number of closed-shell orbitals:   8 (   7   1 )
 Number of external orbitals:     163 ( 107  56 )

 Molecular orbitals read from record     2100.2  Type=RHF/CANONICAL (state 1.1)

 Number of N-1 electron functions:               8
 Number of N-2 electron functions:              36
 Number of singly external CSFs:               805
 Number of doubly external CSFs:            449165
 Total number of CSFs:                      449971

 Length of J-op  integral file:               0.00 MB
 Length of K-op  integral file:               1.15 MB
 Length of 3-ext integral record:             0.00 MB

 Memory could be reduced to 24.90 Mwords without degradation in triples

 Integral transformation finished. Total CPU:   1.23 sec, npass=  1  Memory used:   6.89 MW

 Reference energy:                   -129.83972330

 MP2 singlet pair energy:              -0.37904867
 MP2 triplet pair energy:              -0.18671205
 MP2 correlation energy:               -0.56576072
 MP2 total energy:                   -130.40548402

 SCS-MP2 correlation energy:           -0.57103479   (PS=  1.200000  PT=  0.333333)
 SCS-MP2 total energy:               -130.41075809

 ITER.      SQ.NORM     CORR.ENERGY   TOTAL ENERGY   ENERGY CHANGE        DEN1      VAR(S)    VAR(P)  DIIS     TIME  TIME/IT
   1      1.11983049    -0.57041690  -130.41014020    -0.00465618     0.01309879  0.34D-02  0.31D-02  1  1     2.68     1.48
   2      1.13072729    -0.57010292  -130.40982622     0.00031398    -0.01373985  0.91D-04  0.50D-03  2  2     4.18     1.52
   3      1.13598057    -0.57042781  -130.41015111    -0.00032489    -0.00235747  0.55D-04  0.69D-04  3  3     5.67     1.53
   4      1.13942808    -0.57042043  -130.41014373     0.00000738    -0.00138858  0.45D-05  0.98D-05  4  4     7.14     1.54
   5      1.14048243    -0.57044485  -130.41016814    -0.00002441    -0.00024823  0.16D-05  0.19D-05  5  5     8.61     1.54
   6      1.14089069    -0.57043879  -130.41016209     0.00000605    -0.00003940  0.13D-06  0.41D-06  6  6    10.06     1.54
   7      1.14097342    -0.57043914  -130.41016244    -0.00000035     0.00000066  0.18D-07  0.95D-07  6  1    11.55     1.55
   8      1.14100706    -0.57043740  -130.41016070     0.00000174    -0.00000474  0.41D-08  0.14D-07  6  2    13.01     1.55
   9      1.14101165    -0.57043750  -130.41016080    -0.00000010     0.00000116  0.17D-08  0.18D-08  6  3    14.52     1.55
  10      1.14101185    -0.57043783  -130.41016113    -0.00000033    -0.00000002  0.59D-09  0.33D-09  6  1    16.02     1.55
  11      1.14101106    -0.57043806  -130.41016136    -0.00000024     0.00000015  0.49D-10  0.35D-10  6  4    17.55     1.55
  12      1.14101065    -0.57043808  -130.41016138    -0.00000002     0.00000006  0.74D-11  0.35D-11  6  5    19.05     1.55
  13      1.14101051    -0.57043810  -130.41016140    -0.00000002     0.00000002  0.14D-11  0.58D-12  6  6    20.54     1.55
  14      1.14101043    -0.57043811  -130.41016141    -0.00000000     0.00000002  0.61D-12  0.12D-12  6  2    22.03     1.56
  15      1.14101035    -0.57043811  -130.41016141    -0.00000000     0.00000001  0.10D-12  0.26D-13  6  3    23.51     1.56
  16      1.14101031    -0.57043811  -130.41016141    -0.00000000     0.00000000  0.11D-13  0.79D-14  6  1    25.00     1.56
  17      1.14101030    -0.57043811  -130.41016141    -0.00000000     0.00000000  0.14D-14  0.26D-14  6  4    26.47     1.56
  18      1.14101029    -0.57043811  -130.41016141    -0.00000000     0.00000000  0.10D-15  0.79D-15  6  5    27.92     1.56
  19      1.14101029    -0.57043811  -130.41016141    -0.00000000     0.00000000  0.40D-16  0.17D-15  6  6    29.41     1.56
  20      1.14101029    -0.57043811  -130.41016141     0.00000000     0.00000000  0.14D-16  0.21D-16  6  3    30.92     1.56
  21      1.14101029    -0.57043811  -130.41016141     0.00000000    -0.00000000  0.10D-17  0.23D-17  6  2    32.41     1.56
  22      1.14101029    -0.57043811  -130.41016141    -0.00000000     0.00000000  0.65D-18  0.46D-18  6  1    33.91     1.56
  23      1.14101029    -0.57043811  -130.41016141    -0.00000000     0.00000000  0.16D-18  0.48D-19  6  4    35.40     1.56
  24      1.14101029    -0.57043811  -130.41016141    -0.00000000     0.00000000  0.48D-19  0.12D-19  6  5    36.86     1.56
  25      1.14101029    -0.57043811  -130.41016141    -0.00000000    -0.00000000  0.81D-20  0.27D-20  6  3    38.35     1.56
  26      1.14101029    -0.57043811  -130.41016141     0.00000000    -0.00000000  0.35D-21  0.37D-21  6  6    39.80     1.56

 Norm of t1 vector:      0.07774584      S-energy:     0.00000000      T1 diagnostic:  0.01374365
                                                                       D1 diagnostic:  0.04430905

 Doubles amplitudes (print threshold =  0.500E-01):

         I         J         SYM. A    SYM. B    A         B      T(IJ, AB)

         8         8         2         2         1         1     -0.13535435


 Total CPU time for triples:     23.10 sec


 RESULTS
 =======

  Reference energy                   -129.839723299196

  Correlated core orbitals:             1.1       2.1
  Orbital energies:                   -20.6513  -15.7104
 
  CCSD core-core energy                -0.079232888381
  CCSD core-valence energy             -0.036071811911
  CCSD valence correlation energy      -0.455133412416
 
  CCSD singlet pair energy             -0.407966895370
  CCSD triplet pair energy             -0.162471217339
  CCSD correlation energy              -0.570438112707

  Triples (T) contribution             -0.022319780760
  Total correlation energy             -0.592757893468

  CCSD total energy                  -130.410161411903
  CCSD[T] energy                     -130.433656138701
  CCSD-T energy                      -130.432040400785
 !CCSD(T) total energy               -130.432481192664

 Timing summary (sec):

 STEP                 CPU(USER)    SYS     CPU(TOT)    WALL
 Transformation          1.26      0.14      1.40      1.38
 CCSD iterations        38.55      1.98     40.53     40.56
 Triples                23.10      0.53     23.63     23.64

 Program statistics:

 Available memory in ccsd:               994999644
 Min. memory needed in ccsd:               1368037
 Max. memory used in ccsd:                 1750502
 Max. memory used in cckext:               2014357 (26 integral passes)



 **********************************************************************************************************************************
 DATASETS  * FILE   NREC   LENGTH (MB)   RECORD NAMES
              1      20      500.14       500      610      700      900      950      970     1000      129      960     1100   
                                          VAR    BASINP    GEOM    SYMINP    ZMAT    AOBASIS   BASIS     P2S    ABASIS      S 
                                         1400     1410     1200     1210     1080     1600     1650     1300     1700     1380   
                                           T        V       H0       H01     AOSYM     SMH    MOLCAS    ERIS     OPER     JKOP   

              2       4        3.13       700     1000      520     2100   
                                         GEOM     BASIS   MCVARS     RHF  

 PROGRAMS   *        TOTAL   CCSD(T)        HF       INT
 CPU TIMES  *        73.79     62.94      5.63      5.11
 REAL TIME  *        79.01 SEC
 DISK USED  *         1.33 GB      
 **********************************************************************************************************************************

 CCSD(T)/USERDEF energy=   -130.432481192664

        CCSD(T)         HF-SCF  
   -130.43248119   -129.83972330
 **********************************************************************************************************************************
 Molpro calculation terminated
 Variable memory released
