
 Primary working directories    : /tmp/r2666/235433.maple
 Secondary working directories  : /tmp/r2666/235433.maple
 Wavefunction directory         : /ddn/home4/r2666/wfu/
 Main file repository           : /tmp/r2666/235433.maple/

 SHA1      : d5ffa45e93fdbca01ffc919aa182cfdae0147319
 NAME      : 2015.1.35
 ARCHNAME  : linux/x86_64
 FC        : /opt/intel/composer_xe_2015.1.133/bin/intel64/ifort
 BLASLIB   : -Wl,-_start-group /opt/intel/mkl/lib/intel64/libmkl_intel_ilp64.a /opt/intel/mkl/lib/intel64/libmkl_intel_thread.a /opt/intel/mkl/lib/intel64/libmkl_core.a -Wl,-_end-group
 id        : olemiss

 Nodes     nprocs
 cn047        1

 Using customized tuning parameters: mindgm=1; mindgv=20; mindgc=4; mindgr=1; noblas=0; minvec=7
 default implementation of scratch files=df  

 ***,hno CCSD(T)/TZ-F12 QFF
 memory, 995, m;
 gthresh,energy=1.d-12,zero=1.d-22,oneint=1.d-22,twoint=1.d-22;
 gthresh,optgrad=1.d-8,optstep=1.d-8;
 nocompress;
 geomtyp=xyz
 bohr
 geometry={
 3
         30        30
 N        0.0000000000       -0.1470778689       -1.1325740764
 H        0.0000000000        1.6610286493       -1.9360909072
 O        0.0000000000        0.0278170095        1.1180753925
 }
 
 basis={
 default=aug-cc-pvtz
 s,C,8236.0,1235.0,280.8, 79.27,25.59, 8.997,3.319
 s,C,0.9059,0.3643,0.1285000
 p,C,56.0,18.71,4.133,0.2827,0.3827,0.1209
 d,C,30.0,10.0,3.3,1.097,0.318
 f,C,7.0,2.3,0.7610
 s,N,11420.0,1712.0,389.3,110.0,35.57,12.54,4.644
 s,N,1.293,0.5118,0.1787
 p,N,79.89,26.63,5.948,1.742,0.555,0.1725
 d,N,45.0,15.0,5.0,1.654,0.469
 f,N,9.9,3.3,1.093
 s,O,15330.0,2299.0,522.4,147.3,47.55,16.76,6.207
 s,O,1.752,0.6882,0.2384
 p,O,103.5,34.46,7.749,2.28,0.7156,0.214
 d,O,63.0,21.0,7.0,2.314,0.645
 f,O,12.9,4.3,1.428
 s,mg,164900.0,24710.0,5628.0,1596.0,521.0;
 s,mg,188.0,73.01,29.90,12.54,4.306,1.826;
 s,mg,0.7417,0.0761,0.145,0.033,0.0129;
 p,mg,950.70,316.90,74.86,23.72,8.669,3.363;
 p,mg,1.310,0.4911,0.2364,0.08733,0.03237,0.00745;
 d,mg,1.601,0.686,0.126,0.294,0.0468;
 f,mg,1.372,0.588,0.094,0.252;
 }
   {hf,maxit=500;accu,20;}
 {ccsd(t),nocheck,maxit=250;orbital,IGNORE_ERROR;core}

 Variables initialized (889), CPU time= 0.01 sec
 Commands  initialized (702), CPU time= 0.00 sec, 572 directives.
 Default parameters read. Elapsed time= 0.06 sec

 Checking input...
 Passed
1


                                         ***  PROGRAM SYSTEM MOLPRO  ***
                                       Copyright, TTI GmbH Stuttgart, 2015
                                    Version 2015.1 linked Jul  9 2018 13:16:40


 **********************************************************************************************************************************
 LABEL *   hno CCSD(T)/TZ-F12 QFF                                                        
  64 bit serial version                                                                  DATE: 08-Feb-20          TIME: 17:59:21  
 **********************************************************************************************************************************

 SHA1:             d5ffa45e93fdbca01ffc919aa182cfdae0147319
 **********************************************************************************************************************************

 THRESHOLDS:

 ZERO    =  1.00D-22  ONEINT  =  1.00D-22  TWOINT  =  1.00D-22  PREFAC  =  1.00D-14  LOCALI  =  1.00D-09  EORDER  =  1.00D-04
 ENERGY  =  1.00D-12  ETEST   =  0.00D+00  EDENS   =  0.00D+00  THRDEDEF=  1.00D-06  GRADIENT=  1.00D-02  STEP    =  1.00D-03
 ORBITAL =  1.00D-05  CIVEC   =  1.00D-05  COEFF   =  1.00D-04  PRINTCI =  5.00D-02  PUNCHCI =  9.90D+01  OPTGRAD =  3.00D-04
 OPTENERG=  1.00D-06  OPTSTEP =  3.00D-04  THRGRAD =  1.00D-10  COMPRESS=  1.00D-11  VARMIN  =  1.00D-07  VARMAX  =  1.00D-03
 THRDOUB =  0.00D+00  THRDIV  =  1.00D-05  THRRED  =  1.00D-07  THRPSP  =  1.00D+00  THRDC   =  1.00D-10  THRCS   =  1.00D-10
 THRNRM  =  1.00D-08  THREQ   =  0.00D+00  THRDE   =  1.00D+00  THRREF  =  1.00D-05  SPARFAC =  1.00D+00  THRDLP  =  1.00D-07
 THRDIA  =  1.00D-10  THRDLS  =  1.00D-07  THRGPS  =  0.00D+00  THRKEX  =  0.00D+00  THRDIS  =  2.00D-01  THRVAR  =  1.00D-10
 THRLOC  =  1.00D-06  THRGAP  =  1.00D-06  THRLOCT = -1.00D+00  THRGAPT = -1.00D+00  THRORB  =  1.00D-06  THRMLTP =  0.00D+00
 THRCPQCI=  1.00D-10  KEXTA   =  0.00D+00  THRCOARS=  0.00D+00  SYMTOL  =  1.00D-06  GRADTOL =  1.00D-06  THROVL  =  1.00D-08
 THRORTH =  1.00D-08  GRID    =  1.00D-06  GRIDMAX =  1.00D-03  DTMAX   =  0.00D+00  THROCCDE=  1.00D-01  THROCCDE=  1.00D-01



 THRESHOLDS:

 ZERO    =  1.00D-22  ONEINT  =  1.00D-22  TWOINT  =  1.00D-22  PREFAC  =  1.00D-14  LOCALI  =  1.00D-09  EORDER  =  1.00D-04
 ENERGY  =  1.00D-12  ETEST   =  0.00D+00  EDENS   =  0.00D+00  THRDEDEF=  1.00D-06  GRADIENT=  1.00D-02  STEP    =  1.00D-03
 ORBITAL =  1.00D-05  CIVEC   =  1.00D-05  COEFF   =  1.00D-04  PRINTCI =  5.00D-02  PUNCHCI =  9.90D+01  OPTGRAD =  1.00D-08
 OPTENERG=  1.00D-06  OPTSTEP =  1.00D-08  THRGRAD =  1.00D-10  COMPRESS=  1.00D-11  VARMIN  =  1.00D-07  VARMAX  =  1.00D-03
 THRDOUB =  0.00D+00  THRDIV  =  1.00D-05  THRRED  =  1.00D-07  THRPSP  =  1.00D+00  THRDC   =  1.00D-10  THRCS   =  1.00D-10
 THRNRM  =  1.00D-08  THREQ   =  0.00D+00  THRDE   =  1.00D+00  THRREF  =  1.00D-05  SPARFAC =  1.00D+00  THRDLP  =  1.00D-07
 THRDIA  =  1.00D-10  THRDLS  =  1.00D-07  THRGPS  =  0.00D+00  THRKEX  =  0.00D+00  THRDIS  =  2.00D-01  THRVAR  =  1.00D-10
 THRLOC  =  1.00D-06  THRGAP  =  1.00D-06  THRLOCT = -1.00D+00  THRGAPT = -1.00D+00  THRORB  =  1.00D-06  THRMLTP =  0.00D+00
 THRCPQCI=  1.00D-10  KEXTA   =  0.00D+00  THRCOARS=  0.00D+00  SYMTOL  =  1.00D-06  GRADTOL =  1.00D-06  THROVL  =  1.00D-08
 THRORTH =  1.00D-08  GRID    =  1.00D-06  GRIDMAX =  1.00D-03  DTMAX   =  0.00D+00  THROCCDE=  1.00D-01  THROCCDE=  1.00D-01



 Input parameters for SORTINT:

 COMPRESS =    0.000000
 C_FINAL  =    1.000000
 DEBUG    =   -1.000000
 C_SORT1  =    0.000000
 C_SEWARD =    0.000000
 THRESH   =    0.000000
 IO       =  molpro                                                          
 SPRI     =    0.000000
 SETTING GEOMTYP        =    XYZ
 ZUNIT=BOHR
 

 Variable memory set to  995000000 words,  buffer space   230000 words

 SETTING BASIS          =    USERDEF


 Recomputing integrals since basis changed


 Using spherical harmonics

 Library entry H      S aug-cc-pVTZ          selected for orbital group  2
 Library entry H      P aug-cc-pVTZ          selected for orbital group  2
 Library entry H      D aug-cc-pVTZ          selected for orbital group  2


 PROGRAM * SEWARD (Integral evaluation for generally contracted gaussian basis sets)     Author: Roland Lindh, 1990

 Geometry written to block  1 of record 700


 Point group  Cs  



 ATOMIC COORDINATES

 NR  ATOM    CHARGE       X              Y              Z

   1  N       7.00    0.000000000   -0.147077869   -1.132574076
   2  H       1.00    0.000000000    1.661028649   -1.936090907
   3  O       8.00    0.000000000    0.027817009    1.118075392

 Bond lengths in Bohr (Angstrom)

 1-2  1.978607712  1-3  2.257434661
     ( 1.047034111)     ( 1.194582978)

 Bond angles

  2-1-3  109.51676495

 NUCLEAR CHARGE:                   16
 NUMBER OF PRIMITIVE AOS:         203
 NUMBER OF SYMMETRY AOS:          173
 NUMBER OF CONTRACTIONS:          171   ( 114A'  +  57A"  )
 NUMBER OF CORE ORBITALS:           2   (   2A'  +   0A"  )
 NUMBER OF VALENCE ORBITALS:        9   (   7A'  +   2A"  )


 NUCLEAR REPULSION ENERGY   30.65461310


 Eigenvalues of metric

         1 0.101E-02 0.237E-02 0.326E-02 0.626E-02 0.967E-02 0.136E-01 0.143E-01 0.226E-01
         2 0.355E-01 0.510E-01 0.683E-01 0.941E-01 0.130E+00 0.134E+00 0.140E+00 0.142E+00


 Contracted 2-electron integrals neglected if value below      1.0D-22

       46257647. INTEGRALS WRITTEN OUT IN   11297 BLOCKS ON RECORD 1290 OF FILE 1


 NUMBER OF SORTED TWO-ELECTRON INTEGRALS:   55360566.     BUFFER LENGTH:  32768
 NUMBER OF SEGMENTS:   4  SEGMENT LENGTH:   15997996      RECORD LENGTH: 524288

 Memory used in sort:      16.56 MW

 SORT1 READ    46257647. AND WROTE    46696176. INTEGRALS IN    136 RECORDS. CPU TIME:     1.55 SEC, REAL TIME:     1.91 SEC
 SORT2 READ    46696176. AND WROTE    55360566. INTEGRALS IN      4 RECORDS. CPU TIME:     0.80 SEC, REAL TIME:     1.13 SEC

 FILE SIZES:   FILE 1:   761.1 MBYTE,  FILE 4:   570.5 MBYTE,   TOTAL:   1331.5 MBYTE

 OPERATOR DM      FOR CENTER  0  COORDINATES:    0.000000    0.000000    0.000000


 **********************************************************************************************************************************
 DATASETS  * FILE   NREC   LENGTH (MB)   RECORD NAMES
              1      19      421.98       500      610      700      900      950      970     1000      129      960     1100   
                                          VAR    BASINP    GEOM    SYMINP    ZMAT    AOBASIS   BASIS     P2S    ABASIS      S 
                                         1400     1410     1200     1210     1080     1600     1650     1300     1700   
                                           T        V       H0       H01     AOSYM     SMH    MOLCAS    ERIS     OPER   

 PROGRAMS   *        TOTAL       INT
 CPU TIMES  *         6.40      6.30
 REAL TIME  *         8.43 SEC
 DISK USED  *         1.33 GB      
 **********************************************************************************************************************************


 PROGRAM * RHF-SCF (CLOSED SHELL)       Authors: W. Meyer, H.-J. Werner


 NUMBER OF ELECTRONS:       8+    8-
 CONVERGENCE THRESHOLDS:    1.00E-10 (Density)    1.00E-13 (Energy)
 MAX. NUMBER OF ITERATIONS:      500
 INTERPOLATION TYPE:            DIIS
 INTERPOLATION STEPS:              2 (START)      1 (STEP)
 LEVEL SHIFTS:                  0.00 (CLOSED)  0.00 (OPEN) 



 Orbital guess generated from atomic densities. Full valence occupancy:    9   2

 Molecular orbital dump at record        2100.2

 Initial occupancy:   7   1

 ITERATION    DDIFF          GRAD             ENERGY        2-EL.EN.            DIPOLE MOMENTS         DIIS   ORB.
    1      0.000D+00      0.000D+00      -129.79322892    154.570519    0.00000    0.57786   -0.97347    0    start
    2      0.000D+00      0.862D-02      -129.82044983    155.769011    0.00000    0.58922   -0.20973    1    diag
    3      0.359D-02      0.633D-02      -129.84078775    155.861304    0.00000    0.54699   -0.56955    2    diag
    4      0.135D-02      0.103D-02      -129.84154473    155.596876    0.00000    0.55480   -0.50919    3    diag
    5      0.328D-03      0.329D-03      -129.84165880    155.683716    0.00000    0.56086   -0.51192    4    diag
    6      0.151D-03      0.959D-04      -129.84167720    155.667897    0.00000    0.56152   -0.50806    5    diag
    7      0.601D-04      0.475D-04      -129.84168244    155.670537    0.00000    0.56288   -0.50575    6    diag
    8      0.404D-04      0.157D-04      -129.84168294    155.669783    0.00000    0.56294   -0.50494    7    diag
    9      0.131D-04      0.288D-05      -129.84168296    155.669682    0.00000    0.56289   -0.50477    8    diag
   10      0.256D-05      0.682D-06      -129.84168297    155.669668    0.00000    0.56286   -0.50475    9    orth
   11      0.825D-06      0.138D-06      -129.84168297    155.669664    0.00000    0.56285   -0.50474    9    diag
   12      0.199D-06      0.276D-07      -129.84168297    155.669663    0.00000    0.56285   -0.50474    9    diag
   13      0.474D-07      0.712D-08      -129.84168297    155.669663    0.00000    0.56285   -0.50474    9    diag
   14      0.107D-07      0.129D-08      -129.84168297    155.669663    0.00000    0.56285   -0.50474    9    diag
   15      0.150D-08      0.361D-09      -129.84168297    155.669663    0.00000    0.56285   -0.50474    9    diag
   16      0.327D-09      0.112D-09      -129.84168297    155.669663    0.00000    0.56285   -0.50474    9    diag
   17      0.871D-10      0.325D-10      -129.84168297    155.669663    0.00000    0.56285   -0.50474    9    diag
   18      0.294D-10      0.104D-10      -129.84168297    155.669663    0.00000    0.56285   -0.50474    9    diag
   19      0.108D-10      0.258D-11      -129.84168297    155.669663    0.00000    0.56285   -0.50474    9    fixocc
   20      0.250D-11      0.566D-12      -129.84168297    155.669663    0.00000    0.56285   -0.50474    9    orth
   21      0.368D-12      0.244D-12      -129.84168297    155.669663    0.00000    0.56285   -0.50474    9    diag
   22      0.147D-12      0.211D-12      -129.84168297    155.669663    0.00000    0.56285   -0.50474    9    diag
   23      0.768D-13      0.533D-12      -129.84168297    155.669663    0.00000    0.56285   -0.50474    9    diag
   24      0.620D-13      0.428D-12      -129.84168297    155.669663    0.00000    0.56285   -0.50474    9    diag
   25      0.158D-12      0.363D-12      -129.84168297    155.669663    0.00000    0.56285   -0.50474    9    diag
   26      0.156D-12      0.516D-12      -129.84168297    155.669663    0.00000    0.56285   -0.50474    0    orth

 Final occupancy:   7   1

 !RHF STATE 1.1 Energy               -129.841682965252
 Nuclear energy                        30.65461310
 One-electron energy                 -238.33112753
 Two-electron energy                   77.83483147
 Virial quotient                       -1.00119728
 !RHF STATE 1.1 Dipole moment           0.00000000     0.56284774    -0.50474170
 Dipole moment /Debye                   0.00000000     1.43052256    -1.28284140

 Orbital energies:

         1.1          2.1          3.1          4.1          5.1          6.1          7.1          8.1          9.1
    -20.650244   -15.707412    -1.538541    -0.991919    -0.749805    -0.668416    -0.423974     0.039811     0.193839

         1.2          2.2          3.2
     -0.600420     0.083463     0.240190

 HOMO      7.1    -0.423974 =     -11.5369eV
 LUMO      8.1     0.039811 =       1.0833eV
 LUMO-HOMO         0.463786 =      12.6203eV


 **********************************************************************************************************************************
 DATASETS  * FILE   NREC   LENGTH (MB)   RECORD NAMES
              1      19      421.98       500      610      700      900      950      970     1000      129      960     1100   
                                          VAR    BASINP    GEOM    SYMINP    ZMAT    AOBASIS   BASIS     P2S    ABASIS      S 
                                         1400     1410     1200     1210     1080     1600     1650     1300     1700   
                                           T        V       H0       H01     AOSYM     SMH    MOLCAS    ERIS     OPER   

              2       4        3.13       700     1000      520     2100   
                                         GEOM     BASIS   MCVARS     RHF  

 PROGRAMS   *        TOTAL        HF       INT
 CPU TIMES  *        15.16      8.76      6.30
 REAL TIME  *        19.43 SEC
 DISK USED  *         1.33 GB      
 **********************************************************************************************************************************


 PROGRAM * CCSD (Closed-shell coupled cluster)     Authors: C. Hampel, H.-J. Werner, 1991, M. Deegan, P.J. Knowles, 1992


 Convergence thresholds:  THRVAR = 1.00D-08  THRDEN = 1.00D-12

 CCSD(T)     terms to be evaluated (factor= 1.000)


 Number of closed-shell orbitals:   8 (   7   1 )
 Number of external orbitals:     163 ( 107  56 )

 Molecular orbitals read from record     2100.2  Type=RHF/CANONICAL (state 1.1)

 Number of N-1 electron functions:               8
 Number of N-2 electron functions:              36
 Number of singly external CSFs:               805
 Number of doubly external CSFs:            449165
 Total number of CSFs:                      449971

 Length of J-op  integral file:               0.00 MB
 Length of K-op  integral file:               1.15 MB
 Length of 3-ext integral record:             0.00 MB

 Memory could be reduced to 24.90 Mwords without degradation in triples

 Integral transformation finished. Total CPU:   1.26 sec, npass=  1  Memory used:   6.89 MW

 Reference energy:                   -129.84168297

 MP2 singlet pair energy:              -0.37750155
 MP2 triplet pair energy:              -0.18575852
 MP2 correlation energy:               -0.56326007
 MP2 total energy:                   -130.40494303

 SCS-MP2 correlation energy:           -0.56858494   (PS=  1.200000  PT=  0.333333)
 SCS-MP2 total energy:               -130.41026790

 ITER.      SQ.NORM     CORR.ENERGY   TOTAL ENERGY   ENERGY CHANGE        DEN1      VAR(S)    VAR(P)  DIIS     TIME  TIME/IT
   1      1.11821842    -0.56848551  -130.41016848    -0.00522544     0.01187855  0.32D-02  0.29D-02  1  1     2.68     1.49
   2      1.12873289    -0.56830075  -130.40998371     0.00018476    -0.01333262  0.85D-04  0.48D-03  2  2     4.12     1.53
   3      1.13377061    -0.56861101  -130.41029398    -0.00031026    -0.00229972  0.52D-04  0.65D-04  3  3     5.56     1.55
   4      1.13703834    -0.56860223  -130.41028519     0.00000878    -0.00133670  0.41D-05  0.93D-05  4  4     7.03     1.56
   5      1.13801743    -0.56862522  -130.41030818    -0.00002299    -0.00022841  0.15D-05  0.18D-05  5  5     8.49     1.56
   6      1.13840534    -0.56861991  -130.41030287     0.00000531    -0.00003685  0.13D-06  0.43D-06  6  6     9.97     1.57
   7      1.13849017    -0.56862015  -130.41030311    -0.00000024    -0.00000022  0.19D-07  0.93D-07  6  1    11.46     1.57
   8      1.13852420    -0.56861863  -130.41030160     0.00000152    -0.00000456  0.44D-08  0.13D-07  6  2    12.92     1.57
   9      1.13852913    -0.56861873  -130.41030169    -0.00000010     0.00000088  0.18D-08  0.16D-08  6  3    14.40     1.58
  10      1.13853057    -0.56861904  -130.41030200    -0.00000031    -0.00000053  0.40D-09  0.22D-09  6  4    15.87     1.58
  11      1.13852959    -0.56861917  -130.41030214    -0.00000013     0.00000034  0.94D-10  0.23D-10  6  5    17.39     1.58
  12      1.13852869    -0.56861930  -130.41030226    -0.00000013     0.00000034  0.99D-11  0.61D-11  6  6    18.88     1.58
  13      1.13852819    -0.56861931  -130.41030227    -0.00000001     0.00000011  0.43D-11  0.11D-11  6  1    20.36     1.58
  14      1.13852777    -0.56861933  -130.41030230    -0.00000002     0.00000010  0.46D-12  0.37D-12  6  3    21.81     1.58
  15      1.13852761    -0.56861933  -130.41030230    -0.00000000     0.00000002  0.11D-12  0.25D-13  6  2    23.32     1.58
  16      1.13852756    -0.56861934  -130.41030230    -0.00000000     0.00000001  0.24D-13  0.55D-14  6  4    24.77     1.58
  17      1.13852755    -0.56861934  -130.41030230    -0.00000000     0.00000000  0.38D-14  0.10D-14  6  5    26.26     1.58
  18      1.13852754    -0.56861934  -130.41030230    -0.00000000     0.00000000  0.38D-15  0.25D-15  6  6    27.71     1.58
  19      1.13852755    -0.56861934  -130.41030230     0.00000000    -0.00000000  0.43D-16  0.30D-16  6  1    29.15     1.58
  20      1.13852755    -0.56861934  -130.41030230     0.00000000    -0.00000000  0.19D-17  0.57D-17  6  3    30.65     1.58
  21      1.13852755    -0.56861934  -130.41030230     0.00000000    -0.00000000  0.94D-18  0.13D-17  6  2    32.09     1.58
  22      1.13852755    -0.56861934  -130.41030230     0.00000000    -0.00000000  0.15D-18  0.47D-18  6  4    33.57     1.58
  23      1.13852755    -0.56861934  -130.41030230    -0.00000000     0.00000000  0.88D-19  0.75D-19  6  5    35.05     1.59
  24      1.13852755    -0.56861934  -130.41030230     0.00000000    -0.00000000  0.41D-20  0.10D-19  6  1    36.57     1.59
  25      1.13852755    -0.56861934  -130.41030230     0.00000000     0.00000000  0.22D-21  0.12D-20  6  6    38.04     1.59
  26      1.13852755    -0.56861934  -130.41030230    -0.00000000     0.00000000  0.12D-21  0.27D-21  6  3    39.51     1.59

 Norm of t1 vector:      0.07576449      S-energy:     0.00000000      T1 diagnostic:  0.01339340
                                                                       D1 diagnostic:  0.04248525

 Doubles amplitudes (print threshold =  0.500E-01):

         I         J         SYM. A    SYM. B    A         B      T(IJ, AB)

         8         8         2         2         1         1     -0.13042261


 Total CPU time for triples:     23.41 sec


 RESULTS
 =======

  Reference energy                   -129.841682965252

  Correlated core orbitals:             1.1       2.1
  Orbital energies:                   -20.6502  -15.7074
 
  CCSD core-core energy                -0.079225563371
  CCSD core-valence energy             -0.036173544784
  CCSD valence correlation energy      -0.453220228354
 
  CCSD singlet pair energy             -0.406316874860
  CCSD triplet pair energy             -0.162302461650
  CCSD correlation energy              -0.568619336509

  Triples (T) contribution             -0.021848533072
  Total correlation energy             -0.590467869580

  CCSD total energy                  -130.410302301761
  CCSD[T] energy                     -130.433264642166
  CCSD-T energy                      -130.431726960012
 !CCSD(T) total energy               -130.432150834833

 Timing summary (sec):

 STEP                 CPU(USER)    SYS     CPU(TOT)    WALL
 Transformation          1.28      0.23      1.51      1.51
 CCSD iterations        38.24      3.03     41.27     41.28
 Triples                23.41      0.67     24.08     24.09

 Program statistics:

 Available memory in ccsd:               994999644
 Min. memory needed in ccsd:               1368037
 Max. memory used in ccsd:                 1750502
 Max. memory used in cckext:               2014357 (26 integral passes)



 **********************************************************************************************************************************
 DATASETS  * FILE   NREC   LENGTH (MB)   RECORD NAMES
              1      20      500.89       500      610      700      900      950      970     1000      129      960     1100   
                                          VAR    BASINP    GEOM    SYMINP    ZMAT    AOBASIS   BASIS     P2S    ABASIS      S 
                                         1400     1410     1200     1210     1080     1600     1650     1300     1700     1380   
                                           T        V       H0       H01     AOSYM     SMH    MOLCAS    ERIS     OPER     JKOP   

              2       4        3.13       700     1000      520     2100   
                                         GEOM     BASIS   MCVARS     RHF  

 PROGRAMS   *        TOTAL   CCSD(T)        HF       INT
 CPU TIMES  *        78.11     62.95      8.76      6.30
 REAL TIME  *        86.35 SEC
 DISK USED  *         1.33 GB      
 **********************************************************************************************************************************

 CCSD(T)/USERDEF energy=   -130.432150834833

        CCSD(T)         HF-SCF  
   -130.43215083   -129.84168297
 **********************************************************************************************************************************
 Molpro calculation terminated
 Variable memory released
