
 Primary working directories    : /tmp/r2666/235439.maple
 Secondary working directories  : /tmp/r2666/235439.maple
 Wavefunction directory         : /ddn/home4/r2666/wfu/
 Main file repository           : /tmp/r2666/235439.maple/

 SHA1      : d5ffa45e93fdbca01ffc919aa182cfdae0147319
 NAME      : 2015.1.35
 ARCHNAME  : linux/x86_64
 FC        : /opt/intel/composer_xe_2015.1.133/bin/intel64/ifort
 BLASLIB   : -Wl,-_start-group /opt/intel/mkl/lib/intel64/libmkl_intel_ilp64.a /opt/intel/mkl/lib/intel64/libmkl_intel_thread.a /opt/intel/mkl/lib/intel64/libmkl_core.a -Wl,-_end-group
 id        : olemiss

 Nodes     nprocs
 cn041        1

 Using customized tuning parameters: mindgm=1; mindgv=20; mindgc=4; mindgr=1; noblas=0; minvec=7
 default implementation of scratch files=df  

 ***,hno CCSD(T)/TZ-F12 QFF
 memory, 995, m;
 gthresh,energy=1.d-12,zero=1.d-22,oneint=1.d-22,twoint=1.d-22;
 gthresh,optgrad=1.d-8,optstep=1.d-8;
 nocompress;
 geomtyp=xyz
 bohr
 geometry={
 3
         36        36
 N        0.0000000000       -0.1644539829       -1.1665495552
 H        0.0000000000        1.6642513339       -1.9220132159
 O        0.0000000000        0.0419704390        1.1379731802
 }
 
 basis={
 default=aug-cc-pvtz
 s,C,8236.0,1235.0,280.8, 79.27,25.59, 8.997,3.319
 s,C,0.9059,0.3643,0.1285000
 p,C,56.0,18.71,4.133,0.2827,0.3827,0.1209
 d,C,30.0,10.0,3.3,1.097,0.318
 f,C,7.0,2.3,0.7610
 s,N,11420.0,1712.0,389.3,110.0,35.57,12.54,4.644
 s,N,1.293,0.5118,0.1787
 p,N,79.89,26.63,5.948,1.742,0.555,0.1725
 d,N,45.0,15.0,5.0,1.654,0.469
 f,N,9.9,3.3,1.093
 s,O,15330.0,2299.0,522.4,147.3,47.55,16.76,6.207
 s,O,1.752,0.6882,0.2384
 p,O,103.5,34.46,7.749,2.28,0.7156,0.214
 d,O,63.0,21.0,7.0,2.314,0.645
 f,O,12.9,4.3,1.428
 s,mg,164900.0,24710.0,5628.0,1596.0,521.0;
 s,mg,188.0,73.01,29.90,12.54,4.306,1.826;
 s,mg,0.7417,0.0761,0.145,0.033,0.0129;
 p,mg,950.70,316.90,74.86,23.72,8.669,3.363;
 p,mg,1.310,0.4911,0.2364,0.08733,0.03237,0.00745;
 d,mg,1.601,0.686,0.126,0.294,0.0468;
 f,mg,1.372,0.588,0.094,0.252;
 }
   {hf,maxit=500;accu,20;}
 {ccsd(t),nocheck,maxit=250;orbital,IGNORE_ERROR;core}

 Variables initialized (889), CPU time= 0.01 sec
 Commands  initialized (702), CPU time= 0.00 sec, 572 directives.
 Default parameters read. Elapsed time= 0.06 sec

 Checking input...
 Passed
1


                                         ***  PROGRAM SYSTEM MOLPRO  ***
                                       Copyright, TTI GmbH Stuttgart, 2015
                                    Version 2015.1 linked Jul  9 2018 13:16:40


 **********************************************************************************************************************************
 LABEL *   hno CCSD(T)/TZ-F12 QFF                                                        
  64 bit serial version                                                                  DATE: 08-Feb-20          TIME: 17:59:23  
 **********************************************************************************************************************************

 SHA1:             d5ffa45e93fdbca01ffc919aa182cfdae0147319
 **********************************************************************************************************************************

 THRESHOLDS:

 ZERO    =  1.00D-22  ONEINT  =  1.00D-22  TWOINT  =  1.00D-22  PREFAC  =  1.00D-14  LOCALI  =  1.00D-09  EORDER  =  1.00D-04
 ENERGY  =  1.00D-12  ETEST   =  0.00D+00  EDENS   =  0.00D+00  THRDEDEF=  1.00D-06  GRADIENT=  1.00D-02  STEP    =  1.00D-03
 ORBITAL =  1.00D-05  CIVEC   =  1.00D-05  COEFF   =  1.00D-04  PRINTCI =  5.00D-02  PUNCHCI =  9.90D+01  OPTGRAD =  3.00D-04
 OPTENERG=  1.00D-06  OPTSTEP =  3.00D-04  THRGRAD =  1.00D-10  COMPRESS=  1.00D-11  VARMIN  =  1.00D-07  VARMAX  =  1.00D-03
 THRDOUB =  0.00D+00  THRDIV  =  1.00D-05  THRRED  =  1.00D-07  THRPSP  =  1.00D+00  THRDC   =  1.00D-10  THRCS   =  1.00D-10
 THRNRM  =  1.00D-08  THREQ   =  0.00D+00  THRDE   =  1.00D+00  THRREF  =  1.00D-05  SPARFAC =  1.00D+00  THRDLP  =  1.00D-07
 THRDIA  =  1.00D-10  THRDLS  =  1.00D-07  THRGPS  =  0.00D+00  THRKEX  =  0.00D+00  THRDIS  =  2.00D-01  THRVAR  =  1.00D-10
 THRLOC  =  1.00D-06  THRGAP  =  1.00D-06  THRLOCT = -1.00D+00  THRGAPT = -1.00D+00  THRORB  =  1.00D-06  THRMLTP =  0.00D+00
 THRCPQCI=  1.00D-10  KEXTA   =  0.00D+00  THRCOARS=  0.00D+00  SYMTOL  =  1.00D-06  GRADTOL =  1.00D-06  THROVL  =  1.00D-08
 THRORTH =  1.00D-08  GRID    =  1.00D-06  GRIDMAX =  1.00D-03  DTMAX   =  0.00D+00  THROCCDE=  1.00D-01  THROCCDE=  1.00D-01



 THRESHOLDS:

 ZERO    =  1.00D-22  ONEINT  =  1.00D-22  TWOINT  =  1.00D-22  PREFAC  =  1.00D-14  LOCALI  =  1.00D-09  EORDER  =  1.00D-04
 ENERGY  =  1.00D-12  ETEST   =  0.00D+00  EDENS   =  0.00D+00  THRDEDEF=  1.00D-06  GRADIENT=  1.00D-02  STEP    =  1.00D-03
 ORBITAL =  1.00D-05  CIVEC   =  1.00D-05  COEFF   =  1.00D-04  PRINTCI =  5.00D-02  PUNCHCI =  9.90D+01  OPTGRAD =  1.00D-08
 OPTENERG=  1.00D-06  OPTSTEP =  1.00D-08  THRGRAD =  1.00D-10  COMPRESS=  1.00D-11  VARMIN  =  1.00D-07  VARMAX  =  1.00D-03
 THRDOUB =  0.00D+00  THRDIV  =  1.00D-05  THRRED  =  1.00D-07  THRPSP  =  1.00D+00  THRDC   =  1.00D-10  THRCS   =  1.00D-10
 THRNRM  =  1.00D-08  THREQ   =  0.00D+00  THRDE   =  1.00D+00  THRREF  =  1.00D-05  SPARFAC =  1.00D+00  THRDLP  =  1.00D-07
 THRDIA  =  1.00D-10  THRDLS  =  1.00D-07  THRGPS  =  0.00D+00  THRKEX  =  0.00D+00  THRDIS  =  2.00D-01  THRVAR  =  1.00D-10
 THRLOC  =  1.00D-06  THRGAP  =  1.00D-06  THRLOCT = -1.00D+00  THRGAPT = -1.00D+00  THRORB  =  1.00D-06  THRMLTP =  0.00D+00
 THRCPQCI=  1.00D-10  KEXTA   =  0.00D+00  THRCOARS=  0.00D+00  SYMTOL  =  1.00D-06  GRADTOL =  1.00D-06  THROVL  =  1.00D-08
 THRORTH =  1.00D-08  GRID    =  1.00D-06  GRIDMAX =  1.00D-03  DTMAX   =  0.00D+00  THROCCDE=  1.00D-01  THROCCDE=  1.00D-01



 Input parameters for SORTINT:

 COMPRESS =    0.000000
 C_FINAL  =    1.000000
 DEBUG    =   -1.000000
 C_SORT1  =    0.000000
 C_SEWARD =    0.000000
 THRESH   =    0.000000
 IO       =  molpro                                                          
 SPRI     =    0.000000
 SETTING GEOMTYP        =    XYZ
 ZUNIT=BOHR
 

 Variable memory set to  995000000 words,  buffer space   230000 words

 SETTING BASIS          =    USERDEF


 Recomputing integrals since basis changed


 Using spherical harmonics

 Library entry H      S aug-cc-pVTZ          selected for orbital group  2
 Library entry H      P aug-cc-pVTZ          selected for orbital group  2
 Library entry H      D aug-cc-pVTZ          selected for orbital group  2


 PROGRAM * SEWARD (Integral evaluation for generally contracted gaussian basis sets)     Author: Roland Lindh, 1990

 Geometry written to block  1 of record 700


 Point group  Cs  



 ATOMIC COORDINATES

 NR  ATOM    CHARGE       X              Y              Z

   1  N       7.00    0.000000000   -0.164453983   -1.166549555
   2  H       1.00    0.000000000    1.664251334   -1.922013216
   3  O       8.00    0.000000000    0.041970439    1.137973180

 Bond lengths in Bohr (Angstrom)

 1-2  1.978607712  1-3  2.313749355
     ( 1.047034111)     ( 1.224383431)

 Bond angles

  2-1-3  107.32767251

 NUCLEAR CHARGE:                   16
 NUMBER OF PRIMITIVE AOS:         203
 NUMBER OF SYMMETRY AOS:          173
 NUMBER OF CONTRACTIONS:          171   ( 114A'  +  57A"  )
 NUMBER OF CORE ORBITALS:           2   (   2A'  +   0A"  )
 NUMBER OF VALENCE ORBITALS:        9   (   7A'  +   2A"  )


 NUCLEAR REPULSION ENERGY   30.05083375


 Eigenvalues of metric

         1 0.106E-02 0.264E-02 0.338E-02 0.641E-02 0.970E-02 0.137E-01 0.146E-01 0.231E-01
         2 0.360E-01 0.554E-01 0.709E-01 0.942E-01 0.132E+00 0.134E+00 0.140E+00 0.142E+00


 Contracted 2-electron integrals neglected if value below      1.0D-22

       46063278. INTEGRALS WRITTEN OUT IN   11249 BLOCKS ON RECORD 1290 OF FILE 1


 NUMBER OF SORTED TWO-ELECTRON INTEGRALS:   55360566.     BUFFER LENGTH:  32768
 NUMBER OF SEGMENTS:   4  SEGMENT LENGTH:   15997996      RECORD LENGTH: 524288

 Memory used in sort:      16.56 MW

 SORT1 READ    46063278. AND WROTE    46499910. INTEGRALS IN    135 RECORDS. CPU TIME:     1.45 SEC, REAL TIME:     1.85 SEC
 SORT2 READ    46499910. AND WROTE    55360566. INTEGRALS IN      4 RECORDS. CPU TIME:     0.87 SEC, REAL TIME:     1.11 SEC

 FILE SIZES:   FILE 1:   757.9 MBYTE,  FILE 4:   566.3 MBYTE,   TOTAL:   1324.2 MBYTE

 OPERATOR DM      FOR CENTER  0  COORDINATES:    0.000000    0.000000    0.000000


 **********************************************************************************************************************************
 DATASETS  * FILE   NREC   LENGTH (MB)   RECORD NAMES
              1      19      420.69       500      610      700      900      950      970     1000      129      960     1100   
                                          VAR    BASINP    GEOM    SYMINP    ZMAT    AOBASIS   BASIS     P2S    ABASIS      S 
                                         1400     1410     1200     1210     1080     1600     1650     1300     1700   
                                           T        V       H0       H01     AOSYM     SMH    MOLCAS    ERIS     OPER   

 PROGRAMS   *        TOTAL       INT
 CPU TIMES  *         6.37      6.28
 REAL TIME  *         8.26 SEC
 DISK USED  *         1.32 GB      
 **********************************************************************************************************************************


 PROGRAM * RHF-SCF (CLOSED SHELL)       Authors: W. Meyer, H.-J. Werner


 NUMBER OF ELECTRONS:       8+    8-
 CONVERGENCE THRESHOLDS:    1.00E-10 (Density)    1.00E-13 (Energy)
 MAX. NUMBER OF ITERATIONS:      500
 INTERPOLATION TYPE:            DIIS
 INTERPOLATION STEPS:              2 (START)      1 (STEP)
 LEVEL SHIFTS:                  0.00 (CLOSED)  0.00 (OPEN) 



 Orbital guess generated from atomic densities. Full valence occupancy:    9   2

 Molecular orbital dump at record        2100.2

 Initial occupancy:   7   1

 ITERATION    DDIFF          GRAD             ENERGY        2-EL.EN.            DIPOLE MOMENTS         DIIS   ORB.
    1      0.000D+00      0.000D+00      -129.78450187    153.499797    0.00000    0.57221   -1.06376    0    start
    2      0.000D+00      0.893D-02      -129.81079922    154.629535    0.00000    0.60854   -0.18404    1    diag
    3      0.374D-02      0.704D-02      -129.83632822    154.789155    0.00000    0.55218   -0.60410    2    diag
    4      0.149D-02      0.105D-02      -129.83714187    154.503913    0.00000    0.56034   -0.53914    3    diag
    5      0.337D-03      0.345D-03      -129.83726760    154.592774    0.00000    0.56623   -0.54118    4    diag
    6      0.155D-03      0.101D-03      -129.83728821    154.576511    0.00000    0.56670   -0.53678    5    diag
    7      0.612D-04      0.516D-04      -129.83729459    154.578858    0.00000    0.56797   -0.53403    6    diag
    8      0.422D-04      0.185D-04      -129.83729538    154.577947    0.00000    0.56802   -0.53299    7    diag
    9      0.159D-04      0.350D-05      -129.83729541    154.577822    0.00000    0.56796   -0.53278    8    diag
   10      0.334D-05      0.763D-06      -129.83729541    154.577808    0.00000    0.56793   -0.53275    9    orth
   11      0.915D-06      0.150D-06      -129.83729541    154.577805    0.00000    0.56792   -0.53275    9    diag
   12      0.212D-06      0.328D-07      -129.83729541    154.577804    0.00000    0.56792   -0.53275    9    diag
   13      0.525D-07      0.903D-08      -129.83729541    154.577804    0.00000    0.56792   -0.53275    9    diag
   14      0.123D-07      0.158D-08      -129.83729541    154.577804    0.00000    0.56792   -0.53275    9    diag
   15      0.137D-08      0.419D-09      -129.83729541    154.577804    0.00000    0.56792   -0.53275    9    diag
   16      0.352D-09      0.122D-09      -129.83729541    154.577804    0.00000    0.56792   -0.53275    9    diag
   17      0.653D-10      0.326D-10      -129.83729541    154.577804    0.00000    0.56792   -0.53275    9    diag
   18      0.186D-10      0.107D-10      -129.83729541    154.577804    0.00000    0.56792   -0.53275    9    diag
   19      0.690D-11      0.268D-11      -129.83729541    154.577804    0.00000    0.56792   -0.53275    9    fixocc
   20      0.187D-11      0.659D-12      -129.83729541    154.577804    0.00000    0.56792   -0.53275    0    orth

 Final occupancy:   7   1

 !RHF STATE 1.1 Energy               -129.837295414767
 Nuclear energy                        30.05083375
 One-electron energy                 -237.17703099
 Two-electron energy                   77.28890183
 Virial quotient                       -1.00202117
 !RHF STATE 1.1 Dipole moment           0.00000000     0.56791629    -0.53274962
 Dipole moment /Debye                   0.00000000     1.44340469    -1.35402577

 Orbital energies:

         1.1          2.1          3.1          4.1          5.1          6.1          7.1          8.1          9.1
    -20.652528   -15.712877    -1.515341    -0.997470    -0.740836    -0.659410    -0.434544     0.039576     0.192531

         1.2          2.2          3.2
     -0.586607     0.073560     0.238994

 HOMO      7.1    -0.434544 =     -11.8245eV
 LUMO      8.1     0.039576 =       1.0769eV
 LUMO-HOMO         0.474120 =      12.9015eV


 **********************************************************************************************************************************
 DATASETS  * FILE   NREC   LENGTH (MB)   RECORD NAMES
              1      19      420.69       500      610      700      900      950      970     1000      129      960     1100   
                                          VAR    BASINP    GEOM    SYMINP    ZMAT    AOBASIS   BASIS     P2S    ABASIS      S 
                                         1400     1410     1200     1210     1080     1600     1650     1300     1700   
                                           T        V       H0       H01     AOSYM     SMH    MOLCAS    ERIS     OPER   

              2       4        3.13       700     1000      520     2100   
                                         GEOM     BASIS   MCVARS     RHF  

 PROGRAMS   *        TOTAL        HF       INT
 CPU TIMES  *        13.13      6.76      6.28
 REAL TIME  *        16.66 SEC
 DISK USED  *         1.32 GB      
 **********************************************************************************************************************************


 PROGRAM * CCSD (Closed-shell coupled cluster)     Authors: C. Hampel, H.-J. Werner, 1991, M. Deegan, P.J. Knowles, 1992


 Convergence thresholds:  THRVAR = 1.00D-08  THRDEN = 1.00D-12

 CCSD(T)     terms to be evaluated (factor= 1.000)


 Number of closed-shell orbitals:   8 (   7   1 )
 Number of external orbitals:     163 ( 107  56 )

 Molecular orbitals read from record     2100.2  Type=RHF/CANONICAL (state 1.1)

 Number of N-1 electron functions:               8
 Number of N-2 electron functions:              36
 Number of singly external CSFs:               805
 Number of doubly external CSFs:            449165
 Total number of CSFs:                      449971

 Length of J-op  integral file:               0.00 MB
 Length of K-op  integral file:               1.15 MB
 Length of 3-ext integral record:             0.00 MB

 Memory could be reduced to 24.90 Mwords without degradation in triples

 Integral transformation finished. Total CPU:   1.30 sec, npass=  1  Memory used:   6.89 MW

 Reference energy:                   -129.83729541

 MP2 singlet pair energy:              -0.38049265
 MP2 triplet pair energy:              -0.18762182
 MP2 correlation energy:               -0.56811447
 MP2 total energy:                   -130.40540989

 SCS-MP2 correlation energy:           -0.57333365   (PS=  1.200000  PT=  0.333333)
 SCS-MP2 total energy:               -130.41062906

 ITER.      SQ.NORM     CORR.ENERGY   TOTAL ENERGY   ENERGY CHANGE        DEN1      VAR(S)    VAR(P)  DIIS     TIME  TIME/IT
   1      1.12134508    -0.57222671  -130.40952212    -0.00411224     0.01428872  0.36D-02  0.33D-02  1  1     2.78     1.54
   2      1.13262382    -0.57178006  -130.40907547     0.00044665    -0.01413998  0.98D-04  0.52D-03  2  2     4.28     1.58
   3      1.13809908    -0.57212105  -130.40941647    -0.00034100    -0.00241209  0.59D-04  0.73D-04  3  3     5.81     1.60
   4      1.14173408    -0.57211508  -130.40941050     0.00000597    -0.00143969  0.49D-05  0.10D-04  4  4     7.27     1.60
   5      1.14287939    -0.57214114  -130.40943655    -0.00002606    -0.00027114  0.17D-05  0.19D-05  5  5     8.77     1.59
   6      1.14331688    -0.57213427  -130.40942968     0.00000687    -0.00004285  0.14D-06  0.41D-06  6  6    10.23     1.59
   7      1.14340027    -0.57213473  -130.40943014    -0.00000046     0.00000140  0.18D-07  0.97D-07  6  1    11.71     1.59
   8      1.14343420    -0.57213277  -130.40942818     0.00000196    -0.00000498  0.38D-08  0.15D-07  6  2    13.15     1.59
   9      1.14343857    -0.57213286  -130.40942827    -0.00000009     0.00000143  0.17D-08  0.20D-08  6  3    14.61     1.59
  10      1.14344040    -0.57213316  -130.40942857    -0.00000030    -0.00000077  0.43D-09  0.29D-09  6  4    16.05     1.59
  11      1.14343943    -0.57213330  -130.40942872    -0.00000014     0.00000035  0.11D-09  0.30D-10  6  5    17.52     1.59
  12      1.14343858    -0.57213344  -130.40942886    -0.00000014     0.00000033  0.11D-10  0.70D-11  6  6    19.01     1.59
  13      1.14343805    -0.57213345  -130.40942887    -0.00000001     0.00000010  0.42D-11  0.12D-11  6  1    20.49     1.59
  14      1.14343761    -0.57213348  -130.40942889    -0.00000003     0.00000011  0.42D-12  0.42D-12  6  3    21.95     1.59
  15      1.14343743    -0.57213348  -130.40942889    -0.00000000     0.00000002  0.10D-12  0.31D-13  6  2    23.43     1.59
  16      1.14343737    -0.57213348  -130.40942890    -0.00000000     0.00000001  0.23D-13  0.65D-14  6  4    24.89     1.59
  17      1.14343735    -0.57213348  -130.40942890    -0.00000000     0.00000001  0.46D-14  0.12D-14  6  5    26.35     1.59
  18      1.14343734    -0.57213348  -130.40942890    -0.00000000     0.00000000  0.54D-15  0.32D-15  6  6    27.82     1.59
  19      1.14343735    -0.57213348  -130.40942890     0.00000000    -0.00000000  0.71D-16  0.54D-16  6  1    29.29     1.59
  20      1.14343735    -0.57213348  -130.40942890     0.00000000    -0.00000000  0.29D-17  0.13D-16  6  3    30.78     1.59
  21      1.14343735    -0.57213348  -130.40942890     0.00000000    -0.00000000  0.15D-17  0.33D-17  6  2    32.28     1.59
  22      1.14343735    -0.57213348  -130.40942890     0.00000000    -0.00000000  0.45D-18  0.11D-17  6  4    33.77     1.59
  23      1.14343735    -0.57213348  -130.40942890    -0.00000000     0.00000000  0.20D-18  0.15D-18  6  5    35.26     1.59
  24      1.14343735    -0.57213348  -130.40942890     0.00000000    -0.00000000  0.32D-19  0.23D-19  6  6    36.75     1.59
  25      1.14343735    -0.57213348  -130.40942890     0.00000000    -0.00000000  0.84D-20  0.29D-20  6  1    38.23     1.59
  26      1.14343735    -0.57213348  -130.40942890     0.00000000    -0.00000000  0.15D-20  0.41D-21  6  3    39.69     1.59

 Norm of t1 vector:      0.07992026      S-energy:     0.00000000      T1 diagnostic:  0.01412804
                                                                       D1 diagnostic:  0.04611096

 Doubles amplitudes (print threshold =  0.500E-01):

         I         J         SYM. A    SYM. B    A         B      T(IJ, AB)

         8         8         2         2         1         1     -0.13967337


 Total CPU time for triples:     18.78 sec


 RESULTS
 =======

  Reference energy                   -129.837295414767

  Correlated core orbitals:             1.1       2.1
  Orbital energies:                   -20.6525  -15.7129
 
  CCSD core-core energy                -0.079239457865
  CCSD core-valence energy             -0.035984439831
  CCSD valence correlation energy      -0.456909586307
 
  CCSD singlet pair energy             -0.409498573827
  CCSD triplet pair energy             -0.162634910176
  CCSD correlation energy              -0.572133484003

  Triples (T) contribution             -0.022772460420
  Total correlation energy             -0.594905944423

  CCSD total energy                  -130.409428898770
  CCSD[T] energy                     -130.433440662870
  CCSD-T energy                      -130.431743856197
 !CCSD(T) total energy               -130.432201359190

 Timing summary (sec):

 STEP                 CPU(USER)    SYS     CPU(TOT)    WALL
 Transformation          1.33      0.19      1.52      1.52
 CCSD iterations        38.36      3.02     41.38     41.41
 Triples                18.78      0.60     19.38     19.37

 Program statistics:

 Available memory in ccsd:               994999644
 Min. memory needed in ccsd:               1368037
 Max. memory used in ccsd:                 1750502
 Max. memory used in cckext:               2014357 (26 integral passes)



 **********************************************************************************************************************************
 DATASETS  * FILE   NREC   LENGTH (MB)   RECORD NAMES
              1      20      499.60       500      610      700      900      950      970     1000      129      960     1100   
                                          VAR    BASINP    GEOM    SYMINP    ZMAT    AOBASIS   BASIS     P2S    ABASIS      S 
                                         1400     1410     1200     1210     1080     1600     1650     1300     1700     1380   
                                           T        V       H0       H01     AOSYM     SMH    MOLCAS    ERIS     OPER     JKOP   

              2       4        3.13       700     1000      520     2100   
                                         GEOM     BASIS   MCVARS     RHF  

 PROGRAMS   *        TOTAL   CCSD(T)        HF       INT
 CPU TIMES  *        71.64     58.51      6.76      6.28
 REAL TIME  *        79.00 SEC
 DISK USED  *         1.32 GB      
 **********************************************************************************************************************************

 CCSD(T)/USERDEF energy=   -130.432201359190

        CCSD(T)         HF-SCF  
   -130.43220136   -129.83729541
 **********************************************************************************************************************************
 Molpro calculation terminated
 Variable memory released
