
 Primary working directories    : /tmp/r2666/235516.maple
 Secondary working directories  : /tmp/r2666/235516.maple
 Wavefunction directory         : /ddn/home4/r2666/wfu/
 Main file repository           : /tmp/r2666/235516.maple/

 SHA1      : d5ffa45e93fdbca01ffc919aa182cfdae0147319
 NAME      : 2015.1.35
 ARCHNAME  : linux/x86_64
 FC        : /opt/intel/composer_xe_2015.1.133/bin/intel64/ifort
 BLASLIB   : -Wl,-_start-group /opt/intel/mkl/lib/intel64/libmkl_intel_ilp64.a /opt/intel/mkl/lib/intel64/libmkl_intel_thread.a /opt/intel/mkl/lib/intel64/libmkl_core.a -Wl,-_end-group
 id        : olemiss

 Nodes     nprocs
 cn091        1

 Using customized tuning parameters: mindgm=1; mindgv=20; mindgc=4; mindgr=1; noblas=0; minvec=7
 default implementation of scratch files=df  

 ***,hno CCSD(T)/TZ-F12 QFF
 memory, 995, m;
 gthresh,energy=1.d-12,zero=1.d-22,oneint=1.d-22,twoint=1.d-22;
 gthresh,optgrad=1.d-8,optstep=1.d-8;
 nocompress;
 geomtyp=xyz
 bohr
 geometry={
 3
        113       113
 N        0.0000000000       -0.1730126296       -1.1416875392
 H        0.0000000000        1.6743472089       -1.9259861988
 O        0.0000000000        0.0404332107        1.1170841470
 }
 
 basis={
 default=aug-cc-pvtz
 s,C,8236.0,1235.0,280.8, 79.27,25.59, 8.997,3.319
 s,C,0.9059,0.3643,0.1285000
 p,C,56.0,18.71,4.133,0.2827,0.3827,0.1209
 d,C,30.0,10.0,3.3,1.097,0.318
 f,C,7.0,2.3,0.7610
 s,N,11420.0,1712.0,389.3,110.0,35.57,12.54,4.644
 s,N,1.293,0.5118,0.1787
 p,N,79.89,26.63,5.948,1.742,0.555,0.1725
 d,N,45.0,15.0,5.0,1.654,0.469
 f,N,9.9,3.3,1.093
 s,O,15330.0,2299.0,522.4,147.3,47.55,16.76,6.207
 s,O,1.752,0.6882,0.2384
 p,O,103.5,34.46,7.749,2.28,0.7156,0.214
 d,O,63.0,21.0,7.0,2.314,0.645
 f,O,12.9,4.3,1.428
 s,mg,164900.0,24710.0,5628.0,1596.0,521.0;
 s,mg,188.0,73.01,29.90,12.54,4.306,1.826;
 s,mg,0.7417,0.0761,0.145,0.033,0.0129;
 p,mg,950.70,316.90,74.86,23.72,8.669,3.363;
 p,mg,1.310,0.4911,0.2364,0.08733,0.03237,0.00745;
 d,mg,1.601,0.686,0.126,0.294,0.0468;
 f,mg,1.372,0.588,0.094,0.252;
 }
   {hf,maxit=500;accu,20;}
 {ccsd(t),nocheck,maxit=250;orbital,IGNORE_ERROR;core}

 Variables initialized (889), CPU time= 0.01 sec
 Commands  initialized (702), CPU time= 0.01 sec, 572 directives.
 Default parameters read. Elapsed time= 0.04 sec

 Checking input...
 Passed
1


                                         ***  PROGRAM SYSTEM MOLPRO  ***
                                       Copyright, TTI GmbH Stuttgart, 2015
                                    Version 2015.1 linked Jul  9 2018 13:16:40


 **********************************************************************************************************************************
 LABEL *   hno CCSD(T)/TZ-F12 QFF                                                        
  64 bit serial version                                                                  DATE: 08-Feb-20          TIME: 18:00:43  
 **********************************************************************************************************************************

 SHA1:             d5ffa45e93fdbca01ffc919aa182cfdae0147319
 **********************************************************************************************************************************

 THRESHOLDS:

 ZERO    =  1.00D-22  ONEINT  =  1.00D-22  TWOINT  =  1.00D-22  PREFAC  =  1.00D-14  LOCALI  =  1.00D-09  EORDER  =  1.00D-04
 ENERGY  =  1.00D-12  ETEST   =  0.00D+00  EDENS   =  0.00D+00  THRDEDEF=  1.00D-06  GRADIENT=  1.00D-02  STEP    =  1.00D-03
 ORBITAL =  1.00D-05  CIVEC   =  1.00D-05  COEFF   =  1.00D-04  PRINTCI =  5.00D-02  PUNCHCI =  9.90D+01  OPTGRAD =  3.00D-04
 OPTENERG=  1.00D-06  OPTSTEP =  3.00D-04  THRGRAD =  1.00D-10  COMPRESS=  1.00D-11  VARMIN  =  1.00D-07  VARMAX  =  1.00D-03
 THRDOUB =  0.00D+00  THRDIV  =  1.00D-05  THRRED  =  1.00D-07  THRPSP  =  1.00D+00  THRDC   =  1.00D-10  THRCS   =  1.00D-10
 THRNRM  =  1.00D-08  THREQ   =  0.00D+00  THRDE   =  1.00D+00  THRREF  =  1.00D-05  SPARFAC =  1.00D+00  THRDLP  =  1.00D-07
 THRDIA  =  1.00D-10  THRDLS  =  1.00D-07  THRGPS  =  0.00D+00  THRKEX  =  0.00D+00  THRDIS  =  2.00D-01  THRVAR  =  1.00D-10
 THRLOC  =  1.00D-06  THRGAP  =  1.00D-06  THRLOCT = -1.00D+00  THRGAPT = -1.00D+00  THRORB  =  1.00D-06  THRMLTP =  0.00D+00
 THRCPQCI=  1.00D-10  KEXTA   =  0.00D+00  THRCOARS=  0.00D+00  SYMTOL  =  1.00D-06  GRADTOL =  1.00D-06  THROVL  =  1.00D-08
 THRORTH =  1.00D-08  GRID    =  1.00D-06  GRIDMAX =  1.00D-03  DTMAX   =  0.00D+00  THROCCDE=  1.00D-01  THROCCDE=  1.00D-01



 THRESHOLDS:

 ZERO    =  1.00D-22  ONEINT  =  1.00D-22  TWOINT  =  1.00D-22  PREFAC  =  1.00D-14  LOCALI  =  1.00D-09  EORDER  =  1.00D-04
 ENERGY  =  1.00D-12  ETEST   =  0.00D+00  EDENS   =  0.00D+00  THRDEDEF=  1.00D-06  GRADIENT=  1.00D-02  STEP    =  1.00D-03
 ORBITAL =  1.00D-05  CIVEC   =  1.00D-05  COEFF   =  1.00D-04  PRINTCI =  5.00D-02  PUNCHCI =  9.90D+01  OPTGRAD =  1.00D-08
 OPTENERG=  1.00D-06  OPTSTEP =  1.00D-08  THRGRAD =  1.00D-10  COMPRESS=  1.00D-11  VARMIN  =  1.00D-07  VARMAX  =  1.00D-03
 THRDOUB =  0.00D+00  THRDIV  =  1.00D-05  THRRED  =  1.00D-07  THRPSP  =  1.00D+00  THRDC   =  1.00D-10  THRCS   =  1.00D-10
 THRNRM  =  1.00D-08  THREQ   =  0.00D+00  THRDE   =  1.00D+00  THRREF  =  1.00D-05  SPARFAC =  1.00D+00  THRDLP  =  1.00D-07
 THRDIA  =  1.00D-10  THRDLS  =  1.00D-07  THRGPS  =  0.00D+00  THRKEX  =  0.00D+00  THRDIS  =  2.00D-01  THRVAR  =  1.00D-10
 THRLOC  =  1.00D-06  THRGAP  =  1.00D-06  THRLOCT = -1.00D+00  THRGAPT = -1.00D+00  THRORB  =  1.00D-06  THRMLTP =  0.00D+00
 THRCPQCI=  1.00D-10  KEXTA   =  0.00D+00  THRCOARS=  0.00D+00  SYMTOL  =  1.00D-06  GRADTOL =  1.00D-06  THROVL  =  1.00D-08
 THRORTH =  1.00D-08  GRID    =  1.00D-06  GRIDMAX =  1.00D-03  DTMAX   =  0.00D+00  THROCCDE=  1.00D-01  THROCCDE=  1.00D-01



 Input parameters for SORTINT:

 COMPRESS =    0.000000
 C_FINAL  =    1.000000
 DEBUG    =   -1.000000
 C_SORT1  =    0.000000
 C_SEWARD =    0.000000
 THRESH   =    0.000000
 IO       =  molpro                                                          
 SPRI     =    0.000000
 SETTING GEOMTYP        =    XYZ
 ZUNIT=BOHR
 

 Variable memory set to  995000000 words,  buffer space   230000 words

 SETTING BASIS          =    USERDEF


 Recomputing integrals since basis changed


 Using spherical harmonics

 Library entry H      S aug-cc-pVTZ          selected for orbital group  2
 Library entry H      P aug-cc-pVTZ          selected for orbital group  2
 Library entry H      D aug-cc-pVTZ          selected for orbital group  2


 PROGRAM * SEWARD (Integral evaluation for generally contracted gaussian basis sets)     Author: Roland Lindh, 1990

 Geometry written to block  1 of record 700


 Point group  Cs  



 ATOMIC COORDINATES

 NR  ATOM    CHARGE       X              Y              Z

   1  N       7.00    0.000000000   -0.173012630   -1.141687539
   2  H       1.00    0.000000000    1.674347209   -1.925986199
   3  O       8.00    0.000000000    0.040433211    1.117084147

 Bond lengths in Bohr (Angstrom)

 1-2  2.006953602  1-3  2.268834207
     ( 1.062034110)     ( 1.200615357)

 Bond angles

  2-1-3  107.60548730

 NUCLEAR CHARGE:                   16
 NUMBER OF PRIMITIVE AOS:         203
 NUMBER OF SYMMETRY AOS:          173
 NUMBER OF CONTRACTIONS:          171   ( 114A'  +  57A"  )
 NUMBER OF CORE ORBITALS:           2   (   2A'  +   0A"  )
 NUMBER OF VALENCE ORBITALS:        9   (   7A'  +   2A"  )


 NUCLEAR REPULSION ENERGY   30.48632394


 Eigenvalues of metric

         1 0.105E-02 0.244E-02 0.334E-02 0.639E-02 0.102E-01 0.137E-01 0.144E-01 0.233E-01
         2 0.376E-01 0.522E-01 0.704E-01 0.940E-01 0.131E+00 0.134E+00 0.141E+00 0.142E+00


 Contracted 2-electron integrals neglected if value below      1.0D-22

       46203824. INTEGRALS WRITTEN OUT IN   11283 BLOCKS ON RECORD 1290 OF FILE 1


 NUMBER OF SORTED TWO-ELECTRON INTEGRALS:   55360566.     BUFFER LENGTH:  32768
 NUMBER OF SEGMENTS:   4  SEGMENT LENGTH:   15997996      RECORD LENGTH: 524288

 Memory used in sort:      16.56 MW

 SORT1 READ    46203824. AND WROTE    46641923. INTEGRALS IN    135 RECORDS. CPU TIME:     0.76 SEC, REAL TIME:     1.07 SEC
 SORT2 READ    46641923. AND WROTE    55360566. INTEGRALS IN      4 RECORDS. CPU TIME:     0.68 SEC, REAL TIME:     0.87 SEC

 FILE SIZES:   FILE 1:   760.2 MBYTE,  FILE 4:   566.3 MBYTE,   TOTAL:   1326.4 MBYTE

 OPERATOR DM      FOR CENTER  0  COORDINATES:    0.000000    0.000000    0.000000


 **********************************************************************************************************************************
 DATASETS  * FILE   NREC   LENGTH (MB)   RECORD NAMES
              1      19      421.65       500      610      700      900      950      970     1000      129      960     1100   
                                          VAR    BASINP    GEOM    SYMINP    ZMAT    AOBASIS   BASIS     P2S    ABASIS      S 
                                         1400     1410     1200     1210     1080     1600     1650     1300     1700   
                                           T        V       H0       H01     AOSYM     SMH    MOLCAS    ERIS     OPER   

 PROGRAMS   *        TOTAL       INT
 CPU TIMES  *         4.26      4.17
 REAL TIME  *         5.65 SEC
 DISK USED  *         1.33 GB      
 **********************************************************************************************************************************


 PROGRAM * RHF-SCF (CLOSED SHELL)       Authors: W. Meyer, H.-J. Werner


 NUMBER OF ELECTRONS:       8+    8-
 CONVERGENCE THRESHOLDS:    1.00E-10 (Density)    1.00E-13 (Energy)
 MAX. NUMBER OF ITERATIONS:      500
 INTERPOLATION TYPE:            DIIS
 INTERPOLATION STEPS:              2 (START)      1 (STEP)
 LEVEL SHIFTS:                  0.00 (CLOSED)  0.00 (OPEN) 



 Orbital guess generated from atomic densities. Full valence occupancy:    9   2

 Molecular orbital dump at record        2100.2

 Initial occupancy:   7   1

 ITERATION    DDIFF          GRAD             ENERGY        2-EL.EN.            DIPOLE MOMENTS         DIIS   ORB.
    1      0.000D+00      0.000D+00      -129.79034362    154.264509    0.00000    0.55421   -0.98944    0    start
    2      0.000D+00      0.876D-02      -129.81747231    155.462510    0.00000    0.59178   -0.19310    1    diag
    3      0.359D-02      0.658D-02      -129.83952958    155.565044    0.00000    0.53672   -0.56918    2    diag
    4      0.140D-02      0.103D-02      -129.84029804    155.294781    0.00000    0.54523   -0.50828    3    diag
    5      0.326D-03      0.335D-03      -129.84041778    155.382843    0.00000    0.55134   -0.51085    4    diag
    6      0.152D-03      0.989D-04      -129.84043742    155.366703    0.00000    0.55194   -0.50683    5    diag
    7      0.607D-04      0.491D-04      -129.84044307    155.369376    0.00000    0.55332   -0.50442    6    diag
    8      0.409D-04      0.165D-04      -129.84044364    155.368572    0.00000    0.55338   -0.50356    7    diag
    9      0.137D-04      0.306D-05      -129.84044366    155.368462    0.00000    0.55334   -0.50339    8    diag
   10      0.274D-05      0.705D-06      -129.84044367    155.368448    0.00000    0.55330   -0.50336    9    orth
   11      0.832D-06      0.142D-06      -129.84044367    155.368443    0.00000    0.55329   -0.50336    9    diag
   12      0.202D-06      0.294D-07      -129.84044367    155.368442    0.00000    0.55329   -0.50335    9    diag
   13      0.501D-07      0.773D-08      -129.84044367    155.368442    0.00000    0.55329   -0.50335    9    diag
   14      0.116D-07      0.139D-08      -129.84044367    155.368442    0.00000    0.55329   -0.50335    9    diag
   15      0.157D-08      0.389D-09      -129.84044367    155.368442    0.00000    0.55329   -0.50335    9    diag
   16      0.346D-09      0.121D-09      -129.84044367    155.368442    0.00000    0.55329   -0.50335    9    diag
   17      0.932D-10      0.359D-10      -129.84044367    155.368442    0.00000    0.55329   -0.50335    9    diag
   18      0.311D-10      0.116D-10      -129.84044367    155.368442    0.00000    0.55329   -0.50335    9    diag
   19      0.114D-10      0.285D-11      -129.84044367    155.368442    0.00000    0.55329   -0.50335    0    orth

 Final occupancy:   7   1

 !RHF STATE 1.1 Energy               -129.840443665466
 Nuclear energy                        30.48632394
 One-electron energy                 -238.01098859
 Two-electron energy                   77.68422098
 Virial quotient                       -1.00150955
 !RHF STATE 1.1 Dipole moment           0.00000000     0.55328791    -0.50335295
 Dipole moment /Debye                   0.00000000     1.40622548    -1.27931179

 Orbital energies:

         1.1          2.1          3.1          4.1          5.1          6.1          7.1          8.1          9.1
    -20.650682   -15.710849    -1.534342    -0.988402    -0.746437    -0.666275    -0.426295     0.039828     0.192305

         1.2          2.2          3.2
     -0.597992     0.081815     0.239635

 HOMO      7.1    -0.426295 =     -11.6001eV
 LUMO      8.1     0.039828 =       1.0838eV
 LUMO-HOMO         0.466123 =      12.6839eV


 **********************************************************************************************************************************
 DATASETS  * FILE   NREC   LENGTH (MB)   RECORD NAMES
              1      19      421.65       500      610      700      900      950      970     1000      129      960     1100   
                                          VAR    BASINP    GEOM    SYMINP    ZMAT    AOBASIS   BASIS     P2S    ABASIS      S 
                                         1400     1410     1200     1210     1080     1600     1650     1300     1700   
                                           T        V       H0       H01     AOSYM     SMH    MOLCAS    ERIS     OPER   

              2       4        3.13       700     1000      520     2100   
                                         GEOM     BASIS   MCVARS     RHF  

 PROGRAMS   *        TOTAL        HF       INT
 CPU TIMES  *         8.99      4.73      4.17
 REAL TIME  *        11.56 SEC
 DISK USED  *         1.33 GB      
 **********************************************************************************************************************************


 PROGRAM * CCSD (Closed-shell coupled cluster)     Authors: C. Hampel, H.-J. Werner, 1991, M. Deegan, P.J. Knowles, 1992


 Convergence thresholds:  THRVAR = 1.00D-08  THRDEN = 1.00D-12

 CCSD(T)     terms to be evaluated (factor= 1.000)


 Number of closed-shell orbitals:   8 (   7   1 )
 Number of external orbitals:     163 ( 107  56 )

 Molecular orbitals read from record     2100.2  Type=RHF/CANONICAL (state 1.1)

 Number of N-1 electron functions:               8
 Number of N-2 electron functions:              36
 Number of singly external CSFs:               805
 Number of doubly external CSFs:            449165
 Total number of CSFs:                      449971

 Length of J-op  integral file:               0.00 MB
 Length of K-op  integral file:               1.15 MB
 Length of 3-ext integral record:             0.00 MB

 Memory could be reduced to 24.90 Mwords without degradation in triples

 Integral transformation finished. Total CPU:   0.90 sec, npass=  1  Memory used:   6.89 MW

 Reference energy:                   -129.84044367

 MP2 singlet pair energy:              -0.37843123
 MP2 triplet pair energy:              -0.18629257
 MP2 correlation energy:               -0.56472379
 MP2 total energy:                   -130.40516746

 SCS-MP2 correlation energy:           -0.57003285   (PS=  1.200000  PT=  0.333333)
 SCS-MP2 total energy:               -130.41047651

 ITER.      SQ.NORM     CORR.ENERGY   TOTAL ENERGY   ENERGY CHANGE        DEN1      VAR(S)    VAR(P)  DIIS     TIME  TIME/IT
   1      1.11931415    -0.56969851  -130.41014218    -0.00497472     0.01248738  0.33D-02  0.30D-02  1  1     1.85     1.01
   2      1.13005475    -0.56946048  -130.40990415     0.00023803    -0.01356132  0.88D-04  0.49D-03  2  2     2.85     1.05
   3      1.13522922    -0.56978271  -130.41022637    -0.00032222    -0.00234518  0.54D-04  0.66D-04  3  3     3.86     1.06
   4      1.13858770    -0.56977338  -130.41021705     0.00000932    -0.00136759  0.44D-05  0.94D-05  4  4     4.85     1.06
   5      1.13960190    -0.56979734  -130.41024101    -0.00002396    -0.00023904  0.16D-05  0.18D-05  5  5     5.85     1.07
   6      1.13999800    -0.56979174  -130.41023541     0.00000560    -0.00003803  0.15D-06  0.40D-06  6  6     6.83     1.07
   7      1.14008201    -0.56979185  -130.41023552    -0.00000011     0.00000011  0.22D-07  0.89D-07  6  1     7.81     1.07
   8      1.14011616    -0.56979019  -130.41023385     0.00000167    -0.00000469  0.41D-08  0.13D-07  6  2     8.81     1.08
   9      1.14012117    -0.56979025  -130.41023391    -0.00000006     0.00000099  0.17D-08  0.16D-08  6  3     9.83     1.08
  10      1.14012283    -0.56979055  -130.41023421    -0.00000030    -0.00000060  0.37D-09  0.23D-09  6  4    10.82     1.08
  11      1.14012189    -0.56979068  -130.41023434    -0.00000013     0.00000033  0.92D-10  0.23D-10  6  5    11.83     1.08
  12      1.14012102    -0.56979081  -130.41023447    -0.00000013     0.00000034  0.96D-11  0.60D-11  6  6    12.82     1.08
  13      1.14012051    -0.56979082  -130.41023448    -0.00000001     0.00000011  0.41D-11  0.10D-11  6  1    13.82     1.08
  14      1.14012010    -0.56979084  -130.41023451    -0.00000002     0.00000010  0.43D-12  0.36D-12  6  3    14.79     1.08
  15      1.14011994    -0.56979084  -130.41023451    -0.00000000     0.00000002  0.11D-12  0.24D-13  6  2    15.78     1.08
  16      1.14011989    -0.56979084  -130.41023451    -0.00000000     0.00000001  0.24D-13  0.55D-14  6  4    16.77     1.08
  17      1.14011987    -0.56979084  -130.41023451    -0.00000000     0.00000001  0.40D-14  0.10D-14  6  5    17.75     1.08
  18      1.14011987    -0.56979084  -130.41023451    -0.00000000     0.00000000  0.39D-15  0.27D-15  6  6    18.75     1.08
  19      1.14011987    -0.56979084  -130.41023451     0.00000000    -0.00000000  0.47D-16  0.33D-16  6  1    19.73     1.08
  20      1.14011987    -0.56979084  -130.41023451     0.00000000    -0.00000000  0.20D-17  0.67D-17  6  3    20.72     1.09
  21      1.14011987    -0.56979084  -130.41023451     0.00000000    -0.00000000  0.95D-18  0.16D-17  6  2    21.71     1.09
  22      1.14011987    -0.56979084  -130.41023451     0.00000000    -0.00000000  0.14D-18  0.58D-18  6  4    22.68     1.09
  23      1.14011987    -0.56979084  -130.41023451    -0.00000000     0.00000000  0.44D-19  0.88D-19  6  2    23.70     1.09
  24      1.14011987    -0.56979084  -130.41023451     0.00000000    -0.00000000  0.26D-20  0.15D-19  6  1    24.68     1.09
  25      1.14011987    -0.56979084  -130.41023451    -0.00000000     0.00000000  0.28D-21  0.12D-20  6  6    25.71     1.09
  26      1.14011987    -0.56979084  -130.41023451     0.00000000     0.00000000  0.61D-22  0.79D-22  6  5    26.71     1.09
  27      1.14011987    -0.56979084  -130.41023451    -0.00000000     0.00000000  0.19D-22  0.14D-22  6  3    27.72     1.09

 Norm of t1 vector:      0.07685953      S-energy:     0.00000000      T1 diagnostic:  0.01358697
                                                                       D1 diagnostic:  0.04310099

 Doubles amplitudes (print threshold =  0.500E-01):

         I         J         SYM. A    SYM. B    A         B      T(IJ, AB)

         8         8         2         2         1         1     -0.13239764


 Total CPU time for triples:     18.86 sec


 RESULTS
 =======

  Reference energy                   -129.840443665466

  Correlated core orbitals:             1.1       2.1
  Orbital energies:                   -20.6507  -15.7108
 
  CCSD core-core energy                -0.079228941775
  CCSD core-valence energy             -0.036102870975
  CCSD valence correlation energy      -0.454459031190
 
  CCSD singlet pair energy             -0.407376265428
  CCSD triplet pair energy             -0.162414578513
  CCSD correlation energy              -0.569790843940

  Triples (T) contribution             -0.022119480567
  Total correlation energy             -0.591910324507

  CCSD total energy                  -130.410234509406
  CCSD[T] energy                     -130.433500448239
  CCSD-T energy                      -130.431919143986
 !CCSD(T) total energy               -130.432353989973

 Timing summary (sec):

 STEP                 CPU(USER)    SYS     CPU(TOT)    WALL
 Transformation          0.91      0.19      1.10      1.09
 CCSD iterations        26.82      2.56     29.38     29.40
 Triples                18.86      0.58     19.44     19.44

 Program statistics:

 Available memory in ccsd:               994999644
 Min. memory needed in ccsd:               1368037
 Max. memory used in ccsd:                 1750502
 Max. memory used in cckext:               2014357 (27 integral passes)



 **********************************************************************************************************************************
 DATASETS  * FILE   NREC   LENGTH (MB)   RECORD NAMES
              1      20      500.56       500      610      700      900      950      970     1000      129      960     1100   
                                          VAR    BASINP    GEOM    SYMINP    ZMAT    AOBASIS   BASIS     P2S    ABASIS      S 
                                         1400     1410     1200     1210     1080     1600     1650     1300     1700     1380   
                                           T        V       H0       H01     AOSYM     SMH    MOLCAS    ERIS     OPER     JKOP   

              2       4        3.13       700     1000      520     2100   
                                         GEOM     BASIS   MCVARS     RHF  

 PROGRAMS   *        TOTAL   CCSD(T)        HF       INT
 CPU TIMES  *        55.60     46.61      4.73      4.17
 REAL TIME  *        61.52 SEC
 DISK USED  *         1.33 GB      
 **********************************************************************************************************************************

 CCSD(T)/USERDEF energy=   -130.432353989973

        CCSD(T)         HF-SCF  
   -130.43235399   -129.84044367
 **********************************************************************************************************************************
 Molpro calculation terminated
 Variable memory released
