
 Primary working directories    : /tmp/r2666/235483.maple
 Secondary working directories  : /tmp/r2666/235483.maple
 Wavefunction directory         : /ddn/home4/r2666/wfu/
 Main file repository           : /tmp/r2666/235483.maple/

 SHA1      : d5ffa45e93fdbca01ffc919aa182cfdae0147319
 NAME      : 2015.1.35
 ARCHNAME  : linux/x86_64
 FC        : /opt/intel/composer_xe_2015.1.133/bin/intel64/ifort
 BLASLIB   : -Wl,-_start-group /opt/intel/mkl/lib/intel64/libmkl_intel_ilp64.a /opt/intel/mkl/lib/intel64/libmkl_intel_thread.a /opt/intel/mkl/lib/intel64/libmkl_core.a -Wl,-_end-group
 id        : olemiss

 Nodes     nprocs
 cn075        1

 Using customized tuning parameters: mindgm=1; mindgv=20; mindgc=4; mindgr=1; noblas=0; minvec=7
 default implementation of scratch files=df  

 ***,hno CCSD(T)/TZ-F12 QFF
 memory, 995, m;
 gthresh,energy=1.d-12,zero=1.d-22,oneint=1.d-22,twoint=1.d-22;
 gthresh,optgrad=1.d-8,optstep=1.d-8;
 nocompress;
 geomtyp=xyz
 bohr
 geometry={
 3
         80        80
 N        0.0000000000       -0.1616603024       -1.1582091470
 H        0.0000000000        1.6689264254       -1.9336575666
 O        0.0000000000        0.0345016669        1.1412771226
 }
 
 basis={
 default=aug-cc-pvtz
 s,C,8236.0,1235.0,280.8, 79.27,25.59, 8.997,3.319
 s,C,0.9059,0.3643,0.1285000
 p,C,56.0,18.71,4.133,0.2827,0.3827,0.1209
 d,C,30.0,10.0,3.3,1.097,0.318
 f,C,7.0,2.3,0.7610
 s,N,11420.0,1712.0,389.3,110.0,35.57,12.54,4.644
 s,N,1.293,0.5118,0.1787
 p,N,79.89,26.63,5.948,1.742,0.555,0.1725
 d,N,45.0,15.0,5.0,1.654,0.469
 f,N,9.9,3.3,1.093
 s,O,15330.0,2299.0,522.4,147.3,47.55,16.76,6.207
 s,O,1.752,0.6882,0.2384
 p,O,103.5,34.46,7.749,2.28,0.7156,0.214
 d,O,63.0,21.0,7.0,2.314,0.645
 f,O,12.9,4.3,1.428
 s,mg,164900.0,24710.0,5628.0,1596.0,521.0;
 s,mg,188.0,73.01,29.90,12.54,4.306,1.826;
 s,mg,0.7417,0.0761,0.145,0.033,0.0129;
 p,mg,950.70,316.90,74.86,23.72,8.669,3.363;
 p,mg,1.310,0.4911,0.2364,0.08733,0.03237,0.00745;
 d,mg,1.601,0.686,0.126,0.294,0.0468;
 f,mg,1.372,0.588,0.094,0.252;
 }
   {hf,maxit=500;accu,20;}
 {ccsd(t),nocheck,maxit=250;orbital,IGNORE_ERROR;core}

 Variables initialized (889), CPU time= 0.00 sec
 Commands  initialized (702), CPU time= 0.01 sec, 572 directives.
 Default parameters read. Elapsed time= 0.05 sec

 Checking input...
 Passed
1


                                         ***  PROGRAM SYSTEM MOLPRO  ***
                                       Copyright, TTI GmbH Stuttgart, 2015
                                    Version 2015.1 linked Jul  9 2018 13:16:40


 **********************************************************************************************************************************
 LABEL *   hno CCSD(T)/TZ-F12 QFF                                                        
  64 bit serial version                                                                  DATE: 08-Feb-20          TIME: 18:00:20  
 **********************************************************************************************************************************

 SHA1:             d5ffa45e93fdbca01ffc919aa182cfdae0147319
 **********************************************************************************************************************************

 THRESHOLDS:

 ZERO    =  1.00D-22  ONEINT  =  1.00D-22  TWOINT  =  1.00D-22  PREFAC  =  1.00D-14  LOCALI  =  1.00D-09  EORDER  =  1.00D-04
 ENERGY  =  1.00D-12  ETEST   =  0.00D+00  EDENS   =  0.00D+00  THRDEDEF=  1.00D-06  GRADIENT=  1.00D-02  STEP    =  1.00D-03
 ORBITAL =  1.00D-05  CIVEC   =  1.00D-05  COEFF   =  1.00D-04  PRINTCI =  5.00D-02  PUNCHCI =  9.90D+01  OPTGRAD =  3.00D-04
 OPTENERG=  1.00D-06  OPTSTEP =  3.00D-04  THRGRAD =  1.00D-10  COMPRESS=  1.00D-11  VARMIN  =  1.00D-07  VARMAX  =  1.00D-03
 THRDOUB =  0.00D+00  THRDIV  =  1.00D-05  THRRED  =  1.00D-07  THRPSP  =  1.00D+00  THRDC   =  1.00D-10  THRCS   =  1.00D-10
 THRNRM  =  1.00D-08  THREQ   =  0.00D+00  THRDE   =  1.00D+00  THRREF  =  1.00D-05  SPARFAC =  1.00D+00  THRDLP  =  1.00D-07
 THRDIA  =  1.00D-10  THRDLS  =  1.00D-07  THRGPS  =  0.00D+00  THRKEX  =  0.00D+00  THRDIS  =  2.00D-01  THRVAR  =  1.00D-10
 THRLOC  =  1.00D-06  THRGAP  =  1.00D-06  THRLOCT = -1.00D+00  THRGAPT = -1.00D+00  THRORB  =  1.00D-06  THRMLTP =  0.00D+00
 THRCPQCI=  1.00D-10  KEXTA   =  0.00D+00  THRCOARS=  0.00D+00  SYMTOL  =  1.00D-06  GRADTOL =  1.00D-06  THROVL  =  1.00D-08
 THRORTH =  1.00D-08  GRID    =  1.00D-06  GRIDMAX =  1.00D-03  DTMAX   =  0.00D+00  THROCCDE=  1.00D-01  THROCCDE=  1.00D-01



 THRESHOLDS:

 ZERO    =  1.00D-22  ONEINT  =  1.00D-22  TWOINT  =  1.00D-22  PREFAC  =  1.00D-14  LOCALI  =  1.00D-09  EORDER  =  1.00D-04
 ENERGY  =  1.00D-12  ETEST   =  0.00D+00  EDENS   =  0.00D+00  THRDEDEF=  1.00D-06  GRADIENT=  1.00D-02  STEP    =  1.00D-03
 ORBITAL =  1.00D-05  CIVEC   =  1.00D-05  COEFF   =  1.00D-04  PRINTCI =  5.00D-02  PUNCHCI =  9.90D+01  OPTGRAD =  1.00D-08
 OPTENERG=  1.00D-06  OPTSTEP =  1.00D-08  THRGRAD =  1.00D-10  COMPRESS=  1.00D-11  VARMIN  =  1.00D-07  VARMAX  =  1.00D-03
 THRDOUB =  0.00D+00  THRDIV  =  1.00D-05  THRRED  =  1.00D-07  THRPSP  =  1.00D+00  THRDC   =  1.00D-10  THRCS   =  1.00D-10
 THRNRM  =  1.00D-08  THREQ   =  0.00D+00  THRDE   =  1.00D+00  THRREF  =  1.00D-05  SPARFAC =  1.00D+00  THRDLP  =  1.00D-07
 THRDIA  =  1.00D-10  THRDLS  =  1.00D-07  THRGPS  =  0.00D+00  THRKEX  =  0.00D+00  THRDIS  =  2.00D-01  THRVAR  =  1.00D-10
 THRLOC  =  1.00D-06  THRGAP  =  1.00D-06  THRLOCT = -1.00D+00  THRGAPT = -1.00D+00  THRORB  =  1.00D-06  THRMLTP =  0.00D+00
 THRCPQCI=  1.00D-10  KEXTA   =  0.00D+00  THRCOARS=  0.00D+00  SYMTOL  =  1.00D-06  GRADTOL =  1.00D-06  THROVL  =  1.00D-08
 THRORTH =  1.00D-08  GRID    =  1.00D-06  GRIDMAX =  1.00D-03  DTMAX   =  0.00D+00  THROCCDE=  1.00D-01  THROCCDE=  1.00D-01



 Input parameters for SORTINT:

 COMPRESS =    0.000000
 C_FINAL  =    1.000000
 DEBUG    =   -1.000000
 C_SORT1  =    0.000000
 C_SEWARD =    0.000000
 THRESH   =    0.000000
 IO       =  molpro                                                          
 SPRI     =    0.000000
 SETTING GEOMTYP        =    XYZ
 ZUNIT=BOHR
 

 Variable memory set to  995000000 words,  buffer space   230000 words

 SETTING BASIS          =    USERDEF


 Recomputing integrals since basis changed


 Using spherical harmonics

 Library entry H      S aug-cc-pVTZ          selected for orbital group  2
 Library entry H      P aug-cc-pVTZ          selected for orbital group  2
 Library entry H      D aug-cc-pVTZ          selected for orbital group  2


 PROGRAM * SEWARD (Integral evaluation for generally contracted gaussian basis sets)     Author: Roland Lindh, 1990

 Geometry written to block  1 of record 700


 Point group  Cs  



 ATOMIC COORDINATES

 NR  ATOM    CHARGE       X              Y              Z

   1  N       7.00    0.000000000   -0.161660302   -1.158209147
   2  H       1.00    0.000000000    1.668926425   -1.933657567
   3  O       8.00    0.000000000    0.034501667    1.141277123

 Bond lengths in Bohr (Angstrom)

 1-2  1.988056342  1-3  2.307838084
     ( 1.052034110)     ( 1.221255321)

 Bond angles

  2-1-3  108.08191250

 NUCLEAR CHARGE:                   16
 NUMBER OF PRIMITIVE AOS:         203
 NUMBER OF SYMMETRY AOS:          173
 NUMBER OF CONTRACTIONS:          171   ( 114A'  +  57A"  )
 NUMBER OF CORE ORBITALS:           2   (   2A'  +   0A"  )
 NUMBER OF VALENCE ORBITALS:        9   (   7A'  +   2A"  )


 NUCLEAR REPULSION ENERGY   30.08347842


 Eigenvalues of metric

         1 0.106E-02 0.261E-02 0.339E-02 0.643E-02 0.986E-02 0.137E-01 0.146E-01 0.233E-01
         2 0.365E-01 0.551E-01 0.708E-01 0.943E-01 0.132E+00 0.134E+00 0.140E+00 0.142E+00


 Contracted 2-electron integrals neglected if value below      1.0D-22

       46076657. INTEGRALS WRITTEN OUT IN   11252 BLOCKS ON RECORD 1290 OF FILE 1


 NUMBER OF SORTED TWO-ELECTRON INTEGRALS:   55360566.     BUFFER LENGTH:  32768
 NUMBER OF SEGMENTS:   4  SEGMENT LENGTH:   15997996      RECORD LENGTH: 524288

 Memory used in sort:      16.56 MW

 SORT1 READ    46076657. AND WROTE    46513370. INTEGRALS IN    135 RECORDS. CPU TIME:     0.69 SEC, REAL TIME:     0.98 SEC
 SORT2 READ    46513370. AND WROTE    55360566. INTEGRALS IN      4 RECORDS. CPU TIME:     0.68 SEC, REAL TIME:     0.82 SEC

 FILE SIZES:   FILE 1:   758.1 MBYTE,  FILE 4:   566.3 MBYTE,   TOTAL:   1324.4 MBYTE

 OPERATOR DM      FOR CENTER  0  COORDINATES:    0.000000    0.000000    0.000000


 **********************************************************************************************************************************
 DATASETS  * FILE   NREC   LENGTH (MB)   RECORD NAMES
              1      19      420.78       500      610      700      900      950      970     1000      129      960     1100   
                                          VAR    BASINP    GEOM    SYMINP    ZMAT    AOBASIS   BASIS     P2S    ABASIS      S 
                                         1400     1410     1200     1210     1080     1600     1650     1300     1700   
                                           T        V       H0       H01     AOSYM     SMH    MOLCAS    ERIS     OPER   

 PROGRAMS   *        TOTAL       INT
 CPU TIMES  *         4.04      3.93
 REAL TIME  *         5.49 SEC
 DISK USED  *         1.32 GB      
 **********************************************************************************************************************************


 PROGRAM * RHF-SCF (CLOSED SHELL)       Authors: W. Meyer, H.-J. Werner


 NUMBER OF ELECTRONS:       8+    8-
 CONVERGENCE THRESHOLDS:    1.00E-10 (Density)    1.00E-13 (Energy)
 MAX. NUMBER OF ITERATIONS:      500
 INTERPOLATION TYPE:            DIIS
 INTERPOLATION STEPS:              2 (START)      1 (STEP)
 LEVEL SHIFTS:                  0.00 (CLOSED)  0.00 (OPEN) 



 Orbital guess generated from atomic densities. Full valence occupancy:    9   2

 Molecular orbital dump at record        2100.2

 Initial occupancy:   7   1

 ITERATION    DDIFF          GRAD             ENERGY        2-EL.EN.            DIPOLE MOMENTS         DIIS   ORB.
    1      0.000D+00      0.000D+00      -129.78518305    153.551945    0.00000    0.57457   -1.05643    0    start
    2      0.000D+00      0.892D-02      -129.81159268    154.697429    0.00000    0.60598   -0.18750    1    diag
    3      0.372D-02      0.698D-02      -129.83672001    154.848000    0.00000    0.55232   -0.60235    2    diag
    4      0.148D-02      0.105D-02      -129.83753028    154.563949    0.00000    0.56015   -0.53771    3    diag
    5      0.336D-03      0.344D-03      -129.83765557    154.653149    0.00000    0.56617   -0.53988    4    diag
    6      0.155D-03      0.101D-03      -129.83767611    154.636874    0.00000    0.56667   -0.53552    5    diag
    7      0.613D-04      0.513D-04      -129.83768239    154.639276    0.00000    0.56797   -0.53282    6    diag
    8      0.420D-04      0.183D-04      -129.83768315    154.638384    0.00000    0.56802   -0.53181    7    diag
    9      0.156D-04      0.346D-05      -129.83768318    154.638258    0.00000    0.56796   -0.53160    8    diag
   10      0.326D-05      0.765D-06      -129.83768318    154.638244    0.00000    0.56792   -0.53158    9    orth
   11      0.908D-06      0.150D-06      -129.83768318    154.638240    0.00000    0.56792   -0.53157    9    diag
   12      0.211D-06      0.323D-07      -129.83768318    154.638239    0.00000    0.56791   -0.53157    9    diag
   13      0.521D-07      0.884D-08      -129.83768318    154.638239    0.00000    0.56791   -0.53157    9    diag
   14      0.123D-07      0.155D-08      -129.83768318    154.638239    0.00000    0.56791   -0.53157    9    diag
   15      0.142D-08      0.408D-09      -129.83768318    154.638239    0.00000    0.56791   -0.53157    9    diag
   16      0.345D-09      0.117D-09      -129.83768318    154.638239    0.00000    0.56791   -0.53157    9    diag
   17      0.644D-10      0.307D-10      -129.83768318    154.638239    0.00000    0.56791   -0.53157    9    diag
   18      0.180D-10      0.988D-11      -129.83768318    154.638239    0.00000    0.56791   -0.53157    0    orth

 Final occupancy:   7   1

 !RHF STATE 1.1 Energy               -129.837683184159
 Nuclear energy                        30.08347842
 One-electron energy                 -237.24028087
 Two-electron energy                   77.31911927
 Virial quotient                       -1.00201522
 !RHF STATE 1.1 Dipole moment           0.00000000     0.56791460    -0.53157075
 Dipole moment /Debye                   0.00000000     1.44340040    -1.35102960

 Orbital energies:

         1.1          2.1          3.1          4.1          5.1          6.1          7.1          8.1          9.1
    -20.652487   -15.712868    -1.517345    -0.995932    -0.741174    -0.660401    -0.432815     0.039511     0.192145

         1.2          2.2          3.2
     -0.587998     0.074488     0.239100

 HOMO      7.1    -0.432815 =     -11.7775eV
 LUMO      8.1     0.039511 =       1.0751eV
 LUMO-HOMO         0.472326 =      12.8526eV


 **********************************************************************************************************************************
 DATASETS  * FILE   NREC   LENGTH (MB)   RECORD NAMES
              1      19      420.78       500      610      700      900      950      970     1000      129      960     1100   
                                          VAR    BASINP    GEOM    SYMINP    ZMAT    AOBASIS   BASIS     P2S    ABASIS      S 
                                         1400     1410     1200     1210     1080     1600     1650     1300     1700   
                                           T        V       H0       H01     AOSYM     SMH    MOLCAS    ERIS     OPER   

              2       4        3.13       700     1000      520     2100   
                                         GEOM     BASIS   MCVARS     RHF  

 PROGRAMS   *        TOTAL        HF       INT
 CPU TIMES  *         8.49      4.45      3.93
 REAL TIME  *        10.79 SEC
 DISK USED  *         1.32 GB      
 **********************************************************************************************************************************


 PROGRAM * CCSD (Closed-shell coupled cluster)     Authors: C. Hampel, H.-J. Werner, 1991, M. Deegan, P.J. Knowles, 1992


 Convergence thresholds:  THRVAR = 1.00D-08  THRDEN = 1.00D-12

 CCSD(T)     terms to be evaluated (factor= 1.000)


 Number of closed-shell orbitals:   8 (   7   1 )
 Number of external orbitals:     163 ( 107  56 )

 Molecular orbitals read from record     2100.2  Type=RHF/CANONICAL (state 1.1)

 Number of N-1 electron functions:               8
 Number of N-2 electron functions:              36
 Number of singly external CSFs:               805
 Number of doubly external CSFs:            449165
 Total number of CSFs:                      449971

 Length of J-op  integral file:               0.00 MB
 Length of K-op  integral file:               1.15 MB
 Length of 3-ext integral record:             0.00 MB

 Memory could be reduced to 24.90 Mwords without degradation in triples

 Integral transformation finished. Total CPU:   0.82 sec, npass=  1  Memory used:   6.89 MW

 Reference energy:                   -129.83768318

 MP2 singlet pair energy:              -0.38027751
 MP2 triplet pair energy:              -0.18747251
 MP2 correlation energy:               -0.56775002
 MP2 total energy:                   -130.40543320

 SCS-MP2 correlation energy:           -0.57298257   (PS=  1.200000  PT=  0.333333)
 SCS-MP2 total energy:               -130.41066576

 ITER.      SQ.NORM     CORR.ENERGY   TOTAL ENERGY   ENERGY CHANGE        DEN1      VAR(S)    VAR(P)  DIIS     TIME  TIME/IT
   1      1.12118717    -0.57197552  -130.40965871    -0.00422551     0.01408837  0.36D-02  0.33D-02  1  1     1.69     0.91
   2      1.13242394    -0.57155336  -130.40923654     0.00042217    -0.01408637  0.97D-04  0.52D-03  2  2     2.55     0.94
   3      1.13788451    -0.57189519  -130.40957838    -0.00034184    -0.00240900  0.59D-04  0.72D-04  3  3     3.47     0.95
   4      1.14149961    -0.57188829  -130.40957147     0.00000691    -0.00143483  0.50D-05  0.10D-04  4  4     4.35     0.95
   5      1.14263975    -0.57191425  -130.40959743    -0.00002596    -0.00026968  0.17D-05  0.19D-05  5  5     5.23     0.96
   6      1.14307783    -0.57190746  -130.40959065     0.00000679    -0.00004282  0.14D-06  0.42D-06  6  6     6.09     0.96
   7      1.14316295    -0.57190785  -130.40959104    -0.00000039     0.00000117  0.20D-07  0.97D-07  6  1     6.96     0.96
   8      1.14319751    -0.57190593  -130.40958911     0.00000192    -0.00000500  0.39D-08  0.15D-07  6  2     7.85     0.96
   9      1.14320222    -0.57190599  -130.40958918    -0.00000006     0.00000135  0.18D-08  0.20D-08  6  3     8.74     0.96
  10      1.14320408    -0.57190630  -130.40958948    -0.00000031    -0.00000076  0.44D-09  0.29D-09  6  4     9.60     0.96
  11      1.14320310    -0.57190644  -130.40958963    -0.00000015     0.00000035  0.11D-09  0.30D-10  6  5    10.51     0.96
  12      1.14320221    -0.57190659  -130.40958977    -0.00000014     0.00000035  0.11D-10  0.72D-11  6  6    11.38     0.96
  13      1.14320166    -0.57190660  -130.40958978    -0.00000001     0.00000011  0.46D-11  0.13D-11  6  1    12.25     0.96
  14      1.14320121    -0.57190663  -130.40958981    -0.00000003     0.00000011  0.45D-12  0.44D-12  6  3    13.11     0.97
  15      1.14320103    -0.57190663  -130.40958981    -0.00000000     0.00000002  0.11D-12  0.32D-13  6  2    13.99     0.97
  16      1.14320097    -0.57190663  -130.40958981    -0.00000000     0.00000001  0.25D-13  0.67D-14  6  4    14.88     0.97
  17      1.14320094    -0.57190663  -130.40958982    -0.00000000     0.00000001  0.48D-14  0.12D-14  6  5    15.75     0.97
  18      1.14320094    -0.57190663  -130.40958982    -0.00000000     0.00000000  0.54D-15  0.33D-15  6  6    16.66     0.97
  19      1.14320094    -0.57190663  -130.40958982     0.00000000    -0.00000000  0.70D-16  0.51D-16  6  1    17.54     0.97
  20      1.14320094    -0.57190663  -130.40958981     0.00000000    -0.00000000  0.29D-17  0.12D-16  6  3    18.42     0.97
  21      1.14320094    -0.57190663  -130.40958981     0.00000000    -0.00000000  0.15D-17  0.30D-17  6  2    19.29     0.97
  22      1.14320094    -0.57190663  -130.40958981     0.00000000    -0.00000000  0.37D-18  0.11D-17  6  4    20.15     0.97
  23      1.14320094    -0.57190663  -130.40958981    -0.00000000     0.00000000  0.19D-18  0.15D-18  6  5    21.01     0.97
  24      1.14320094    -0.57190663  -130.40958981     0.00000000    -0.00000000  0.67D-20  0.19D-19  6  1    21.90     0.97
  25      1.14320094    -0.57190663  -130.40958981     0.00000000     0.00000000  0.47D-21  0.17D-20  6  6    22.78     0.97
  26      1.14320094    -0.57190663  -130.40958981    -0.00000000     0.00000000  0.18D-21  0.25D-21  6  1    23.66     0.97

 Norm of t1 vector:      0.07982949      S-energy:     0.00000000      T1 diagnostic:  0.01411199
                                                                       D1 diagnostic:  0.04578399

 Doubles amplitudes (print threshold =  0.500E-01):

         I         J         SYM. A    SYM. B    A         B      T(IJ, AB)

         8         8         2         2         1         1     -0.13858917


 Total CPU time for triples:     14.49 sec


 RESULTS
 =======

  Reference energy                   -129.837683184159

  Correlated core orbitals:             1.1       2.1
  Orbital energies:                   -20.6525  -15.7129
 
  CCSD core-core energy                -0.079239512045
  CCSD core-valence energy             -0.035992527718
  CCSD valence correlation energy      -0.456674590943
 
  CCSD singlet pair energy             -0.409297377667
  CCSD triplet pair energy             -0.162609253042
  CCSD correlation energy              -0.571906630706

  Triples (T) contribution             -0.022710483251
  Total correlation energy             -0.594617113958

  CCSD total energy                  -130.409589814865
  CCSD[T] energy                     -130.433533697323
  CCSD-T energy                      -130.431843729887
 !CCSD(T) total energy               -130.432300298117

 Timing summary (sec):

 STEP                 CPU(USER)    SYS     CPU(TOT)    WALL
 Transformation          0.83      0.15      0.98      0.98
 CCSD iterations        22.83      2.30     25.13     25.16
 Triples                14.49      0.53     15.02     15.01

 Program statistics:

 Available memory in ccsd:               994999644
 Min. memory needed in ccsd:               1368037
 Max. memory used in ccsd:                 1750502
 Max. memory used in cckext:               2014357 (26 integral passes)



 **********************************************************************************************************************************
 DATASETS  * FILE   NREC   LENGTH (MB)   RECORD NAMES
              1      20      499.69       500      610      700      900      950      970     1000      129      960     1100   
                                          VAR    BASINP    GEOM    SYMINP    ZMAT    AOBASIS   BASIS     P2S    ABASIS      S 
                                         1400     1410     1200     1210     1080     1600     1650     1300     1700     1380   
                                           T        V       H0       H01     AOSYM     SMH    MOLCAS    ERIS     OPER     JKOP   

              2       4        3.13       700     1000      520     2100   
                                         GEOM     BASIS   MCVARS     RHF  

 PROGRAMS   *        TOTAL   CCSD(T)        HF       INT
 CPU TIMES  *        46.66     38.17      4.45      3.93
 REAL TIME  *        51.97 SEC
 DISK USED  *         1.32 GB      
 **********************************************************************************************************************************

 CCSD(T)/USERDEF energy=   -130.432300298117

        CCSD(T)         HF-SCF  
   -130.43230030   -129.83768318
 **********************************************************************************************************************************
 Molpro calculation terminated
 Variable memory released
