
 Primary working directories    : /tmp/r2666/235510.maple
 Secondary working directories  : /tmp/r2666/235510.maple
 Wavefunction directory         : /ddn/home4/r2666/wfu/
 Main file repository           : /tmp/r2666/235510.maple/

 SHA1      : d5ffa45e93fdbca01ffc919aa182cfdae0147319
 NAME      : 2015.1.35
 ARCHNAME  : linux/x86_64
 FC        : /opt/intel/composer_xe_2015.1.133/bin/intel64/ifort
 BLASLIB   : -Wl,-_start-group /opt/intel/mkl/lib/intel64/libmkl_intel_ilp64.a /opt/intel/mkl/lib/intel64/libmkl_intel_thread.a /opt/intel/mkl/lib/intel64/libmkl_core.a -Wl,-_end-group
 id        : olemiss

 Nodes     nprocs
 cn092        1

 Using customized tuning parameters: mindgm=1; mindgv=20; mindgc=4; mindgr=1; noblas=0; minvec=7
 default implementation of scratch files=df  

 ***,hno CCSD(T)/TZ-F12 QFF
 memory, 995, m;
 gthresh,energy=1.d-12,zero=1.d-22,oneint=1.d-22,twoint=1.d-22;
 gthresh,optgrad=1.d-8,optstep=1.d-8;
 nocompress;
 geomtyp=xyz
 bohr
 geometry={
 3
        107       107
 N        0.0000000000       -0.1611388897       -1.1449743018
 H        0.0000000000        1.6719815317       -1.9385079392
 O        0.0000000000        0.0309251480        1.1328926500
 }
 
 basis={
 default=aug-cc-pvtz
 s,C,8236.0,1235.0,280.8, 79.27,25.59, 8.997,3.319
 s,C,0.9059,0.3643,0.1285000
 p,C,56.0,18.71,4.133,0.2827,0.3827,0.1209
 d,C,30.0,10.0,3.3,1.097,0.318
 f,C,7.0,2.3,0.7610
 s,N,11420.0,1712.0,389.3,110.0,35.57,12.54,4.644
 s,N,1.293,0.5118,0.1787
 p,N,79.89,26.63,5.948,1.742,0.555,0.1725
 d,N,45.0,15.0,5.0,1.654,0.469
 f,N,9.9,3.3,1.093
 s,O,15330.0,2299.0,522.4,147.3,47.55,16.76,6.207
 s,O,1.752,0.6882,0.2384
 p,O,103.5,34.46,7.749,2.28,0.7156,0.214
 d,O,63.0,21.0,7.0,2.314,0.645
 f,O,12.9,4.3,1.428
 s,mg,164900.0,24710.0,5628.0,1596.0,521.0;
 s,mg,188.0,73.01,29.90,12.54,4.306,1.826;
 s,mg,0.7417,0.0761,0.145,0.033,0.0129;
 p,mg,950.70,316.90,74.86,23.72,8.669,3.363;
 p,mg,1.310,0.4911,0.2364,0.08733,0.03237,0.00745;
 d,mg,1.601,0.686,0.126,0.294,0.0468;
 f,mg,1.372,0.588,0.094,0.252;
 }
   {hf,maxit=500;accu,20;}
 {ccsd(t),nocheck,maxit=250;orbital,IGNORE_ERROR;core}

 Variables initialized (889), CPU time= 0.00 sec
 Commands  initialized (702), CPU time= 0.01 sec, 572 directives.
 Default parameters read. Elapsed time= 0.04 sec

 Checking input...
 Passed
1


                                         ***  PROGRAM SYSTEM MOLPRO  ***
                                       Copyright, TTI GmbH Stuttgart, 2015
                                    Version 2015.1 linked Jul  9 2018 13:16:40


 **********************************************************************************************************************************
 LABEL *   hno CCSD(T)/TZ-F12 QFF                                                        
  64 bit serial version                                                                  DATE: 08-Feb-20          TIME: 18:00:38  
 **********************************************************************************************************************************

 SHA1:             d5ffa45e93fdbca01ffc919aa182cfdae0147319
 **********************************************************************************************************************************

 THRESHOLDS:

 ZERO    =  1.00D-22  ONEINT  =  1.00D-22  TWOINT  =  1.00D-22  PREFAC  =  1.00D-14  LOCALI  =  1.00D-09  EORDER  =  1.00D-04
 ENERGY  =  1.00D-12  ETEST   =  0.00D+00  EDENS   =  0.00D+00  THRDEDEF=  1.00D-06  GRADIENT=  1.00D-02  STEP    =  1.00D-03
 ORBITAL =  1.00D-05  CIVEC   =  1.00D-05  COEFF   =  1.00D-04  PRINTCI =  5.00D-02  PUNCHCI =  9.90D+01  OPTGRAD =  3.00D-04
 OPTENERG=  1.00D-06  OPTSTEP =  3.00D-04  THRGRAD =  1.00D-10  COMPRESS=  1.00D-11  VARMIN  =  1.00D-07  VARMAX  =  1.00D-03
 THRDOUB =  0.00D+00  THRDIV  =  1.00D-05  THRRED  =  1.00D-07  THRPSP  =  1.00D+00  THRDC   =  1.00D-10  THRCS   =  1.00D-10
 THRNRM  =  1.00D-08  THREQ   =  0.00D+00  THRDE   =  1.00D+00  THRREF  =  1.00D-05  SPARFAC =  1.00D+00  THRDLP  =  1.00D-07
 THRDIA  =  1.00D-10  THRDLS  =  1.00D-07  THRGPS  =  0.00D+00  THRKEX  =  0.00D+00  THRDIS  =  2.00D-01  THRVAR  =  1.00D-10
 THRLOC  =  1.00D-06  THRGAP  =  1.00D-06  THRLOCT = -1.00D+00  THRGAPT = -1.00D+00  THRORB  =  1.00D-06  THRMLTP =  0.00D+00
 THRCPQCI=  1.00D-10  KEXTA   =  0.00D+00  THRCOARS=  0.00D+00  SYMTOL  =  1.00D-06  GRADTOL =  1.00D-06  THROVL  =  1.00D-08
 THRORTH =  1.00D-08  GRID    =  1.00D-06  GRIDMAX =  1.00D-03  DTMAX   =  0.00D+00  THROCCDE=  1.00D-01  THROCCDE=  1.00D-01



 THRESHOLDS:

 ZERO    =  1.00D-22  ONEINT  =  1.00D-22  TWOINT  =  1.00D-22  PREFAC  =  1.00D-14  LOCALI  =  1.00D-09  EORDER  =  1.00D-04
 ENERGY  =  1.00D-12  ETEST   =  0.00D+00  EDENS   =  0.00D+00  THRDEDEF=  1.00D-06  GRADIENT=  1.00D-02  STEP    =  1.00D-03
 ORBITAL =  1.00D-05  CIVEC   =  1.00D-05  COEFF   =  1.00D-04  PRINTCI =  5.00D-02  PUNCHCI =  9.90D+01  OPTGRAD =  1.00D-08
 OPTENERG=  1.00D-06  OPTSTEP =  1.00D-08  THRGRAD =  1.00D-10  COMPRESS=  1.00D-11  VARMIN  =  1.00D-07  VARMAX  =  1.00D-03
 THRDOUB =  0.00D+00  THRDIV  =  1.00D-05  THRRED  =  1.00D-07  THRPSP  =  1.00D+00  THRDC   =  1.00D-10  THRCS   =  1.00D-10
 THRNRM  =  1.00D-08  THREQ   =  0.00D+00  THRDE   =  1.00D+00  THRREF  =  1.00D-05  SPARFAC =  1.00D+00  THRDLP  =  1.00D-07
 THRDIA  =  1.00D-10  THRDLS  =  1.00D-07  THRGPS  =  0.00D+00  THRKEX  =  0.00D+00  THRDIS  =  2.00D-01  THRVAR  =  1.00D-10
 THRLOC  =  1.00D-06  THRGAP  =  1.00D-06  THRLOCT = -1.00D+00  THRGAPT = -1.00D+00  THRORB  =  1.00D-06  THRMLTP =  0.00D+00
 THRCPQCI=  1.00D-10  KEXTA   =  0.00D+00  THRCOARS=  0.00D+00  SYMTOL  =  1.00D-06  GRADTOL =  1.00D-06  THROVL  =  1.00D-08
 THRORTH =  1.00D-08  GRID    =  1.00D-06  GRIDMAX =  1.00D-03  DTMAX   =  0.00D+00  THROCCDE=  1.00D-01  THROCCDE=  1.00D-01



 Input parameters for SORTINT:

 COMPRESS =    0.000000
 C_FINAL  =    1.000000
 DEBUG    =   -1.000000
 C_SORT1  =    0.000000
 C_SEWARD =    0.000000
 THRESH   =    0.000000
 IO       =  molpro                                                          
 SPRI     =    0.000000
 SETTING GEOMTYP        =    XYZ
 ZUNIT=BOHR
 

 Variable memory set to  995000000 words,  buffer space   230000 words

 SETTING BASIS          =    USERDEF


 Recomputing integrals since basis changed


 Using spherical harmonics

 Library entry H      S aug-cc-pVTZ          selected for orbital group  2
 Library entry H      P aug-cc-pVTZ          selected for orbital group  2
 Library entry H      D aug-cc-pVTZ          selected for orbital group  2


 PROGRAM * SEWARD (Integral evaluation for generally contracted gaussian basis sets)     Author: Roland Lindh, 1990

 Geometry written to block  1 of record 700


 Point group  Cs  



 ATOMIC COORDINATES

 NR  ATOM    CHARGE       X              Y              Z

   1  N       7.00    0.000000000   -0.161138890   -1.144974302
   2  H       1.00    0.000000000    1.671981532   -1.938507939
   3  O       8.00    0.000000000    0.030925148    1.132892650

 Bond lengths in Bohr (Angstrom)

 1-2  1.997504972  1-3  2.285949790
     ( 1.057034110)     ( 1.209672534)

 Bond angles

  2-1-3  108.58751303

 NUCLEAR CHARGE:                   16
 NUMBER OF PRIMITIVE AOS:         203
 NUMBER OF SYMMETRY AOS:          173
 NUMBER OF CONTRACTIONS:          171   ( 114A'  +  57A"  )
 NUMBER OF CORE ORBITALS:           2   (   2A'  +   0A"  )
 NUMBER OF VALENCE ORBITALS:        9   (   7A'  +   2A"  )


 NUCLEAR REPULSION ENERGY   30.29916530


 Eigenvalues of metric

         1 0.105E-02 0.250E-02 0.336E-02 0.640E-02 0.100E-01 0.137E-01 0.145E-01 0.233E-01
         2 0.369E-01 0.535E-01 0.702E-01 0.942E-01 0.131E+00 0.134E+00 0.141E+00 0.142E+00


 Contracted 2-electron integrals neglected if value below      1.0D-22

       46142476. INTEGRALS WRITTEN OUT IN   11269 BLOCKS ON RECORD 1290 OF FILE 1


 NUMBER OF SORTED TWO-ELECTRON INTEGRALS:   55360566.     BUFFER LENGTH:  32768
 NUMBER OF SEGMENTS:   4  SEGMENT LENGTH:   15997996      RECORD LENGTH: 524288

 Memory used in sort:      16.56 MW

 SORT1 READ    46142476. AND WROTE    46579887. INTEGRALS IN    135 RECORDS. CPU TIME:     0.73 SEC, REAL TIME:     1.05 SEC
 SORT2 READ    46579887. AND WROTE    55360566. INTEGRALS IN      4 RECORDS. CPU TIME:     0.62 SEC, REAL TIME:     0.83 SEC

 FILE SIZES:   FILE 1:   759.3 MBYTE,  FILE 4:   566.3 MBYTE,   TOTAL:   1325.5 MBYTE

 OPERATOR DM      FOR CENTER  0  COORDINATES:    0.000000    0.000000    0.000000


 **********************************************************************************************************************************
 DATASETS  * FILE   NREC   LENGTH (MB)   RECORD NAMES
              1      19      421.23       500      610      700      900      950      970     1000      129      960     1100   
                                          VAR    BASINP    GEOM    SYMINP    ZMAT    AOBASIS   BASIS     P2S    ABASIS      S 
                                         1400     1410     1200     1210     1080     1600     1650     1300     1700   
                                           T        V       H0       H01     AOSYM     SMH    MOLCAS    ERIS     OPER   

 PROGRAMS   *        TOTAL       INT
 CPU TIMES  *         4.09      4.00
 REAL TIME  *         5.60 SEC
 DISK USED  *         1.33 GB      
 **********************************************************************************************************************************


 PROGRAM * RHF-SCF (CLOSED SHELL)       Authors: W. Meyer, H.-J. Werner


 NUMBER OF ELECTRONS:       8+    8-
 CONVERGENCE THRESHOLDS:    1.00E-10 (Density)    1.00E-13 (Energy)
 MAX. NUMBER OF ITERATIONS:      500
 INTERPOLATION TYPE:            DIIS
 INTERPOLATION STEPS:              2 (START)      1 (STEP)
 LEVEL SHIFTS:                  0.00 (CLOSED)  0.00 (OPEN) 



 Orbital guess generated from atomic densities. Full valence occupancy:    9   2

 Molecular orbital dump at record        2100.2

 Initial occupancy:   7   1

 ITERATION    DDIFF          GRAD             ENERGY        2-EL.EN.            DIPOLE MOMENTS         DIIS   ORB.
    1      0.000D+00      0.000D+00      -129.78837740    153.930948    0.00000    0.57057   -1.02072    0    start
    2      0.000D+00      0.882D-02      -129.81521563    155.109435    0.00000    0.59797   -0.19491    1    diag
    3      0.364D-02      0.674D-02      -129.83846993    155.232248    0.00000    0.54714   -0.58718    2    diag
    4      0.143D-02      0.104D-02      -129.83925899    154.955572    0.00000    0.55497   -0.52439    3    diag
    5      0.331D-03      0.338D-03      -129.83938086    155.044297    0.00000    0.56110   -0.52683    4    diag
    6      0.153D-03      0.995D-04      -129.83940080    155.028121    0.00000    0.56167   -0.52266    5    diag
    7      0.610D-04      0.500D-04      -129.83940669    155.030668    0.00000    0.56301   -0.52013    6    diag
    8      0.414D-04      0.172D-04      -129.83940733    155.029833    0.00000    0.56307   -0.51921    7    diag
    9      0.145D-04      0.323D-05      -129.83940736    155.029716    0.00000    0.56302   -0.51902    8    diag
   10      0.295D-05      0.736D-06      -129.83940736    155.029701    0.00000    0.56298   -0.51899    9    orth
   11      0.871D-06      0.146D-06      -129.83940736    155.029697    0.00000    0.56297   -0.51899    9    diag
   12      0.206D-06      0.304D-07      -129.83940736    155.029696    0.00000    0.56297   -0.51899    9    diag
   13      0.505D-07      0.808D-08      -129.83940736    155.029696    0.00000    0.56297   -0.51899    9    diag
   14      0.118D-07      0.142D-08      -129.83940736    155.029695    0.00000    0.56297   -0.51899    9    diag
   15      0.149D-08      0.380D-09      -129.83940736    155.029696    0.00000    0.56297   -0.51899    9    diag
   16      0.332D-09      0.111D-09      -129.83940736    155.029695    0.00000    0.56297   -0.51899    9    diag
   17      0.748D-10      0.305D-10      -129.83940736    155.029695    0.00000    0.56297   -0.51899    9    diag
   18      0.234D-10      0.102D-10      -129.83940736    155.029695    0.00000    0.56297   -0.51899    9    diag
   19      0.957D-11      0.246D-11      -129.83940736    155.029695    0.00000    0.56297   -0.51899    0    orth

 Final occupancy:   7   1

 !RHF STATE 1.1 Energy               -129.839407363991
 Nuclear energy                        30.29916530
 One-electron energy                 -237.65342041
 Two-electron energy                   77.51484775
 Virial quotient                       -1.00175443
 !RHF STATE 1.1 Dipole moment           0.00000000     0.56296975    -0.51898874
 Dipole moment /Debye                   0.00000000     1.43083265    -1.31905139

 Orbital energies:

         1.1          2.1          3.1          4.1          5.1          6.1          7.1          8.1          9.1
    -20.651634   -15.711493    -1.526388    -0.992301    -0.744103    -0.663816    -0.428704     0.039609     0.192228

         1.2          2.2          3.2
     -0.593423     0.078405     0.239474

 HOMO      7.1    -0.428704 =     -11.6656eV
 LUMO      8.1     0.039609 =       1.0778eV
 LUMO-HOMO         0.468312 =      12.7434eV


 **********************************************************************************************************************************
 DATASETS  * FILE   NREC   LENGTH (MB)   RECORD NAMES
              1      19      421.23       500      610      700      900      950      970     1000      129      960     1100   
                                          VAR    BASINP    GEOM    SYMINP    ZMAT    AOBASIS   BASIS     P2S    ABASIS      S 
                                         1400     1410     1200     1210     1080     1600     1650     1300     1700   
                                           T        V       H0       H01     AOSYM     SMH    MOLCAS    ERIS     OPER   

              2       4        3.13       700     1000      520     2100   
                                         GEOM     BASIS   MCVARS     RHF  

 PROGRAMS   *        TOTAL        HF       INT
 CPU TIMES  *         8.90      4.82      4.00
 REAL TIME  *        11.42 SEC
 DISK USED  *         1.33 GB      
 **********************************************************************************************************************************


 PROGRAM * CCSD (Closed-shell coupled cluster)     Authors: C. Hampel, H.-J. Werner, 1991, M. Deegan, P.J. Knowles, 1992


 Convergence thresholds:  THRVAR = 1.00D-08  THRDEN = 1.00D-12

 CCSD(T)     terms to be evaluated (factor= 1.000)


 Number of closed-shell orbitals:   8 (   7   1 )
 Number of external orbitals:     163 ( 107  56 )

 Molecular orbitals read from record     2100.2  Type=RHF/CANONICAL (state 1.1)

 Number of N-1 electron functions:               8
 Number of N-2 electron functions:              36
 Number of singly external CSFs:               805
 Number of doubly external CSFs:            449165
 Total number of CSFs:                      449971

 Length of J-op  integral file:               0.00 MB
 Length of K-op  integral file:               1.15 MB
 Length of 3-ext integral record:             0.00 MB

 Memory could be reduced to 24.90 Mwords without degradation in triples

 Integral transformation finished. Total CPU:   0.84 sec, npass=  1  Memory used:   6.89 MW

 Reference energy:                   -129.83940736

 MP2 singlet pair energy:              -0.37921512
 MP2 triplet pair energy:              -0.18679483
 MP2 correlation energy:               -0.56600994
 MP2 total energy:                   -130.40541731

 SCS-MP2 correlation energy:           -0.57128603   (PS=  1.200000  PT=  0.333333)
 SCS-MP2 total energy:               -130.41069340

 ITER.      SQ.NORM     CORR.ENERGY   TOTAL ENERGY   ENERGY CHANGE        DEN1      VAR(S)    VAR(P)  DIIS     TIME  TIME/IT
   1      1.12012337    -0.57066395  -130.41007131    -0.00465401     0.01318318  0.34D-02  0.31D-02  1  1     1.75     0.97
   2      1.13108509    -0.57034531  -130.40975267     0.00031864    -0.01379203  0.92D-04  0.51D-03  2  2     2.71     1.00
   3      1.13639100    -0.57067713  -130.41008449    -0.00033182    -0.00237268  0.57D-04  0.69D-04  3  3     3.65     1.01
   4      1.13986793    -0.57066862  -130.41007598     0.00000851    -0.00139813  0.47D-05  0.99D-05  4  4     4.59     1.02
   5      1.14094289    -0.57069346  -130.41010082    -0.00002484    -0.00025347  0.17D-05  0.19D-05  5  5     5.55     1.02
   6      1.14136098    -0.57068729  -130.41009465     0.00000617    -0.00004045  0.15D-06  0.42D-06  6  6     6.49     1.03
   7      1.14144663    -0.57068753  -130.41009489    -0.00000024     0.00000052  0.21D-07  0.95D-07  6  1     7.43     1.03
   8      1.14148136    -0.57068576  -130.41009313     0.00000177    -0.00000486  0.41D-08  0.14D-07  6  2     8.38     1.03
   9      1.14148639    -0.57068582  -130.41009318    -0.00000005     0.00000113  0.18D-08  0.19D-08  6  3     9.34     1.03
  10      1.14148814    -0.57068613  -130.41009349    -0.00000031    -0.00000067  0.42D-09  0.26D-09  6  4    10.29     1.03
  11      1.14148717    -0.57068627  -130.41009363    -0.00000014     0.00000035  0.10D-09  0.27D-10  6  5    11.25     1.03
  12      1.14148626    -0.57068641  -130.41009377    -0.00000014     0.00000035  0.11D-10  0.68D-11  6  6    12.18     1.04
  13      1.14148572    -0.57068642  -130.41009378    -0.00000001     0.00000011  0.46D-11  0.12D-11  6  1    13.13     1.04
  14      1.14148528    -0.57068644  -130.41009381    -0.00000003     0.00000011  0.47D-12  0.42D-12  6  3    14.09     1.04
  15      1.14148510    -0.57068644  -130.41009381    -0.00000000     0.00000002  0.12D-12  0.28D-13  6  2    15.05     1.04
  16      1.14148505    -0.57068645  -130.41009381    -0.00000000     0.00000001  0.26D-13  0.62D-14  6  4    15.98     1.04
  17      1.14148503    -0.57068645  -130.41009381    -0.00000000     0.00000001  0.45D-14  0.11D-14  6  5    16.94     1.04
  18      1.14148502    -0.57068645  -130.41009381    -0.00000000     0.00000000  0.47D-15  0.30D-15  6  6    17.91     1.04
  19      1.14148503    -0.57068645  -130.41009381     0.00000000    -0.00000000  0.58D-16  0.40D-16  6  1    18.86     1.04
  20      1.14148503    -0.57068645  -130.41009381     0.00000000    -0.00000000  0.25D-17  0.87D-17  6  3    19.83     1.04
  21      1.14148503    -0.57068645  -130.41009381     0.00000000    -0.00000000  0.12D-17  0.22D-17  6  2    20.78     1.04
  22      1.14148503    -0.57068645  -130.41009381     0.00000000    -0.00000000  0.23D-18  0.79D-18  6  4    21.74     1.04
  23      1.14148503    -0.57068645  -130.41009381    -0.00000000     0.00000000  0.13D-18  0.12D-18  6  5    22.70     1.04
  24      1.14148503    -0.57068645  -130.41009381     0.00000000    -0.00000000  0.58D-20  0.15D-19  6  1    23.66     1.04
  25      1.14148503    -0.57068645  -130.41009381     0.00000000     0.00000000  0.32D-21  0.15D-20  6  6    24.63     1.04
  26      1.14148503    -0.57068645  -130.41009381    -0.00000000     0.00000000  0.12D-21  0.34D-21  6  3    25.59     1.04

 Norm of t1 vector:      0.07831323      S-energy:     0.00000000      T1 diagnostic:  0.01384395
                                                                       D1 diagnostic:  0.04432817

 Doubles amplitudes (print threshold =  0.500E-01):

         I         J         SYM. A    SYM. B    A         B      T(IJ, AB)

         8         8         2         2         1         1     -0.13500190


 Total CPU time for triples:     18.24 sec


 RESULTS
 =======

  Reference energy                   -129.839407363991

  Correlated core orbitals:             1.1       2.1
  Orbital energies:                   -20.6516  -15.7115
 
  CCSD core-core energy                -0.079234697994
  CCSD core-valence energy             -0.036054008644
  CCSD valence correlation energy      -0.455397741518
 
  CCSD singlet pair energy             -0.408191999032
  CCSD triplet pair energy             -0.162494449126
  CCSD correlation energy              -0.570686448157

  Triples (T) contribution             -0.022377769932
  Total correlation energy             -0.593064218089

  CCSD total energy                  -130.410093812148
  CCSD[T] energy                     -130.433658408232
  CCSD-T energy                      -130.432026516713
 !CCSD(T) total energy               -130.432471582080

 Timing summary (sec):

 STEP                 CPU(USER)    SYS     CPU(TOT)    WALL
 Transformation          0.85      0.19      1.04      1.04
 CCSD iterations        24.76      2.39     27.15     27.15
 Triples                18.24      0.67     18.91     18.91

 Program statistics:

 Available memory in ccsd:               994999644
 Min. memory needed in ccsd:               1368037
 Max. memory used in ccsd:                 1750502
 Max. memory used in cckext:               2014357 (26 integral passes)



 **********************************************************************************************************************************
 DATASETS  * FILE   NREC   LENGTH (MB)   RECORD NAMES
              1      20      500.14       500      610      700      900      950      970     1000      129      960     1100   
                                          VAR    BASINP    GEOM    SYMINP    ZMAT    AOBASIS   BASIS     P2S    ABASIS      S 
                                         1400     1410     1200     1210     1080     1600     1650     1300     1700     1380   
                                           T        V       H0       H01     AOSYM     SMH    MOLCAS    ERIS     OPER     JKOP   

              2       4        3.13       700     1000      520     2100   
                                         GEOM     BASIS   MCVARS     RHF  

 PROGRAMS   *        TOTAL   CCSD(T)        HF       INT
 CPU TIMES  *        52.76     43.86      4.82      4.00
 REAL TIME  *        58.55 SEC
 DISK USED  *         1.33 GB      
 **********************************************************************************************************************************

 CCSD(T)/USERDEF energy=   -130.432471582080

        CCSD(T)         HF-SCF  
   -130.43247158   -129.83940736
 **********************************************************************************************************************************
 Molpro calculation terminated
 Variable memory released
