
 Primary working directories    : /tmp/r2666/235457.maple
 Secondary working directories  : /tmp/r2666/235457.maple
 Wavefunction directory         : /ddn/home4/r2666/wfu/
 Main file repository           : /tmp/r2666/235457.maple/

 SHA1      : d5ffa45e93fdbca01ffc919aa182cfdae0147319
 NAME      : 2015.1.35
 ARCHNAME  : linux/x86_64
 FC        : /opt/intel/composer_xe_2015.1.133/bin/intel64/ifort
 BLASLIB   : -Wl,-_start-group /opt/intel/mkl/lib/intel64/libmkl_intel_ilp64.a /opt/intel/mkl/lib/intel64/libmkl_intel_thread.a /opt/intel/mkl/lib/intel64/libmkl_core.a -Wl,-_end-group
 id        : olemiss

 Nodes     nprocs
 cn089        1

 Using customized tuning parameters: mindgm=1; mindgv=20; mindgc=4; mindgr=1; noblas=0; minvec=7
 default implementation of scratch files=df  

 ***,hno CCSD(T)/TZ-F12 QFF
 memory, 995, m;
 gthresh,energy=1.d-12,zero=1.d-22,oneint=1.d-22,twoint=1.d-22;
 gthresh,optgrad=1.d-8,optstep=1.d-8;
 nocompress;
 geomtyp=xyz
 bohr
 geometry={
 3
         54        54
 N        0.0000000000       -0.1693339810       -1.1542913293
 H        0.0000000000        1.6663355770       -1.9176295855
 O        0.0000000000        0.0447661940        1.1213313238
 }
 
 basis={
 default=aug-cc-pvtz
 s,C,8236.0,1235.0,280.8, 79.27,25.59, 8.997,3.319
 s,C,0.9059,0.3643,0.1285000
 p,C,56.0,18.71,4.133,0.2827,0.3827,0.1209
 d,C,30.0,10.0,3.3,1.097,0.318
 f,C,7.0,2.3,0.7610
 s,N,11420.0,1712.0,389.3,110.0,35.57,12.54,4.644
 s,N,1.293,0.5118,0.1787
 p,N,79.89,26.63,5.948,1.742,0.555,0.1725
 d,N,45.0,15.0,5.0,1.654,0.469
 f,N,9.9,3.3,1.093
 s,O,15330.0,2299.0,522.4,147.3,47.55,16.76,6.207
 s,O,1.752,0.6882,0.2384
 p,O,103.5,34.46,7.749,2.28,0.7156,0.214
 d,O,63.0,21.0,7.0,2.314,0.645
 f,O,12.9,4.3,1.428
 s,mg,164900.0,24710.0,5628.0,1596.0,521.0;
 s,mg,188.0,73.01,29.90,12.54,4.306,1.826;
 s,mg,0.7417,0.0761,0.145,0.033,0.0129;
 p,mg,950.70,316.90,74.86,23.72,8.669,3.363;
 p,mg,1.310,0.4911,0.2364,0.08733,0.03237,0.00745;
 d,mg,1.601,0.686,0.126,0.294,0.0468;
 f,mg,1.372,0.588,0.094,0.252;
 }
   {hf,maxit=500;accu,20;}
 {ccsd(t),nocheck,maxit=250;orbital,IGNORE_ERROR;core}

 Variables initialized (889), CPU time= 0.01 sec
 Commands  initialized (702), CPU time= 0.01 sec, 572 directives.
 Default parameters read. Elapsed time= 0.05 sec

 Checking input...
 Passed
1


                                         ***  PROGRAM SYSTEM MOLPRO  ***
                                       Copyright, TTI GmbH Stuttgart, 2015
                                    Version 2015.1 linked Jul  9 2018 13:16:40


 **********************************************************************************************************************************
 LABEL *   hno CCSD(T)/TZ-F12 QFF                                                        
  64 bit serial version                                                                  DATE: 08-Feb-20          TIME: 17:59:37  
 **********************************************************************************************************************************

 SHA1:             d5ffa45e93fdbca01ffc919aa182cfdae0147319
 **********************************************************************************************************************************

 THRESHOLDS:

 ZERO    =  1.00D-22  ONEINT  =  1.00D-22  TWOINT  =  1.00D-22  PREFAC  =  1.00D-14  LOCALI  =  1.00D-09  EORDER  =  1.00D-04
 ENERGY  =  1.00D-12  ETEST   =  0.00D+00  EDENS   =  0.00D+00  THRDEDEF=  1.00D-06  GRADIENT=  1.00D-02  STEP    =  1.00D-03
 ORBITAL =  1.00D-05  CIVEC   =  1.00D-05  COEFF   =  1.00D-04  PRINTCI =  5.00D-02  PUNCHCI =  9.90D+01  OPTGRAD =  3.00D-04
 OPTENERG=  1.00D-06  OPTSTEP =  3.00D-04  THRGRAD =  1.00D-10  COMPRESS=  1.00D-11  VARMIN  =  1.00D-07  VARMAX  =  1.00D-03
 THRDOUB =  0.00D+00  THRDIV  =  1.00D-05  THRRED  =  1.00D-07  THRPSP  =  1.00D+00  THRDC   =  1.00D-10  THRCS   =  1.00D-10
 THRNRM  =  1.00D-08  THREQ   =  0.00D+00  THRDE   =  1.00D+00  THRREF  =  1.00D-05  SPARFAC =  1.00D+00  THRDLP  =  1.00D-07
 THRDIA  =  1.00D-10  THRDLS  =  1.00D-07  THRGPS  =  0.00D+00  THRKEX  =  0.00D+00  THRDIS  =  2.00D-01  THRVAR  =  1.00D-10
 THRLOC  =  1.00D-06  THRGAP  =  1.00D-06  THRLOCT = -1.00D+00  THRGAPT = -1.00D+00  THRORB  =  1.00D-06  THRMLTP =  0.00D+00
 THRCPQCI=  1.00D-10  KEXTA   =  0.00D+00  THRCOARS=  0.00D+00  SYMTOL  =  1.00D-06  GRADTOL =  1.00D-06  THROVL  =  1.00D-08
 THRORTH =  1.00D-08  GRID    =  1.00D-06  GRIDMAX =  1.00D-03  DTMAX   =  0.00D+00  THROCCDE=  1.00D-01  THROCCDE=  1.00D-01



 THRESHOLDS:

 ZERO    =  1.00D-22  ONEINT  =  1.00D-22  TWOINT  =  1.00D-22  PREFAC  =  1.00D-14  LOCALI  =  1.00D-09  EORDER  =  1.00D-04
 ENERGY  =  1.00D-12  ETEST   =  0.00D+00  EDENS   =  0.00D+00  THRDEDEF=  1.00D-06  GRADIENT=  1.00D-02  STEP    =  1.00D-03
 ORBITAL =  1.00D-05  CIVEC   =  1.00D-05  COEFF   =  1.00D-04  PRINTCI =  5.00D-02  PUNCHCI =  9.90D+01  OPTGRAD =  1.00D-08
 OPTENERG=  1.00D-06  OPTSTEP =  1.00D-08  THRGRAD =  1.00D-10  COMPRESS=  1.00D-11  VARMIN  =  1.00D-07  VARMAX  =  1.00D-03
 THRDOUB =  0.00D+00  THRDIV  =  1.00D-05  THRRED  =  1.00D-07  THRPSP  =  1.00D+00  THRDC   =  1.00D-10  THRCS   =  1.00D-10
 THRNRM  =  1.00D-08  THREQ   =  0.00D+00  THRDE   =  1.00D+00  THRREF  =  1.00D-05  SPARFAC =  1.00D+00  THRDLP  =  1.00D-07
 THRDIA  =  1.00D-10  THRDLS  =  1.00D-07  THRGPS  =  0.00D+00  THRKEX  =  0.00D+00  THRDIS  =  2.00D-01  THRVAR  =  1.00D-10
 THRLOC  =  1.00D-06  THRGAP  =  1.00D-06  THRLOCT = -1.00D+00  THRGAPT = -1.00D+00  THRORB  =  1.00D-06  THRMLTP =  0.00D+00
 THRCPQCI=  1.00D-10  KEXTA   =  0.00D+00  THRCOARS=  0.00D+00  SYMTOL  =  1.00D-06  GRADTOL =  1.00D-06  THROVL  =  1.00D-08
 THRORTH =  1.00D-08  GRID    =  1.00D-06  GRIDMAX =  1.00D-03  DTMAX   =  0.00D+00  THROCCDE=  1.00D-01  THROCCDE=  1.00D-01



 Input parameters for SORTINT:

 COMPRESS =    0.000000
 C_FINAL  =    1.000000
 DEBUG    =   -1.000000
 C_SORT1  =    0.000000
 C_SEWARD =    0.000000
 THRESH   =    0.000000
 IO       =  molpro                                                          
 SPRI     =    0.000000
 SETTING GEOMTYP        =    XYZ
 ZUNIT=BOHR
 

 Variable memory set to  995000000 words,  buffer space   230000 words

 SETTING BASIS          =    USERDEF


 Recomputing integrals since basis changed


 Using spherical harmonics

 Library entry H      S aug-cc-pVTZ          selected for orbital group  2
 Library entry H      P aug-cc-pVTZ          selected for orbital group  2
 Library entry H      D aug-cc-pVTZ          selected for orbital group  2


 PROGRAM * SEWARD (Integral evaluation for generally contracted gaussian basis sets)     Author: Roland Lindh, 1990

 Geometry written to block  1 of record 700


 Point group  Cs  



 ATOMIC COORDINATES

 NR  ATOM    CHARGE       X              Y              Z

   1  N       7.00    0.000000000   -0.169333981   -1.154291329
   2  H       1.00    0.000000000    1.666335577   -1.917629586
   3  O       8.00    0.000000000    0.044766194    1.121331324

 Bond lengths in Bohr (Angstrom)

 1-2  1.988056342  1-3  2.285672187
     ( 1.052034110)     ( 1.209525633)

 Bond angles

  2-1-3  107.20451345

 NUCLEAR CHARGE:                   16
 NUMBER OF PRIMITIVE AOS:         203
 NUMBER OF SYMMETRY AOS:          173
 NUMBER OF CONTRACTIONS:          171   ( 114A'  +  57A"  )
 NUMBER OF CORE ORBITALS:           2   (   2A'  +   0A"  )
 NUMBER OF VALENCE ORBITALS:        9   (   7A'  +   2A"  )


 NUCLEAR REPULSION ENERGY   30.34400278


 Eigenvalues of metric

         1 0.105E-02 0.251E-02 0.333E-02 0.636E-02 0.986E-02 0.137E-01 0.145E-01 0.230E-01
         2 0.365E-01 0.534E-01 0.703E-01 0.940E-01 0.131E+00 0.134E+00 0.140E+00 0.142E+00


 Contracted 2-electron integrals neglected if value below      1.0D-22

       46146835. INTEGRALS WRITTEN OUT IN   11270 BLOCKS ON RECORD 1290 OF FILE 1


 NUMBER OF SORTED TWO-ELECTRON INTEGRALS:   55360566.     BUFFER LENGTH:  32768
 NUMBER OF SEGMENTS:   4  SEGMENT LENGTH:   15997996      RECORD LENGTH: 524288

 Memory used in sort:      16.56 MW

 SORT1 READ    46146835. AND WROTE    46584285. INTEGRALS IN    135 RECORDS. CPU TIME:     0.78 SEC, REAL TIME:     1.04 SEC
 SORT2 READ    46584285. AND WROTE    55360566. INTEGRALS IN      4 RECORDS. CPU TIME:     0.64 SEC, REAL TIME:     0.85 SEC

 FILE SIZES:   FILE 1:   759.3 MBYTE,  FILE 4:   566.3 MBYTE,   TOTAL:   1325.6 MBYTE

 OPERATOR DM      FOR CENTER  0  COORDINATES:    0.000000    0.000000    0.000000


 **********************************************************************************************************************************
 DATASETS  * FILE   NREC   LENGTH (MB)   RECORD NAMES
              1      19      421.26       500      610      700      900      950      970     1000      129      960     1100   
                                          VAR    BASINP    GEOM    SYMINP    ZMAT    AOBASIS   BASIS     P2S    ABASIS      S 
                                         1400     1410     1200     1210     1080     1600     1650     1300     1700   
                                           T        V       H0       H01     AOSYM     SMH    MOLCAS    ERIS     OPER   

 PROGRAMS   *        TOTAL       INT
 CPU TIMES  *         4.18      4.07
 REAL TIME  *         5.67 SEC
 DISK USED  *         1.33 GB      
 **********************************************************************************************************************************


 PROGRAM * RHF-SCF (CLOSED SHELL)       Authors: W. Meyer, H.-J. Werner


 NUMBER OF ELECTRONS:       8+    8-
 CONVERGENCE THRESHOLDS:    1.00E-10 (Density)    1.00E-13 (Energy)
 MAX. NUMBER OF ITERATIONS:      500
 INTERPOLATION TYPE:            DIIS
 INTERPOLATION STEPS:              2 (START)      1 (STEP)
 LEVEL SHIFTS:                  0.00 (CLOSED)  0.00 (OPEN) 



 Orbital guess generated from atomic densities. Full valence occupancy:    9   2

 Molecular orbital dump at record        2100.2

 Initial occupancy:   7   1

 ITERATION    DDIFF          GRAD             ENERGY        2-EL.EN.            DIPOLE MOMENTS         DIIS   ORB.
    1      0.000D+00      0.000D+00      -129.78868246    154.020993    0.00000    0.56170   -1.01639    0    start
    2      0.000D+00      0.881D-02      -129.81556541    155.187637    0.00000    0.59904   -0.19132    1    diag
    3      0.365D-02      0.672D-02      -129.83869159    155.312845    0.00000    0.54326   -0.58207    2    diag
    4      0.143D-02      0.104D-02      -129.83947568    155.037586    0.00000    0.55181   -0.51971    3    diag
    5      0.331D-03      0.339D-03      -129.83959700    155.125496    0.00000    0.55774   -0.52202    4    diag
    6      0.154D-03      0.995D-04      -129.83961685    155.109357    0.00000    0.55829   -0.51786    5    diag
    7      0.608D-04      0.500D-04      -129.83962273    155.111882    0.00000    0.55961   -0.51531    6    diag
    8      0.413D-04      0.172D-04      -129.83962338    155.111040    0.00000    0.55966   -0.51439    7    diag
    9      0.144D-04      0.320D-05      -129.83962340    155.110927    0.00000    0.55961   -0.51421    8    diag
   10      0.294D-05      0.720D-06      -129.83962340    155.110914    0.00000    0.55958   -0.51418    9    orth
   11      0.864D-06      0.143D-06      -129.83962340    155.110910    0.00000    0.55957   -0.51418    9    diag
   12      0.205D-06      0.300D-07      -129.83962340    155.110909    0.00000    0.55957   -0.51417    9    diag
   13      0.505D-07      0.797D-08      -129.83962340    155.110909    0.00000    0.55957   -0.51417    9    diag
   14      0.116D-07      0.140D-08      -129.83962340    155.110909    0.00000    0.55957   -0.51417    9    diag
   15      0.146D-08      0.375D-09      -129.83962340    155.110909    0.00000    0.55957   -0.51417    9    diag
   16      0.327D-09      0.110D-09      -129.83962340    155.110909    0.00000    0.55957   -0.51417    9    diag
   17      0.758D-10      0.306D-10      -129.83962340    155.110909    0.00000    0.55957   -0.51417    9    diag
   18      0.234D-10      0.102D-10      -129.83962340    155.110909    0.00000    0.55957   -0.51417    0    orth

 Final occupancy:   7   1

 !RHF STATE 1.1 Energy               -129.839623403817
 Nuclear energy                        30.34400278
 One-electron energy                 -237.73908050
 Two-electron energy                   77.55545432
 Virial quotient                       -1.00165123
 !RHF STATE 1.1 Dipole moment           0.00000000     0.55956532    -0.51417387
 Dipole moment /Debye                   0.00000000     1.42218003    -1.30681403

 Orbital energies:

         1.1          2.1          3.1          4.1          5.1          6.1          7.1          8.1          9.1
    -20.651193   -15.711056    -1.527287    -0.992676    -0.744785    -0.663602    -0.429880     0.039785     0.192797

         1.2          2.2          3.2
     -0.593608     0.078775     0.239390

 HOMO      7.1    -0.429880 =     -11.6976eV
 LUMO      8.1     0.039785 =       1.0826eV
 LUMO-HOMO         0.469665 =      12.7802eV


 **********************************************************************************************************************************
 DATASETS  * FILE   NREC   LENGTH (MB)   RECORD NAMES
              1      19      421.26       500      610      700      900      950      970     1000      129      960     1100   
                                          VAR    BASINP    GEOM    SYMINP    ZMAT    AOBASIS   BASIS     P2S    ABASIS      S 
                                         1400     1410     1200     1210     1080     1600     1650     1300     1700   
                                           T        V       H0       H01     AOSYM     SMH    MOLCAS    ERIS     OPER   

              2       4        3.13       700     1000      520     2100   
                                         GEOM     BASIS   MCVARS     RHF  

 PROGRAMS   *        TOTAL        HF       INT
 CPU TIMES  *         8.78      4.58      4.07
 REAL TIME  *        11.20 SEC
 DISK USED  *         1.33 GB      
 **********************************************************************************************************************************


 PROGRAM * CCSD (Closed-shell coupled cluster)     Authors: C. Hampel, H.-J. Werner, 1991, M. Deegan, P.J. Knowles, 1992


 Convergence thresholds:  THRVAR = 1.00D-08  THRDEN = 1.00D-12

 CCSD(T)     terms to be evaluated (factor= 1.000)


 Number of closed-shell orbitals:   8 (   7   1 )
 Number of external orbitals:     163 ( 107  56 )

 Molecular orbitals read from record     2100.2  Type=RHF/CANONICAL (state 1.1)

 Number of N-1 electron functions:               8
 Number of N-2 electron functions:              36
 Number of singly external CSFs:               805
 Number of doubly external CSFs:            449165
 Total number of CSFs:                      449971

 Length of J-op  integral file:               0.00 MB
 Length of K-op  integral file:               1.15 MB
 Length of 3-ext integral record:             0.00 MB

 Memory could be reduced to 24.90 Mwords without degradation in triples

 Integral transformation finished. Total CPU:   0.88 sec, npass=  1  Memory used:   6.89 MW

 Reference energy:                   -129.83962340

 MP2 singlet pair energy:              -0.37909326
 MP2 triplet pair energy:              -0.18672829
 MP2 correlation energy:               -0.56582155
 MP2 total energy:                   -130.40544496

 SCS-MP2 correlation energy:           -0.57109841   (PS=  1.200000  PT=  0.333333)
 SCS-MP2 total energy:               -130.41072181

 ITER.      SQ.NORM     CORR.ENERGY   TOTAL ENERGY   ENERGY CHANGE        DEN1      VAR(S)    VAR(P)  DIIS     TIME  TIME/IT
   1      1.11990753    -0.57048995  -130.41011335    -0.00466839     0.01308667  0.34D-02  0.31D-02  1  1     1.80     0.97
   2      1.13080697    -0.57018120  -130.40980460     0.00030875    -0.01374178  0.91D-04  0.50D-03  2  2     2.73     1.00
   3      1.13606210    -0.57050677  -130.41013018    -0.00032557    -0.00236201  0.55D-04  0.68D-04  3  3     3.68     1.01
   4      1.13950327    -0.57049909  -130.41012249     0.00000768    -0.00138880  0.45D-05  0.97D-05  4  4     4.66     1.02
   5      1.14055209    -0.57052356  -130.41014696    -0.00002447    -0.00024753  0.16D-05  0.18D-05  5  5     5.60     1.02
   6      1.14095724    -0.57051757  -130.41014097     0.00000599    -0.00003913  0.14D-06  0.40D-06  6  6     6.56     1.02
   7      1.14103940    -0.57051785  -130.41014126    -0.00000028     0.00000064  0.20D-07  0.92D-07  6  1     7.53     1.03
   8      1.14107290    -0.57051610  -130.41013950     0.00000176    -0.00000473  0.40D-08  0.13D-07  6  2     8.50     1.03
   9      1.14107749    -0.57051619  -130.41013960    -0.00000010     0.00000115  0.17D-08  0.17D-08  6  3     9.47     1.03
  10      1.14107774    -0.57051651  -130.41013992    -0.00000032    -0.00000002  0.57D-09  0.32D-09  6  1    10.43     1.03
  11      1.14107696    -0.57051675  -130.41014015    -0.00000023     0.00000015  0.47D-10  0.34D-10  6  4    11.44     1.03
  12      1.14107656    -0.57051676  -130.41014017    -0.00000002     0.00000006  0.72D-11  0.34D-11  6  5    12.41     1.04
  13      1.14107642    -0.57051678  -130.41014019    -0.00000002     0.00000002  0.14D-11  0.57D-12  6  6    13.37     1.04
  14      1.14107634    -0.57051679  -130.41014019    -0.00000000     0.00000002  0.59D-12  0.12D-12  6  2    14.32     1.04
  15      1.14107627    -0.57051679  -130.41014020    -0.00000000     0.00000001  0.10D-12  0.25D-13  6  3    15.28     1.04
  16      1.14107623    -0.57051679  -130.41014020    -0.00000000     0.00000000  0.11D-13  0.74D-14  6  1    16.24     1.04
  17      1.14107621    -0.57051679  -130.41014020    -0.00000000     0.00000000  0.14D-14  0.24D-14  6  4    17.20     1.04
  18      1.14107620    -0.57051679  -130.41014020    -0.00000000     0.00000000  0.99D-16  0.73D-15  6  5    18.16     1.04
  19      1.14107620    -0.57051679  -130.41014020    -0.00000000     0.00000000  0.37D-16  0.15D-15  6  6    19.09     1.04
  20      1.14107620    -0.57051679  -130.41014020     0.00000000     0.00000000  0.12D-16  0.19D-16  6  3    20.04     1.04
  21      1.14107620    -0.57051679  -130.41014020     0.00000000    -0.00000000  0.92D-18  0.22D-17  6  2    20.94     1.04
  22      1.14107620    -0.57051679  -130.41014020    -0.00000000     0.00000000  0.61D-18  0.45D-18  6  1    21.92     1.04
  23      1.14107620    -0.57051679  -130.41014020    -0.00000000     0.00000000  0.15D-18  0.47D-19  6  4    22.90     1.04
  24      1.14107620    -0.57051679  -130.41014020    -0.00000000     0.00000000  0.44D-19  0.11D-19  6  5    23.87     1.04
  25      1.14107620    -0.57051679  -130.41014020    -0.00000000    -0.00000000  0.74D-20  0.26D-20  6  3    24.86     1.04
  26      1.14107620    -0.57051679  -130.41014020     0.00000000    -0.00000000  0.34D-21  0.36D-21  6  6    25.82     1.04

 Norm of t1 vector:      0.07766194      S-energy:     0.00000000      T1 diagnostic:  0.01372882
                                                                       D1 diagnostic:  0.04416926

 Doubles amplitudes (print threshold =  0.500E-01):

         I         J         SYM. A    SYM. B    A         B      T(IJ, AB)

         8         8         2         2         1         1     -0.13520465


 Total CPU time for triples:     18.51 sec


 RESULTS
 =======

  Reference energy                   -129.839623403817

  Correlated core orbitals:             1.1       2.1
  Orbital energies:                   -20.6512  -15.7111
 
  CCSD core-core energy                -0.079232329457
  CCSD core-valence energy             -0.036066128243
  CCSD valence correlation energy      -0.455218335628
 
  CCSD singlet pair energy             -0.408034837818
  CCSD triplet pair energy             -0.162481955511
  CCSD correlation energy              -0.570516793328

  Triples (T) contribution             -0.022325395255
  Total correlation energy             -0.592842188583

  CCSD total energy                  -130.410140197145
  CCSD[T] energy                     -130.433639030322
  CCSD-T energy                      -130.432024572343
 !CCSD(T) total energy               -130.432465592400

 Timing summary (sec):

 STEP                 CPU(USER)    SYS     CPU(TOT)    WALL
 Transformation          0.90      0.15      1.05      1.06
 CCSD iterations        24.93      2.19     27.12     27.11
 Triples                18.51      0.62     19.13     19.14

 Program statistics:

 Available memory in ccsd:               994999644
 Min. memory needed in ccsd:               1368037
 Max. memory used in ccsd:                 1750502
 Max. memory used in cckext:               2014357 (26 integral passes)



 **********************************************************************************************************************************
 DATASETS  * FILE   NREC   LENGTH (MB)   RECORD NAMES
              1      20      500.18       500      610      700      900      950      970     1000      129      960     1100   
                                          VAR    BASINP    GEOM    SYMINP    ZMAT    AOBASIS   BASIS     P2S    ABASIS      S 
                                         1400     1410     1200     1210     1080     1600     1650     1300     1700     1380   
                                           T        V       H0       H01     AOSYM     SMH    MOLCAS    ERIS     OPER     JKOP   

              2       4        3.13       700     1000      520     2100   
                                         GEOM     BASIS   MCVARS     RHF  

 PROGRAMS   *        TOTAL   CCSD(T)        HF       INT
 CPU TIMES  *        53.13     44.36      4.58      4.07
 REAL TIME  *        58.54 SEC
 DISK USED  *         1.33 GB      
 **********************************************************************************************************************************

 CCSD(T)/USERDEF energy=   -130.432465592400

        CCSD(T)         HF-SCF  
   -130.43246559   -129.83962340
 **********************************************************************************************************************************
 Molpro calculation terminated
 Variable memory released
