
 Primary working directories    : /tmp/r2666/235466.maple
 Secondary working directories  : /tmp/r2666/235466.maple
 Wavefunction directory         : /ddn/home4/r2666/wfu/
 Main file repository           : /tmp/r2666/235466.maple/

 SHA1      : d5ffa45e93fdbca01ffc919aa182cfdae0147319
 NAME      : 2015.1.35
 ARCHNAME  : linux/x86_64
 FC        : /opt/intel/composer_xe_2015.1.133/bin/intel64/ifort
 BLASLIB   : -Wl,-_start-group /opt/intel/mkl/lib/intel64/libmkl_intel_ilp64.a /opt/intel/mkl/lib/intel64/libmkl_intel_thread.a /opt/intel/mkl/lib/intel64/libmkl_core.a -Wl,-_end-group
 id        : olemiss

 Nodes     nprocs
 cn091        1

 Using customized tuning parameters: mindgm=1; mindgv=20; mindgc=4; mindgr=1; noblas=0; minvec=7
 default implementation of scratch files=df  

 ***,hno CCSD(T)/TZ-F12 QFF
 memory, 995, m;
 gthresh,energy=1.d-12,zero=1.d-22,oneint=1.d-22,twoint=1.d-22;
 gthresh,optgrad=1.d-8,optstep=1.d-8;
 nocompress;
 geomtyp=xyz
 bohr
 geometry={
 3
         63        63
 N        0.0000000000       -0.1523639759       -1.1306686812
 H        0.0000000000        1.6651666753       -1.9362432286
 O        0.0000000000        0.0289650906        1.1163223188
 }
 
 basis={
 default=aug-cc-pvtz
 s,C,8236.0,1235.0,280.8, 79.27,25.59, 8.997,3.319
 s,C,0.9059,0.3643,0.1285000
 p,C,56.0,18.71,4.133,0.2827,0.3827,0.1209
 d,C,30.0,10.0,3.3,1.097,0.318
 f,C,7.0,2.3,0.7610
 s,N,11420.0,1712.0,389.3,110.0,35.57,12.54,4.644
 s,N,1.293,0.5118,0.1787
 p,N,79.89,26.63,5.948,1.742,0.555,0.1725
 d,N,45.0,15.0,5.0,1.654,0.469
 f,N,9.9,3.3,1.093
 s,O,15330.0,2299.0,522.4,147.3,47.55,16.76,6.207
 s,O,1.752,0.6882,0.2384
 p,O,103.5,34.46,7.749,2.28,0.7156,0.214
 d,O,63.0,21.0,7.0,2.314,0.645
 f,O,12.9,4.3,1.428
 s,mg,164900.0,24710.0,5628.0,1596.0,521.0;
 s,mg,188.0,73.01,29.90,12.54,4.306,1.826;
 s,mg,0.7417,0.0761,0.145,0.033,0.0129;
 p,mg,950.70,316.90,74.86,23.72,8.669,3.363;
 p,mg,1.310,0.4911,0.2364,0.08733,0.03237,0.00745;
 d,mg,1.601,0.686,0.126,0.294,0.0468;
 f,mg,1.372,0.588,0.094,0.252;
 }
   {hf,maxit=500;accu,20;}
 {ccsd(t),nocheck,maxit=250;orbital,IGNORE_ERROR;core}

 Variables initialized (889), CPU time= 0.01 sec
 Commands  initialized (702), CPU time= 0.01 sec, 572 directives.
 Default parameters read. Elapsed time= 0.04 sec

 Checking input...
 Passed
1


                                         ***  PROGRAM SYSTEM MOLPRO  ***
                                       Copyright, TTI GmbH Stuttgart, 2015
                                    Version 2015.1 linked Jul  9 2018 13:16:40


 **********************************************************************************************************************************
 LABEL *   hno CCSD(T)/TZ-F12 QFF                                                        
  64 bit serial version                                                                  DATE: 08-Feb-20          TIME: 17:59:40  
 **********************************************************************************************************************************

 SHA1:             d5ffa45e93fdbca01ffc919aa182cfdae0147319
 **********************************************************************************************************************************

 THRESHOLDS:

 ZERO    =  1.00D-22  ONEINT  =  1.00D-22  TWOINT  =  1.00D-22  PREFAC  =  1.00D-14  LOCALI  =  1.00D-09  EORDER  =  1.00D-04
 ENERGY  =  1.00D-12  ETEST   =  0.00D+00  EDENS   =  0.00D+00  THRDEDEF=  1.00D-06  GRADIENT=  1.00D-02  STEP    =  1.00D-03
 ORBITAL =  1.00D-05  CIVEC   =  1.00D-05  COEFF   =  1.00D-04  PRINTCI =  5.00D-02  PUNCHCI =  9.90D+01  OPTGRAD =  3.00D-04
 OPTENERG=  1.00D-06  OPTSTEP =  3.00D-04  THRGRAD =  1.00D-10  COMPRESS=  1.00D-11  VARMIN  =  1.00D-07  VARMAX  =  1.00D-03
 THRDOUB =  0.00D+00  THRDIV  =  1.00D-05  THRRED  =  1.00D-07  THRPSP  =  1.00D+00  THRDC   =  1.00D-10  THRCS   =  1.00D-10
 THRNRM  =  1.00D-08  THREQ   =  0.00D+00  THRDE   =  1.00D+00  THRREF  =  1.00D-05  SPARFAC =  1.00D+00  THRDLP  =  1.00D-07
 THRDIA  =  1.00D-10  THRDLS  =  1.00D-07  THRGPS  =  0.00D+00  THRKEX  =  0.00D+00  THRDIS  =  2.00D-01  THRVAR  =  1.00D-10
 THRLOC  =  1.00D-06  THRGAP  =  1.00D-06  THRLOCT = -1.00D+00  THRGAPT = -1.00D+00  THRORB  =  1.00D-06  THRMLTP =  0.00D+00
 THRCPQCI=  1.00D-10  KEXTA   =  0.00D+00  THRCOARS=  0.00D+00  SYMTOL  =  1.00D-06  GRADTOL =  1.00D-06  THROVL  =  1.00D-08
 THRORTH =  1.00D-08  GRID    =  1.00D-06  GRIDMAX =  1.00D-03  DTMAX   =  0.00D+00  THROCCDE=  1.00D-01  THROCCDE=  1.00D-01



 THRESHOLDS:

 ZERO    =  1.00D-22  ONEINT  =  1.00D-22  TWOINT  =  1.00D-22  PREFAC  =  1.00D-14  LOCALI  =  1.00D-09  EORDER  =  1.00D-04
 ENERGY  =  1.00D-12  ETEST   =  0.00D+00  EDENS   =  0.00D+00  THRDEDEF=  1.00D-06  GRADIENT=  1.00D-02  STEP    =  1.00D-03
 ORBITAL =  1.00D-05  CIVEC   =  1.00D-05  COEFF   =  1.00D-04  PRINTCI =  5.00D-02  PUNCHCI =  9.90D+01  OPTGRAD =  1.00D-08
 OPTENERG=  1.00D-06  OPTSTEP =  1.00D-08  THRGRAD =  1.00D-10  COMPRESS=  1.00D-11  VARMIN  =  1.00D-07  VARMAX  =  1.00D-03
 THRDOUB =  0.00D+00  THRDIV  =  1.00D-05  THRRED  =  1.00D-07  THRPSP  =  1.00D+00  THRDC   =  1.00D-10  THRCS   =  1.00D-10
 THRNRM  =  1.00D-08  THREQ   =  0.00D+00  THRDE   =  1.00D+00  THRREF  =  1.00D-05  SPARFAC =  1.00D+00  THRDLP  =  1.00D-07
 THRDIA  =  1.00D-10  THRDLS  =  1.00D-07  THRGPS  =  0.00D+00  THRKEX  =  0.00D+00  THRDIS  =  2.00D-01  THRVAR  =  1.00D-10
 THRLOC  =  1.00D-06  THRGAP  =  1.00D-06  THRLOCT = -1.00D+00  THRGAPT = -1.00D+00  THRORB  =  1.00D-06  THRMLTP =  0.00D+00
 THRCPQCI=  1.00D-10  KEXTA   =  0.00D+00  THRCOARS=  0.00D+00  SYMTOL  =  1.00D-06  GRADTOL =  1.00D-06  THROVL  =  1.00D-08
 THRORTH =  1.00D-08  GRID    =  1.00D-06  GRIDMAX =  1.00D-03  DTMAX   =  0.00D+00  THROCCDE=  1.00D-01  THROCCDE=  1.00D-01



 Input parameters for SORTINT:

 COMPRESS =    0.000000
 C_FINAL  =    1.000000
 DEBUG    =   -1.000000
 C_SORT1  =    0.000000
 C_SEWARD =    0.000000
 THRESH   =    0.000000
 IO       =  molpro                                                          
 SPRI     =    0.000000
 SETTING GEOMTYP        =    XYZ
 ZUNIT=BOHR
 

 Variable memory set to  995000000 words,  buffer space   230000 words

 SETTING BASIS          =    USERDEF


 Recomputing integrals since basis changed


 Using spherical harmonics

 Library entry H      S aug-cc-pVTZ          selected for orbital group  2
 Library entry H      P aug-cc-pVTZ          selected for orbital group  2
 Library entry H      D aug-cc-pVTZ          selected for orbital group  2


 PROGRAM * SEWARD (Integral evaluation for generally contracted gaussian basis sets)     Author: Roland Lindh, 1990

 Geometry written to block  1 of record 700


 Point group  Cs  



 ATOMIC COORDINATES

 NR  ATOM    CHARGE       X              Y              Z

   1  N       7.00    0.000000000   -0.152363976   -1.130668681
   2  H       1.00    0.000000000    1.665166675   -1.936243229
   3  O       8.00    0.000000000    0.028965091    1.116322319

 Bond lengths in Bohr (Angstrom)

 1-2  1.988056342  1-3  2.254295629
     ( 1.052034110)     ( 1.192921874)

 Bond angles

  2-1-3  109.29041350

 NUCLEAR CHARGE:                   16
 NUMBER OF PRIMITIVE AOS:         203
 NUMBER OF SYMMETRY AOS:          173
 NUMBER OF CONTRACTIONS:          171   ( 114A'  +  57A"  )
 NUMBER OF CORE ORBITALS:           2   (   2A'  +   0A"  )
 NUMBER OF VALENCE ORBITALS:        9   (   7A'  +   2A"  )


 NUCLEAR REPULSION ENERGY   30.67234163


 Eigenvalues of metric

         1 0.101E-02 0.236E-02 0.327E-02 0.629E-02 0.983E-02 0.136E-01 0.143E-01 0.228E-01
         2 0.361E-01 0.508E-01 0.687E-01 0.940E-01 0.130E+00 0.134E+00 0.140E+00 0.142E+00


 Contracted 2-electron integrals neglected if value below      1.0D-22

       46276571. INTEGRALS WRITTEN OUT IN   11301 BLOCKS ON RECORD 1290 OF FILE 1


 NUMBER OF SORTED TWO-ELECTRON INTEGRALS:   55360566.     BUFFER LENGTH:  32768
 NUMBER OF SEGMENTS:   4  SEGMENT LENGTH:   15997996      RECORD LENGTH: 524288

 Memory used in sort:      16.56 MW

 SORT1 READ    46276571. AND WROTE    46715289. INTEGRALS IN    136 RECORDS. CPU TIME:     0.76 SEC, REAL TIME:     1.07 SEC
 SORT2 READ    46715289. AND WROTE    55360566. INTEGRALS IN      4 RECORDS. CPU TIME:     0.66 SEC, REAL TIME:     0.85 SEC

 FILE SIZES:   FILE 1:   761.4 MBYTE,  FILE 4:   570.5 MBYTE,   TOTAL:   1331.8 MBYTE

 OPERATOR DM      FOR CENTER  0  COORDINATES:    0.000000    0.000000    0.000000


 **********************************************************************************************************************************
 DATASETS  * FILE   NREC   LENGTH (MB)   RECORD NAMES
              1      19      422.10       500      610      700      900      950      970     1000      129      960     1100   
                                          VAR    BASINP    GEOM    SYMINP    ZMAT    AOBASIS   BASIS     P2S    ABASIS      S 
                                         1400     1410     1200     1210     1080     1600     1650     1300     1700   
                                           T        V       H0       H01     AOSYM     SMH    MOLCAS    ERIS     OPER   

 PROGRAMS   *        TOTAL       INT
 CPU TIMES  *         4.24      4.15
 REAL TIME  *         5.68 SEC
 DISK USED  *         1.33 GB      
 **********************************************************************************************************************************


 PROGRAM * RHF-SCF (CLOSED SHELL)       Authors: W. Meyer, H.-J. Werner


 NUMBER OF ELECTRONS:       8+    8-
 CONVERGENCE THRESHOLDS:    1.00E-10 (Density)    1.00E-13 (Energy)
 MAX. NUMBER OF ITERATIONS:      500
 INTERPOLATION TYPE:            DIIS
 INTERPOLATION STEPS:              2 (START)      1 (STEP)
 LEVEL SHIFTS:                  0.00 (CLOSED)  0.00 (OPEN) 



 Orbital guess generated from atomic densities. Full valence occupancy:    9   2

 Molecular orbital dump at record        2100.2

 Initial occupancy:   7   1

 ITERATION    DDIFF          GRAD             ENERGY        2-EL.EN.            DIPOLE MOMENTS         DIIS   ORB.
    1      0.000D+00      0.000D+00      -129.79325897    154.598621    0.00000    0.57171   -0.96802    0    start
    2      0.000D+00      0.863D-02      -129.82052060    155.805077    0.00000    0.58739   -0.20725    1    diag
    3      0.357D-02      0.633D-02      -129.84083173    155.892756    0.00000    0.54327   -0.56550    2    diag
    4      0.135D-02      0.102D-02      -129.84158555    155.628964    0.00000    0.55120   -0.50551    3    diag
    5      0.326D-03      0.329D-03      -129.84170000    155.716008    0.00000    0.55731   -0.50829    4    diag
    6      0.151D-03      0.962D-04      -129.84171852    155.700145    0.00000    0.55798   -0.50444    5    diag
    7      0.602D-04      0.475D-04      -129.84172375    155.702833    0.00000    0.55936   -0.50216    6    diag
    8      0.403D-04      0.156D-04      -129.84172425    155.702081    0.00000    0.55942   -0.50136    7    diag
    9      0.130D-04      0.287D-05      -129.84172427    155.701980    0.00000    0.55938   -0.50119    8    diag
   10      0.253D-05      0.681D-06      -129.84172427    155.701966    0.00000    0.55934   -0.50117    9    orth
   11      0.815D-06      0.138D-06      -129.84172427    155.701962    0.00000    0.55933   -0.50116    9    diag
   12      0.198D-06      0.277D-07      -129.84172427    155.701961    0.00000    0.55933   -0.50116    9    diag
   13      0.477D-07      0.717D-08      -129.84172427    155.701960    0.00000    0.55933   -0.50116    9    diag
   14      0.108D-07      0.131D-08      -129.84172427    155.701960    0.00000    0.55933   -0.50116    9    diag
   15      0.153D-08      0.370D-09      -129.84172427    155.701960    0.00000    0.55933   -0.50116    9    diag
   16      0.335D-09      0.116D-09      -129.84172427    155.701960    0.00000    0.55933   -0.50116    9    diag
   17      0.922D-10      0.340D-10      -129.84172427    155.701960    0.00000    0.55933   -0.50116    9    diag
   18      0.311D-10      0.108D-10      -129.84172427    155.701960    0.00000    0.55933   -0.50116    9    diag
   19      0.110D-10      0.265D-11      -129.84172427    155.701960    0.00000    0.55933   -0.50116    0    orth

 Final occupancy:   7   1

 !RHF STATE 1.1 Energy               -129.841724274790
 Nuclear energy                        30.67234163
 One-electron energy                 -238.36504611
 Two-electron energy                   77.85098021
 Virial quotient                       -1.00119805
 !RHF STATE 1.1 Dipole moment           0.00000000     0.55933053    -0.50116036
 Dipole moment /Debye                   0.00000000     1.42158329    -1.27373914

 Orbital energies:

         1.1          2.1          3.1          4.1          5.1          6.1          7.1          8.1          9.1
    -20.650152   -15.707869    -1.540026    -0.990122    -0.749808    -0.668873    -0.423337     0.039836     0.193519

         1.2          2.2          3.2
     -0.601356     0.084110     0.240188

 HOMO      7.1    -0.423337 =     -11.5196eV
 LUMO      8.1     0.039836 =       1.0840eV
 LUMO-HOMO         0.463173 =      12.6036eV


 **********************************************************************************************************************************
 DATASETS  * FILE   NREC   LENGTH (MB)   RECORD NAMES
              1      19      422.10       500      610      700      900      950      970     1000      129      960     1100   
                                          VAR    BASINP    GEOM    SYMINP    ZMAT    AOBASIS   BASIS     P2S    ABASIS      S 
                                         1400     1410     1200     1210     1080     1600     1650     1300     1700   
                                           T        V       H0       H01     AOSYM     SMH    MOLCAS    ERIS     OPER   

              2       4        3.13       700     1000      520     2100   
                                         GEOM     BASIS   MCVARS     RHF  

 PROGRAMS   *        TOTAL        HF       INT
 CPU TIMES  *         9.10      4.86      4.15
 REAL TIME  *        11.60 SEC
 DISK USED  *         1.33 GB      
 **********************************************************************************************************************************


 PROGRAM * CCSD (Closed-shell coupled cluster)     Authors: C. Hampel, H.-J. Werner, 1991, M. Deegan, P.J. Knowles, 1992


 Convergence thresholds:  THRVAR = 1.00D-08  THRDEN = 1.00D-12

 CCSD(T)     terms to be evaluated (factor= 1.000)


 Number of closed-shell orbitals:   8 (   7   1 )
 Number of external orbitals:     163 ( 107  56 )

 Molecular orbitals read from record     2100.2  Type=RHF/CANONICAL (state 1.1)

 Number of N-1 electron functions:               8
 Number of N-2 electron functions:              36
 Number of singly external CSFs:               805
 Number of doubly external CSFs:            449165
 Total number of CSFs:                      449971

 Length of J-op  integral file:               0.00 MB
 Length of K-op  integral file:               1.15 MB
 Length of 3-ext integral record:             0.00 MB

 Memory could be reduced to 24.90 Mwords without degradation in triples

 Integral transformation finished. Total CPU:   0.91 sec, npass=  1  Memory used:   6.89 MW

 Reference energy:                   -129.84172427

 MP2 singlet pair energy:              -0.37745129
 MP2 triplet pair energy:              -0.18571646
 MP2 correlation energy:               -0.56316775
 MP2 total energy:                   -130.40489202

 SCS-MP2 correlation energy:           -0.56849845   (PS=  1.200000  PT=  0.333333)
 SCS-MP2 total energy:               -130.41022273

 ITER.      SQ.NORM     CORR.ENERGY   TOTAL ENERGY   ENERGY CHANGE        DEN1      VAR(S)    VAR(P)  DIIS     TIME  TIME/IT
   1      1.11820815    -0.56844021  -130.41016448    -0.00527246     0.01180261  0.32D-02  0.29D-02  1  1     1.87     1.01
   2      1.12871073    -0.56826652  -130.40999080     0.00017369    -0.01331578  0.84D-04  0.48D-03  2  2     2.86     1.04
   3      1.13374486    -0.56857739  -130.41030167    -0.00031087    -0.00230130  0.52D-04  0.64D-04  3  3     3.81     1.05
   4      1.13700196    -0.56856807  -130.41029234     0.00000932    -0.00133496  0.41D-05  0.92D-05  4  4     4.80     1.06
   5      1.13797653    -0.56859105  -130.41031533    -0.00002298    -0.00022764  0.15D-05  0.18D-05  5  5     5.78     1.06
   6      1.13836306    -0.56858580  -130.41031008     0.00000525    -0.00003671  0.14D-06  0.42D-06  6  6     6.78     1.06
   7      1.13844821    -0.56858597  -130.41031025    -0.00000017    -0.00000031  0.20D-07  0.91D-07  6  1     7.80     1.07
   8      1.13848238    -0.56858446  -130.41030873     0.00000152    -0.00000457  0.44D-08  0.13D-07  6  2     8.77     1.07
   9      1.13848741    -0.56858454  -130.41030881    -0.00000008     0.00000086  0.17D-08  0.16D-08  6  3     9.73     1.08
  10      1.13848887    -0.56858485  -130.41030912    -0.00000031    -0.00000053  0.39D-09  0.22D-09  6  4    10.75     1.08
  11      1.13848790    -0.56858498  -130.41030925    -0.00000013     0.00000034  0.93D-10  0.22D-10  6  5    11.72     1.08
  12      1.13848701    -0.56858511  -130.41030938    -0.00000013     0.00000034  0.98D-11  0.60D-11  6  6    12.72     1.08
  13      1.13848650    -0.56858512  -130.41030939    -0.00000001     0.00000011  0.43D-11  0.11D-11  6  1    13.69     1.08
  14      1.13848608    -0.56858514  -130.41030942    -0.00000002     0.00000010  0.46D-12  0.36D-12  6  3    14.65     1.08
  15      1.13848593    -0.56858514  -130.41030942    -0.00000000     0.00000002  0.11D-12  0.24D-13  6  2    15.62     1.08
  16      1.13848588    -0.56858514  -130.41030942    -0.00000000     0.00000001  0.24D-13  0.55D-14  6  4    16.61     1.08
  17      1.13848586    -0.56858514  -130.41030942    -0.00000000     0.00000000  0.38D-14  0.10D-14  6  5    17.59     1.08
  18      1.13848586    -0.56858514  -130.41030942    -0.00000000     0.00000000  0.36D-15  0.25D-15  6  6    18.57     1.08
  19      1.13848586    -0.56858514  -130.41030942     0.00000000    -0.00000000  0.42D-16  0.29D-16  6  1    19.57     1.08
  20      1.13848587    -0.56858514  -130.41030942     0.00000000    -0.00000000  0.18D-17  0.55D-17  6  3    20.55     1.08
  21      1.13848587    -0.56858514  -130.41030942     0.00000000    -0.00000000  0.91D-18  0.12D-17  6  2    21.54     1.08
  22      1.13848587    -0.56858514  -130.41030942     0.00000000    -0.00000000  0.14D-18  0.44D-18  6  4    22.55     1.08
  23      1.13848587    -0.56858514  -130.41030942    -0.00000000     0.00000000  0.82D-19  0.72D-19  6  5    23.55     1.08
  24      1.13848587    -0.56858514  -130.41030942     0.00000000    -0.00000000  0.41D-20  0.95D-20  6  1    24.55     1.08
  25      1.13848587    -0.56858514  -130.41030942     0.00000000     0.00000000  0.22D-21  0.11D-20  6  6    25.53     1.08
  26      1.13848587    -0.56858514  -130.41030942    -0.00000000     0.00000000  0.12D-21  0.26D-21  6  3    26.54     1.09

 Norm of t1 vector:      0.07569428      S-energy:     0.00000000      T1 diagnostic:  0.01338098
                                                                       D1 diagnostic:  0.04227128

 Doubles amplitudes (print threshold =  0.500E-01):

         I         J         SYM. A    SYM. B    A         B      T(IJ, AB)

         8         8         2         2         1         1     -0.12991396


 Total CPU time for triples:     19.31 sec


 RESULTS
 =======

  Reference energy                   -129.841724274790

  Correlated core orbitals:             1.1       2.1
  Orbital energies:                   -20.6502  -15.7079
 
  CCSD core-core energy                -0.079224901810
  CCSD core-valence energy             -0.036174199117
  CCSD valence correlation energy      -0.453186043104
 
  CCSD singlet pair energy             -0.406283969833
  CCSD triplet pair energy             -0.162301174199
  CCSD correlation energy              -0.568585144031

  Triples (T) contribution             -0.021830185645
  Total correlation energy             -0.590415329676

  CCSD total energy                  -130.410309418821
  CCSD[T] energy                     -130.433250655440
  CCSD-T energy                      -130.431715928306
 !CCSD(T) total energy               -130.432139604466

 Timing summary (sec):

 STEP                 CPU(USER)    SYS     CPU(TOT)    WALL
 Transformation          0.92      0.17      1.09      1.10
 CCSD iterations        25.63      2.62     28.25     28.23
 Triples                19.31      0.62     19.93     19.94

 Program statistics:

 Available memory in ccsd:               994999644
 Min. memory needed in ccsd:               1368037
 Max. memory used in ccsd:                 1750502
 Max. memory used in cckext:               2014357 (26 integral passes)



 **********************************************************************************************************************************
 DATASETS  * FILE   NREC   LENGTH (MB)   RECORD NAMES
              1      20      501.01       500      610      700      900      950      970     1000      129      960     1100   
                                          VAR    BASINP    GEOM    SYMINP    ZMAT    AOBASIS   BASIS     P2S    ABASIS      S 
                                         1400     1410     1200     1210     1080     1600     1650     1300     1700     1380   
                                           T        V       H0       H01     AOSYM     SMH    MOLCAS    ERIS     OPER     JKOP   

              2       4        3.13       700     1000      520     2100   
                                         GEOM     BASIS   MCVARS     RHF  

 PROGRAMS   *        TOTAL   CCSD(T)        HF       INT
 CPU TIMES  *        54.98     45.87      4.86      4.15
 REAL TIME  *        60.90 SEC
 DISK USED  *         1.33 GB      
 **********************************************************************************************************************************

 CCSD(T)/USERDEF energy=   -130.432139604466

        CCSD(T)         HF-SCF  
   -130.43213960   -129.84172427
 **********************************************************************************************************************************
 Molpro calculation terminated
 Variable memory released
