
 Primary working directories    : /tmp/r2666/235437.maple
 Secondary working directories  : /tmp/r2666/235437.maple
 Wavefunction directory         : /ddn/home4/r2666/wfu/
 Main file repository           : /tmp/r2666/235437.maple/

 SHA1      : d5ffa45e93fdbca01ffc919aa182cfdae0147319
 NAME      : 2015.1.35
 ARCHNAME  : linux/x86_64
 FC        : /opt/intel/composer_xe_2015.1.133/bin/intel64/ifort
 BLASLIB   : -Wl,-_start-group /opt/intel/mkl/lib/intel64/libmkl_intel_ilp64.a /opt/intel/mkl/lib/intel64/libmkl_intel_thread.a /opt/intel/mkl/lib/intel64/libmkl_core.a -Wl,-_end-group
 id        : olemiss

 Nodes     nprocs
 cn090        1

 Using customized tuning parameters: mindgm=1; mindgv=20; mindgc=4; mindgr=1; noblas=0; minvec=7
 default implementation of scratch files=df  

 ***,hno CCSD(T)/TZ-F12 QFF
 memory, 995, m;
 gthresh,energy=1.d-12,zero=1.d-22,oneint=1.d-22,twoint=1.d-22;
 gthresh,optgrad=1.d-8,optstep=1.d-8;
 nocompress;
 geomtyp=xyz
 bohr
 geometry={
 3
         34        34
 N        0.0000000000       -0.1587474701       -1.1551960813
 H        0.0000000000        1.6632447087       -1.9267095153
 O        0.0000000000        0.0372705514        1.1313160056
 }
 
 basis={
 default=aug-cc-pvtz
 s,C,8236.0,1235.0,280.8, 79.27,25.59, 8.997,3.319
 s,C,0.9059,0.3643,0.1285000
 p,C,56.0,18.71,4.133,0.2827,0.3827,0.1209
 d,C,30.0,10.0,3.3,1.097,0.318
 f,C,7.0,2.3,0.7610
 s,N,11420.0,1712.0,389.3,110.0,35.57,12.54,4.644
 s,N,1.293,0.5118,0.1787
 p,N,79.89,26.63,5.948,1.742,0.555,0.1725
 d,N,45.0,15.0,5.0,1.654,0.469
 f,N,9.9,3.3,1.093
 s,O,15330.0,2299.0,522.4,147.3,47.55,16.76,6.207
 s,O,1.752,0.6882,0.2384
 p,O,103.5,34.46,7.749,2.28,0.7156,0.214
 d,O,63.0,21.0,7.0,2.314,0.645
 f,O,12.9,4.3,1.428
 s,mg,164900.0,24710.0,5628.0,1596.0,521.0;
 s,mg,188.0,73.01,29.90,12.54,4.306,1.826;
 s,mg,0.7417,0.0761,0.145,0.033,0.0129;
 p,mg,950.70,316.90,74.86,23.72,8.669,3.363;
 p,mg,1.310,0.4911,0.2364,0.08733,0.03237,0.00745;
 d,mg,1.601,0.686,0.126,0.294,0.0468;
 f,mg,1.372,0.588,0.094,0.252;
 }
   {hf,maxit=500;accu,20;}
 {ccsd(t),nocheck,maxit=250;orbital,IGNORE_ERROR;core}

 Variables initialized (889), CPU time= 0.00 sec
 Commands  initialized (702), CPU time= 0.01 sec, 572 directives.
 Default parameters read. Elapsed time= 0.06 sec

 Checking input...
 Passed
1


                                         ***  PROGRAM SYSTEM MOLPRO  ***
                                       Copyright, TTI GmbH Stuttgart, 2015
                                    Version 2015.1 linked Jul  9 2018 13:16:40


 **********************************************************************************************************************************
 LABEL *   hno CCSD(T)/TZ-F12 QFF                                                        
  64 bit serial version                                                                  DATE: 08-Feb-20          TIME: 17:59:23  
 **********************************************************************************************************************************

 SHA1:             d5ffa45e93fdbca01ffc919aa182cfdae0147319
 **********************************************************************************************************************************

 THRESHOLDS:

 ZERO    =  1.00D-22  ONEINT  =  1.00D-22  TWOINT  =  1.00D-22  PREFAC  =  1.00D-14  LOCALI  =  1.00D-09  EORDER  =  1.00D-04
 ENERGY  =  1.00D-12  ETEST   =  0.00D+00  EDENS   =  0.00D+00  THRDEDEF=  1.00D-06  GRADIENT=  1.00D-02  STEP    =  1.00D-03
 ORBITAL =  1.00D-05  CIVEC   =  1.00D-05  COEFF   =  1.00D-04  PRINTCI =  5.00D-02  PUNCHCI =  9.90D+01  OPTGRAD =  3.00D-04
 OPTENERG=  1.00D-06  OPTSTEP =  3.00D-04  THRGRAD =  1.00D-10  COMPRESS=  1.00D-11  VARMIN  =  1.00D-07  VARMAX  =  1.00D-03
 THRDOUB =  0.00D+00  THRDIV  =  1.00D-05  THRRED  =  1.00D-07  THRPSP  =  1.00D+00  THRDC   =  1.00D-10  THRCS   =  1.00D-10
 THRNRM  =  1.00D-08  THREQ   =  0.00D+00  THRDE   =  1.00D+00  THRREF  =  1.00D-05  SPARFAC =  1.00D+00  THRDLP  =  1.00D-07
 THRDIA  =  1.00D-10  THRDLS  =  1.00D-07  THRGPS  =  0.00D+00  THRKEX  =  0.00D+00  THRDIS  =  2.00D-01  THRVAR  =  1.00D-10
 THRLOC  =  1.00D-06  THRGAP  =  1.00D-06  THRLOCT = -1.00D+00  THRGAPT = -1.00D+00  THRORB  =  1.00D-06  THRMLTP =  0.00D+00
 THRCPQCI=  1.00D-10  KEXTA   =  0.00D+00  THRCOARS=  0.00D+00  SYMTOL  =  1.00D-06  GRADTOL =  1.00D-06  THROVL  =  1.00D-08
 THRORTH =  1.00D-08  GRID    =  1.00D-06  GRIDMAX =  1.00D-03  DTMAX   =  0.00D+00  THROCCDE=  1.00D-01  THROCCDE=  1.00D-01



 THRESHOLDS:

 ZERO    =  1.00D-22  ONEINT  =  1.00D-22  TWOINT  =  1.00D-22  PREFAC  =  1.00D-14  LOCALI  =  1.00D-09  EORDER  =  1.00D-04
 ENERGY  =  1.00D-12  ETEST   =  0.00D+00  EDENS   =  0.00D+00  THRDEDEF=  1.00D-06  GRADIENT=  1.00D-02  STEP    =  1.00D-03
 ORBITAL =  1.00D-05  CIVEC   =  1.00D-05  COEFF   =  1.00D-04  PRINTCI =  5.00D-02  PUNCHCI =  9.90D+01  OPTGRAD =  1.00D-08
 OPTENERG=  1.00D-06  OPTSTEP =  1.00D-08  THRGRAD =  1.00D-10  COMPRESS=  1.00D-11  VARMIN  =  1.00D-07  VARMAX  =  1.00D-03
 THRDOUB =  0.00D+00  THRDIV  =  1.00D-05  THRRED  =  1.00D-07  THRPSP  =  1.00D+00  THRDC   =  1.00D-10  THRCS   =  1.00D-10
 THRNRM  =  1.00D-08  THREQ   =  0.00D+00  THRDE   =  1.00D+00  THRREF  =  1.00D-05  SPARFAC =  1.00D+00  THRDLP  =  1.00D-07
 THRDIA  =  1.00D-10  THRDLS  =  1.00D-07  THRGPS  =  0.00D+00  THRKEX  =  0.00D+00  THRDIS  =  2.00D-01  THRVAR  =  1.00D-10
 THRLOC  =  1.00D-06  THRGAP  =  1.00D-06  THRLOCT = -1.00D+00  THRGAPT = -1.00D+00  THRORB  =  1.00D-06  THRMLTP =  0.00D+00
 THRCPQCI=  1.00D-10  KEXTA   =  0.00D+00  THRCOARS=  0.00D+00  SYMTOL  =  1.00D-06  GRADTOL =  1.00D-06  THROVL  =  1.00D-08
 THRORTH =  1.00D-08  GRID    =  1.00D-06  GRIDMAX =  1.00D-03  DTMAX   =  0.00D+00  THROCCDE=  1.00D-01  THROCCDE=  1.00D-01



 Input parameters for SORTINT:

 COMPRESS =    0.000000
 C_FINAL  =    1.000000
 DEBUG    =   -1.000000
 C_SORT1  =    0.000000
 C_SEWARD =    0.000000
 THRESH   =    0.000000
 IO       =  molpro                                                          
 SPRI     =    0.000000
 SETTING GEOMTYP        =    XYZ
 ZUNIT=BOHR
 

 Variable memory set to  995000000 words,  buffer space   230000 words

 SETTING BASIS          =    USERDEF


 Recomputing integrals since basis changed


 Using spherical harmonics

 Library entry H      S aug-cc-pVTZ          selected for orbital group  2
 Library entry H      P aug-cc-pVTZ          selected for orbital group  2
 Library entry H      D aug-cc-pVTZ          selected for orbital group  2


 PROGRAM * SEWARD (Integral evaluation for generally contracted gaussian basis sets)     Author: Roland Lindh, 1990

 Geometry written to block  1 of record 700


 Point group  Cs  



 ATOMIC COORDINATES

 NR  ATOM    CHARGE       X              Y              Z

   1  N       7.00    0.000000000   -0.158747470   -1.155196081
   2  H       1.00    0.000000000    1.663244709   -1.926709515
   3  O       8.00    0.000000000    0.037270551    1.131316006

 Bond lengths in Bohr (Angstrom)

 1-2  1.978607712  1-3  2.294898819
     ( 1.047034111)     ( 1.214408156)

 Bond angles

  2-1-3  108.05011406

 NUCLEAR CHARGE:                   16
 NUMBER OF PRIMITIVE AOS:         203
 NUMBER OF SYMMETRY AOS:          173
 NUMBER OF CONTRACTIONS:          171   ( 114A'  +  57A"  )
 NUMBER OF CORE ORBITALS:           2   (   2A'  +   0A"  )
 NUMBER OF VALENCE ORBITALS:        9   (   7A'  +   2A"  )


 NUCLEAR REPULSION ENERGY   30.24964085


 Eigenvalues of metric

         1 0.104E-02 0.254E-02 0.334E-02 0.636E-02 0.969E-02 0.137E-01 0.145E-01 0.229E-01
         2 0.358E-01 0.540E-01 0.700E-01 0.942E-01 0.131E+00 0.134E+00 0.140E+00 0.142E+00


 Contracted 2-electron integrals neglected if value below      1.0D-22

       46118807. INTEGRALS WRITTEN OUT IN   11263 BLOCKS ON RECORD 1290 OF FILE 1


 NUMBER OF SORTED TWO-ELECTRON INTEGRALS:   55360566.     BUFFER LENGTH:  32768
 NUMBER OF SEGMENTS:   4  SEGMENT LENGTH:   15997996      RECORD LENGTH: 524288

 Memory used in sort:      16.56 MW

 SORT1 READ    46118807. AND WROTE    46556030. INTEGRALS IN    135 RECORDS. CPU TIME:     0.69 SEC, REAL TIME:     0.98 SEC
 SORT2 READ    46556030. AND WROTE    55360566. INTEGRALS IN      4 RECORDS. CPU TIME:     0.56 SEC, REAL TIME:     0.83 SEC

 FILE SIZES:   FILE 1:   758.9 MBYTE,  FILE 4:   566.3 MBYTE,   TOTAL:   1325.1 MBYTE

 OPERATOR DM      FOR CENTER  0  COORDINATES:    0.000000    0.000000    0.000000


 **********************************************************************************************************************************
 DATASETS  * FILE   NREC   LENGTH (MB)   RECORD NAMES
              1      19      421.07       500      610      700      900      950      970     1000      129      960     1100   
                                          VAR    BASINP    GEOM    SYMINP    ZMAT    AOBASIS   BASIS     P2S    ABASIS      S 
                                         1400     1410     1200     1210     1080     1600     1650     1300     1700   
                                           T        V       H0       H01     AOSYM     SMH    MOLCAS    ERIS     OPER   

 PROGRAMS   *        TOTAL       INT
 CPU TIMES  *         3.90      3.81
 REAL TIME  *         5.43 SEC
 DISK USED  *         1.33 GB      
 **********************************************************************************************************************************


 PROGRAM * RHF-SCF (CLOSED SHELL)       Authors: W. Meyer, H.-J. Werner


 NUMBER OF ELECTRONS:       8+    8-
 CONVERGENCE THRESHOLDS:    1.00E-10 (Density)    1.00E-13 (Energy)
 MAX. NUMBER OF ITERATIONS:      500
 INTERPOLATION TYPE:            DIIS
 INTERPOLATION STEPS:              2 (START)      1 (STEP)
 LEVEL SHIFTS:                  0.00 (CLOSED)  0.00 (OPEN) 



 Orbital guess generated from atomic densities. Full valence occupancy:    9   2

 Molecular orbital dump at record        2100.2

 Initial occupancy:   7   1

 ITERATION    DDIFF          GRAD             ENERGY        2-EL.EN.            DIPOLE MOMENTS         DIIS   ORB.
    1      0.000D+00      0.000D+00      -129.78775782    153.852033    0.00000    0.57451   -1.03335    0    start
    2      0.000D+00      0.883D-02      -129.81445953    155.007063    0.00000    0.60214   -0.19402    1    diag
    3      0.369D-02      0.679D-02      -129.83811443    155.143514    0.00000    0.55071   -0.59292    2    diag
    4      0.144D-02      0.105D-02      -129.83891001    154.865010    0.00000    0.55876   -0.52944    3    diag
    5      0.334D-03      0.340D-03      -129.83903188    154.953190    0.00000    0.56470   -0.53170    4    diag
    6      0.154D-03      0.994D-04      -129.83905176    154.937078    0.00000    0.56524   -0.52748    5    diag
    7      0.608D-04      0.502D-04      -129.83905773    154.939524    0.00000    0.56654   -0.52487    6    diag
    8      0.415D-04      0.175D-04      -129.83905841    154.938670    0.00000    0.56658   -0.52391    7    diag
    9      0.149D-04      0.328D-05      -129.83905844    154.938553    0.00000    0.56653   -0.52372    8    diag
   10      0.306D-05      0.736D-06      -129.83905844    154.938540    0.00000    0.56650   -0.52369    9    orth
   11      0.886D-06      0.145D-06      -129.83905844    154.938536    0.00000    0.56649   -0.52369    9    diag
   12      0.207D-06      0.306D-07      -129.83905844    154.938535    0.00000    0.56649   -0.52369    9    diag
   13      0.505D-07      0.820D-08      -129.83905844    154.938535    0.00000    0.56649   -0.52369    9    diag
   14      0.117D-07      0.143D-08      -129.83905844    154.938535    0.00000    0.56649   -0.52369    9    diag
   15      0.141D-08      0.378D-09      -129.83905844    154.938535    0.00000    0.56649   -0.52369    9    diag
   16      0.326D-09      0.108D-09      -129.83905844    154.938535    0.00000    0.56649   -0.52369    9    diag
   17      0.657D-10      0.281D-10      -129.83905844    154.938535    0.00000    0.56649   -0.52369    9    diag
   18      0.187D-10      0.902D-11      -129.83905844    154.938535    0.00000    0.56649   -0.52369    9    diag
   19      0.704D-11      0.194D-11      -129.83905844    154.938535    0.00000    0.56649   -0.52369    9    fixocc
   20      0.160D-11      0.449D-12      -129.83905844    154.938535    0.00000    0.56649   -0.52369    9    orth
   21      0.227D-12      0.783D-12      -129.83905844    154.938535    0.00000    0.56649   -0.52369    9    diag
   22      0.430D-13      0.382D-12      -129.83905844    154.938535    0.00000    0.56649   -0.52369    9    diag
   23      0.611D-13      0.367D-12      -129.83905844    154.938535    0.00000    0.56649   -0.52369    9    diag
   24      0.757D-13      0.414D-12      -129.83905844    154.938535    0.00000    0.56649   -0.52369    9    diag
   25      0.115D-12      0.241D-12      -129.83905844    154.938535    0.00000    0.56649   -0.52369    0    orth

 Final occupancy:   7   1

 !RHF STATE 1.1 Energy               -129.839058441273
 Nuclear energy                        30.24964085
 One-electron energy                 -237.55796665
 Two-electron energy                   77.46926736
 Virial quotient                       -1.00175947
 !RHF STATE 1.1 Dipole moment           0.00000000     0.56648617    -0.52369018
 Dipole moment /Debye                   0.00000000     1.43976992    -1.33100048

 Orbital energies:

         1.1          2.1          3.1          4.1          5.1          6.1          7.1          8.1          9.1
    -20.651760   -15.711051    -1.522936    -0.995595    -0.743797    -0.662360    -0.431097     0.039651     0.192948

         1.2          2.2          3.2
     -0.591120     0.076857     0.239357

 HOMO      7.1    -0.431097 =     -11.7307eV
 LUMO      8.1     0.039651 =       1.0790eV
 LUMO-HOMO         0.470748 =      12.8097eV


 **********************************************************************************************************************************
 DATASETS  * FILE   NREC   LENGTH (MB)   RECORD NAMES
              1      19      421.07       500      610      700      900      950      970     1000      129      960     1100   
                                          VAR    BASINP    GEOM    SYMINP    ZMAT    AOBASIS   BASIS     P2S    ABASIS      S 
                                         1400     1410     1200     1210     1080     1600     1650     1300     1700   
                                           T        V       H0       H01     AOSYM     SMH    MOLCAS    ERIS     OPER   

              2       4        3.13       700     1000      520     2100   
                                         GEOM     BASIS   MCVARS     RHF  

 PROGRAMS   *        TOTAL        HF       INT
 CPU TIMES  *         9.80      5.90      3.81
 REAL TIME  *        12.67 SEC
 DISK USED  *         1.33 GB      
 **********************************************************************************************************************************


 PROGRAM * CCSD (Closed-shell coupled cluster)     Authors: C. Hampel, H.-J. Werner, 1991, M. Deegan, P.J. Knowles, 1992


 Convergence thresholds:  THRVAR = 1.00D-08  THRDEN = 1.00D-12

 CCSD(T)     terms to be evaluated (factor= 1.000)


 Number of closed-shell orbitals:   8 (   7   1 )
 Number of external orbitals:     163 ( 107  56 )

 Molecular orbitals read from record     2100.2  Type=RHF/CANONICAL (state 1.1)

 Number of N-1 electron functions:               8
 Number of N-2 electron functions:              36
 Number of singly external CSFs:               805
 Number of doubly external CSFs:            449165
 Total number of CSFs:                      449971

 Length of J-op  integral file:               0.00 MB
 Length of K-op  integral file:               1.15 MB
 Length of 3-ext integral record:             0.00 MB

 Memory could be reduced to 24.90 Mwords without degradation in triples

 Integral transformation finished. Total CPU:   0.78 sec, npass=  1  Memory used:   6.89 MW

 Reference energy:                   -129.83905844

 MP2 singlet pair energy:              -0.37947090
 MP2 triplet pair energy:              -0.18697661
 MP2 correlation energy:               -0.56644751
 MP2 total energy:                   -130.40550595

 SCS-MP2 correlation energy:           -0.57170608   (PS=  1.200000  PT=  0.333333)
 SCS-MP2 total energy:               -130.41076453

 ITER.      SQ.NORM     CORR.ENERGY   TOTAL ENERGY   ENERGY CHANGE        DEN1      VAR(S)    VAR(P)  DIIS     TIME  TIME/IT
   1      1.12028273    -0.57094627  -130.41000471    -0.00449876     0.01344975  0.34D-02  0.32D-02  1  1     1.63     0.92
   2      1.13129582    -0.57059330  -130.40965174     0.00035297    -0.01385966  0.93D-04  0.51D-03  2  2     2.49     0.94
   3      1.13661867    -0.57092352  -130.40998196    -0.00033022    -0.00237396  0.56D-04  0.70D-04  3  3     3.36     0.95
   4      1.14012497    -0.57091645  -130.40997489     0.00000707    -0.00140443  0.46D-05  0.10D-04  4  4     4.25     0.95
   5      1.14120872    -0.57094136  -130.40999980    -0.00002491    -0.00025547  0.16D-05  0.19D-05  5  5     5.12     0.96
   6      1.14162717    -0.57093504  -130.40999348     0.00000632    -0.00004056  0.14D-06  0.42D-06  6  6     5.98     0.96
   7      1.14171058    -0.57093543  -130.40999387    -0.00000039     0.00000086  0.18D-07  0.96D-07  6  1     6.82     0.96
   8      1.14174449    -0.57093362  -130.40999206     0.00000180    -0.00000483  0.40D-08  0.14D-07  6  2     7.69     0.96
   9      1.14174908    -0.57093372  -130.40999216    -0.00000010     0.00000123  0.18D-08  0.19D-08  6  3     8.57     0.97
  10      1.14174932    -0.57093405  -130.40999249    -0.00000033    -0.00000005  0.61D-09  0.34D-09  6  1     9.47     0.97
  11      1.14174852    -0.57093429  -130.40999273    -0.00000024     0.00000016  0.51D-10  0.37D-10  6  4    10.33     0.97
  12      1.14174811    -0.57093431  -130.40999275    -0.00000002     0.00000006  0.77D-11  0.37D-11  6  5    11.22     0.97
  13      1.14174797    -0.57093433  -130.40999277    -0.00000002     0.00000002  0.15D-11  0.61D-12  6  6    12.10     0.97
  14      1.14174789    -0.57093433  -130.40999278    -0.00000000     0.00000003  0.62D-12  0.12D-12  6  2    12.96     0.97
  15      1.14174781    -0.57093434  -130.40999278    -0.00000000     0.00000001  0.11D-12  0.28D-13  6  3    13.86     0.97
  16      1.14174777    -0.57093434  -130.40999278    -0.00000000     0.00000000  0.12D-13  0.84D-14  6  1    14.75     0.97
  17      1.14174775    -0.57093434  -130.40999278    -0.00000000     0.00000000  0.15D-14  0.28D-14  6  4    15.64     0.97
  18      1.14174774    -0.57093434  -130.40999278    -0.00000000     0.00000000  0.11D-15  0.83D-15  6  5    16.53     0.97
  19      1.14174774    -0.57093434  -130.40999278    -0.00000000     0.00000000  0.43D-16  0.17D-15  6  6    17.42     0.97
  20      1.14174774    -0.57093434  -130.40999278     0.00000000     0.00000000  0.31D-16  0.33D-16  6  2    18.31     0.97
  21      1.14174774    -0.57093434  -130.40999278     0.00000000    -0.00000000  0.41D-17  0.68D-17  6  3    19.21     0.97
  22      1.14174774    -0.57093434  -130.40999278     0.00000000     0.00000000  0.27D-17  0.12D-17  6  1    20.11     0.97
  23      1.14174774    -0.57093434  -130.40999278     0.00000000    -0.00000000  0.11D-18  0.11D-18  6  5    21.00     0.97
  24      1.14174774    -0.57093434  -130.40999278    -0.00000000     0.00000000  0.19D-19  0.13D-19  6  4    21.92     0.97
  25      1.14174774    -0.57093434  -130.40999278    -0.00000000     0.00000000  0.54D-20  0.32D-20  6  6    22.80     0.97
  26      1.14174774    -0.57093434  -130.40999278    -0.00000000     0.00000000  0.56D-21  0.56D-21  6  2    23.69     0.97

 Norm of t1 vector:      0.07846089      S-energy:     0.00000000      T1 diagnostic:  0.01387006
                                                                       D1 diagnostic:  0.04486372

 Doubles amplitudes (print threshold =  0.500E-01):

         I         J         SYM. A    SYM. B    A         B      T(IJ, AB)

         8         8         2         2         1         1     -0.13659218


 Total CPU time for triples:     15.20 sec


 RESULTS
 =======

  Reference energy                   -129.839058441273

  Correlated core orbitals:             1.1       2.1
  Orbital energies:                   -20.6518  -15.7111
 
  CCSD core-core energy                -0.079235300922
  CCSD core-valence energy             -0.036045288353
  CCSD valence correlation energy      -0.455653749845
 
  CCSD singlet pair energy             -0.408416962056
  CCSD triplet pair energy             -0.162517377065
  CCSD correlation energy              -0.570934339120

  Triples (T) contribution             -0.022454934031
  Total correlation energy             -0.593389273151

  CCSD total energy                  -130.409992780392
  CCSD[T] energy                     -130.433642800557
  CCSD-T energy                      -130.432001618526
 !CCSD(T) total energy               -130.432447714423

 Timing summary (sec):

 STEP                 CPU(USER)    SYS     CPU(TOT)    WALL
 Transformation          0.79      0.18      0.97      0.97
 CCSD iterations        22.91      2.44     25.35     25.35
 Triples                15.20      0.42     15.62     15.62

 Program statistics:

 Available memory in ccsd:               994999644
 Min. memory needed in ccsd:               1368037
 Max. memory used in ccsd:                 1750502
 Max. memory used in cckext:               2014357 (26 integral passes)



 **********************************************************************************************************************************
 DATASETS  * FILE   NREC   LENGTH (MB)   RECORD NAMES
              1      20      499.98       500      610      700      900      950      970     1000      129      960     1100   
                                          VAR    BASINP    GEOM    SYMINP    ZMAT    AOBASIS   BASIS     P2S    ABASIS      S 
                                         1400     1410     1200     1210     1080     1600     1650     1300     1700     1380   
                                           T        V       H0       H01     AOSYM     SMH    MOLCAS    ERIS     OPER     JKOP   

              2       4        3.13       700     1000      520     2100   
                                         GEOM     BASIS   MCVARS     RHF  

 PROGRAMS   *        TOTAL   CCSD(T)        HF       INT
 CPU TIMES  *        48.71     38.91      5.90      3.81
 REAL TIME  *        54.65 SEC
 DISK USED  *         1.33 GB      
 **********************************************************************************************************************************

 CCSD(T)/USERDEF energy=   -130.432447714423

        CCSD(T)         HF-SCF  
   -130.43244771   -129.83905844
 **********************************************************************************************************************************
 Molpro calculation terminated
 Variable memory released
