
 Primary working directories    : /tmp/r2666/235418.maple
 Secondary working directories  : /tmp/r2666/235418.maple
 Wavefunction directory         : /ddn/home4/r2666/wfu/
 Main file repository           : /tmp/r2666/235418.maple/

 SHA1      : d5ffa45e93fdbca01ffc919aa182cfdae0147319
 NAME      : 2015.1.35
 ARCHNAME  : linux/x86_64
 FC        : /opt/intel/composer_xe_2015.1.133/bin/intel64/ifort
 BLASLIB   : -Wl,-_start-group /opt/intel/mkl/lib/intel64/libmkl_intel_ilp64.a /opt/intel/mkl/lib/intel64/libmkl_intel_thread.a /opt/intel/mkl/lib/intel64/libmkl_core.a -Wl,-_end-group
 id        : olemiss

 Nodes     nprocs
 cn030        1

 Using customized tuning parameters: mindgm=1; mindgv=20; mindgc=4; mindgr=1; noblas=0; minvec=7
 default implementation of scratch files=df  

 ***,hno CCSD(T)/TZ-F12 QFF
 memory, 995, m;
 gthresh,energy=1.d-12,zero=1.d-22,oneint=1.d-22,twoint=1.d-22;
 gthresh,optgrad=1.d-8,optstep=1.d-8;
 nocompress;
 geomtyp=xyz
 bohr
 geometry={
 3
         15        15
 N        0.0000000000       -0.1534371825       -1.1570074303
 H        0.0000000000        1.6591112312       -1.9265889652
 O        0.0000000000        0.0360937414        1.1330068045
 }
 
 basis={
 default=aug-cc-pvtz
 s,C,8236.0,1235.0,280.8, 79.27,25.59, 8.997,3.319
 s,C,0.9059,0.3643,0.1285000
 p,C,56.0,18.71,4.133,0.2827,0.3827,0.1209
 d,C,30.0,10.0,3.3,1.097,0.318
 f,C,7.0,2.3,0.7610
 s,N,11420.0,1712.0,389.3,110.0,35.57,12.54,4.644
 s,N,1.293,0.5118,0.1787
 p,N,79.89,26.63,5.948,1.742,0.555,0.1725
 d,N,45.0,15.0,5.0,1.654,0.469
 f,N,9.9,3.3,1.093
 s,O,15330.0,2299.0,522.4,147.3,47.55,16.76,6.207
 s,O,1.752,0.6882,0.2384
 p,O,103.5,34.46,7.749,2.28,0.7156,0.214
 d,O,63.0,21.0,7.0,2.314,0.645
 f,O,12.9,4.3,1.428
 s,mg,164900.0,24710.0,5628.0,1596.0,521.0;
 s,mg,188.0,73.01,29.90,12.54,4.306,1.826;
 s,mg,0.7417,0.0761,0.145,0.033,0.0129;
 p,mg,950.70,316.90,74.86,23.72,8.669,3.363;
 p,mg,1.310,0.4911,0.2364,0.08733,0.03237,0.00745;
 d,mg,1.601,0.686,0.126,0.294,0.0468;
 f,mg,1.372,0.588,0.094,0.252;
 }
   {hf,maxit=500;accu,20;}
 {ccsd(t),nocheck,maxit=250;orbital,IGNORE_ERROR;core}

 Variables initialized (889), CPU time= 0.01 sec
 Commands  initialized (702), CPU time= 0.01 sec, 572 directives.
 Default parameters read. Elapsed time= 0.05 sec

 Checking input...
 Passed
1


                                         ***  PROGRAM SYSTEM MOLPRO  ***
                                       Copyright, TTI GmbH Stuttgart, 2015
                                    Version 2015.1 linked Jul  9 2018 13:16:40


 **********************************************************************************************************************************
 LABEL *   hno CCSD(T)/TZ-F12 QFF                                                        
  64 bit serial version                                                                  DATE: 08-Feb-20          TIME: 17:59:06  
 **********************************************************************************************************************************

 SHA1:             d5ffa45e93fdbca01ffc919aa182cfdae0147319
 **********************************************************************************************************************************

 THRESHOLDS:

 ZERO    =  1.00D-22  ONEINT  =  1.00D-22  TWOINT  =  1.00D-22  PREFAC  =  1.00D-14  LOCALI  =  1.00D-09  EORDER  =  1.00D-04
 ENERGY  =  1.00D-12  ETEST   =  0.00D+00  EDENS   =  0.00D+00  THRDEDEF=  1.00D-06  GRADIENT=  1.00D-02  STEP    =  1.00D-03
 ORBITAL =  1.00D-05  CIVEC   =  1.00D-05  COEFF   =  1.00D-04  PRINTCI =  5.00D-02  PUNCHCI =  9.90D+01  OPTGRAD =  3.00D-04
 OPTENERG=  1.00D-06  OPTSTEP =  3.00D-04  THRGRAD =  1.00D-10  COMPRESS=  1.00D-11  VARMIN  =  1.00D-07  VARMAX  =  1.00D-03
 THRDOUB =  0.00D+00  THRDIV  =  1.00D-05  THRRED  =  1.00D-07  THRPSP  =  1.00D+00  THRDC   =  1.00D-10  THRCS   =  1.00D-10
 THRNRM  =  1.00D-08  THREQ   =  0.00D+00  THRDE   =  1.00D+00  THRREF  =  1.00D-05  SPARFAC =  1.00D+00  THRDLP  =  1.00D-07
 THRDIA  =  1.00D-10  THRDLS  =  1.00D-07  THRGPS  =  0.00D+00  THRKEX  =  0.00D+00  THRDIS  =  2.00D-01  THRVAR  =  1.00D-10
 THRLOC  =  1.00D-06  THRGAP  =  1.00D-06  THRLOCT = -1.00D+00  THRGAPT = -1.00D+00  THRORB  =  1.00D-06  THRMLTP =  0.00D+00
 THRCPQCI=  1.00D-10  KEXTA   =  0.00D+00  THRCOARS=  0.00D+00  SYMTOL  =  1.00D-06  GRADTOL =  1.00D-06  THROVL  =  1.00D-08
 THRORTH =  1.00D-08  GRID    =  1.00D-06  GRIDMAX =  1.00D-03  DTMAX   =  0.00D+00  THROCCDE=  1.00D-01  THROCCDE=  1.00D-01



 THRESHOLDS:

 ZERO    =  1.00D-22  ONEINT  =  1.00D-22  TWOINT  =  1.00D-22  PREFAC  =  1.00D-14  LOCALI  =  1.00D-09  EORDER  =  1.00D-04
 ENERGY  =  1.00D-12  ETEST   =  0.00D+00  EDENS   =  0.00D+00  THRDEDEF=  1.00D-06  GRADIENT=  1.00D-02  STEP    =  1.00D-03
 ORBITAL =  1.00D-05  CIVEC   =  1.00D-05  COEFF   =  1.00D-04  PRINTCI =  5.00D-02  PUNCHCI =  9.90D+01  OPTGRAD =  1.00D-08
 OPTENERG=  1.00D-06  OPTSTEP =  1.00D-08  THRGRAD =  1.00D-10  COMPRESS=  1.00D-11  VARMIN  =  1.00D-07  VARMAX  =  1.00D-03
 THRDOUB =  0.00D+00  THRDIV  =  1.00D-05  THRRED  =  1.00D-07  THRPSP  =  1.00D+00  THRDC   =  1.00D-10  THRCS   =  1.00D-10
 THRNRM  =  1.00D-08  THREQ   =  0.00D+00  THRDE   =  1.00D+00  THRREF  =  1.00D-05  SPARFAC =  1.00D+00  THRDLP  =  1.00D-07
 THRDIA  =  1.00D-10  THRDLS  =  1.00D-07  THRGPS  =  0.00D+00  THRKEX  =  0.00D+00  THRDIS  =  2.00D-01  THRVAR  =  1.00D-10
 THRLOC  =  1.00D-06  THRGAP  =  1.00D-06  THRLOCT = -1.00D+00  THRGAPT = -1.00D+00  THRORB  =  1.00D-06  THRMLTP =  0.00D+00
 THRCPQCI=  1.00D-10  KEXTA   =  0.00D+00  THRCOARS=  0.00D+00  SYMTOL  =  1.00D-06  GRADTOL =  1.00D-06  THROVL  =  1.00D-08
 THRORTH =  1.00D-08  GRID    =  1.00D-06  GRIDMAX =  1.00D-03  DTMAX   =  0.00D+00  THROCCDE=  1.00D-01  THROCCDE=  1.00D-01



 Input parameters for SORTINT:

 COMPRESS =    0.000000
 C_FINAL  =    1.000000
 DEBUG    =   -1.000000
 C_SORT1  =    0.000000
 C_SEWARD =    0.000000
 THRESH   =    0.000000
 IO       =  molpro                                                          
 SPRI     =    0.000000
 SETTING GEOMTYP        =    XYZ
 ZUNIT=BOHR
 

 Variable memory set to  995000000 words,  buffer space   230000 words

 SETTING BASIS          =    USERDEF


 Recomputing integrals since basis changed


 Using spherical harmonics

 Library entry H      S aug-cc-pVTZ          selected for orbital group  2
 Library entry H      P aug-cc-pVTZ          selected for orbital group  2
 Library entry H      D aug-cc-pVTZ          selected for orbital group  2


 PROGRAM * SEWARD (Integral evaluation for generally contracted gaussian basis sets)     Author: Roland Lindh, 1990

 Geometry written to block  1 of record 700


 Point group  Cs  



 ATOMIC COORDINATES

 NR  ATOM    CHARGE       X              Y              Z

   1  N       7.00    0.000000000   -0.153437182   -1.157007430
   2  H       1.00    0.000000000    1.659111231   -1.926588965
   3  O       8.00    0.000000000    0.036093741    1.133006804

 Bond lengths in Bohr (Angstrom)

 1-2  1.969159082  1-3  2.297844026
     ( 1.042034111)     ( 1.215966693)

 Bond angles

  2-1-3  108.27411753

 NUCLEAR CHARGE:                   16
 NUMBER OF PRIMITIVE AOS:         203
 NUMBER OF SYMMETRY AOS:          173
 NUMBER OF CONTRACTIONS:          171   ( 114A'  +  57A"  )
 NUMBER OF CORE ORBITALS:           2   (   2A'  +   0A"  )
 NUMBER OF VALENCE ORBITALS:        9   (   7A'  +   2A"  )


 NUCLEAR REPULSION ENERGY   30.23533988


 Eigenvalues of metric

         1 0.103E-02 0.255E-02 0.333E-02 0.633E-02 0.952E-02 0.136E-01 0.145E-01 0.228E-01
         2 0.352E-01 0.542E-01 0.697E-01 0.942E-01 0.131E+00 0.134E+00 0.139E+00 0.142E+00


 Contracted 2-electron integrals neglected if value below      1.0D-22

       46106192. INTEGRALS WRITTEN OUT IN   11260 BLOCKS ON RECORD 1290 OF FILE 1


 NUMBER OF SORTED TWO-ELECTRON INTEGRALS:   55360566.     BUFFER LENGTH:  32768
 NUMBER OF SEGMENTS:   4  SEGMENT LENGTH:   15997996      RECORD LENGTH: 524288

 Memory used in sort:      16.56 MW

 SORT1 READ    46106192. AND WROTE    46543193. INTEGRALS IN    135 RECORDS. CPU TIME:     1.21 SEC, REAL TIME:     1.62 SEC
 SORT2 READ    46543193. AND WROTE    55360566. INTEGRALS IN      4 RECORDS. CPU TIME:     0.71 SEC, REAL TIME:     1.00 SEC

 FILE SIZES:   FILE 1:   758.7 MBYTE,  FILE 4:   566.3 MBYTE,   TOTAL:   1324.9 MBYTE

 OPERATOR DM      FOR CENTER  0  COORDINATES:    0.000000    0.000000    0.000000


 **********************************************************************************************************************************
 DATASETS  * FILE   NREC   LENGTH (MB)   RECORD NAMES
              1      19      420.98       500      610      700      900      950      970     1000      129      960     1100   
                                          VAR    BASINP    GEOM    SYMINP    ZMAT    AOBASIS   BASIS     P2S    ABASIS      S 
                                         1400     1410     1200     1210     1080     1600     1650     1300     1700   
                                           T        V       H0       H01     AOSYM     SMH    MOLCAS    ERIS     OPER   

 PROGRAMS   *        TOTAL       INT
 CPU TIMES  *         5.56      5.46
 REAL TIME  *         7.28 SEC
 DISK USED  *         1.33 GB      
 **********************************************************************************************************************************


 PROGRAM * RHF-SCF (CLOSED SHELL)       Authors: W. Meyer, H.-J. Werner


 NUMBER OF ELECTRONS:       8+    8-
 CONVERGENCE THRESHOLDS:    1.00E-10 (Density)    1.00E-13 (Energy)
 MAX. NUMBER OF ITERATIONS:      500
 INTERPOLATION TYPE:            DIIS
 INTERPOLATION STEPS:              2 (START)      1 (STEP)
 LEVEL SHIFTS:                  0.00 (CLOSED)  0.00 (OPEN) 



 Orbital guess generated from atomic densities. Full valence occupancy:    9   2

 Molecular orbital dump at record        2100.2

 Initial occupancy:   7   1

 ITERATION    DDIFF          GRAD             ENERGY        2-EL.EN.            DIPOLE MOMENTS         DIIS   ORB.
    1      0.000D+00      0.000D+00      -129.78767810    153.828472    0.00000    0.58031   -1.03794    0    start
    2      0.000D+00      0.882D-02      -129.81432641    154.976048    0.00000    0.60335   -0.19600    1    diag
    3      0.370D-02      0.679D-02      -129.83799099    155.116907    0.00000    0.55400   -0.59642    2    diag
    4      0.144D-02      0.105D-02      -129.83878963    154.837849    0.00000    0.56193   -0.53258    3    diag
    5      0.336D-03      0.339D-03      -129.83891103    154.925832    0.00000    0.56782   -0.53481    4    diag
    6      0.154D-03      0.990D-04      -129.83893075    154.909777    0.00000    0.56835   -0.53058    5    diag
    7      0.607D-04      0.502D-04      -129.83893672    154.912180    0.00000    0.56963   -0.52795    6    diag
    8      0.416D-04      0.176D-04      -129.83893741    154.911324    0.00000    0.56968   -0.52698    7    diag
    9      0.150D-04      0.329D-05      -129.83893744    154.911207    0.00000    0.56963   -0.52679    8    diag
   10      0.309D-05      0.737D-06      -129.83893744    154.911194    0.00000    0.56959   -0.52677    9    orth
   11      0.894D-06      0.145D-06      -129.83893744    154.911190    0.00000    0.56959   -0.52676    9    diag
   12      0.207D-06      0.307D-07      -129.83893744    154.911190    0.00000    0.56958   -0.52676    9    diag
   13      0.503D-07      0.824D-08      -129.83893744    154.911190    0.00000    0.56958   -0.52676    9    diag
   14      0.116D-07      0.144D-08      -129.83893744    154.911190    0.00000    0.56958   -0.52676    9    diag
   15      0.138D-08      0.381D-09      -129.83893744    154.911190    0.00000    0.56958   -0.52676    9    diag
   16      0.326D-09      0.109D-09      -129.83893744    154.911190    0.00000    0.56958   -0.52676    9    diag
   17      0.626D-10      0.279D-10      -129.83893744    154.911190    0.00000    0.56958   -0.52676    9    diag
   18      0.174D-10      0.884D-11      -129.83893744    154.911190    0.00000    0.56958   -0.52676    0    orth

 Final occupancy:   7   1

 !RHF STATE 1.1 Energy               -129.838937436564
 Nuclear energy                        30.23533988
 One-electron energy                 -237.52987208
 Two-electron energy                   77.45559476
 Virial quotient                       -1.00174988
 !RHF STATE 1.1 Dipole moment           0.00000000     0.56958263    -0.52676043
 Dipole moment /Debye                   0.00000000     1.44763983    -1.33880376

 Orbital energies:

         1.1          2.1          3.1          4.1          5.1          6.1          7.1          8.1          9.1
    -20.651877   -15.710602    -1.521636    -0.997388    -0.743874    -0.661960    -0.431707     0.039635     0.193294

         1.2          2.2          3.2
     -0.590297     0.076246     0.239370

 HOMO      7.1    -0.431707 =     -11.7473eV
 LUMO      8.1     0.039635 =       1.0785eV
 LUMO-HOMO         0.471342 =      12.8259eV


 **********************************************************************************************************************************
 DATASETS  * FILE   NREC   LENGTH (MB)   RECORD NAMES
              1      19      420.98       500      610      700      900      950      970     1000      129      960     1100   
                                          VAR    BASINP    GEOM    SYMINP    ZMAT    AOBASIS   BASIS     P2S    ABASIS      S 
                                         1400     1410     1200     1210     1080     1600     1650     1300     1700   
                                           T        V       H0       H01     AOSYM     SMH    MOLCAS    ERIS     OPER   

              2       4        3.13       700     1000      520     2100   
                                         GEOM     BASIS   MCVARS     RHF  

 PROGRAMS   *        TOTAL        HF       INT
 CPU TIMES  *        11.01      5.45      5.46
 REAL TIME  *        13.96 SEC
 DISK USED  *         1.33 GB      
 **********************************************************************************************************************************


 PROGRAM * CCSD (Closed-shell coupled cluster)     Authors: C. Hampel, H.-J. Werner, 1991, M. Deegan, P.J. Knowles, 1992


 Convergence thresholds:  THRVAR = 1.00D-08  THRDEN = 1.00D-12

 CCSD(T)     terms to be evaluated (factor= 1.000)


 Number of closed-shell orbitals:   8 (   7   1 )
 Number of external orbitals:     163 ( 107  56 )

 Molecular orbitals read from record     2100.2  Type=RHF/CANONICAL (state 1.1)

 Number of N-1 electron functions:               8
 Number of N-2 electron functions:              36
 Number of singly external CSFs:               805
 Number of doubly external CSFs:            449165
 Total number of CSFs:                      449971

 Length of J-op  integral file:               0.00 MB
 Length of K-op  integral file:               1.15 MB
 Length of 3-ext integral record:             0.00 MB

 Memory could be reduced to 24.90 Mwords without degradation in triples

 Integral transformation finished. Total CPU:   1.06 sec, npass=  1  Memory used:   6.89 MW

 Reference energy:                   -129.83893744

 MP2 singlet pair energy:              -0.37951907
 MP2 triplet pair energy:              -0.18701837
 MP2 correlation energy:               -0.56653744
 MP2 total energy:                   -130.40547488

 SCS-MP2 correlation energy:           -0.57178987   (PS=  1.200000  PT=  0.333333)
 SCS-MP2 total energy:               -130.41072731

 ITER.      SQ.NORM     CORR.ENERGY   TOTAL ENERGY   ENERGY CHANGE        DEN1      VAR(S)    VAR(P)  DIIS     TIME  TIME/IT
   1      1.12029199    -0.57098957  -130.40992700    -0.00445213     0.01352721  0.35D-02  0.32D-02  1  1     2.27     1.26
   2      1.13131918    -0.57062505  -130.40956249     0.00036452    -0.01387752  0.93D-04  0.51D-03  2  2     3.48     1.30
   3      1.13664722    -0.57095470  -130.40989214    -0.00032966    -0.00237241  0.56D-04  0.70D-04  3  3     4.69     1.31
   4      1.14016570    -0.57094818  -130.40988561     0.00000653    -0.00140629  0.46D-05  0.10D-04  4  4     5.92     1.32
   5      1.14125528    -0.57097309  -130.40991052    -0.00002491    -0.00025650  0.16D-05  0.19D-05  5  5     7.17     1.32
   6      1.14167576    -0.57096670  -130.40990413     0.00000639    -0.00004076  0.13D-06  0.42D-06  6  6     8.41     1.33
   7      1.14175899    -0.57096716  -130.40990459    -0.00000046     0.00000095  0.17D-07  0.98D-07  6  1     9.68     1.33
   8      1.14179283    -0.57096535  -130.40990278     0.00000181    -0.00000483  0.41D-08  0.14D-07  6  2    10.91     1.33
   9      1.14179732    -0.57096546  -130.40990289    -0.00000011     0.00000126  0.18D-08  0.19D-08  6  3    12.14     1.33
  10      1.14179900    -0.57096576  -130.40990320    -0.00000031    -0.00000069  0.43D-09  0.27D-09  6  4    13.36     1.33
  11      1.14179802    -0.57096590  -130.40990334    -0.00000014     0.00000034  0.11D-09  0.28D-10  6  5    14.58     1.33
  12      1.14179716    -0.57096604  -130.40990348    -0.00000014     0.00000034  0.11D-10  0.67D-11  6  6    15.84     1.34
  13      1.14179664    -0.57096605  -130.40990349    -0.00000001     0.00000010  0.42D-11  0.12D-11  6  1    17.06     1.34
  14      1.14179621    -0.57096608  -130.40990351    -0.00000003     0.00000010  0.43D-12  0.41D-12  6  3    18.31     1.34
  15      1.14179603    -0.57096608  -130.40990352    -0.00000000     0.00000002  0.11D-12  0.29D-13  6  2    19.55     1.34
  16      1.14179598    -0.57096608  -130.40990352    -0.00000000     0.00000001  0.23D-13  0.62D-14  6  4    20.79     1.34
  17      1.14179595    -0.57096608  -130.40990352    -0.00000000     0.00000001  0.44D-14  0.11D-14  6  5    22.03     1.34
  18      1.14179595    -0.57096608  -130.40990352    -0.00000000     0.00000000  0.49D-15  0.30D-15  6  6    23.26     1.34
  19      1.14179595    -0.57096608  -130.40990352     0.00000000    -0.00000000  0.61D-16  0.45D-16  6  1    24.51     1.34
  20      1.14179595    -0.57096608  -130.40990352     0.00000000    -0.00000000  0.25D-17  0.10D-16  6  3    25.77     1.34
  21      1.14179595    -0.57096608  -130.40990352     0.00000000    -0.00000000  0.13D-17  0.26D-17  6  2    27.04     1.34
  22      1.14179595    -0.57096608  -130.40990352     0.00000000    -0.00000000  0.35D-18  0.91D-18  6  4    28.27     1.34
  23      1.14179595    -0.57096608  -130.40990352    -0.00000000     0.00000000  0.16D-18  0.13D-18  6  5    29.54     1.34
  24      1.14179595    -0.57096608  -130.40990352     0.00000000    -0.00000000  0.57D-20  0.16D-19  6  1    30.75     1.34
  25      1.14179595    -0.57096608  -130.40990352     0.00000000     0.00000000  0.41D-21  0.16D-20  6  6    31.95     1.34
  26      1.14179595    -0.57096608  -130.40990352    -0.00000000     0.00000000  0.16D-21  0.22D-21  6  1    33.18     1.34

 Norm of t1 vector:      0.07855781      S-energy:     0.00000000      T1 diagnostic:  0.01388719
                                                                       D1 diagnostic:  0.04507430

 Doubles amplitudes (print threshold =  0.500E-01):

         I         J         SYM. A    SYM. B    A         B      T(IJ, AB)

         8         8         2         2         1         1     -0.13707627


 Total CPU time for triples:     15.20 sec


 RESULTS
 =======

  Reference energy                   -129.838937436564

  Correlated core orbitals:             1.1       2.1
  Orbital energies:                   -20.6519  -15.7106
 
  CCSD core-core energy                -0.079235680602
  CCSD core-valence energy             -0.036046108672
  CCSD valence correlation energy      -0.455684292660
 
  CCSD singlet pair energy             -0.408446700086
  CCSD triplet pair energy             -0.162519381850
  CCSD correlation energy              -0.570966081934

  Triples (T) contribution             -0.022473710882
  Total correlation energy             -0.593439792816

  CCSD total energy                  -130.409903518499
  CCSD[T] energy                     -130.433575486878
  CCSD-T energy                      -130.431930914410
 !CCSD(T) total energy               -130.432377229380

 Timing summary (sec):

 STEP                 CPU(USER)    SYS     CPU(TOT)    WALL
 Transformation          1.08      0.21      1.29      1.29
 CCSD iterations        32.11      2.69     34.80     34.80
 Triples                15.20      0.49     15.69     15.69

 Program statistics:

 Available memory in ccsd:               994999644
 Min. memory needed in ccsd:               1368037
 Max. memory used in ccsd:                 1750502
 Max. memory used in cckext:               2014357 (26 integral passes)



 **********************************************************************************************************************************
 DATASETS  * FILE   NREC   LENGTH (MB)   RECORD NAMES
              1      20      499.89       500      610      700      900      950      970     1000      129      960     1100   
                                          VAR    BASINP    GEOM    SYMINP    ZMAT    AOBASIS   BASIS     P2S    ABASIS      S 
                                         1400     1410     1200     1210     1080     1600     1650     1300     1700     1380   
                                           T        V       H0       H01     AOSYM     SMH    MOLCAS    ERIS     OPER     JKOP   

              2       4        3.13       700     1000      520     2100   
                                         GEOM     BASIS   MCVARS     RHF  

 PROGRAMS   *        TOTAL   CCSD(T)        HF       INT
 CPU TIMES  *        59.43     48.42      5.45      5.46
 REAL TIME  *        65.79 SEC
 DISK USED  *         1.33 GB      
 **********************************************************************************************************************************

 CCSD(T)/USERDEF energy=   -130.432377229380

        CCSD(T)         HF-SCF  
   -130.43237723   -129.83893744
 **********************************************************************************************************************************
 Molpro calculation terminated
 Variable memory released
