
 Primary working directories    : /tmp/r2666/235411.maple
 Secondary working directories  : /tmp/r2666/235411.maple
 Wavefunction directory         : /ddn/home4/r2666/wfu/
 Main file repository           : /tmp/r2666/235411.maple/

 SHA1      : d5ffa45e93fdbca01ffc919aa182cfdae0147319
 NAME      : 2015.1.35
 ARCHNAME  : linux/x86_64
 FC        : /opt/intel/composer_xe_2015.1.133/bin/intel64/ifort
 BLASLIB   : -Wl,-_start-group /opt/intel/mkl/lib/intel64/libmkl_intel_ilp64.a /opt/intel/mkl/lib/intel64/libmkl_intel_thread.a /opt/intel/mkl/lib/intel64/libmkl_core.a -Wl,-_end-group
 id        : olemiss

 Nodes     nprocs
 cn035        1

 Using customized tuning parameters: mindgm=1; mindgv=20; mindgc=4; mindgr=1; noblas=0; minvec=7
 default implementation of scratch files=df  

 ***,hno CCSD(T)/TZ-F12 QFF
 memory, 995, m;
 gthresh,energy=1.d-12,zero=1.d-22,oneint=1.d-22,twoint=1.d-22;
 gthresh,optgrad=1.d-8,optstep=1.d-8;
 nocompress;
 geomtyp=xyz
 bohr
 geometry={
 3
          8         8
 N        0.0000000000       -0.1529641933       -1.1465440676
 H        0.0000000000        1.6570373235       -1.9220967739
 O        0.0000000000        0.0376946598        1.1180512504
 }
 
 basis={
 default=aug-cc-pvtz
 s,C,8236.0,1235.0,280.8, 79.27,25.59, 8.997,3.319
 s,C,0.9059,0.3643,0.1285000
 p,C,56.0,18.71,4.133,0.2827,0.3827,0.1209
 d,C,30.0,10.0,3.3,1.097,0.318
 f,C,7.0,2.3,0.7610
 s,N,11420.0,1712.0,389.3,110.0,35.57,12.54,4.644
 s,N,1.293,0.5118,0.1787
 p,N,79.89,26.63,5.948,1.742,0.555,0.1725
 d,N,45.0,15.0,5.0,1.654,0.469
 f,N,9.9,3.3,1.093
 s,O,15330.0,2299.0,522.4,147.3,47.55,16.76,6.207
 s,O,1.752,0.6882,0.2384
 p,O,103.5,34.46,7.749,2.28,0.7156,0.214
 d,O,63.0,21.0,7.0,2.314,0.645
 f,O,12.9,4.3,1.428
 s,mg,164900.0,24710.0,5628.0,1596.0,521.0;
 s,mg,188.0,73.01,29.90,12.54,4.306,1.826;
 s,mg,0.7417,0.0761,0.145,0.033,0.0129;
 p,mg,950.70,316.90,74.86,23.72,8.669,3.363;
 p,mg,1.310,0.4911,0.2364,0.08733,0.03237,0.00745;
 d,mg,1.601,0.686,0.126,0.294,0.0468;
 f,mg,1.372,0.588,0.094,0.252;
 }
   {hf,maxit=500;accu,20;}
 {ccsd(t),nocheck,maxit=250;orbital,IGNORE_ERROR;core}

 Variables initialized (889), CPU time= 0.00 sec
 Commands  initialized (702), CPU time= 0.01 sec, 572 directives.
 Default parameters read. Elapsed time= 0.04 sec

 Checking input...
 Passed
1


                                         ***  PROGRAM SYSTEM MOLPRO  ***
                                       Copyright, TTI GmbH Stuttgart, 2015
                                    Version 2015.1 linked Jul  9 2018 13:16:40


 **********************************************************************************************************************************
 LABEL *   hno CCSD(T)/TZ-F12 QFF                                                        
  64 bit serial version                                                                  DATE: 08-Feb-20          TIME: 17:59:05  
 **********************************************************************************************************************************

 SHA1:             d5ffa45e93fdbca01ffc919aa182cfdae0147319
 **********************************************************************************************************************************

 THRESHOLDS:

 ZERO    =  1.00D-22  ONEINT  =  1.00D-22  TWOINT  =  1.00D-22  PREFAC  =  1.00D-14  LOCALI  =  1.00D-09  EORDER  =  1.00D-04
 ENERGY  =  1.00D-12  ETEST   =  0.00D+00  EDENS   =  0.00D+00  THRDEDEF=  1.00D-06  GRADIENT=  1.00D-02  STEP    =  1.00D-03
 ORBITAL =  1.00D-05  CIVEC   =  1.00D-05  COEFF   =  1.00D-04  PRINTCI =  5.00D-02  PUNCHCI =  9.90D+01  OPTGRAD =  3.00D-04
 OPTENERG=  1.00D-06  OPTSTEP =  3.00D-04  THRGRAD =  1.00D-10  COMPRESS=  1.00D-11  VARMIN  =  1.00D-07  VARMAX  =  1.00D-03
 THRDOUB =  0.00D+00  THRDIV  =  1.00D-05  THRRED  =  1.00D-07  THRPSP  =  1.00D+00  THRDC   =  1.00D-10  THRCS   =  1.00D-10
 THRNRM  =  1.00D-08  THREQ   =  0.00D+00  THRDE   =  1.00D+00  THRREF  =  1.00D-05  SPARFAC =  1.00D+00  THRDLP  =  1.00D-07
 THRDIA  =  1.00D-10  THRDLS  =  1.00D-07  THRGPS  =  0.00D+00  THRKEX  =  0.00D+00  THRDIS  =  2.00D-01  THRVAR  =  1.00D-10
 THRLOC  =  1.00D-06  THRGAP  =  1.00D-06  THRLOCT = -1.00D+00  THRGAPT = -1.00D+00  THRORB  =  1.00D-06  THRMLTP =  0.00D+00
 THRCPQCI=  1.00D-10  KEXTA   =  0.00D+00  THRCOARS=  0.00D+00  SYMTOL  =  1.00D-06  GRADTOL =  1.00D-06  THROVL  =  1.00D-08
 THRORTH =  1.00D-08  GRID    =  1.00D-06  GRIDMAX =  1.00D-03  DTMAX   =  0.00D+00  THROCCDE=  1.00D-01  THROCCDE=  1.00D-01



 THRESHOLDS:

 ZERO    =  1.00D-22  ONEINT  =  1.00D-22  TWOINT  =  1.00D-22  PREFAC  =  1.00D-14  LOCALI  =  1.00D-09  EORDER  =  1.00D-04
 ENERGY  =  1.00D-12  ETEST   =  0.00D+00  EDENS   =  0.00D+00  THRDEDEF=  1.00D-06  GRADIENT=  1.00D-02  STEP    =  1.00D-03
 ORBITAL =  1.00D-05  CIVEC   =  1.00D-05  COEFF   =  1.00D-04  PRINTCI =  5.00D-02  PUNCHCI =  9.90D+01  OPTGRAD =  1.00D-08
 OPTENERG=  1.00D-06  OPTSTEP =  1.00D-08  THRGRAD =  1.00D-10  COMPRESS=  1.00D-11  VARMIN  =  1.00D-07  VARMAX  =  1.00D-03
 THRDOUB =  0.00D+00  THRDIV  =  1.00D-05  THRRED  =  1.00D-07  THRPSP  =  1.00D+00  THRDC   =  1.00D-10  THRCS   =  1.00D-10
 THRNRM  =  1.00D-08  THREQ   =  0.00D+00  THRDE   =  1.00D+00  THRREF  =  1.00D-05  SPARFAC =  1.00D+00  THRDLP  =  1.00D-07
 THRDIA  =  1.00D-10  THRDLS  =  1.00D-07  THRGPS  =  0.00D+00  THRKEX  =  0.00D+00  THRDIS  =  2.00D-01  THRVAR  =  1.00D-10
 THRLOC  =  1.00D-06  THRGAP  =  1.00D-06  THRLOCT = -1.00D+00  THRGAPT = -1.00D+00  THRORB  =  1.00D-06  THRMLTP =  0.00D+00
 THRCPQCI=  1.00D-10  KEXTA   =  0.00D+00  THRCOARS=  0.00D+00  SYMTOL  =  1.00D-06  GRADTOL =  1.00D-06  THROVL  =  1.00D-08
 THRORTH =  1.00D-08  GRID    =  1.00D-06  GRIDMAX =  1.00D-03  DTMAX   =  0.00D+00  THROCCDE=  1.00D-01  THROCCDE=  1.00D-01



 Input parameters for SORTINT:

 COMPRESS =    0.000000
 C_FINAL  =    1.000000
 DEBUG    =   -1.000000
 C_SORT1  =    0.000000
 C_SEWARD =    0.000000
 THRESH   =    0.000000
 IO       =  molpro                                                          
 SPRI     =    0.000000
 SETTING GEOMTYP        =    XYZ
 ZUNIT=BOHR
 

 Variable memory set to  995000000 words,  buffer space   230000 words

 SETTING BASIS          =    USERDEF


 Recomputing integrals since basis changed


 Using spherical harmonics

 Library entry H      S aug-cc-pVTZ          selected for orbital group  2
 Library entry H      P aug-cc-pVTZ          selected for orbital group  2
 Library entry H      D aug-cc-pVTZ          selected for orbital group  2


 PROGRAM * SEWARD (Integral evaluation for generally contracted gaussian basis sets)     Author: Roland Lindh, 1990

 Geometry written to block  1 of record 700


 Point group  Cs  



 ATOMIC COORDINATES

 NR  ATOM    CHARGE       X              Y              Z

   1  N       7.00    0.000000000   -0.152964193   -1.146544068
   2  H       1.00    0.000000000    1.657037323   -1.922096774
   3  O       8.00    0.000000000    0.037694660    1.118051250

 Bond lengths in Bohr (Angstrom)

 1-2  1.969159082  1-3  2.272607039
     ( 1.042034111)     ( 1.202611854)

 Bond angles

  2-1-3  108.38180410

 NUCLEAR CHARGE:                   16
 NUMBER OF PRIMITIVE AOS:         203
 NUMBER OF SYMMETRY AOS:          173
 NUMBER OF CONTRACTIONS:          171   ( 114A'  +  57A"  )
 NUMBER OF CORE ORBITALS:           2   (   2A'  +   0A"  )
 NUMBER OF VALENCE ORBITALS:        9   (   7A'  +   2A"  )


 NUCLEAR REPULSION ENERGY   30.51864505


 Eigenvalues of metric

         1 0.101E-02 0.244E-02 0.327E-02 0.626E-02 0.952E-02 0.136E-01 0.144E-01 0.225E-01
         2 0.351E-01 0.522E-01 0.688E-01 0.940E-01 0.131E+00 0.134E+00 0.139E+00 0.142E+00


 Contracted 2-electron integrals neglected if value below      1.0D-22

       46188070. INTEGRALS WRITTEN OUT IN   11280 BLOCKS ON RECORD 1290 OF FILE 1


 NUMBER OF SORTED TWO-ELECTRON INTEGRALS:   55360566.     BUFFER LENGTH:  32768
 NUMBER OF SEGMENTS:   4  SEGMENT LENGTH:   15997996      RECORD LENGTH: 524288

 Memory used in sort:      16.56 MW

 SORT1 READ    46188070. AND WROTE    46625972. INTEGRALS IN    135 RECORDS. CPU TIME:     1.34 SEC, REAL TIME:     1.64 SEC
 SORT2 READ    46625972. AND WROTE    55360566. INTEGRALS IN      4 RECORDS. CPU TIME:     0.80 SEC, REAL TIME:     1.03 SEC

 FILE SIZES:   FILE 1:   760.0 MBYTE,  FILE 4:   566.3 MBYTE,   TOTAL:   1326.2 MBYTE

 OPERATOR DM      FOR CENTER  0  COORDINATES:    0.000000    0.000000    0.000000


 **********************************************************************************************************************************
 DATASETS  * FILE   NREC   LENGTH (MB)   RECORD NAMES
              1      19      421.53       500      610      700      900      950      970     1000      129      960     1100   
                                          VAR    BASINP    GEOM    SYMINP    ZMAT    AOBASIS   BASIS     P2S    ABASIS      S 
                                         1400     1410     1200     1210     1080     1600     1650     1300     1700   
                                           T        V       H0       H01     AOSYM     SMH    MOLCAS    ERIS     OPER   

 PROGRAMS   *        TOTAL       INT
 CPU TIMES  *         5.77      5.68
 REAL TIME  *         7.43 SEC
 DISK USED  *         1.33 GB      
 **********************************************************************************************************************************


 PROGRAM * RHF-SCF (CLOSED SHELL)       Authors: W. Meyer, H.-J. Werner


 NUMBER OF ELECTRONS:       8+    8-
 CONVERGENCE THRESHOLDS:    1.00E-10 (Density)    1.00E-13 (Energy)
 MAX. NUMBER OF ITERATIONS:      500
 INTERPOLATION TYPE:            DIIS
 INTERPOLATION STEPS:              2 (START)      1 (STEP)
 LEVEL SHIFTS:                  0.00 (CLOSED)  0.00 (OPEN) 



 Orbital guess generated from atomic densities. Full valence occupancy:    9   2

 Molecular orbital dump at record        2100.2

 Initial occupancy:   7   1

 ITERATION    DDIFF          GRAD             ENERGY        2-EL.EN.            DIPOLE MOMENTS         DIIS   ORB.
    1      0.000D+00      0.000D+00      -129.79150568    154.335488    0.00000    0.57535   -0.99575    0    start
    2      0.000D+00      0.869D-02      -129.81857190    155.509353    0.00000    0.59523   -0.20388    1    diag
    3      0.364D-02      0.649D-02      -129.84001788    155.621057    0.00000    0.54828   -0.57768    2    diag
    4      0.138D-02      0.103D-02      -129.84078863    155.351723    0.00000    0.55647   -0.51617    3    diag
    5      0.331D-03      0.333D-03      -129.84090514    155.438558    0.00000    0.56237   -0.51864    4    diag
    6      0.152D-03      0.971D-04      -129.84092397    155.422678    0.00000    0.56297   -0.51465    5    diag
    7      0.602D-04      0.485D-04      -129.84092946    155.425214    0.00000    0.56428   -0.51221    6    diag
    8      0.408D-04      0.163D-04      -129.84093002    155.424421    0.00000    0.56434   -0.51134    7    diag
    9      0.137D-04      0.301D-05      -129.84093005    155.424316    0.00000    0.56429   -0.51117    8    diag
   10      0.275D-05      0.696D-06      -129.84093005    155.424303    0.00000    0.56425   -0.51114    9    orth
   11      0.850D-06      0.139D-06      -129.84093005    155.424299    0.00000    0.56425   -0.51114    9    diag
   12      0.201D-06      0.284D-07      -129.84093005    155.424299    0.00000    0.56424   -0.51114    9    diag
   13      0.483D-07      0.740D-08      -129.84093005    155.424298    0.00000    0.56424   -0.51114    9    diag
   14      0.109D-07      0.131D-08      -129.84093005    155.424298    0.00000    0.56424   -0.51114    9    diag
   15      0.144D-08      0.357D-09      -129.84093005    155.424298    0.00000    0.56424   -0.51114    9    diag
   16      0.318D-09      0.107D-09      -129.84093005    155.424298    0.00000    0.56424   -0.51114    9    diag
   17      0.773D-10      0.300D-10      -129.84093005    155.424298    0.00000    0.56424   -0.51114    9    diag
   18      0.248D-10      0.996D-11      -129.84093005    155.424298    0.00000    0.56424   -0.51114    9    diag
   19      0.988D-11      0.241D-11      -129.84093005    155.424298    0.00000    0.56424   -0.51114    9    fixocc
   20      0.242D-11      0.620D-12      -129.84093005    155.424298    0.00000    0.56424   -0.51114    9    orth
   21      0.339D-12      0.571D-12      -129.84093005    155.424298    0.00000    0.56424   -0.51114    9    diag
   22      0.105D-12      0.511D-12      -129.84093005    155.424298    0.00000    0.56424   -0.51114    0    orth

 Final occupancy:   7   1

 !RHF STATE 1.1 Energy               -129.840930048420
 Nuclear energy                        30.51864505
 One-electron energy                 -238.07172433
 Two-electron energy                   77.71214923
 Virial quotient                       -1.00135558
 !RHF STATE 1.1 Dipole moment           0.00000000     0.56424339    -0.51113517
 Dipole moment /Debye                   0.00000000     1.43406972    -1.29909091

 Orbital energies:

         1.1          2.1          3.1          4.1          5.1          6.1          7.1          8.1          9.1
    -20.650630   -15.708311    -1.532480    -0.994362    -0.747926    -0.665827    -0.427577     0.039828     0.193952

         1.2          2.2          3.2
     -0.596599     0.080899     0.239815

 HOMO      7.1    -0.427577 =     -11.6350eV
 LUMO      8.1     0.039828 =       1.0838eV
 LUMO-HOMO         0.467405 =      12.7187eV


 **********************************************************************************************************************************
 DATASETS  * FILE   NREC   LENGTH (MB)   RECORD NAMES
              1      19      421.53       500      610      700      900      950      970     1000      129      960     1100   
                                          VAR    BASINP    GEOM    SYMINP    ZMAT    AOBASIS   BASIS     P2S    ABASIS      S 
                                         1400     1410     1200     1210     1080     1600     1650     1300     1700   
                                           T        V       H0       H01     AOSYM     SMH    MOLCAS    ERIS     OPER   

              2       4        3.13       700     1000      520     2100   
                                         GEOM     BASIS   MCVARS     RHF  

 PROGRAMS   *        TOTAL        HF       INT
 CPU TIMES  *        12.08      6.31      5.68
 REAL TIME  *        15.49 SEC
 DISK USED  *         1.33 GB      
 **********************************************************************************************************************************


 PROGRAM * CCSD (Closed-shell coupled cluster)     Authors: C. Hampel, H.-J. Werner, 1991, M. Deegan, P.J. Knowles, 1992


 Convergence thresholds:  THRVAR = 1.00D-08  THRDEN = 1.00D-12

 CCSD(T)     terms to be evaluated (factor= 1.000)


 Number of closed-shell orbitals:   8 (   7   1 )
 Number of external orbitals:     163 ( 107  56 )

 Molecular orbitals read from record     2100.2  Type=RHF/CANONICAL (state 1.1)

 Number of N-1 electron functions:               8
 Number of N-2 electron functions:              36
 Number of singly external CSFs:               805
 Number of doubly external CSFs:            449165
 Total number of CSFs:                      449971

 Length of J-op  integral file:               0.00 MB
 Length of K-op  integral file:               1.15 MB
 Length of 3-ext integral record:             0.00 MB

 Memory could be reduced to 24.90 Mwords without degradation in triples

 Integral transformation finished. Total CPU:   1.12 sec, npass=  1  Memory used:   6.89 MW

 Reference energy:                   -129.84093005

 MP2 singlet pair energy:              -0.37818027
 MP2 triplet pair energy:              -0.18618282
 MP2 correlation energy:               -0.56436310
 MP2 total energy:                   -130.40529314

 SCS-MP2 correlation energy:           -0.56966342   (PS=  1.200000  PT=  0.333333)
 SCS-MP2 total energy:               -130.41059347

 ITER.      SQ.NORM     CORR.ENERGY   TOTAL ENERGY   ENERGY CHANGE        DEN1      VAR(S)    VAR(P)  DIIS     TIME  TIME/IT
   1      1.11886841    -0.56931243  -130.41024248    -0.00494934     0.01243191  0.33D-02  0.30D-02  1  1     2.33     1.28
   2      1.12953778    -0.56906757  -130.40999762     0.00024487    -0.01350595  0.87D-04  0.49D-03  2  2     3.57     1.32
   3      1.13465526    -0.56938163  -130.41031168    -0.00031407    -0.00232083  0.52D-04  0.66D-04  3  3     4.84     1.34
   4      1.13799629    -0.56937406  -130.41030410     0.00000758    -0.00135757  0.42D-05  0.94D-05  4  4     6.07     1.34
   5      1.13900128    -0.56939751  -130.41032756    -0.00002345    -0.00023535  0.15D-05  0.18D-05  5  5     7.33     1.35
   6      1.13939373    -0.56939189  -130.41032194     0.00000562    -0.00003752  0.13D-06  0.42D-06  6  6     8.57     1.35
   7      1.13947593    -0.56939225  -130.41032229    -0.00000035     0.00000029  0.18D-07  0.94D-07  6  1     9.82     1.36
   8      1.13950922    -0.56939063  -130.41032068     0.00000162    -0.00000459  0.42D-08  0.13D-07  6  2    11.08     1.36
   9      1.13951378    -0.56939075  -130.41032080    -0.00000012     0.00000103  0.17D-08  0.17D-08  6  3    12.36     1.36
  10      1.13951526    -0.56939105  -130.41032110    -0.00000030    -0.00000057  0.40D-09  0.23D-09  6  4    13.64     1.36
  11      1.13951429    -0.56939119  -130.41032124    -0.00000013     0.00000033  0.95D-10  0.24D-10  6  5    14.90     1.36
  12      1.13951344    -0.56939132  -130.41032136    -0.00000013     0.00000033  0.96D-11  0.60D-11  6  6    16.15     1.36
  13      1.13951295    -0.56939132  -130.41032137    -0.00000001     0.00000010  0.40D-11  0.11D-11  6  1    17.41     1.37
  14      1.13951254    -0.56939135  -130.41032140    -0.00000002     0.00000010  0.43D-12  0.36D-12  6  3    18.68     1.37
  15      1.13951238    -0.56939135  -130.41032140    -0.00000000     0.00000002  0.10D-12  0.25D-13  6  2    19.95     1.37
  16      1.13951233    -0.56939135  -130.41032140    -0.00000000     0.00000001  0.23D-13  0.55D-14  6  4    21.21     1.37
  17      1.13951231    -0.56939135  -130.41032140    -0.00000000     0.00000001  0.39D-14  0.10D-14  6  5    22.48     1.37
  18      1.13951231    -0.56939135  -130.41032140    -0.00000000     0.00000000  0.40D-15  0.26D-15  6  6    23.74     1.37
  19      1.13951231    -0.56939135  -130.41032140     0.00000000    -0.00000000  0.47D-16  0.34D-16  6  1    24.98     1.37
  20      1.13951232    -0.56939135  -130.41032140     0.00000000    -0.00000000  0.19D-17  0.71D-17  6  3    26.25     1.37
  21      1.13951232    -0.56939135  -130.41032140     0.00000000    -0.00000000  0.10D-17  0.17D-17  6  2    27.54     1.37
  22      1.13951232    -0.56939135  -130.41032140     0.00000000    -0.00000000  0.20D-18  0.61D-18  6  4    28.81     1.37
  23      1.13951232    -0.56939135  -130.41032140    -0.00000000     0.00000000  0.11D-18  0.91D-19  6  5    30.07     1.37
  24      1.13951232    -0.56939135  -130.41032140     0.00000000    -0.00000000  0.46D-20  0.12D-19  6  1    31.36     1.37
  25      1.13951232    -0.56939135  -130.41032140     0.00000000     0.00000000  0.27D-21  0.12D-20  6  6    32.66     1.37
  26      1.13951232    -0.56939135  -130.41032140    -0.00000000     0.00000000  0.99D-22  0.28D-21  6  3    33.92     1.37

 Norm of t1 vector:      0.07644646      S-energy:     0.00000000      T1 diagnostic:  0.01351395
                                                                       D1 diagnostic:  0.04337255

 Doubles amplitudes (print threshold =  0.500E-01):

         I         J         SYM. A    SYM. B    A         B      T(IJ, AB)

         8         8         2         2         1         1     -0.13305631


 Total CPU time for triples:     20.87 sec


 RESULTS
 =======

  Reference energy                   -129.840930048420

  Correlated core orbitals:             1.1       2.1
  Orbital energies:                   -20.6506  -15.7083
 
  CCSD core-core energy                -0.079228411679
  CCSD core-valence energy             -0.036131321787
  CCSD valence correlation energy      -0.454031619951
 
  CCSD singlet pair energy             -0.407019588909
  CCSD triplet pair energy             -0.162371764509
  CCSD correlation energy              -0.569391353417

  Triples (T) contribution             -0.022051039933
  Total correlation energy             -0.591442393350

  CCSD total energy                  -130.410321401837
  CCSD[T] energy                     -130.433510166561
  CCSD-T energy                      -130.431942317850
 !CCSD(T) total energy               -130.432372441770

 Timing summary (sec):

 STEP                 CPU(USER)    SYS     CPU(TOT)    WALL
 Transformation          1.14      0.17      1.31      1.31
 CCSD iterations        32.80      2.96     35.76     35.76
 Triples                20.87      0.57     21.44     21.45

 Program statistics:

 Available memory in ccsd:               994999644
 Min. memory needed in ccsd:               1368037
 Max. memory used in ccsd:                 1750502
 Max. memory used in cckext:               2014357 (26 integral passes)



 **********************************************************************************************************************************
 DATASETS  * FILE   NREC   LENGTH (MB)   RECORD NAMES
              1      20      500.45       500      610      700      900      950      970     1000      129      960     1100   
                                          VAR    BASINP    GEOM    SYMINP    ZMAT    AOBASIS   BASIS     P2S    ABASIS      S 
                                         1400     1410     1200     1210     1080     1600     1650     1300     1700     1380   
                                           T        V       H0       H01     AOSYM     SMH    MOLCAS    ERIS     OPER     JKOP   

              2       4        3.13       700     1000      520     2100   
                                         GEOM     BASIS   MCVARS     RHF  

 PROGRAMS   *        TOTAL   CCSD(T)        HF       INT
 CPU TIMES  *        66.91     54.83      6.31      5.68
 REAL TIME  *        74.04 SEC
 DISK USED  *         1.33 GB      
 **********************************************************************************************************************************

 CCSD(T)/USERDEF energy=   -130.432372441770

        CCSD(T)         HF-SCF  
   -130.43237244   -129.84093005
 **********************************************************************************************************************************
 Molpro calculation terminated
 Variable memory released
