
 Primary working directories    : /tmp/r2666/235527.maple
 Secondary working directories  : /tmp/r2666/235527.maple
 Wavefunction directory         : /ddn/home4/r2666/wfu/
 Main file repository           : /tmp/r2666/235527.maple/

 SHA1      : d5ffa45e93fdbca01ffc919aa182cfdae0147319
 NAME      : 2015.1.35
 ARCHNAME  : linux/x86_64
 FC        : /opt/intel/composer_xe_2015.1.133/bin/intel64/ifort
 BLASLIB   : -Wl,-_start-group /opt/intel/mkl/lib/intel64/libmkl_intel_ilp64.a /opt/intel/mkl/lib/intel64/libmkl_intel_thread.a /opt/intel/mkl/lib/intel64/libmkl_core.a -Wl,-_end-group
 id        : olemiss

 Nodes     nprocs
 cn096        1

 Using customized tuning parameters: mindgm=1; mindgv=20; mindgc=4; mindgr=1; noblas=0; minvec=7
 default implementation of scratch files=df  

 ***,hno CCSD(T)/TZ-F12 QFF
 memory, 995, m;
 gthresh,energy=1.d-12,zero=1.d-22,oneint=1.d-22,twoint=1.d-22;
 gthresh,optgrad=1.d-8,optstep=1.d-8;
 nocompress;
 geomtyp=xyz
 bohr
 geometry={
 3
        124       124
 N        0.0000000000       -0.1783373767       -1.1398958683
 H        0.0000000000        1.6784812029       -1.9260909606
 O        0.0000000000        0.0416239638        1.1153972379
 }
 
 basis={
 default=aug-cc-pvtz
 s,C,8236.0,1235.0,280.8, 79.27,25.59, 8.997,3.319
 s,C,0.9059,0.3643,0.1285000
 p,C,56.0,18.71,4.133,0.2827,0.3827,0.1209
 d,C,30.0,10.0,3.3,1.097,0.318
 f,C,7.0,2.3,0.7610
 s,N,11420.0,1712.0,389.3,110.0,35.57,12.54,4.644
 s,N,1.293,0.5118,0.1787
 p,N,79.89,26.63,5.948,1.742,0.555,0.1725
 d,N,45.0,15.0,5.0,1.654,0.469
 f,N,9.9,3.3,1.093
 s,O,15330.0,2299.0,522.4,147.3,47.55,16.76,6.207
 s,O,1.752,0.6882,0.2384
 p,O,103.5,34.46,7.749,2.28,0.7156,0.214
 d,O,63.0,21.0,7.0,2.314,0.645
 f,O,12.9,4.3,1.428
 s,mg,164900.0,24710.0,5628.0,1596.0,521.0;
 s,mg,188.0,73.01,29.90,12.54,4.306,1.826;
 s,mg,0.7417,0.0761,0.145,0.033,0.0129;
 p,mg,950.70,316.90,74.86,23.72,8.669,3.363;
 p,mg,1.310,0.4911,0.2364,0.08733,0.03237,0.00745;
 d,mg,1.601,0.686,0.126,0.294,0.0468;
 f,mg,1.372,0.588,0.094,0.252;
 }
   {hf,maxit=500;accu,20;}
 {ccsd(t),nocheck,maxit=250;orbital,IGNORE_ERROR;core}

 Variables initialized (889), CPU time= 0.00 sec
 Commands  initialized (702), CPU time= 0.01 sec, 572 directives.
 Default parameters read. Elapsed time= 0.05 sec

 Checking input...
 Passed
1


                                         ***  PROGRAM SYSTEM MOLPRO  ***
                                       Copyright, TTI GmbH Stuttgart, 2015
                                    Version 2015.1 linked Jul  9 2018 13:16:40


 **********************************************************************************************************************************
 LABEL *   hno CCSD(T)/TZ-F12 QFF                                                        
  64 bit serial version                                                                  DATE: 08-Feb-20          TIME: 18:00:54  
 **********************************************************************************************************************************

 SHA1:             d5ffa45e93fdbca01ffc919aa182cfdae0147319
 **********************************************************************************************************************************

 THRESHOLDS:

 ZERO    =  1.00D-22  ONEINT  =  1.00D-22  TWOINT  =  1.00D-22  PREFAC  =  1.00D-14  LOCALI  =  1.00D-09  EORDER  =  1.00D-04
 ENERGY  =  1.00D-12  ETEST   =  0.00D+00  EDENS   =  0.00D+00  THRDEDEF=  1.00D-06  GRADIENT=  1.00D-02  STEP    =  1.00D-03
 ORBITAL =  1.00D-05  CIVEC   =  1.00D-05  COEFF   =  1.00D-04  PRINTCI =  5.00D-02  PUNCHCI =  9.90D+01  OPTGRAD =  3.00D-04
 OPTENERG=  1.00D-06  OPTSTEP =  3.00D-04  THRGRAD =  1.00D-10  COMPRESS=  1.00D-11  VARMIN  =  1.00D-07  VARMAX  =  1.00D-03
 THRDOUB =  0.00D+00  THRDIV  =  1.00D-05  THRRED  =  1.00D-07  THRPSP  =  1.00D+00  THRDC   =  1.00D-10  THRCS   =  1.00D-10
 THRNRM  =  1.00D-08  THREQ   =  0.00D+00  THRDE   =  1.00D+00  THRREF  =  1.00D-05  SPARFAC =  1.00D+00  THRDLP  =  1.00D-07
 THRDIA  =  1.00D-10  THRDLS  =  1.00D-07  THRGPS  =  0.00D+00  THRKEX  =  0.00D+00  THRDIS  =  2.00D-01  THRVAR  =  1.00D-10
 THRLOC  =  1.00D-06  THRGAP  =  1.00D-06  THRLOCT = -1.00D+00  THRGAPT = -1.00D+00  THRORB  =  1.00D-06  THRMLTP =  0.00D+00
 THRCPQCI=  1.00D-10  KEXTA   =  0.00D+00  THRCOARS=  0.00D+00  SYMTOL  =  1.00D-06  GRADTOL =  1.00D-06  THROVL  =  1.00D-08
 THRORTH =  1.00D-08  GRID    =  1.00D-06  GRIDMAX =  1.00D-03  DTMAX   =  0.00D+00  THROCCDE=  1.00D-01  THROCCDE=  1.00D-01



 THRESHOLDS:

 ZERO    =  1.00D-22  ONEINT  =  1.00D-22  TWOINT  =  1.00D-22  PREFAC  =  1.00D-14  LOCALI  =  1.00D-09  EORDER  =  1.00D-04
 ENERGY  =  1.00D-12  ETEST   =  0.00D+00  EDENS   =  0.00D+00  THRDEDEF=  1.00D-06  GRADIENT=  1.00D-02  STEP    =  1.00D-03
 ORBITAL =  1.00D-05  CIVEC   =  1.00D-05  COEFF   =  1.00D-04  PRINTCI =  5.00D-02  PUNCHCI =  9.90D+01  OPTGRAD =  1.00D-08
 OPTENERG=  1.00D-06  OPTSTEP =  1.00D-08  THRGRAD =  1.00D-10  COMPRESS=  1.00D-11  VARMIN  =  1.00D-07  VARMAX  =  1.00D-03
 THRDOUB =  0.00D+00  THRDIV  =  1.00D-05  THRRED  =  1.00D-07  THRPSP  =  1.00D+00  THRDC   =  1.00D-10  THRCS   =  1.00D-10
 THRNRM  =  1.00D-08  THREQ   =  0.00D+00  THRDE   =  1.00D+00  THRREF  =  1.00D-05  SPARFAC =  1.00D+00  THRDLP  =  1.00D-07
 THRDIA  =  1.00D-10  THRDLS  =  1.00D-07  THRGPS  =  0.00D+00  THRKEX  =  0.00D+00  THRDIS  =  2.00D-01  THRVAR  =  1.00D-10
 THRLOC  =  1.00D-06  THRGAP  =  1.00D-06  THRLOCT = -1.00D+00  THRGAPT = -1.00D+00  THRORB  =  1.00D-06  THRMLTP =  0.00D+00
 THRCPQCI=  1.00D-10  KEXTA   =  0.00D+00  THRCOARS=  0.00D+00  SYMTOL  =  1.00D-06  GRADTOL =  1.00D-06  THROVL  =  1.00D-08
 THRORTH =  1.00D-08  GRID    =  1.00D-06  GRIDMAX =  1.00D-03  DTMAX   =  0.00D+00  THROCCDE=  1.00D-01  THROCCDE=  1.00D-01



 Input parameters for SORTINT:

 COMPRESS =    0.000000
 C_FINAL  =    1.000000
 DEBUG    =   -1.000000
 C_SORT1  =    0.000000
 C_SEWARD =    0.000000
 THRESH   =    0.000000
 IO       =  molpro                                                          
 SPRI     =    0.000000
 SETTING GEOMTYP        =    XYZ
 ZUNIT=BOHR
 

 Variable memory set to  995000000 words,  buffer space   230000 words

 SETTING BASIS          =    USERDEF


 Recomputing integrals since basis changed


 Using spherical harmonics

 Library entry H      S aug-cc-pVTZ          selected for orbital group  2
 Library entry H      P aug-cc-pVTZ          selected for orbital group  2
 Library entry H      D aug-cc-pVTZ          selected for orbital group  2


 PROGRAM * SEWARD (Integral evaluation for generally contracted gaussian basis sets)     Author: Roland Lindh, 1990

 Geometry written to block  1 of record 700


 Point group  Cs  



 ATOMIC COORDINATES

 NR  ATOM    CHARGE       X              Y              Z

   1  N       7.00    0.000000000   -0.178337377   -1.139895868
   2  H       1.00    0.000000000    1.678481203   -1.926090961
   3  O       8.00    0.000000000    0.041623964    1.115397238

 Bond lengths in Bohr (Angstrom)

 1-2  2.016402232  1-3  2.265994260
     ( 1.067034109)     ( 1.199112522)

 Bond angles

  2-1-3  107.37776771

 NUCLEAR CHARGE:                   16
 NUMBER OF PRIMITIVE AOS:         203
 NUMBER OF SYMMETRY AOS:          173
 NUMBER OF CONTRACTIONS:          171   ( 114A'  +  57A"  )
 NUMBER OF CORE ORBITALS:           2   (   2A'  +   0A"  )
 NUMBER OF VALENCE ORBITALS:        9   (   7A'  +   2A"  )


 NUCLEAR REPULSION ENERGY   30.50091421


 Eigenvalues of metric

         1 0.106E-02 0.243E-02 0.335E-02 0.641E-02 0.104E-01 0.138E-01 0.144E-01 0.235E-01
         2 0.382E-01 0.520E-01 0.708E-01 0.940E-01 0.131E+00 0.134E+00 0.141E+00 0.142E+00


 Contracted 2-electron integrals neglected if value below      1.0D-22

       46214860. INTEGRALS WRITTEN OUT IN   11286 BLOCKS ON RECORD 1290 OF FILE 1


 NUMBER OF SORTED TWO-ELECTRON INTEGRALS:   55360566.     BUFFER LENGTH:  32768
 NUMBER OF SEGMENTS:   4  SEGMENT LENGTH:   15997996      RECORD LENGTH: 524288

 Memory used in sort:      16.56 MW

 SORT1 READ    46214860. AND WROTE    46653084. INTEGRALS IN    135 RECORDS. CPU TIME:     0.89 SEC, REAL TIME:     1.21 SEC
 SORT2 READ    46653084. AND WROTE    55360566. INTEGRALS IN      4 RECORDS. CPU TIME:     0.69 SEC, REAL TIME:     0.95 SEC

 FILE SIZES:   FILE 1:   760.4 MBYTE,  FILE 4:   566.3 MBYTE,   TOTAL:   1326.6 MBYTE

 OPERATOR DM      FOR CENTER  0  COORDINATES:    0.000000    0.000000    0.000000


 **********************************************************************************************************************************
 DATASETS  * FILE   NREC   LENGTH (MB)   RECORD NAMES
              1      19      421.72       500      610      700      900      950      970     1000      129      960     1100   
                                          VAR    BASINP    GEOM    SYMINP    ZMAT    AOBASIS   BASIS     P2S    ABASIS      S 
                                         1400     1410     1200     1210     1080     1600     1650     1300     1700   
                                           T        V       H0       H01     AOSYM     SMH    MOLCAS    ERIS     OPER   

 PROGRAMS   *        TOTAL       INT
 CPU TIMES  *         4.94      4.86
 REAL TIME  *         6.59 SEC
 DISK USED  *         1.33 GB      
 **********************************************************************************************************************************


 PROGRAM * RHF-SCF (CLOSED SHELL)       Authors: W. Meyer, H.-J. Werner


 NUMBER OF ELECTRONS:       8+    8-
 CONVERGENCE THRESHOLDS:    1.00E-10 (Density)    1.00E-13 (Energy)
 MAX. NUMBER OF ITERATIONS:      500
 INTERPOLATION TYPE:            DIIS
 INTERPOLATION STEPS:              2 (START)      1 (STEP)
 LEVEL SHIFTS:                  0.00 (CLOSED)  0.00 (OPEN) 



 Orbital guess generated from atomic densities. Full valence occupancy:    9   2

 Molecular orbital dump at record        2100.2

 Initial occupancy:   7   1

 ITERATION    DDIFF          GRAD             ENERGY        2-EL.EN.            DIPOLE MOMENTS         DIIS   ORB.
    1      0.000D+00      0.000D+00      -129.79023163    154.286530    0.00000    0.54791   -0.98419    0    start
    2      0.000D+00      0.876D-02      -129.81740040    155.492819    0.00000    0.59016   -0.19059    1    diag
    3      0.357D-02      0.658D-02      -129.83944520    155.590687    0.00000    0.53306   -0.56524    2    diag
    4      0.140D-02      0.102D-02      -129.84021104    155.320946    0.00000    0.54168   -0.50467    3    diag
    5      0.324D-03      0.335D-03      -129.84033122    155.409223    0.00000    0.54785   -0.50729    4    diag
    6      0.152D-03      0.993D-04      -129.84035099    155.393033    0.00000    0.54845   -0.50328    5    diag
    7      0.608D-04      0.492D-04      -129.84035665    155.395751    0.00000    0.54985   -0.50089    6    diag
    8      0.409D-04      0.164D-04      -129.84035721    155.394948    0.00000    0.54991   -0.50004    7    diag
    9      0.136D-04      0.305D-05      -129.84035724    155.394838    0.00000    0.54987   -0.49987    8    diag
   10      0.271D-05      0.704D-06      -129.84035724    155.394823    0.00000    0.54983   -0.49984    9    orth
   11      0.824D-06      0.143D-06      -129.84035724    155.394819    0.00000    0.54982   -0.49984    9    diag
   12      0.201D-06      0.295D-07      -129.84035724    155.394818    0.00000    0.54982   -0.49984    9    diag
   13      0.504D-07      0.778D-08      -129.84035724    155.394817    0.00000    0.54982   -0.49983    9    diag
   14      0.117D-07      0.142D-08      -129.84035724    155.394817    0.00000    0.54982   -0.49983    9    diag
   15      0.161D-08      0.399D-09      -129.84035724    155.394817    0.00000    0.54982   -0.49983    9    diag
   16      0.355D-09      0.125D-09      -129.84035724    155.394817    0.00000    0.54982   -0.49983    9    diag
   17      0.986D-10      0.376D-10      -129.84035724    155.394817    0.00000    0.54982   -0.49983    9    diag
   18      0.330D-10      0.120D-10      -129.84035724    155.394817    0.00000    0.54982   -0.49983    9    diag
   19      0.117D-10      0.295D-11      -129.84035724    155.394817    0.00000    0.54982   -0.49983    0    orth

 Final occupancy:   7   1

 !RHF STATE 1.1 Energy               -129.840357238614
 Nuclear energy                        30.50091421
 One-electron energy                 -238.03868007
 Two-electron energy                   77.69740862
 Virial quotient                       -1.00151294
 !RHF STATE 1.1 Dipole moment           0.00000000     0.54981857    -0.49983477
 Dipole moment /Debye                   0.00000000     1.39740789    -1.27037005

 Orbital energies:

         1.1          2.1          3.1          4.1          5.1          6.1          7.1          8.1          9.1
    -20.650610   -15.711324    -1.535682    -0.986724    -0.746391    -0.666682    -0.425673     0.039848     0.191920

         1.2          2.2          3.2
     -0.598845     0.082398     0.239617

 HOMO      7.1    -0.425673 =     -11.5832eV
 LUMO      8.1     0.039848 =       1.0843eV
 LUMO-HOMO         0.465521 =      12.6675eV


 **********************************************************************************************************************************
 DATASETS  * FILE   NREC   LENGTH (MB)   RECORD NAMES
              1      19      421.72       500      610      700      900      950      970     1000      129      960     1100   
                                          VAR    BASINP    GEOM    SYMINP    ZMAT    AOBASIS   BASIS     P2S    ABASIS      S 
                                         1400     1410     1200     1210     1080     1600     1650     1300     1700   
                                           T        V       H0       H01     AOSYM     SMH    MOLCAS    ERIS     OPER   

              2       4        3.13       700     1000      520     2100   
                                         GEOM     BASIS   MCVARS     RHF  

 PROGRAMS   *        TOTAL        HF       INT
 CPU TIMES  *        11.03      6.08      4.86
 REAL TIME  *        14.20 SEC
 DISK USED  *         1.33 GB      
 **********************************************************************************************************************************


 PROGRAM * CCSD (Closed-shell coupled cluster)     Authors: C. Hampel, H.-J. Werner, 1991, M. Deegan, P.J. Knowles, 1992


 Convergence thresholds:  THRVAR = 1.00D-08  THRDEN = 1.00D-12

 CCSD(T)     terms to be evaluated (factor= 1.000)


 Number of closed-shell orbitals:   8 (   7   1 )
 Number of external orbitals:     163 ( 107  56 )

 Molecular orbitals read from record     2100.2  Type=RHF/CANONICAL (state 1.1)

 Number of N-1 electron functions:               8
 Number of N-2 electron functions:              36
 Number of singly external CSFs:               805
 Number of doubly external CSFs:            449165
 Total number of CSFs:                      449971

 Length of J-op  integral file:               0.00 MB
 Length of K-op  integral file:               1.15 MB
 Length of 3-ext integral record:             0.00 MB

 Memory could be reduced to 24.90 Mwords without degradation in triples

 Integral transformation finished. Total CPU:   1.13 sec, npass=  1  Memory used:   6.89 MW

 Reference energy:                   -129.84035724

 MP2 singlet pair energy:              -0.37839898
 MP2 triplet pair energy:              -0.18626054
 MP2 correlation energy:               -0.56465952
 MP2 total energy:                   -130.40501676

 SCS-MP2 correlation energy:           -0.56997423   (PS=  1.200000  PT=  0.333333)
 SCS-MP2 total energy:               -130.41033146

 ITER.      SQ.NORM     CORR.ENERGY   TOTAL ENERGY   ENERGY CHANGE        DEN1      VAR(S)    VAR(P)  DIIS     TIME  TIME/IT
   1      1.11932549    -0.56967714  -130.41003437    -0.00501761     0.01242186  0.33D-02  0.30D-02  1  1     2.32     1.30
   2      1.13005932    -0.56944979  -130.40980703     0.00022735    -0.01354860  0.87D-04  0.49D-03  2  2     3.59     1.35
   3      1.13523396    -0.56977303  -130.41013027    -0.00032324    -0.00234785  0.54D-04  0.66D-04  3  3     4.85     1.36
   4      1.13858499    -0.56976324  -130.41012048     0.00000979    -0.00136679  0.44D-05  0.93D-05  4  4     6.10     1.37
   5      1.13959569    -0.56978723  -130.41014447    -0.00002399    -0.00023848  0.16D-05  0.18D-05  5  5     7.31     1.37
   6      1.13999077    -0.56978170  -130.41013894     0.00000553    -0.00003793  0.15D-06  0.39D-06  6  6     8.55     1.37
   7      1.14007523    -0.56978174  -130.41013898    -0.00000004     0.00000002  0.24D-07  0.87D-07  6  1     9.80     1.38
   8      1.14010961    -0.56978008  -130.41013732     0.00000166    -0.00000470  0.41D-08  0.13D-07  6  2    11.04     1.38
   9      1.14011474    -0.56978013  -130.41013736    -0.00000005     0.00000096  0.16D-08  0.16D-08  6  3    12.29     1.38
  10      1.14011644    -0.56978042  -130.41013766    -0.00000030    -0.00000059  0.36D-09  0.22D-09  6  4    13.56     1.38
  11      1.14011552    -0.56978055  -130.41013779    -0.00000013     0.00000033  0.90D-10  0.23D-10  6  5    14.81     1.38
  12      1.14011464    -0.56978068  -130.41013792    -0.00000013     0.00000034  0.94D-11  0.59D-11  6  6    16.06     1.38
  13      1.14011414    -0.56978069  -130.41013793    -0.00000001     0.00000011  0.41D-11  0.10D-11  6  1    17.31     1.38
  14      1.14011372    -0.56978071  -130.41013795    -0.00000002     0.00000010  0.43D-12  0.35D-12  6  3    18.58     1.38
  15      1.14011357    -0.56978071  -130.41013795    -0.00000000     0.00000002  0.11D-12  0.23D-13  6  2    19.82     1.38
  16      1.14011352    -0.56978072  -130.41013796    -0.00000000     0.00000001  0.25D-13  0.54D-14  6  4    21.05     1.38
  17      1.14011350    -0.56978072  -130.41013796    -0.00000000     0.00000001  0.40D-14  0.10D-14  6  5    22.29     1.38
  18      1.14011350    -0.56978072  -130.41013796    -0.00000000     0.00000000  0.38D-15  0.26D-15  6  6    23.54     1.38
  19      1.14011350    -0.56978072  -130.41013796     0.00000000    -0.00000000  0.45D-16  0.32D-16  6  1    24.80     1.38
  20      1.14011350    -0.56978072  -130.41013796     0.00000000    -0.00000000  0.19D-17  0.64D-17  6  3    26.03     1.38
  21      1.14011350    -0.56978072  -130.41013796     0.00000000    -0.00000000  0.91D-18  0.15D-17  6  2    27.28     1.39
  22      1.14011350    -0.56978072  -130.41013796     0.00000000    -0.00000000  0.13D-18  0.54D-18  6  4    28.55     1.39
  23      1.14011350    -0.56978072  -130.41013796    -0.00000000     0.00000000  0.85D-19  0.84D-19  6  5    29.76     1.39
  24      1.14011350    -0.56978072  -130.41013796     0.00000000    -0.00000000  0.48D-20  0.11D-19  6  1    31.02     1.39
  25      1.14011350    -0.56978072  -130.41013796     0.00000000     0.00000000  0.23D-21  0.12D-20  6  6    32.23     1.39
  26      1.14011350    -0.56978072  -130.41013796    -0.00000000     0.00000000  0.11D-21  0.26D-21  6  3    33.50     1.39

 Norm of t1 vector:      0.07681156      S-energy:     0.00000000      T1 diagnostic:  0.01357849
                                                                       D1 diagnostic:  0.04290498

 Doubles amplitudes (print threshold =  0.500E-01):

         I         J         SYM. A    SYM. B    A         B      T(IJ, AB)

         8         8         2         2         1         1     -0.13194262


 Total CPU time for triples:     20.50 sec


 RESULTS
 =======

  Reference energy                   -129.840357238614

  Correlated core orbitals:             1.1       2.1
  Orbital energies:                   -20.6506  -15.7113
 
  CCSD core-core energy                -0.079228355175
  CCSD core-valence energy             -0.036102793470
  CCSD valence correlation energy      -0.454449569019
 
  CCSD singlet pair energy             -0.407365155256
  CCSD triplet pair energy             -0.162415562411
  CCSD correlation energy              -0.569780717665

  Triples (T) contribution             -0.022106561701
  Total correlation energy             -0.591887279365

  CCSD total energy                  -130.410137956279
  CCSD[T] energy                     -130.433388735683
  CCSD-T energy                      -130.431809690795
 !CCSD(T) total energy               -130.432244517980

 Timing summary (sec):

 STEP                 CPU(USER)    SYS     CPU(TOT)    WALL
 Transformation          1.14      0.24      1.38      1.38
 CCSD iterations        32.37      3.67     36.04     36.06
 Triples                20.50      0.59     21.09     21.10

 Program statistics:

 Available memory in ccsd:               994999644
 Min. memory needed in ccsd:               1368037
 Max. memory used in ccsd:                 1750502
 Max. memory used in cckext:               2014357 (26 integral passes)



 **********************************************************************************************************************************
 DATASETS  * FILE   NREC   LENGTH (MB)   RECORD NAMES
              1      20      500.63       500      610      700      900      950      970     1000      129      960     1100   
                                          VAR    BASINP    GEOM    SYMINP    ZMAT    AOBASIS   BASIS     P2S    ABASIS      S 
                                         1400     1410     1200     1210     1080     1600     1650     1300     1700     1380   
                                           T        V       H0       H01     AOSYM     SMH    MOLCAS    ERIS     OPER     JKOP   

              2       4        3.13       700     1000      520     2100   
                                         GEOM     BASIS   MCVARS     RHF  

 PROGRAMS   *        TOTAL   CCSD(T)        HF       INT
 CPU TIMES  *        65.07     54.03      6.08      4.86
 REAL TIME  *        72.82 SEC
 DISK USED  *         1.33 GB      
 **********************************************************************************************************************************

 CCSD(T)/USERDEF energy=   -130.432244517980

        CCSD(T)         HF-SCF  
   -130.43224452   -129.84035724
 **********************************************************************************************************************************
 Molpro calculation terminated
 Variable memory released
