
 Primary working directories    : /tmp/r2666/235525.maple
 Secondary working directories  : /tmp/r2666/235525.maple
 Wavefunction directory         : /ddn/home4/r2666/wfu/
 Main file repository           : /tmp/r2666/235525.maple/

 SHA1      : d5ffa45e93fdbca01ffc919aa182cfdae0147319
 NAME      : 2015.1.35
 ARCHNAME  : linux/x86_64
 FC        : /opt/intel/composer_xe_2015.1.133/bin/intel64/ifort
 BLASLIB   : -Wl,-_start-group /opt/intel/mkl/lib/intel64/libmkl_intel_ilp64.a /opt/intel/mkl/lib/intel64/libmkl_intel_thread.a /opt/intel/mkl/lib/intel64/libmkl_core.a -Wl,-_end-group
 id        : olemiss

 Nodes     nprocs
 cn095        1

 Using customized tuning parameters: mindgm=1; mindgv=20; mindgc=4; mindgr=1; noblas=0; minvec=7
 default implementation of scratch files=df  

 ***,hno CCSD(T)/TZ-F12 QFF
 memory, 995, m;
 gthresh,energy=1.d-12,zero=1.d-22,oneint=1.d-22,twoint=1.d-22;
 gthresh,optgrad=1.d-8,optstep=1.d-8;
 nocompress;
 geomtyp=xyz
 bohr
 geometry={
 3
        122       122
 N        0.0000000000       -0.1734992522       -1.1522158932
 H        0.0000000000        1.6764184863       -1.9304620762
 O        0.0000000000        0.0388485559        1.1320883784
 }
 
 basis={
 default=aug-cc-pvtz
 s,C,8236.0,1235.0,280.8, 79.27,25.59, 8.997,3.319
 s,C,0.9059,0.3643,0.1285000
 p,C,56.0,18.71,4.133,0.2827,0.3827,0.1209
 d,C,30.0,10.0,3.3,1.097,0.318
 f,C,7.0,2.3,0.7610
 s,N,11420.0,1712.0,389.3,110.0,35.57,12.54,4.644
 s,N,1.293,0.5118,0.1787
 p,N,79.89,26.63,5.948,1.742,0.555,0.1725
 d,N,45.0,15.0,5.0,1.654,0.469
 f,N,9.9,3.3,1.093
 s,O,15330.0,2299.0,522.4,147.3,47.55,16.76,6.207
 s,O,1.752,0.6882,0.2384
 p,O,103.5,34.46,7.749,2.28,0.7156,0.214
 d,O,63.0,21.0,7.0,2.314,0.645
 f,O,12.9,4.3,1.428
 s,mg,164900.0,24710.0,5628.0,1596.0,521.0;
 s,mg,188.0,73.01,29.90,12.54,4.306,1.826;
 s,mg,0.7417,0.0761,0.145,0.033,0.0129;
 p,mg,950.70,316.90,74.86,23.72,8.669,3.363;
 p,mg,1.310,0.4911,0.2364,0.08733,0.03237,0.00745;
 d,mg,1.601,0.686,0.126,0.294,0.0468;
 f,mg,1.372,0.588,0.094,0.252;
 }
   {hf,maxit=500;accu,20;}
 {ccsd(t),nocheck,maxit=250;orbital,IGNORE_ERROR;core}

 Variables initialized (889), CPU time= 0.01 sec
 Commands  initialized (702), CPU time= 0.01 sec, 572 directives.
 Default parameters read. Elapsed time= 0.05 sec

 Checking input...
 Passed
1


                                         ***  PROGRAM SYSTEM MOLPRO  ***
                                       Copyright, TTI GmbH Stuttgart, 2015
                                    Version 2015.1 linked Jul  9 2018 13:16:40


 **********************************************************************************************************************************
 LABEL *   hno CCSD(T)/TZ-F12 QFF                                                        
  64 bit serial version                                                                  DATE: 08-Feb-20          TIME: 18:00:54  
 **********************************************************************************************************************************

 SHA1:             d5ffa45e93fdbca01ffc919aa182cfdae0147319
 **********************************************************************************************************************************

 THRESHOLDS:

 ZERO    =  1.00D-22  ONEINT  =  1.00D-22  TWOINT  =  1.00D-22  PREFAC  =  1.00D-14  LOCALI  =  1.00D-09  EORDER  =  1.00D-04
 ENERGY  =  1.00D-12  ETEST   =  0.00D+00  EDENS   =  0.00D+00  THRDEDEF=  1.00D-06  GRADIENT=  1.00D-02  STEP    =  1.00D-03
 ORBITAL =  1.00D-05  CIVEC   =  1.00D-05  COEFF   =  1.00D-04  PRINTCI =  5.00D-02  PUNCHCI =  9.90D+01  OPTGRAD =  3.00D-04
 OPTENERG=  1.00D-06  OPTSTEP =  3.00D-04  THRGRAD =  1.00D-10  COMPRESS=  1.00D-11  VARMIN  =  1.00D-07  VARMAX  =  1.00D-03
 THRDOUB =  0.00D+00  THRDIV  =  1.00D-05  THRRED  =  1.00D-07  THRPSP  =  1.00D+00  THRDC   =  1.00D-10  THRCS   =  1.00D-10
 THRNRM  =  1.00D-08  THREQ   =  0.00D+00  THRDE   =  1.00D+00  THRREF  =  1.00D-05  SPARFAC =  1.00D+00  THRDLP  =  1.00D-07
 THRDIA  =  1.00D-10  THRDLS  =  1.00D-07  THRGPS  =  0.00D+00  THRKEX  =  0.00D+00  THRDIS  =  2.00D-01  THRVAR  =  1.00D-10
 THRLOC  =  1.00D-06  THRGAP  =  1.00D-06  THRLOCT = -1.00D+00  THRGAPT = -1.00D+00  THRORB  =  1.00D-06  THRMLTP =  0.00D+00
 THRCPQCI=  1.00D-10  KEXTA   =  0.00D+00  THRCOARS=  0.00D+00  SYMTOL  =  1.00D-06  GRADTOL =  1.00D-06  THROVL  =  1.00D-08
 THRORTH =  1.00D-08  GRID    =  1.00D-06  GRIDMAX =  1.00D-03  DTMAX   =  0.00D+00  THROCCDE=  1.00D-01  THROCCDE=  1.00D-01



 THRESHOLDS:

 ZERO    =  1.00D-22  ONEINT  =  1.00D-22  TWOINT  =  1.00D-22  PREFAC  =  1.00D-14  LOCALI  =  1.00D-09  EORDER  =  1.00D-04
 ENERGY  =  1.00D-12  ETEST   =  0.00D+00  EDENS   =  0.00D+00  THRDEDEF=  1.00D-06  GRADIENT=  1.00D-02  STEP    =  1.00D-03
 ORBITAL =  1.00D-05  CIVEC   =  1.00D-05  COEFF   =  1.00D-04  PRINTCI =  5.00D-02  PUNCHCI =  9.90D+01  OPTGRAD =  1.00D-08
 OPTENERG=  1.00D-06  OPTSTEP =  1.00D-08  THRGRAD =  1.00D-10  COMPRESS=  1.00D-11  VARMIN  =  1.00D-07  VARMAX  =  1.00D-03
 THRDOUB =  0.00D+00  THRDIV  =  1.00D-05  THRRED  =  1.00D-07  THRPSP  =  1.00D+00  THRDC   =  1.00D-10  THRCS   =  1.00D-10
 THRNRM  =  1.00D-08  THREQ   =  0.00D+00  THRDE   =  1.00D+00  THRREF  =  1.00D-05  SPARFAC =  1.00D+00  THRDLP  =  1.00D-07
 THRDIA  =  1.00D-10  THRDLS  =  1.00D-07  THRGPS  =  0.00D+00  THRKEX  =  0.00D+00  THRDIS  =  2.00D-01  THRVAR  =  1.00D-10
 THRLOC  =  1.00D-06  THRGAP  =  1.00D-06  THRLOCT = -1.00D+00  THRGAPT = -1.00D+00  THRORB  =  1.00D-06  THRMLTP =  0.00D+00
 THRCPQCI=  1.00D-10  KEXTA   =  0.00D+00  THRCOARS=  0.00D+00  SYMTOL  =  1.00D-06  GRADTOL =  1.00D-06  THROVL  =  1.00D-08
 THRORTH =  1.00D-08  GRID    =  1.00D-06  GRIDMAX =  1.00D-03  DTMAX   =  0.00D+00  THROCCDE=  1.00D-01  THROCCDE=  1.00D-01



 Input parameters for SORTINT:

 COMPRESS =    0.000000
 C_FINAL  =    1.000000
 DEBUG    =   -1.000000
 C_SORT1  =    0.000000
 C_SEWARD =    0.000000
 THRESH   =    0.000000
 IO       =  molpro                                                          
 SPRI     =    0.000000
 SETTING GEOMTYP        =    XYZ
 ZUNIT=BOHR
 

 Variable memory set to  995000000 words,  buffer space   230000 words

 SETTING BASIS          =    USERDEF


 Recomputing integrals since basis changed


 Using spherical harmonics

 Library entry H      S aug-cc-pVTZ          selected for orbital group  2
 Library entry H      P aug-cc-pVTZ          selected for orbital group  2
 Library entry H      D aug-cc-pVTZ          selected for orbital group  2


 PROGRAM * SEWARD (Integral evaluation for generally contracted gaussian basis sets)     Author: Roland Lindh, 1990

 Geometry written to block  1 of record 700


 Point group  Cs  



 ATOMIC COORDINATES

 NR  ATOM    CHARGE       X              Y              Z

   1  N       7.00    0.000000000   -0.173499252   -1.152215893
   2  H       1.00    0.000000000    1.676418486   -1.930462076
   3  O       8.00    0.000000000    0.038848556    1.132088378

 Bond lengths in Bohr (Angstrom)

 1-2  2.006953602  1-3  2.294152915
     ( 1.062034110)     ( 1.214013441)

 Bond angles

  2-1-3  107.50519165

 NUCLEAR CHARGE:                   16
 NUMBER OF PRIMITIVE AOS:         203
 NUMBER OF SYMMETRY AOS:          173
 NUMBER OF CONTRACTIONS:          171   ( 114A'  +  57A"  )
 NUMBER OF CORE ORBITALS:           2   (   2A'  +   0A"  )
 NUMBER OF VALENCE ORBITALS:        9   (   7A'  +   2A"  )


 NUCLEAR REPULSION ENERGY   30.20132242


 Eigenvalues of metric

         1 0.108E-02 0.255E-02 0.340E-02 0.645E-02 0.102E-01 0.138E-01 0.146E-01 0.236E-01
         2 0.377E-01 0.542E-01 0.712E-01 0.942E-01 0.132E+00 0.135E+00 0.141E+00 0.142E+00


 Contracted 2-electron integrals neglected if value below      1.0D-22

       46122863. INTEGRALS WRITTEN OUT IN   11264 BLOCKS ON RECORD 1290 OF FILE 1


 NUMBER OF SORTED TWO-ELECTRON INTEGRALS:   55360566.     BUFFER LENGTH:  32768
 NUMBER OF SEGMENTS:   4  SEGMENT LENGTH:   15997996      RECORD LENGTH: 524288

 Memory used in sort:      16.56 MW

 SORT1 READ    46122863. AND WROTE    46560160. INTEGRALS IN    135 RECORDS. CPU TIME:     0.87 SEC, REAL TIME:     1.20 SEC
 SORT2 READ    46560160. AND WROTE    55360566. INTEGRALS IN      4 RECORDS. CPU TIME:     0.69 SEC, REAL TIME:     0.95 SEC

 FILE SIZES:   FILE 1:   758.9 MBYTE,  FILE 4:   566.3 MBYTE,   TOTAL:   1325.2 MBYTE

 OPERATOR DM      FOR CENTER  0  COORDINATES:    0.000000    0.000000    0.000000


 **********************************************************************************************************************************
 DATASETS  * FILE   NREC   LENGTH (MB)   RECORD NAMES
              1      19      421.09       500      610      700      900      950      970     1000      129      960     1100   
                                          VAR    BASINP    GEOM    SYMINP    ZMAT    AOBASIS   BASIS     P2S    ABASIS      S 
                                         1400     1410     1200     1210     1080     1600     1650     1300     1700   
                                           T        V       H0       H01     AOSYM     SMH    MOLCAS    ERIS     OPER   

 PROGRAMS   *        TOTAL       INT
 CPU TIMES  *         4.78      4.69
 REAL TIME  *         6.41 SEC
 DISK USED  *         1.33 GB      
 **********************************************************************************************************************************


 PROGRAM * RHF-SCF (CLOSED SHELL)       Authors: W. Meyer, H.-J. Werner


 NUMBER OF ELECTRONS:       8+    8-
 CONVERGENCE THRESHOLDS:    1.00E-10 (Density)    1.00E-13 (Energy)
 MAX. NUMBER OF ITERATIONS:      500
 INTERPOLATION TYPE:            DIIS
 INTERPOLATION STEPS:              2 (START)      1 (STEP)
 LEVEL SHIFTS:                  0.00 (CLOSED)  0.00 (OPEN) 



 Orbital guess generated from atomic densities. Full valence occupancy:    9   2

 Molecular orbital dump at record        2100.2

 Initial occupancy:   7   1

 ITERATION    DDIFF          GRAD             ENERGY        2-EL.EN.            DIPOLE MOMENTS         DIIS   ORB.
    1      0.000D+00      0.000D+00      -129.78651001    153.757367    0.00000    0.55961   -1.03288    0    start
    2      0.000D+00      0.889D-02      -129.81320170    154.927513    0.00000    0.60094   -0.18572    1    diag
    3      0.366D-02      0.689D-02      -129.83754856    155.059521    0.00000    0.54309   -0.58867    2    diag
    4      0.146D-02      0.104D-02      -129.83834459    154.779534    0.00000    0.55132   -0.52546    3    diag
    5      0.331D-03      0.342D-03      -129.83846942    154.868734    0.00000    0.55743   -0.52776    4    diag
    6      0.154D-03      0.101D-03      -129.83849000    154.852394    0.00000    0.55796   -0.52349    5    diag
    7      0.613D-04      0.509D-04      -129.83849614    154.854926    0.00000    0.55930   -0.52089    6    diag
    8      0.417D-04      0.178D-04      -129.83849684    154.854057    0.00000    0.55935   -0.51993    7    diag
    9      0.150D-04      0.334D-05      -129.83849687    154.853935    0.00000    0.55930   -0.51973    8    diag
   10      0.308D-05      0.748D-06      -129.83849687    154.853920    0.00000    0.55927   -0.51971    9    orth
   11      0.879D-06      0.148D-06      -129.83849687    154.853916    0.00000    0.55926   -0.51970    9    diag
   12      0.208D-06      0.314D-07      -129.83849687    154.853915    0.00000    0.55925   -0.51970    9    diag
   13      0.519D-07      0.844D-08      -129.83849687    154.853915    0.00000    0.55925   -0.51970    9    diag
   14      0.122D-07      0.147D-08      -129.83849687    154.853915    0.00000    0.55925   -0.51970    9    diag
   15      0.150D-08      0.392D-09      -129.83849687    154.853915    0.00000    0.55925   -0.51970    9    diag
   16      0.337D-09      0.113D-09      -129.83849687    154.853915    0.00000    0.55925   -0.51970    9    diag
   17      0.740D-10      0.308D-10      -129.83849687    154.853915    0.00000    0.55925   -0.51970    9    diag
   18      0.223D-10      0.103D-10      -129.83849687    154.853915    0.00000    0.55925   -0.51970    9    diag
   19      0.909D-11      0.254D-11      -129.83849687    154.853915    0.00000    0.55925   -0.51970    9    fixocc
   20      0.218D-11      0.675D-12      -129.83849687    154.853915    0.00000    0.55925   -0.51970    9    orth
   21      0.401D-12      0.469D-12      -129.83849687    154.853915    0.00000    0.55925   -0.51970    0    orth

 Final occupancy:   7   1

 !RHF STATE 1.1 Energy               -129.838496873863
 Nuclear energy                        30.20132242
 One-electron energy                 -237.46677670
 Two-electron energy                   77.42695741
 Virial quotient                       -1.00190871
 !RHF STATE 1.1 Dipole moment           0.00000000     0.55925438    -0.51970047
 Dipole moment /Debye                   0.00000000     1.42138975    -1.32086031

 Orbital energies:

         1.1          2.1          3.1          4.1          5.1          6.1          7.1          8.1          9.1
    -20.651872   -15.713098    -1.523347    -0.991439    -0.742273    -0.662375    -0.430435     0.039621     0.191618

         1.2          2.2          3.2
     -0.591593     0.077155     0.239181

 HOMO      7.1    -0.430435 =     -11.7127eV
 LUMO      8.1     0.039621 =       1.0781eV
 LUMO-HOMO         0.470056 =      12.7909eV


 **********************************************************************************************************************************
 DATASETS  * FILE   NREC   LENGTH (MB)   RECORD NAMES
              1      19      421.09       500      610      700      900      950      970     1000      129      960     1100   
                                          VAR    BASINP    GEOM    SYMINP    ZMAT    AOBASIS   BASIS     P2S    ABASIS      S 
                                         1400     1410     1200     1210     1080     1600     1650     1300     1700   
                                           T        V       H0       H01     AOSYM     SMH    MOLCAS    ERIS     OPER   

              2       4        3.13       700     1000      520     2100   
                                         GEOM     BASIS   MCVARS     RHF  

 PROGRAMS   *        TOTAL        HF       INT
 CPU TIMES  *        10.68      5.90      4.69
 REAL TIME  *        13.64 SEC
 DISK USED  *         1.33 GB      
 **********************************************************************************************************************************


 PROGRAM * CCSD (Closed-shell coupled cluster)     Authors: C. Hampel, H.-J. Werner, 1991, M. Deegan, P.J. Knowles, 1992


 Convergence thresholds:  THRVAR = 1.00D-08  THRDEN = 1.00D-12

 CCSD(T)     terms to be evaluated (factor= 1.000)


 Number of closed-shell orbitals:   8 (   7   1 )
 Number of external orbitals:     163 ( 107  56 )

 Molecular orbitals read from record     2100.2  Type=RHF/CANONICAL (state 1.1)

 Number of N-1 electron functions:               8
 Number of N-2 electron functions:              36
 Number of singly external CSFs:               805
 Number of doubly external CSFs:            449165
 Total number of CSFs:                      449971

 Length of J-op  integral file:               0.00 MB
 Length of K-op  integral file:               1.15 MB
 Length of 3-ext integral record:             0.00 MB

 Memory could be reduced to 24.90 Mwords without degradation in triples

 Integral transformation finished. Total CPU:   0.94 sec, npass=  1  Memory used:   6.89 MW

 Reference energy:                   -129.83849687

 MP2 singlet pair energy:              -0.37976772
 MP2 triplet pair energy:              -0.18712747
 MP2 correlation energy:               -0.56689519
 MP2 total energy:                   -130.40539206

 SCS-MP2 correlation energy:           -0.57215613   (PS=  1.200000  PT=  0.333333)
 SCS-MP2 total energy:               -130.41065301

 ITER.      SQ.NORM     CORR.ENERGY   TOTAL ENERGY   ENERGY CHANGE        DEN1      VAR(S)    VAR(P)  DIIS     TIME  TIME/IT
   1      1.12073132    -0.57137233  -130.40986920    -0.00447714     0.01358170  0.35D-02  0.32D-02  1  1     2.03     1.14
   2      1.13182622    -0.57101399  -130.40951086     0.00035834    -0.01393163  0.94D-04  0.51D-03  2  2     3.12     1.17
   3      1.13720917    -0.57135187  -130.40984874    -0.00033789    -0.00239650  0.58D-04  0.70D-04  3  3     4.23     1.18
   4      1.14074290    -0.57134359  -130.40984046     0.00000828    -0.00141599  0.48D-05  0.10D-04  4  4     5.33     1.18
   5      1.14184115    -0.57136903  -130.40986591    -0.00002545    -0.00026018  0.17D-05  0.19D-05  5  5     6.44     1.19
   6      1.14226473    -0.57136267  -130.40985955     0.00000636    -0.00004122  0.15D-06  0.40D-06  6  6     7.56     1.19
   7      1.14234963    -0.57136289  -130.40985976    -0.00000021     0.00000077  0.22D-07  0.93D-07  6  1     8.67     1.20
   8      1.14238420    -0.57136103  -130.40985791     0.00000185    -0.00000491  0.39D-08  0.14D-07  6  2     9.80     1.20
   9      1.14238914    -0.57136108  -130.40985795    -0.00000004     0.00000121  0.17D-08  0.19D-08  6  3    10.89     1.20
  10      1.14239099    -0.57136138  -130.40985825    -0.00000030    -0.00000071  0.41D-09  0.26D-09  6  4    12.02     1.20
  11      1.14239004    -0.57136152  -130.40985839    -0.00000014     0.00000034  0.10D-09  0.27D-10  6  5    13.13     1.20
  12      1.14238915    -0.57136166  -130.40985853    -0.00000014     0.00000035  0.11D-10  0.68D-11  6  6    14.23     1.20
  13      1.14238862    -0.57136167  -130.40985854    -0.00000001     0.00000011  0.44D-11  0.12D-11  6  1    15.31     1.21
  14      1.14238818    -0.57136170  -130.40985857    -0.00000003     0.00000011  0.45D-12  0.41D-12  6  3    16.39     1.20
  15      1.14238800    -0.57136170  -130.40985857    -0.00000000     0.00000002  0.12D-12  0.28D-13  6  2    17.45     1.20
  16      1.14238795    -0.57136170  -130.40985857    -0.00000000     0.00000001  0.26D-13  0.62D-14  6  4    18.49     1.20
  17      1.14238793    -0.57136170  -130.40985857    -0.00000000     0.00000001  0.46D-14  0.11D-14  6  5    19.58     1.20
  18      1.14238792    -0.57136170  -130.40985857    -0.00000000     0.00000000  0.49D-15  0.31D-15  6  6    20.66     1.20
  19      1.14238792    -0.57136170  -130.40985857     0.00000000    -0.00000000  0.62D-16  0.43D-16  6  1    21.72     1.20
  20      1.14238793    -0.57136170  -130.40985857     0.00000000    -0.00000000  0.25D-17  0.97D-17  6  3    22.77     1.20
  21      1.14238793    -0.57136170  -130.40985857     0.00000000    -0.00000000  0.12D-17  0.25D-17  6  2    23.88     1.19
  22      1.14238793    -0.57136170  -130.40985857     0.00000000    -0.00000000  0.23D-18  0.89D-18  6  4    24.94     1.19
  23      1.14238793    -0.57136170  -130.40985857    -0.00000000     0.00000000  0.14D-18  0.13D-18  6  5    25.99     1.19
  24      1.14238793    -0.57136170  -130.40985857     0.00000000    -0.00000000  0.64D-20  0.16D-19  6  1    27.07     1.19
  25      1.14238793    -0.57136170  -130.40985857     0.00000000     0.00000000  0.35D-21  0.15D-20  6  6    28.17     1.19
  26      1.14238793    -0.57136170  -130.40985857    -0.00000000     0.00000000  0.12D-21  0.34D-21  6  3    29.24     1.19

 Norm of t1 vector:      0.07893102      S-energy:     0.00000000      T1 diagnostic:  0.01395317
                                                                       D1 diagnostic:  0.04480283

 Doubles amplitudes (print threshold =  0.500E-01):

         I         J         SYM. A    SYM. B    A         B      T(IJ, AB)

         8         8         2         2         1         1     -0.13641291


 Total CPU time for triples:     16.52 sec


 RESULTS
 =======

  Reference energy                   -129.838496873863

  Correlated core orbitals:             1.1       2.1
  Orbital energies:                   -20.6519  -15.7131
 
  CCSD core-core energy                -0.079236385262
  CCSD core-valence energy             -0.036016972940
  CCSD valence correlation energy      -0.456108341511
 
  CCSD singlet pair energy             -0.408800911605
  CCSD triplet pair energy             -0.162560788110
  CCSD correlation energy              -0.571361699714

  Triples (T) contribution             -0.022540296013
  Total correlation energy             -0.593901995727

  CCSD total energy                  -130.409858573577
  CCSD[T] energy                     -130.433605583315
  CCSD-T energy                      -130.431947875812
 !CCSD(T) total energy               -130.432398869590

 Timing summary (sec):

 STEP                 CPU(USER)    SYS     CPU(TOT)    WALL
 Transformation          0.96      0.22      1.18      1.17
 CCSD iterations        28.30      2.72     31.02     31.05
 Triples                16.52      0.57     17.09     17.09

 Program statistics:

 Available memory in ccsd:               994999644
 Min. memory needed in ccsd:               1368037
 Max. memory used in ccsd:                 1750502
 Max. memory used in cckext:               2014357 (26 integral passes)



 **********************************************************************************************************************************
 DATASETS  * FILE   NREC   LENGTH (MB)   RECORD NAMES
              1      20      500.01       500      610      700      900      950      970     1000      129      960     1100   
                                          VAR    BASINP    GEOM    SYMINP    ZMAT    AOBASIS   BASIS     P2S    ABASIS      S 
                                         1400     1410     1200     1210     1080     1600     1650     1300     1700     1380   
                                           T        V       H0       H01     AOSYM     SMH    MOLCAS    ERIS     OPER     JKOP   

              2       4        3.13       700     1000      520     2100   
                                         GEOM     BASIS   MCVARS     RHF  

 PROGRAMS   *        TOTAL   CCSD(T)        HF       INT
 CPU TIMES  *        56.48     45.80      5.90      4.69
 REAL TIME  *        62.98 SEC
 DISK USED  *         1.33 GB      
 **********************************************************************************************************************************

 CCSD(T)/USERDEF energy=   -130.432398869590

        CCSD(T)         HF-SCF  
   -130.43239887   -129.83849687
 **********************************************************************************************************************************
 Molpro calculation terminated
 Variable memory released
