
 Primary working directories    : /tmp/r2666/235519.maple
 Secondary working directories  : /tmp/r2666/235519.maple
 Wavefunction directory         : /ddn/home4/r2666/wfu/
 Main file repository           : /tmp/r2666/235519.maple/

 SHA1      : d5ffa45e93fdbca01ffc919aa182cfdae0147319
 NAME      : 2015.1.35
 ARCHNAME  : linux/x86_64
 FC        : /opt/intel/composer_xe_2015.1.133/bin/intel64/ifort
 BLASLIB   : -Wl,-_start-group /opt/intel/mkl/lib/intel64/libmkl_intel_ilp64.a /opt/intel/mkl/lib/intel64/libmkl_intel_thread.a /opt/intel/mkl/lib/intel64/libmkl_core.a -Wl,-_end-group
 id        : olemiss

 Nodes     nprocs
 cn096        1

 Using customized tuning parameters: mindgm=1; mindgv=20; mindgc=4; mindgr=1; noblas=0; minvec=7
 default implementation of scratch files=df  

 ***,hno CCSD(T)/TZ-F12 QFF
 memory, 995, m;
 gthresh,energy=1.d-12,zero=1.d-22,oneint=1.d-22,twoint=1.d-22;
 gthresh,optgrad=1.d-8,optstep=1.d-8;
 nocompress;
 geomtyp=xyz
 bohr
 geometry={
 3
        116       116
 N        0.0000000000       -0.1688718857       -1.1383406465
 H        0.0000000000        1.6745777324       -1.9317864643
 O        0.0000000000        0.0360619433        1.1195375197
 }
 
 basis={
 default=aug-cc-pvtz
 s,C,8236.0,1235.0,280.8, 79.27,25.59, 8.997,3.319
 s,C,0.9059,0.3643,0.1285000
 p,C,56.0,18.71,4.133,0.2827,0.3827,0.1209
 d,C,30.0,10.0,3.3,1.097,0.318
 f,C,7.0,2.3,0.7610
 s,N,11420.0,1712.0,389.3,110.0,35.57,12.54,4.644
 s,N,1.293,0.5118,0.1787
 p,N,79.89,26.63,5.948,1.742,0.555,0.1725
 d,N,45.0,15.0,5.0,1.654,0.469
 f,N,9.9,3.3,1.093
 s,O,15330.0,2299.0,522.4,147.3,47.55,16.76,6.207
 s,O,1.752,0.6882,0.2384
 p,O,103.5,34.46,7.749,2.28,0.7156,0.214
 d,O,63.0,21.0,7.0,2.314,0.645
 f,O,12.9,4.3,1.428
 s,mg,164900.0,24710.0,5628.0,1596.0,521.0;
 s,mg,188.0,73.01,29.90,12.54,4.306,1.826;
 s,mg,0.7417,0.0761,0.145,0.033,0.0129;
 p,mg,950.70,316.90,74.86,23.72,8.669,3.363;
 p,mg,1.310,0.4911,0.2364,0.08733,0.03237,0.00745;
 d,mg,1.601,0.686,0.126,0.294,0.0468;
 f,mg,1.372,0.588,0.094,0.252;
 }
   {hf,maxit=500;accu,20;}
 {ccsd(t),nocheck,maxit=250;orbital,IGNORE_ERROR;core}

 Variables initialized (889), CPU time= 0.00 sec
 Commands  initialized (702), CPU time= 0.00 sec, 572 directives.
 Default parameters read. Elapsed time= 0.05 sec

 Checking input...
 Passed
1


                                         ***  PROGRAM SYSTEM MOLPRO  ***
                                       Copyright, TTI GmbH Stuttgart, 2015
                                    Version 2015.1 linked Jul  9 2018 13:16:40


 **********************************************************************************************************************************
 LABEL *   hno CCSD(T)/TZ-F12 QFF                                                        
  64 bit serial version                                                                  DATE: 08-Feb-20          TIME: 18:00:44  
 **********************************************************************************************************************************

 SHA1:             d5ffa45e93fdbca01ffc919aa182cfdae0147319
 **********************************************************************************************************************************

 THRESHOLDS:

 ZERO    =  1.00D-22  ONEINT  =  1.00D-22  TWOINT  =  1.00D-22  PREFAC  =  1.00D-14  LOCALI  =  1.00D-09  EORDER  =  1.00D-04
 ENERGY  =  1.00D-12  ETEST   =  0.00D+00  EDENS   =  0.00D+00  THRDEDEF=  1.00D-06  GRADIENT=  1.00D-02  STEP    =  1.00D-03
 ORBITAL =  1.00D-05  CIVEC   =  1.00D-05  COEFF   =  1.00D-04  PRINTCI =  5.00D-02  PUNCHCI =  9.90D+01  OPTGRAD =  3.00D-04
 OPTENERG=  1.00D-06  OPTSTEP =  3.00D-04  THRGRAD =  1.00D-10  COMPRESS=  1.00D-11  VARMIN  =  1.00D-07  VARMAX  =  1.00D-03
 THRDOUB =  0.00D+00  THRDIV  =  1.00D-05  THRRED  =  1.00D-07  THRPSP  =  1.00D+00  THRDC   =  1.00D-10  THRCS   =  1.00D-10
 THRNRM  =  1.00D-08  THREQ   =  0.00D+00  THRDE   =  1.00D+00  THRREF  =  1.00D-05  SPARFAC =  1.00D+00  THRDLP  =  1.00D-07
 THRDIA  =  1.00D-10  THRDLS  =  1.00D-07  THRGPS  =  0.00D+00  THRKEX  =  0.00D+00  THRDIS  =  2.00D-01  THRVAR  =  1.00D-10
 THRLOC  =  1.00D-06  THRGAP  =  1.00D-06  THRLOCT = -1.00D+00  THRGAPT = -1.00D+00  THRORB  =  1.00D-06  THRMLTP =  0.00D+00
 THRCPQCI=  1.00D-10  KEXTA   =  0.00D+00  THRCOARS=  0.00D+00  SYMTOL  =  1.00D-06  GRADTOL =  1.00D-06  THROVL  =  1.00D-08
 THRORTH =  1.00D-08  GRID    =  1.00D-06  GRIDMAX =  1.00D-03  DTMAX   =  0.00D+00  THROCCDE=  1.00D-01  THROCCDE=  1.00D-01



 THRESHOLDS:

 ZERO    =  1.00D-22  ONEINT  =  1.00D-22  TWOINT  =  1.00D-22  PREFAC  =  1.00D-14  LOCALI  =  1.00D-09  EORDER  =  1.00D-04
 ENERGY  =  1.00D-12  ETEST   =  0.00D+00  EDENS   =  0.00D+00  THRDEDEF=  1.00D-06  GRADIENT=  1.00D-02  STEP    =  1.00D-03
 ORBITAL =  1.00D-05  CIVEC   =  1.00D-05  COEFF   =  1.00D-04  PRINTCI =  5.00D-02  PUNCHCI =  9.90D+01  OPTGRAD =  1.00D-08
 OPTENERG=  1.00D-06  OPTSTEP =  1.00D-08  THRGRAD =  1.00D-10  COMPRESS=  1.00D-11  VARMIN  =  1.00D-07  VARMAX  =  1.00D-03
 THRDOUB =  0.00D+00  THRDIV  =  1.00D-05  THRRED  =  1.00D-07  THRPSP  =  1.00D+00  THRDC   =  1.00D-10  THRCS   =  1.00D-10
 THRNRM  =  1.00D-08  THREQ   =  0.00D+00  THRDE   =  1.00D+00  THRREF  =  1.00D-05  SPARFAC =  1.00D+00  THRDLP  =  1.00D-07
 THRDIA  =  1.00D-10  THRDLS  =  1.00D-07  THRGPS  =  0.00D+00  THRKEX  =  0.00D+00  THRDIS  =  2.00D-01  THRVAR  =  1.00D-10
 THRLOC  =  1.00D-06  THRGAP  =  1.00D-06  THRLOCT = -1.00D+00  THRGAPT = -1.00D+00  THRORB  =  1.00D-06  THRMLTP =  0.00D+00
 THRCPQCI=  1.00D-10  KEXTA   =  0.00D+00  THRCOARS=  0.00D+00  SYMTOL  =  1.00D-06  GRADTOL =  1.00D-06  THROVL  =  1.00D-08
 THRORTH =  1.00D-08  GRID    =  1.00D-06  GRIDMAX =  1.00D-03  DTMAX   =  0.00D+00  THROCCDE=  1.00D-01  THROCCDE=  1.00D-01



 Input parameters for SORTINT:

 COMPRESS =    0.000000
 C_FINAL  =    1.000000
 DEBUG    =   -1.000000
 C_SORT1  =    0.000000
 C_SEWARD =    0.000000
 THRESH   =    0.000000
 IO       =  molpro                                                          
 SPRI     =    0.000000
 SETTING GEOMTYP        =    XYZ
 ZUNIT=BOHR
 

 Variable memory set to  995000000 words,  buffer space   230000 words

 SETTING BASIS          =    USERDEF


 Recomputing integrals since basis changed


 Using spherical harmonics

 Library entry H      S aug-cc-pVTZ          selected for orbital group  2
 Library entry H      P aug-cc-pVTZ          selected for orbital group  2
 Library entry H      D aug-cc-pVTZ          selected for orbital group  2


 PROGRAM * SEWARD (Integral evaluation for generally contracted gaussian basis sets)     Author: Roland Lindh, 1990

 Geometry written to block  1 of record 700


 Point group  Cs  



 ATOMIC COORDINATES

 NR  ATOM    CHARGE       X              Y              Z

   1  N       7.00    0.000000000   -0.168871886   -1.138340647
   2  H       1.00    0.000000000    1.674577732   -1.931786464
   3  O       8.00    0.000000000    0.036061943    1.119537520

 Bond lengths in Bohr (Angstrom)

 1-2  2.006953602  1-3  2.267159387
     ( 1.062034110)     ( 1.199729081)

 Bond angles

  2-1-3  108.10152405

 NUCLEAR CHARGE:                   16
 NUMBER OF PRIMITIVE AOS:         203
 NUMBER OF SYMMETRY AOS:          173
 NUMBER OF CONTRACTIONS:          171   ( 114A'  +  57A"  )
 NUMBER OF CORE ORBITALS:           2   (   2A'  +   0A"  )
 NUMBER OF VALENCE ORBITALS:        9   (   7A'  +   2A"  )


 NUCLEAR REPULSION ENERGY   30.49823870


 Eigenvalues of metric

         1 0.105E-02 0.243E-02 0.334E-02 0.639E-02 0.102E-01 0.137E-01 0.144E-01 0.233E-01
         2 0.375E-01 0.520E-01 0.702E-01 0.940E-01 0.131E+00 0.134E+00 0.141E+00 0.142E+00


 Contracted 2-electron integrals neglected if value below      1.0D-22

       46209199. INTEGRALS WRITTEN OUT IN   11285 BLOCKS ON RECORD 1290 OF FILE 1


 NUMBER OF SORTED TWO-ELECTRON INTEGRALS:   55360566.     BUFFER LENGTH:  32768
 NUMBER OF SEGMENTS:   4  SEGMENT LENGTH:   15997996      RECORD LENGTH: 524288

 Memory used in sort:      16.56 MW

 SORT1 READ    46209199. AND WROTE    46647371. INTEGRALS IN    135 RECORDS. CPU TIME:     0.89 SEC, REAL TIME:     1.25 SEC
 SORT2 READ    46647371. AND WROTE    55360566. INTEGRALS IN      4 RECORDS. CPU TIME:     0.72 SEC, REAL TIME:     0.99 SEC

 FILE SIZES:   FILE 1:   760.3 MBYTE,  FILE 4:   566.3 MBYTE,   TOTAL:   1326.6 MBYTE

 OPERATOR DM      FOR CENTER  0  COORDINATES:    0.000000    0.000000    0.000000


 **********************************************************************************************************************************
 DATASETS  * FILE   NREC   LENGTH (MB)   RECORD NAMES
              1      19      421.68       500      610      700      900      950      970     1000      129      960     1100   
                                          VAR    BASINP    GEOM    SYMINP    ZMAT    AOBASIS   BASIS     P2S    ABASIS      S 
                                         1400     1410     1200     1210     1080     1600     1650     1300     1700   
                                           T        V       H0       H01     AOSYM     SMH    MOLCAS    ERIS     OPER   

 PROGRAMS   *        TOTAL       INT
 CPU TIMES  *         5.05      4.96
 REAL TIME  *         6.78 SEC
 DISK USED  *         1.33 GB      
 **********************************************************************************************************************************


 PROGRAM * RHF-SCF (CLOSED SHELL)       Authors: W. Meyer, H.-J. Werner


 NUMBER OF ELECTRONS:       8+    8-
 CONVERGENCE THRESHOLDS:    1.00E-10 (Density)    1.00E-13 (Energy)
 MAX. NUMBER OF ITERATIONS:      500
 INTERPOLATION TYPE:            DIIS
 INTERPOLATION STEPS:              2 (START)      1 (STEP)
 LEVEL SHIFTS:                  0.00 (CLOSED)  0.00 (OPEN) 



 Orbital guess generated from atomic densities. Full valence occupancy:    9   2

 Molecular orbital dump at record        2100.2

 Initial occupancy:   7   1

 ITERATION    DDIFF          GRAD             ENERGY        2-EL.EN.            DIPOLE MOMENTS         DIIS   ORB.
    1      0.000D+00      0.000D+00      -129.79065232    154.283438    0.00000    0.55804   -0.98771    0    start
    2      0.000D+00      0.874D-02      -129.81779156    155.485410    0.00000    0.59093   -0.19553    1    diag
    3      0.358D-02      0.655D-02      -129.83966209    155.585577    0.00000    0.53822   -0.56979    2    diag
    4      0.139D-02      0.103D-02      -129.84042997    155.315742    0.00000    0.54650   -0.50890    3    diag
    5      0.326D-03      0.334D-03      -129.84054924    155.403870    0.00000    0.55266   -0.51153    4    diag
    6      0.152D-03      0.986D-04      -129.84056877    155.387756    0.00000    0.55327   -0.50752    5    diag
    7      0.607D-04      0.490D-04      -129.84057437    155.390437    0.00000    0.55466   -0.50513    6    diag
    8      0.408D-04      0.164D-04      -129.84057494    155.389640    0.00000    0.55472   -0.50428    7    diag
    9      0.136D-04      0.304D-05      -129.84057496    155.389531    0.00000    0.55467   -0.50411    8    diag
   10      0.271D-05      0.706D-06      -129.84057496    155.389516    0.00000    0.55464   -0.50408    9    orth
   11      0.831D-06      0.142D-06      -129.84057496    155.389512    0.00000    0.55463   -0.50408    9    diag
   12      0.201D-06      0.292D-07      -129.84057496    155.389511    0.00000    0.55462   -0.50407    9    diag
   13      0.498D-07      0.768D-08      -129.84057496    155.389511    0.00000    0.55462   -0.50407    9    diag
   14      0.115D-07      0.139D-08      -129.84057496    155.389510    0.00000    0.55462   -0.50407    9    diag
   15      0.157D-08      0.387D-09      -129.84057496    155.389511    0.00000    0.55462   -0.50407    9    diag
   16      0.345D-09      0.120D-09      -129.84057496    155.389511    0.00000    0.55462   -0.50407    9    diag
   17      0.929D-10      0.357D-10      -129.84057496    155.389511    0.00000    0.55462   -0.50407    9    diag
   18      0.312D-10      0.115D-10      -129.84057496    155.389511    0.00000    0.55462   -0.50407    9    diag
   19      0.114D-10      0.284D-11      -129.84057496    155.389511    0.00000    0.55462   -0.50407    9    fixocc
   20      0.273D-11      0.630D-12      -129.84057496    155.389511    0.00000    0.55462   -0.50407    9    orth
   21      0.334D-12      0.322D-12      -129.84057496    155.389511    0.00000    0.55462   -0.50407    9    diag
   22      0.134D-12      0.343D-12      -129.84057496    155.389511    0.00000    0.55462   -0.50407    9    diag
   23      0.553D-13      0.220D-12      -129.84057496    155.389511    0.00000    0.55462   -0.50407    9    diag
   24      0.412D-13      0.403D-12      -129.84057496    155.389511    0.00000    0.55462   -0.50407    0    orth

 Final occupancy:   7   1

 !RHF STATE 1.1 Energy               -129.840574960518
 Nuclear energy                        30.49823870
 One-electron energy                 -238.03356892
 Two-electron energy                   77.69475525
 Virial quotient                       -1.00149667
 !RHF STATE 1.1 Dipole moment           0.00000000     0.55462427    -0.50407315
 Dipole moment /Debye                   0.00000000     1.40962195    -1.28114224

 Orbital energies:

         1.1          2.1          3.1          4.1          5.1          6.1          7.1          8.1          9.1
    -20.650725   -15.710609    -1.534830    -0.988494    -0.746677    -0.666638    -0.425699     0.039792     0.192330

         1.2          2.2          3.2
     -0.598357     0.082005     0.239721

 HOMO      7.1    -0.425699 =     -11.5839eV
 LUMO      8.1     0.039792 =       1.0828eV
 LUMO-HOMO         0.465491 =      12.6666eV


 **********************************************************************************************************************************
 DATASETS  * FILE   NREC   LENGTH (MB)   RECORD NAMES
              1      19      421.68       500      610      700      900      950      970     1000      129      960     1100   
                                          VAR    BASINP    GEOM    SYMINP    ZMAT    AOBASIS   BASIS     P2S    ABASIS      S 
                                         1400     1410     1200     1210     1080     1600     1650     1300     1700   
                                           T        V       H0       H01     AOSYM     SMH    MOLCAS    ERIS     OPER   

              2       4        3.13       700     1000      520     2100   
                                         GEOM     BASIS   MCVARS     RHF  

 PROGRAMS   *        TOTAL        HF       INT
 CPU TIMES  *        12.45      7.41      4.96
 REAL TIME  *        15.89 SEC
 DISK USED  *         1.33 GB      
 **********************************************************************************************************************************


 PROGRAM * CCSD (Closed-shell coupled cluster)     Authors: C. Hampel, H.-J. Werner, 1991, M. Deegan, P.J. Knowles, 1992


 Convergence thresholds:  THRVAR = 1.00D-08  THRDEN = 1.00D-12

 CCSD(T)     terms to be evaluated (factor= 1.000)


 Number of closed-shell orbitals:   8 (   7   1 )
 Number of external orbitals:     163 ( 107  56 )

 Molecular orbitals read from record     2100.2  Type=RHF/CANONICAL (state 1.1)

 Number of N-1 electron functions:               8
 Number of N-2 electron functions:              36
 Number of singly external CSFs:               805
 Number of doubly external CSFs:            449165
 Total number of CSFs:                      449971

 Length of J-op  integral file:               0.00 MB
 Length of K-op  integral file:               1.15 MB
 Length of 3-ext integral record:             0.00 MB

 Memory could be reduced to 24.90 Mwords without degradation in triples

 Integral transformation finished. Total CPU:   1.11 sec, npass=  1  Memory used:   6.89 MW

 Reference energy:                   -129.84057496

 MP2 singlet pair energy:              -0.37834280
 MP2 triplet pair energy:              -0.18623934
 MP2 correlation energy:               -0.56458214
 MP2 total energy:                   -130.40515710

 SCS-MP2 correlation energy:           -0.56989361   (PS=  1.200000  PT=  0.333333)
 SCS-MP2 total energy:               -130.41046858

 ITER.      SQ.NORM     CORR.ENERGY   TOTAL ENERGY   ENERGY CHANGE        DEN1      VAR(S)    VAR(P)  DIIS     TIME  TIME/IT
   1      1.11923261    -0.56958909  -130.41016405    -0.00500695     0.01242740  0.33D-02  0.30D-02  1  1     2.32     1.25
   2      1.12995886    -0.56935666  -130.40993163     0.00023242    -0.01354341  0.88D-04  0.49D-03  2  2     3.53     1.29
   3      1.13512787    -0.56967889  -130.41025385    -0.00032222    -0.00234238  0.54D-04  0.66D-04  3  3     4.74     1.30
   4      1.13848196    -0.56966935  -130.41024431     0.00000954    -0.00136577  0.44D-05  0.94D-05  4  4     5.97     1.31
   5      1.13949694    -0.56969326  -130.41026822    -0.00002391    -0.00023895  0.16D-05  0.18D-05  5  5     7.20     1.32
   6      1.13989465    -0.56968766  -130.41026262     0.00000560    -0.00003815  0.15D-06  0.40D-06  6  6     8.45     1.32
   7      1.13997955    -0.56968776  -130.41026272    -0.00000010     0.00000004  0.23D-07  0.90D-07  6  1     9.68     1.33
   8      1.14001398    -0.56968611  -130.41026107     0.00000165    -0.00000470  0.41D-08  0.13D-07  6  2    10.90     1.33
   9      1.14001909    -0.56968617  -130.41026113    -0.00000005     0.00000097  0.17D-08  0.17D-08  6  3    12.15     1.34
  10      1.14002074    -0.56968647  -130.41026143    -0.00000030    -0.00000059  0.38D-09  0.23D-09  6  4    13.41     1.34
  11      1.14001980    -0.56968660  -130.41026156    -0.00000013     0.00000034  0.93D-10  0.23D-10  6  5    14.64     1.34
  12      1.14001891    -0.56968673  -130.41026169    -0.00000013     0.00000034  0.99D-11  0.61D-11  6  6    15.94     1.34
  13      1.14001840    -0.56968674  -130.41026170    -0.00000001     0.00000011  0.43D-11  0.11D-11  6  1    17.13     1.34
  14      1.14001797    -0.56968677  -130.41026173    -0.00000003     0.00000010  0.45D-12  0.37D-12  6  3    18.38     1.35
  15      1.14001782    -0.56968677  -130.41026173    -0.00000000     0.00000002  0.11D-12  0.24D-13  6  2    19.62     1.35
  16      1.14001777    -0.56968677  -130.41026173    -0.00000000     0.00000001  0.25D-13  0.56D-14  6  4    20.88     1.35
  17      1.14001775    -0.56968677  -130.41026173    -0.00000000     0.00000001  0.40D-14  0.11D-14  6  5    22.13     1.35
  18      1.14001774    -0.56968677  -130.41026173    -0.00000000     0.00000000  0.39D-15  0.27D-15  6  6    23.35     1.35
  19      1.14001775    -0.56968677  -130.41026173     0.00000000    -0.00000000  0.47D-16  0.33D-16  6  1    24.62     1.35
  20      1.14001775    -0.56968677  -130.41026173     0.00000000    -0.00000000  0.20D-17  0.66D-17  6  3    25.87     1.35
  21      1.14001775    -0.56968677  -130.41026173     0.00000000    -0.00000000  0.98D-18  0.16D-17  6  2    27.12     1.35
  22      1.14001775    -0.56968677  -130.41026173     0.00000000    -0.00000000  0.14D-18  0.56D-18  6  4    28.37     1.35
  23      1.14001775    -0.56968677  -130.41026173    -0.00000000     0.00000000  0.44D-19  0.87D-19  6  2    29.61     1.35
  24      1.14001775    -0.56968677  -130.41026173     0.00000000    -0.00000000  0.26D-20  0.15D-19  6  1    30.88     1.35
  25      1.14001775    -0.56968677  -130.41026173    -0.00000000     0.00000000  0.82D-21  0.11D-20  6  5    32.13     1.36
  26      1.14001775    -0.56968677  -130.41026173     0.00000000     0.00000000  0.43D-21  0.18D-21  6  6    33.35     1.36
  27      1.14001775    -0.56968677  -130.41026173    -0.00000000     0.00000000  0.14D-21  0.34D-22  6  3    34.60     1.36

 Norm of t1 vector:      0.07686745      S-energy:     0.00000000      T1 diagnostic:  0.01358837
                                                                       D1 diagnostic:  0.04303288

 Doubles amplitudes (print threshold =  0.500E-01):

         I         J         SYM. A    SYM. B    A         B      T(IJ, AB)

         8         8         2         2         1         1     -0.13205599


 Total CPU time for triples:     21.16 sec


 RESULTS
 =======

  Reference energy                   -129.840574960518

  Correlated core orbitals:             1.1       2.1
  Orbital energies:                   -20.6507  -15.7106
 
  CCSD core-core energy                -0.079228992430
  CCSD core-valence energy             -0.036108383934
  CCSD valence correlation energy      -0.454349394052
 
  CCSD singlet pair energy             -0.407282448126
  CCSD triplet pair energy             -0.162404322289
  CCSD correlation energy              -0.569686770415

  Triples (T) contribution             -0.022097023548
  Total correlation energy             -0.591783793962

  CCSD total energy                  -130.410261730932
  CCSD[T] energy                     -130.433503956482
  CCSD-T energy                      -130.431924291634
 !CCSD(T) total energy               -130.432358754480

 Timing summary (sec):

 STEP                 CPU(USER)    SYS     CPU(TOT)    WALL
 Transformation          1.13      0.17      1.30      1.30
 CCSD iterations        33.48      3.17     36.65     36.64
 Triples                21.16      0.66     21.82     21.83

 Program statistics:

 Available memory in ccsd:               994999644
 Min. memory needed in ccsd:               1368037
 Max. memory used in ccsd:                 1750502
 Max. memory used in cckext:               2014357 (27 integral passes)



 **********************************************************************************************************************************
 DATASETS  * FILE   NREC   LENGTH (MB)   RECORD NAMES
              1      20      500.60       500      610      700      900      950      970     1000      129      960     1100   
                                          VAR    BASINP    GEOM    SYMINP    ZMAT    AOBASIS   BASIS     P2S    ABASIS      S 
                                         1400     1410     1200     1210     1080     1600     1650     1300     1700     1380   
                                           T        V       H0       H01     AOSYM     SMH    MOLCAS    ERIS     OPER     JKOP   

              2       4        3.13       700     1000      520     2100   
                                         GEOM     BASIS   MCVARS     RHF  

 PROGRAMS   *        TOTAL   CCSD(T)        HF       INT
 CPU TIMES  *        68.23     55.77      7.41      4.96
 REAL TIME  *        75.71 SEC
 DISK USED  *         1.33 GB      
 **********************************************************************************************************************************

 CCSD(T)/USERDEF energy=   -130.432358754480

        CCSD(T)         HF-SCF  
   -130.43235875   -129.84057496
 **********************************************************************************************************************************
 Molpro calculation terminated
 Variable memory released
