
 Primary working directories    : /tmp/r2666/235491.maple
 Secondary working directories  : /tmp/r2666/235491.maple
 Wavefunction directory         : /ddn/home4/r2666/wfu/
 Main file repository           : /tmp/r2666/235491.maple/

 SHA1      : d5ffa45e93fdbca01ffc919aa182cfdae0147319
 NAME      : 2015.1.35
 ARCHNAME  : linux/x86_64
 FC        : /opt/intel/composer_xe_2015.1.133/bin/intel64/ifort
 BLASLIB   : -Wl,-_start-group /opt/intel/mkl/lib/intel64/libmkl_intel_ilp64.a /opt/intel/mkl/lib/intel64/libmkl_intel_thread.a /opt/intel/mkl/lib/intel64/libmkl_core.a -Wl,-_end-group
 id        : olemiss

 Nodes     nprocs
 cn035        1

 Using customized tuning parameters: mindgm=1; mindgv=20; mindgc=4; mindgr=1; noblas=0; minvec=7
 default implementation of scratch files=df  

 ***,hno CCSD(T)/TZ-F12 QFF
 memory, 995, m;
 gthresh,energy=1.d-12,zero=1.d-22,oneint=1.d-22,twoint=1.d-22;
 gthresh,optgrad=1.d-8,optstep=1.d-8;
 nocompress;
 geomtyp=xyz
 bohr
 geometry={
 3
         88        88
 N        0.0000000000       -0.1689040961       -1.1410965872
 H        0.0000000000        1.6694407822       -1.9224506822
 O        0.0000000000        0.0412311039        1.1129576784
 }
 
 basis={
 default=aug-cc-pvtz
 s,C,8236.0,1235.0,280.8, 79.27,25.59, 8.997,3.319
 s,C,0.9059,0.3643,0.1285000
 p,C,56.0,18.71,4.133,0.2827,0.3827,0.1209
 d,C,30.0,10.0,3.3,1.097,0.318
 f,C,7.0,2.3,0.7610
 s,N,11420.0,1712.0,389.3,110.0,35.57,12.54,4.644
 s,N,1.293,0.5118,0.1787
 p,N,79.89,26.63,5.948,1.742,0.555,0.1725
 d,N,45.0,15.0,5.0,1.654,0.469
 f,N,9.9,3.3,1.093
 s,O,15330.0,2299.0,522.4,147.3,47.55,16.76,6.207
 s,O,1.752,0.6882,0.2384
 p,O,103.5,34.46,7.749,2.28,0.7156,0.214
 d,O,63.0,21.0,7.0,2.314,0.645
 f,O,12.9,4.3,1.428
 s,mg,164900.0,24710.0,5628.0,1596.0,521.0;
 s,mg,188.0,73.01,29.90,12.54,4.306,1.826;
 s,mg,0.7417,0.0761,0.145,0.033,0.0129;
 p,mg,950.70,316.90,74.86,23.72,8.669,3.363;
 p,mg,1.310,0.4911,0.2364,0.08733,0.03237,0.00745;
 d,mg,1.601,0.686,0.126,0.294,0.0468;
 f,mg,1.372,0.588,0.094,0.252;
 }
   {hf,maxit=500;accu,20;}
 {ccsd(t),nocheck,maxit=250;orbital,IGNORE_ERROR;core}

 Variables initialized (889), CPU time= 0.00 sec
 Commands  initialized (702), CPU time= 0.01 sec, 572 directives.
 Default parameters read. Elapsed time= 0.05 sec

 Checking input...
 Passed
1


                                         ***  PROGRAM SYSTEM MOLPRO  ***
                                       Copyright, TTI GmbH Stuttgart, 2015
                                    Version 2015.1 linked Jul  9 2018 13:16:40


 **********************************************************************************************************************************
 LABEL *   hno CCSD(T)/TZ-F12 QFF                                                        
  64 bit serial version                                                                  DATE: 08-Feb-20          TIME: 18:00:21  
 **********************************************************************************************************************************

 SHA1:             d5ffa45e93fdbca01ffc919aa182cfdae0147319
 **********************************************************************************************************************************

 THRESHOLDS:

 ZERO    =  1.00D-22  ONEINT  =  1.00D-22  TWOINT  =  1.00D-22  PREFAC  =  1.00D-14  LOCALI  =  1.00D-09  EORDER  =  1.00D-04
 ENERGY  =  1.00D-12  ETEST   =  0.00D+00  EDENS   =  0.00D+00  THRDEDEF=  1.00D-06  GRADIENT=  1.00D-02  STEP    =  1.00D-03
 ORBITAL =  1.00D-05  CIVEC   =  1.00D-05  COEFF   =  1.00D-04  PRINTCI =  5.00D-02  PUNCHCI =  9.90D+01  OPTGRAD =  3.00D-04
 OPTENERG=  1.00D-06  OPTSTEP =  3.00D-04  THRGRAD =  1.00D-10  COMPRESS=  1.00D-11  VARMIN  =  1.00D-07  VARMAX  =  1.00D-03
 THRDOUB =  0.00D+00  THRDIV  =  1.00D-05  THRRED  =  1.00D-07  THRPSP  =  1.00D+00  THRDC   =  1.00D-10  THRCS   =  1.00D-10
 THRNRM  =  1.00D-08  THREQ   =  0.00D+00  THRDE   =  1.00D+00  THRREF  =  1.00D-05  SPARFAC =  1.00D+00  THRDLP  =  1.00D-07
 THRDIA  =  1.00D-10  THRDLS  =  1.00D-07  THRGPS  =  0.00D+00  THRKEX  =  0.00D+00  THRDIS  =  2.00D-01  THRVAR  =  1.00D-10
 THRLOC  =  1.00D-06  THRGAP  =  1.00D-06  THRLOCT = -1.00D+00  THRGAPT = -1.00D+00  THRORB  =  1.00D-06  THRMLTP =  0.00D+00
 THRCPQCI=  1.00D-10  KEXTA   =  0.00D+00  THRCOARS=  0.00D+00  SYMTOL  =  1.00D-06  GRADTOL =  1.00D-06  THROVL  =  1.00D-08
 THRORTH =  1.00D-08  GRID    =  1.00D-06  GRIDMAX =  1.00D-03  DTMAX   =  0.00D+00  THROCCDE=  1.00D-01  THROCCDE=  1.00D-01



 THRESHOLDS:

 ZERO    =  1.00D-22  ONEINT  =  1.00D-22  TWOINT  =  1.00D-22  PREFAC  =  1.00D-14  LOCALI  =  1.00D-09  EORDER  =  1.00D-04
 ENERGY  =  1.00D-12  ETEST   =  0.00D+00  EDENS   =  0.00D+00  THRDEDEF=  1.00D-06  GRADIENT=  1.00D-02  STEP    =  1.00D-03
 ORBITAL =  1.00D-05  CIVEC   =  1.00D-05  COEFF   =  1.00D-04  PRINTCI =  5.00D-02  PUNCHCI =  9.90D+01  OPTGRAD =  1.00D-08
 OPTENERG=  1.00D-06  OPTSTEP =  1.00D-08  THRGRAD =  1.00D-10  COMPRESS=  1.00D-11  VARMIN  =  1.00D-07  VARMAX  =  1.00D-03
 THRDOUB =  0.00D+00  THRDIV  =  1.00D-05  THRRED  =  1.00D-07  THRPSP  =  1.00D+00  THRDC   =  1.00D-10  THRCS   =  1.00D-10
 THRNRM  =  1.00D-08  THREQ   =  0.00D+00  THRDE   =  1.00D+00  THRREF  =  1.00D-05  SPARFAC =  1.00D+00  THRDLP  =  1.00D-07
 THRDIA  =  1.00D-10  THRDLS  =  1.00D-07  THRGPS  =  0.00D+00  THRKEX  =  0.00D+00  THRDIS  =  2.00D-01  THRVAR  =  1.00D-10
 THRLOC  =  1.00D-06  THRGAP  =  1.00D-06  THRLOCT = -1.00D+00  THRGAPT = -1.00D+00  THRORB  =  1.00D-06  THRMLTP =  0.00D+00
 THRCPQCI=  1.00D-10  KEXTA   =  0.00D+00  THRCOARS=  0.00D+00  SYMTOL  =  1.00D-06  GRADTOL =  1.00D-06  THROVL  =  1.00D-08
 THRORTH =  1.00D-08  GRID    =  1.00D-06  GRIDMAX =  1.00D-03  DTMAX   =  0.00D+00  THROCCDE=  1.00D-01  THROCCDE=  1.00D-01



 Input parameters for SORTINT:

 COMPRESS =    0.000000
 C_FINAL  =    1.000000
 DEBUG    =   -1.000000
 C_SORT1  =    0.000000
 C_SEWARD =    0.000000
 THRESH   =    0.000000
 IO       =  molpro                                                          
 SPRI     =    0.000000
 SETTING GEOMTYP        =    XYZ
 ZUNIT=BOHR
 

 Variable memory set to  995000000 words,  buffer space   230000 words

 SETTING BASIS          =    USERDEF


 Recomputing integrals since basis changed


 Using spherical harmonics

 Library entry H      S aug-cc-pVTZ          selected for orbital group  2
 Library entry H      P aug-cc-pVTZ          selected for orbital group  2
 Library entry H      D aug-cc-pVTZ          selected for orbital group  2


 PROGRAM * SEWARD (Integral evaluation for generally contracted gaussian basis sets)     Author: Roland Lindh, 1990

 Geometry written to block  1 of record 700


 Point group  Cs  



 ATOMIC COORDINATES

 NR  ATOM    CHARGE       X              Y              Z

   1  N       7.00    0.000000000   -0.168904096   -1.141096587
   2  H       1.00    0.000000000    1.669440782   -1.922450682
   3  O       8.00    0.000000000    0.041231104    1.112957678

 Bond lengths in Bohr (Angstrom)

 1-2  1.997504972  1-3  2.263828049
     ( 1.057034110)     ( 1.197966213)

 Bond angles

  2-1-3  107.70098014

 NUCLEAR CHARGE:                   16
 NUMBER OF PRIMITIVE AOS:         203
 NUMBER OF SYMMETRY AOS:          173
 NUMBER OF CONTRACTIONS:          171   ( 114A'  +  57A"  )
 NUMBER OF CORE ORBITALS:           2   (   2A'  +   0A"  )
 NUMBER OF VALENCE ORBITALS:        9   (   7A'  +   2A"  )


 NUCLEAR REPULSION ENERGY   30.56375740


 Eigenvalues of metric

         1 0.104E-02 0.241E-02 0.330E-02 0.634E-02 0.100E-01 0.137E-01 0.144E-01 0.230E-01
         2 0.369E-01 0.517E-01 0.698E-01 0.939E-01 0.131E+00 0.134E+00 0.141E+00 0.142E+00


 Contracted 2-electron integrals neglected if value below      1.0D-22

       46229543. INTEGRALS WRITTEN OUT IN   11290 BLOCKS ON RECORD 1290 OF FILE 1


 NUMBER OF SORTED TWO-ELECTRON INTEGRALS:   55360566.     BUFFER LENGTH:  32768
 NUMBER OF SEGMENTS:   4  SEGMENT LENGTH:   15997996      RECORD LENGTH: 524288

 Memory used in sort:      16.56 MW

 SORT1 READ    46229543. AND WROTE    46667825. INTEGRALS IN    136 RECORDS. CPU TIME:     1.25 SEC, REAL TIME:     1.64 SEC
 SORT2 READ    46667825. AND WROTE    55360566. INTEGRALS IN      4 RECORDS. CPU TIME:     0.82 SEC, REAL TIME:     1.04 SEC

 FILE SIZES:   FILE 1:   760.6 MBYTE,  FILE 4:   570.5 MBYTE,   TOTAL:   1331.1 MBYTE

 OPERATOR DM      FOR CENTER  0  COORDINATES:    0.000000    0.000000    0.000000


 **********************************************************************************************************************************
 DATASETS  * FILE   NREC   LENGTH (MB)   RECORD NAMES
              1      19      421.81       500      610      700      900      950      970     1000      129      960     1100   
                                          VAR    BASINP    GEOM    SYMINP    ZMAT    AOBASIS   BASIS     P2S    ABASIS      S 
                                         1400     1410     1200     1210     1080     1600     1650     1300     1700   
                                           T        V       H0       H01     AOSYM     SMH    MOLCAS    ERIS     OPER   

 PROGRAMS   *        TOTAL       INT
 CPU TIMES  *         5.76      5.67
 REAL TIME  *         7.35 SEC
 DISK USED  *         1.33 GB      
 **********************************************************************************************************************************


 PROGRAM * RHF-SCF (CLOSED SHELL)       Authors: W. Meyer, H.-J. Werner


 NUMBER OF ELECTRONS:       8+    8-
 CONVERGENCE THRESHOLDS:    1.00E-10 (Density)    1.00E-13 (Energy)
 MAX. NUMBER OF ITERATIONS:      500
 INTERPOLATION TYPE:            DIIS
 INTERPOLATION STEPS:              2 (START)      1 (STEP)
 LEVEL SHIFTS:                  0.00 (CLOSED)  0.00 (OPEN) 



 Orbital guess generated from atomic densities. Full valence occupancy:    9   2

 Molecular orbital dump at record        2100.2

 Initial occupancy:   7   1

 ITERATION    DDIFF          GRAD             ENERGY        2-EL.EN.            DIPOLE MOMENTS         DIIS   ORB.
    1      0.000D+00      0.000D+00      -129.79147400    154.406904    0.00000    0.55727   -0.98083    0    start
    2      0.000D+00      0.871D-02      -129.81867069    155.603855    0.00000    0.59059   -0.19675    1    diag
    3      0.358D-02      0.649D-02      -129.84008835    155.702231    0.00000    0.53768   -0.56628    2    diag
    4      0.138D-02      0.102D-02      -129.84085026    155.434597    0.00000    0.54623   -0.50583    3    diag
    5      0.326D-03      0.333D-03      -129.84096802    155.522048    0.00000    0.55228   -0.50843    4    diag
    6      0.152D-03      0.980D-04      -129.84098724    155.506018    0.00000    0.55289   -0.50447    5    diag
    7      0.605D-04      0.486D-04      -129.84099274    155.508689    0.00000    0.55426   -0.50210    6    diag
    8      0.407D-04      0.161D-04      -129.84099328    155.507901    0.00000    0.55432   -0.50126    7    diag
    9      0.134D-04      0.298D-05      -129.84099331    155.507795    0.00000    0.55427   -0.50109    8    diag
   10      0.266D-05      0.693D-06      -129.84099331    155.507781    0.00000    0.55424   -0.50106    9    orth
   11      0.825D-06      0.140D-06      -129.84099331    155.507777    0.00000    0.55423   -0.50106    9    diag
   12      0.200D-06      0.287D-07      -129.84099331    155.507776    0.00000    0.55423   -0.50106    9    diag
   13      0.493D-07      0.751D-08      -129.84099331    155.507776    0.00000    0.55423   -0.50106    9    diag
   14      0.113D-07      0.136D-08      -129.84099331    155.507776    0.00000    0.55423   -0.50106    9    diag
   15      0.155D-08      0.382D-09      -129.84099331    155.507776    0.00000    0.55423   -0.50106    9    diag
   16      0.342D-09      0.119D-09      -129.84099331    155.507776    0.00000    0.55423   -0.50106    9    diag
   17      0.936D-10      0.354D-10      -129.84099331    155.507776    0.00000    0.55423   -0.50106    9    diag
   18      0.312D-10      0.113D-10      -129.84099331    155.507776    0.00000    0.55423   -0.50106    9    diag
   19      0.112D-10      0.278D-11      -129.84099331    155.507776    0.00000    0.55423   -0.50106    0    orth

 Final occupancy:   7   1

 !RHF STATE 1.1 Energy               -129.840993308837
 Nuclear energy                        30.56375740
 One-electron energy                 -238.15863849
 Two-electron energy                   77.75388778
 Virial quotient                       -1.00137160
 !RHF STATE 1.1 Dipole moment           0.00000000     0.55422676    -0.50105866
 Dipole moment /Debye                   0.00000000     1.40861164    -1.27348068

 Orbital energies:

         1.1          2.1          3.1          4.1          5.1          6.1          7.1          8.1          9.1
    -20.650346   -15.709706    -1.536552    -0.989068    -0.747807    -0.667056    -0.425714     0.039889     0.192902

         1.2          2.2          3.2
     -0.599182     0.082724     0.239781

 HOMO      7.1    -0.425714 =     -11.5843eV
 LUMO      8.1     0.039889 =       1.0854eV
 LUMO-HOMO         0.465603 =      12.6697eV


 **********************************************************************************************************************************
 DATASETS  * FILE   NREC   LENGTH (MB)   RECORD NAMES
              1      19      421.81       500      610      700      900      950      970     1000      129      960     1100   
                                          VAR    BASINP    GEOM    SYMINP    ZMAT    AOBASIS   BASIS     P2S    ABASIS      S 
                                         1400     1410     1200     1210     1080     1600     1650     1300     1700   
                                           T        V       H0       H01     AOSYM     SMH    MOLCAS    ERIS     OPER   

              2       4        3.13       700     1000      520     2100   
                                         GEOM     BASIS   MCVARS     RHF  

 PROGRAMS   *        TOTAL        HF       INT
 CPU TIMES  *        11.40      5.64      5.67
 REAL TIME  *        14.40 SEC
 DISK USED  *         1.33 GB      
 **********************************************************************************************************************************


 PROGRAM * CCSD (Closed-shell coupled cluster)     Authors: C. Hampel, H.-J. Werner, 1991, M. Deegan, P.J. Knowles, 1992


 Convergence thresholds:  THRVAR = 1.00D-08  THRDEN = 1.00D-12

 CCSD(T)     terms to be evaluated (factor= 1.000)


 Number of closed-shell orbitals:   8 (   7   1 )
 Number of external orbitals:     163 ( 107  56 )

 Molecular orbitals read from record     2100.2  Type=RHF/CANONICAL (state 1.1)

 Number of N-1 electron functions:               8
 Number of N-2 electron functions:              36
 Number of singly external CSFs:               805
 Number of doubly external CSFs:            449165
 Total number of CSFs:                      449971

 Length of J-op  integral file:               0.00 MB
 Length of K-op  integral file:               1.15 MB
 Length of 3-ext integral record:             0.00 MB

 Memory could be reduced to 24.90 Mwords without degradation in triples

 Integral transformation finished. Total CPU:   1.11 sec, npass=  1  Memory used:   6.89 MW

 Reference energy:                   -129.84099331

 MP2 singlet pair energy:              -0.37805714
 MP2 triplet pair energy:              -0.18607205
 MP2 correlation energy:               -0.56412919
 MP2 total energy:                   -130.40512249

 SCS-MP2 correlation energy:           -0.56944673   (PS=  1.200000  PT=  0.333333)
 SCS-MP2 total energy:               -130.41044004

 ITER.      SQ.NORM     CORR.ENERGY   TOTAL ENERGY   ENERGY CHANGE        DEN1      VAR(S)    VAR(P)  DIIS     TIME  TIME/IT
   1      1.11886680    -0.56921145  -130.41020476    -0.00508227     0.01222034  0.33D-02  0.30D-02  1  1     2.33     1.28
   2      1.12950538    -0.56899887  -130.40999218     0.00021258    -0.01346077  0.86D-04  0.49D-03  2  2     3.62     1.32
   3      1.13461515    -0.56931515  -130.41030846    -0.00031628    -0.00232680  0.53D-04  0.65D-04  3  3     4.87     1.33
   4      1.13792698    -0.56930608  -130.41029939     0.00000907    -0.00135336  0.42D-05  0.92D-05  4  4     6.14     1.34
   5      1.13891887    -0.56932958  -130.41032289    -0.00002350    -0.00023315  0.15D-05  0.18D-05  5  5     7.41     1.35
   6      1.13930723    -0.56932415  -130.41031746     0.00000543    -0.00003712  0.14D-06  0.40D-06  6  6     8.72     1.35
   7      1.13939036    -0.56932429  -130.41031760    -0.00000014     0.00000001  0.21D-07  0.89D-07  6  1    10.01     1.36
   8      1.13942408    -0.56932268  -130.41031599     0.00000161    -0.00000460  0.41D-08  0.13D-07  6  2    11.31     1.36
   9      1.13942895    -0.56932276  -130.41031607    -0.00000008     0.00000095  0.16D-08  0.16D-08  6  3    12.57     1.36
  10      1.13943051    -0.56932306  -130.41031637    -0.00000030    -0.00000056  0.37D-09  0.22D-09  6  4    13.83     1.36
  11      1.13942957    -0.56932319  -130.41031650    -0.00000013     0.00000033  0.90D-10  0.22D-10  6  5    15.09     1.36
  12      1.13942871    -0.56932332  -130.41031662    -0.00000013     0.00000033  0.93D-11  0.58D-11  6  6    16.36     1.37
  13      1.13942822    -0.56932333  -130.41031663    -0.00000001     0.00000010  0.40D-11  0.10D-11  6  1    17.61     1.37
  14      1.13942781    -0.56932335  -130.41031666    -0.00000002     0.00000010  0.43D-12  0.35D-12  6  3    18.88     1.37
  15      1.13942766    -0.56932335  -130.41031666    -0.00000000     0.00000002  0.11D-12  0.23D-13  6  2    20.14     1.37
  16      1.13942761    -0.56932335  -130.41031666    -0.00000000     0.00000001  0.24D-13  0.53D-14  6  4    21.41     1.37
  17      1.13942759    -0.56932335  -130.41031666    -0.00000000     0.00000001  0.38D-14  0.10D-14  6  5    22.68     1.37
  18      1.13942759    -0.56932335  -130.41031666    -0.00000000     0.00000000  0.37D-15  0.25D-15  6  6    23.91     1.37
  19      1.13942760    -0.56932335  -130.41031666     0.00000000    -0.00000000  0.44D-16  0.31D-16  6  1    25.21     1.37
  20      1.13942760    -0.56932335  -130.41031666     0.00000000    -0.00000000  0.18D-17  0.62D-17  6  3    26.46     1.37
  21      1.13942760    -0.56932335  -130.41031666     0.00000000    -0.00000000  0.90D-18  0.15D-17  6  2    27.72     1.37
  22      1.13942760    -0.56932335  -130.41031666     0.00000000    -0.00000000  0.14D-18  0.53D-18  6  4    28.98     1.37
  23      1.13942760    -0.56932335  -130.41031666    -0.00000000     0.00000000  0.41D-19  0.81D-19  6  2    30.24     1.37
  24      1.13942760    -0.56932335  -130.41031666     0.00000000    -0.00000000  0.24D-20  0.14D-19  6  1    31.48     1.37
  25      1.13942760    -0.56932335  -130.41031666    -0.00000000     0.00000000  0.25D-21  0.11D-20  6  6    32.75     1.37
  26      1.13942760    -0.56932335  -130.41031666     0.00000000     0.00000000  0.57D-22  0.73D-22  6  5    34.01     1.37
  27      1.13942760    -0.56932335  -130.41031666    -0.00000000     0.00000000  0.18D-22  0.13D-22  6  3    35.23     1.37

 Norm of t1 vector:      0.07624395      S-energy:     0.00000000      T1 diagnostic:  0.01347815
                                                                       D1 diagnostic:  0.04276815

 Doubles amplitudes (print threshold =  0.500E-01):

         I         J         SYM. A    SYM. B    A         B      T(IJ, AB)

         8         8         2         2         1         1     -0.13163362


 Total CPU time for triples:     16.91 sec


 RESULTS
 =======

  Reference energy                   -129.840993308837

  Correlated core orbitals:             1.1       2.1
  Orbital energies:                   -20.6503  -15.7097
 
  CCSD core-core energy                -0.079226829819
  CCSD core-valence energy             -0.036130642429
  CCSD valence correlation energy      -0.453965880966
 
  CCSD singlet pair energy             -0.406953214378
  CCSD triplet pair energy             -0.162370138837
  CCSD correlation energy              -0.569323353214

  Triples (T) contribution             -0.022003310072
  Total correlation energy             -0.591326663285

  CCSD total energy                  -130.410316662050
  CCSD[T] energy                     -130.433449930419
  CCSD-T energy                      -130.431890267998
 !CCSD(T) total energy               -130.432319972122

 Timing summary (sec):

 STEP                 CPU(USER)    SYS     CPU(TOT)    WALL
 Transformation          1.13      0.18      1.31      1.30
 CCSD iterations        34.10      3.00     37.10     37.12
 Triples                16.91      0.65     17.56     17.56

 Program statistics:

 Available memory in ccsd:               994999644
 Min. memory needed in ccsd:               1368037
 Max. memory used in ccsd:                 1750502
 Max. memory used in cckext:               2014357 (27 integral passes)



 **********************************************************************************************************************************
 DATASETS  * FILE   NREC   LENGTH (MB)   RECORD NAMES
              1      20      500.72       500      610      700      900      950      970     1000      129      960     1100   
                                          VAR    BASINP    GEOM    SYMINP    ZMAT    AOBASIS   BASIS     P2S    ABASIS      S 
                                         1400     1410     1200     1210     1080     1600     1650     1300     1700     1380   
                                           T        V       H0       H01     AOSYM     SMH    MOLCAS    ERIS     OPER     JKOP   

              2       4        3.13       700     1000      520     2100   
                                         GEOM     BASIS   MCVARS     RHF  

 PROGRAMS   *        TOTAL   CCSD(T)        HF       INT
 CPU TIMES  *        63.56     52.16      5.64      5.67
 REAL TIME  *        70.41 SEC
 DISK USED  *         1.33 GB      
 **********************************************************************************************************************************

 CCSD(T)/USERDEF energy=   -130.432319972122

        CCSD(T)         HF-SCF  
   -130.43231997   -129.84099331
 **********************************************************************************************************************************
 Molpro calculation terminated
 Variable memory released
