
 Primary working directories    : /tmp/r2666/235526.maple
 Secondary working directories  : /tmp/r2666/235526.maple
 Wavefunction directory         : /ddn/home4/r2666/wfu/
 Main file repository           : /tmp/r2666/235526.maple/

 SHA1      : d5ffa45e93fdbca01ffc919aa182cfdae0147319
 NAME      : 2015.1.35
 ARCHNAME  : linux/x86_64
 FC        : /opt/intel/composer_xe_2015.1.133/bin/intel64/ifort
 BLASLIB   : -Wl,-_start-group /opt/intel/mkl/lib/intel64/libmkl_intel_ilp64.a /opt/intel/mkl/lib/intel64/libmkl_intel_thread.a /opt/intel/mkl/lib/intel64/libmkl_core.a -Wl,-_end-group
 id        : olemiss

 Nodes     nprocs
 cn032        1

 Using customized tuning parameters: mindgm=1; mindgv=20; mindgc=4; mindgr=1; noblas=0; minvec=7
 default implementation of scratch files=df  

 ***,hno CCSD(T)/TZ-F12 QFF
 memory, 995, m;
 gthresh,energy=1.d-12,zero=1.d-22,oneint=1.d-22,twoint=1.d-22;
 gthresh,optgrad=1.d-8,optstep=1.d-8;
 nocompress;
 geomtyp=xyz
 bohr
 geometry={
 3
        123       123
 N        0.0000000000       -0.1693794287       -1.1488679041
 H        0.0000000000        1.6766636941       -1.9362607852
 O        0.0000000000        0.0344835246        1.1345390983
 }
 
 basis={
 default=aug-cc-pvtz
 s,C,8236.0,1235.0,280.8, 79.27,25.59, 8.997,3.319
 s,C,0.9059,0.3643,0.1285000
 p,C,56.0,18.71,4.133,0.2827,0.3827,0.1209
 d,C,30.0,10.0,3.3,1.097,0.318
 f,C,7.0,2.3,0.7610
 s,N,11420.0,1712.0,389.3,110.0,35.57,12.54,4.644
 s,N,1.293,0.5118,0.1787
 p,N,79.89,26.63,5.948,1.742,0.555,0.1725
 d,N,45.0,15.0,5.0,1.654,0.469
 f,N,9.9,3.3,1.093
 s,O,15330.0,2299.0,522.4,147.3,47.55,16.76,6.207
 s,O,1.752,0.6882,0.2384
 p,O,103.5,34.46,7.749,2.28,0.7156,0.214
 d,O,63.0,21.0,7.0,2.314,0.645
 f,O,12.9,4.3,1.428
 s,mg,164900.0,24710.0,5628.0,1596.0,521.0;
 s,mg,188.0,73.01,29.90,12.54,4.306,1.826;
 s,mg,0.7417,0.0761,0.145,0.033,0.0129;
 p,mg,950.70,316.90,74.86,23.72,8.669,3.363;
 p,mg,1.310,0.4911,0.2364,0.08733,0.03237,0.00745;
 d,mg,1.601,0.686,0.126,0.294,0.0468;
 f,mg,1.372,0.588,0.094,0.252;
 }
   {hf,maxit=500;accu,20;}
 {ccsd(t),nocheck,maxit=250;orbital,IGNORE_ERROR;core}

 Variables initialized (889), CPU time= 0.00 sec
 Commands  initialized (702), CPU time= 0.01 sec, 572 directives.
 Default parameters read. Elapsed time= 0.05 sec

 Checking input...
 Passed
1


                                         ***  PROGRAM SYSTEM MOLPRO  ***
                                       Copyright, TTI GmbH Stuttgart, 2015
                                    Version 2015.1 linked Jul  9 2018 13:16:40


 **********************************************************************************************************************************
 LABEL *   hno CCSD(T)/TZ-F12 QFF                                                        
  64 bit serial version                                                                  DATE: 08-Feb-20          TIME: 18:00:53  
 **********************************************************************************************************************************

 SHA1:             d5ffa45e93fdbca01ffc919aa182cfdae0147319
 **********************************************************************************************************************************

 THRESHOLDS:

 ZERO    =  1.00D-22  ONEINT  =  1.00D-22  TWOINT  =  1.00D-22  PREFAC  =  1.00D-14  LOCALI  =  1.00D-09  EORDER  =  1.00D-04
 ENERGY  =  1.00D-12  ETEST   =  0.00D+00  EDENS   =  0.00D+00  THRDEDEF=  1.00D-06  GRADIENT=  1.00D-02  STEP    =  1.00D-03
 ORBITAL =  1.00D-05  CIVEC   =  1.00D-05  COEFF   =  1.00D-04  PRINTCI =  5.00D-02  PUNCHCI =  9.90D+01  OPTGRAD =  3.00D-04
 OPTENERG=  1.00D-06  OPTSTEP =  3.00D-04  THRGRAD =  1.00D-10  COMPRESS=  1.00D-11  VARMIN  =  1.00D-07  VARMAX  =  1.00D-03
 THRDOUB =  0.00D+00  THRDIV  =  1.00D-05  THRRED  =  1.00D-07  THRPSP  =  1.00D+00  THRDC   =  1.00D-10  THRCS   =  1.00D-10
 THRNRM  =  1.00D-08  THREQ   =  0.00D+00  THRDE   =  1.00D+00  THRREF  =  1.00D-05  SPARFAC =  1.00D+00  THRDLP  =  1.00D-07
 THRDIA  =  1.00D-10  THRDLS  =  1.00D-07  THRGPS  =  0.00D+00  THRKEX  =  0.00D+00  THRDIS  =  2.00D-01  THRVAR  =  1.00D-10
 THRLOC  =  1.00D-06  THRGAP  =  1.00D-06  THRLOCT = -1.00D+00  THRGAPT = -1.00D+00  THRORB  =  1.00D-06  THRMLTP =  0.00D+00
 THRCPQCI=  1.00D-10  KEXTA   =  0.00D+00  THRCOARS=  0.00D+00  SYMTOL  =  1.00D-06  GRADTOL =  1.00D-06  THROVL  =  1.00D-08
 THRORTH =  1.00D-08  GRID    =  1.00D-06  GRIDMAX =  1.00D-03  DTMAX   =  0.00D+00  THROCCDE=  1.00D-01  THROCCDE=  1.00D-01



 THRESHOLDS:

 ZERO    =  1.00D-22  ONEINT  =  1.00D-22  TWOINT  =  1.00D-22  PREFAC  =  1.00D-14  LOCALI  =  1.00D-09  EORDER  =  1.00D-04
 ENERGY  =  1.00D-12  ETEST   =  0.00D+00  EDENS   =  0.00D+00  THRDEDEF=  1.00D-06  GRADIENT=  1.00D-02  STEP    =  1.00D-03
 ORBITAL =  1.00D-05  CIVEC   =  1.00D-05  COEFF   =  1.00D-04  PRINTCI =  5.00D-02  PUNCHCI =  9.90D+01  OPTGRAD =  1.00D-08
 OPTENERG=  1.00D-06  OPTSTEP =  1.00D-08  THRGRAD =  1.00D-10  COMPRESS=  1.00D-11  VARMIN  =  1.00D-07  VARMAX  =  1.00D-03
 THRDOUB =  0.00D+00  THRDIV  =  1.00D-05  THRRED  =  1.00D-07  THRPSP  =  1.00D+00  THRDC   =  1.00D-10  THRCS   =  1.00D-10
 THRNRM  =  1.00D-08  THREQ   =  0.00D+00  THRDE   =  1.00D+00  THRREF  =  1.00D-05  SPARFAC =  1.00D+00  THRDLP  =  1.00D-07
 THRDIA  =  1.00D-10  THRDLS  =  1.00D-07  THRGPS  =  0.00D+00  THRKEX  =  0.00D+00  THRDIS  =  2.00D-01  THRVAR  =  1.00D-10
 THRLOC  =  1.00D-06  THRGAP  =  1.00D-06  THRLOCT = -1.00D+00  THRGAPT = -1.00D+00  THRORB  =  1.00D-06  THRMLTP =  0.00D+00
 THRCPQCI=  1.00D-10  KEXTA   =  0.00D+00  THRCOARS=  0.00D+00  SYMTOL  =  1.00D-06  GRADTOL =  1.00D-06  THROVL  =  1.00D-08
 THRORTH =  1.00D-08  GRID    =  1.00D-06  GRIDMAX =  1.00D-03  DTMAX   =  0.00D+00  THROCCDE=  1.00D-01  THROCCDE=  1.00D-01



 Input parameters for SORTINT:

 COMPRESS =    0.000000
 C_FINAL  =    1.000000
 DEBUG    =   -1.000000
 C_SORT1  =    0.000000
 C_SEWARD =    0.000000
 THRESH   =    0.000000
 IO       =  molpro                                                          
 SPRI     =    0.000000
 SETTING GEOMTYP        =    XYZ
 ZUNIT=BOHR
 

 Variable memory set to  995000000 words,  buffer space   230000 words

 SETTING BASIS          =    USERDEF


 Recomputing integrals since basis changed


 Using spherical harmonics

 Library entry H      S aug-cc-pVTZ          selected for orbital group  2
 Library entry H      P aug-cc-pVTZ          selected for orbital group  2
 Library entry H      D aug-cc-pVTZ          selected for orbital group  2


 PROGRAM * SEWARD (Integral evaluation for generally contracted gaussian basis sets)     Author: Roland Lindh, 1990

 Geometry written to block  1 of record 700


 Point group  Cs  



 ATOMIC COORDINATES

 NR  ATOM    CHARGE       X              Y              Z

   1  N       7.00    0.000000000   -0.169379429   -1.148867904
   2  H       1.00    0.000000000    1.676663694   -1.936260785
   3  O       8.00    0.000000000    0.034483525    1.134539098

 Bond lengths in Bohr (Angstrom)

 1-2  2.006953602  1-3  2.292489399
     ( 1.062034110)     ( 1.213133146)

 Bond angles

  2-1-3  107.99785509

 NUCLEAR CHARGE:                   16
 NUMBER OF PRIMITIVE AOS:         203
 NUMBER OF SYMMETRY AOS:          173
 NUMBER OF CONTRACTIONS:          171   ( 114A'  +  57A"  )
 NUMBER OF CORE ORBITALS:           2   (   2A'  +   0A"  )
 NUMBER OF VALENCE ORBITALS:        9   (   7A'  +   2A"  )


 NUCLEAR REPULSION ENERGY   30.21278484


 Eigenvalues of metric

         1 0.107E-02 0.254E-02 0.340E-02 0.645E-02 0.102E-01 0.138E-01 0.145E-01 0.236E-01
         2 0.376E-01 0.540E-01 0.709E-01 0.942E-01 0.131E+00 0.135E+00 0.141E+00 0.142E+00


 Contracted 2-electron integrals neglected if value below      1.0D-22

       46129083. INTEGRALS WRITTEN OUT IN   11265 BLOCKS ON RECORD 1290 OF FILE 1


 NUMBER OF SORTED TWO-ELECTRON INTEGRALS:   55360566.     BUFFER LENGTH:  32768
 NUMBER OF SEGMENTS:   4  SEGMENT LENGTH:   15997996      RECORD LENGTH: 524288

 Memory used in sort:      16.56 MW

 SORT1 READ    46129083. AND WROTE    46566394. INTEGRALS IN    135 RECORDS. CPU TIME:     1.47 SEC, REAL TIME:     1.96 SEC
 SORT2 READ    46566394. AND WROTE    55360566. INTEGRALS IN      4 RECORDS. CPU TIME:     0.89 SEC, REAL TIME:     1.21 SEC

 FILE SIZES:   FILE 1:   759.0 MBYTE,  FILE 4:   566.3 MBYTE,   TOTAL:   1325.3 MBYTE

 OPERATOR DM      FOR CENTER  0  COORDINATES:    0.000000    0.000000    0.000000


 **********************************************************************************************************************************
 DATASETS  * FILE   NREC   LENGTH (MB)   RECORD NAMES
              1      19      421.14       500      610      700      900      950      970     1000      129      960     1100   
                                          VAR    BASINP    GEOM    SYMINP    ZMAT    AOBASIS   BASIS     P2S    ABASIS      S 
                                         1400     1410     1200     1210     1080     1600     1650     1300     1700   
                                           T        V       H0       H01     AOSYM     SMH    MOLCAS    ERIS     OPER   

 PROGRAMS   *        TOTAL       INT
 CPU TIMES  *         6.83      6.73
 REAL TIME  *         8.82 SEC
 DISK USED  *         1.33 GB      
 **********************************************************************************************************************************


 PROGRAM * RHF-SCF (CLOSED SHELL)       Authors: W. Meyer, H.-J. Werner


 NUMBER OF ELECTRONS:       8+    8-
 CONVERGENCE THRESHOLDS:    1.00E-10 (Density)    1.00E-13 (Energy)
 MAX. NUMBER OF ITERATIONS:      500
 INTERPOLATION TYPE:            DIIS
 INTERPOLATION STEPS:              2 (START)      1 (STEP)
 LEVEL SHIFTS:                  0.00 (CLOSED)  0.00 (OPEN) 



 Orbital guess generated from atomic densities. Full valence occupancy:    9   2

 Molecular orbital dump at record        2100.2

 Initial occupancy:   7   1

 ITERATION    DDIFF          GRAD             ENERGY        2-EL.EN.            DIPOLE MOMENTS         DIIS   ORB.
    1      0.000D+00      0.000D+00      -129.78684124    153.775512    0.00000    0.56359   -1.03116    0    start
    2      0.000D+00      0.888D-02      -129.81355611    154.949859    0.00000    0.60005   -0.18833    1    diag
    3      0.365D-02      0.686D-02      -129.83769855    155.079461    0.00000    0.54465   -0.58935    2    diag
    4      0.145D-02      0.104D-02      -129.83849416    154.799863    0.00000    0.55266   -0.52614    3    diag
    5      0.331D-03      0.341D-03      -129.83861849    154.889132    0.00000    0.55881   -0.52850    4    diag
    6      0.154D-03      0.101D-03      -129.83863896    154.872820    0.00000    0.55935   -0.52425    5    diag
    7      0.612D-04      0.507D-04      -129.83864505    154.875360    0.00000    0.56070   -0.52167    6    diag
    8      0.417D-04      0.177D-04      -129.83864574    154.874499    0.00000    0.56076   -0.52071    7    diag
    9      0.149D-04      0.333D-05      -129.83864577    154.874378    0.00000    0.56070   -0.52052    8    diag
   10      0.306D-05      0.749D-06      -129.83864577    154.874363    0.00000    0.56067   -0.52049    9    orth
   11      0.878D-06      0.149D-06      -129.83864577    154.874358    0.00000    0.56066   -0.52049    9    diag
   12      0.208D-06      0.312D-07      -129.83864577    154.874357    0.00000    0.56066   -0.52049    9    diag
   13      0.517D-07      0.839D-08      -129.83864577    154.874357    0.00000    0.56066   -0.52049    9    diag
   14      0.121D-07      0.147D-08      -129.83864577    154.874357    0.00000    0.56066   -0.52049    9    diag
   15      0.150D-08      0.391D-09      -129.83864577    154.874357    0.00000    0.56066   -0.52049    9    diag
   16      0.337D-09      0.113D-09      -129.83864577    154.874357    0.00000    0.56066   -0.52049    9    diag
   17      0.741D-10      0.308D-10      -129.83864577    154.874357    0.00000    0.56066   -0.52049    9    diag
   18      0.226D-10      0.102D-10      -129.83864577    154.874357    0.00000    0.56066   -0.52049    9    diag
   19      0.923D-11      0.242D-11      -129.83864577    154.874357    0.00000    0.56066   -0.52049    0    orth

 Final occupancy:   7   1

 !RHF STATE 1.1 Energy               -129.838645770311
 Nuclear energy                        30.21278484
 One-electron energy                 -237.48860915
 Two-electron energy                   77.43717854
 Virial quotient                       -1.00189726
 !RHF STATE 1.1 Dipole moment           0.00000000     0.56065528    -0.52048708
 Dipole moment /Debye                   0.00000000     1.42495025    -1.32285957

 Orbital energies:

         1.1          2.1          3.1          4.1          5.1          6.1          7.1          8.1          9.1
    -20.651910   -15.712858    -1.523811    -0.991525    -0.742516    -0.662714    -0.429850     0.039584     0.191628

         1.2          2.2          3.2
     -0.591942     0.077346     0.239255

 HOMO      7.1    -0.429850 =     -11.6968eV
 LUMO      8.1     0.039584 =       1.0771eV
 LUMO-HOMO         0.469433 =      12.7739eV


 **********************************************************************************************************************************
 DATASETS  * FILE   NREC   LENGTH (MB)   RECORD NAMES
              1      19      421.14       500      610      700      900      950      970     1000      129      960     1100   
                                          VAR    BASINP    GEOM    SYMINP    ZMAT    AOBASIS   BASIS     P2S    ABASIS      S 
                                         1400     1410     1200     1210     1080     1600     1650     1300     1700   
                                           T        V       H0       H01     AOSYM     SMH    MOLCAS    ERIS     OPER   

              2       4        3.13       700     1000      520     2100   
                                         GEOM     BASIS   MCVARS     RHF  

 PROGRAMS   *        TOTAL        HF       INT
 CPU TIMES  *        13.49      6.66      6.73
 REAL TIME  *        17.12 SEC
 DISK USED  *         1.33 GB      
 **********************************************************************************************************************************


 PROGRAM * CCSD (Closed-shell coupled cluster)     Authors: C. Hampel, H.-J. Werner, 1991, M. Deegan, P.J. Knowles, 1992


 Convergence thresholds:  THRVAR = 1.00D-08  THRDEN = 1.00D-12

 CCSD(T)     terms to be evaluated (factor= 1.000)


 Number of closed-shell orbitals:   8 (   7   1 )
 Number of external orbitals:     163 ( 107  56 )

 Molecular orbitals read from record     2100.2  Type=RHF/CANONICAL (state 1.1)

 Number of N-1 electron functions:               8
 Number of N-2 electron functions:              36
 Number of singly external CSFs:               805
 Number of doubly external CSFs:            449165
 Total number of CSFs:                      449971

 Length of J-op  integral file:               0.00 MB
 Length of K-op  integral file:               1.15 MB
 Length of 3-ext integral record:             0.00 MB

 Memory could be reduced to 24.90 Mwords without degradation in triples

 Integral transformation finished. Total CPU:   1.37 sec, npass=  1  Memory used:   6.89 MW

 Reference energy:                   -129.83864577

 MP2 singlet pair energy:              -0.37967711
 MP2 triplet pair energy:              -0.18707114
 MP2 correlation energy:               -0.56674826
 MP2 total energy:                   -130.40539403

 SCS-MP2 correlation energy:           -0.57201236   (PS=  1.200000  PT=  0.333333)
 SCS-MP2 total energy:               -130.41065813

 ITER.      SQ.NORM     CORR.ENERGY   TOTAL ENERGY   ENERGY CHANGE        DEN1      VAR(S)    VAR(P)  DIIS     TIME  TIME/IT
   1      1.12064854    -0.57125987  -130.40990564    -0.00451161     0.01351749  0.35D-02  0.32D-02  1  1     2.89     1.56
   2      1.13172820    -0.57090789  -130.40955366     0.00035199    -0.01391260  0.94D-04  0.51D-03  2  2     4.38     1.61
   3      1.13710539    -0.57124578  -130.40989155    -0.00033789    -0.00239372  0.58D-04  0.70D-04  3  3     5.95     1.63
   4      1.14063438    -0.57123726  -130.40988303     0.00000851    -0.00141414  0.48D-05  0.10D-04  4  4     7.46     1.64
   5      1.14173304    -0.57126265  -130.40990842    -0.00002539    -0.00025998  0.17D-05  0.19D-05  5  5     9.00     1.65
   6      1.14215804    -0.57125629  -130.40990206     0.00000636    -0.00004132  0.15D-06  0.41D-06  6  6    10.58     1.65
   7      1.14224377    -0.57125650  -130.40990227    -0.00000021     0.00000070  0.22D-07  0.93D-07  6  1    12.15     1.66
   8      1.14227862    -0.57125467  -130.40990044     0.00000184    -0.00000493  0.40D-08  0.14D-07  6  2    13.69     1.66
   9      1.14228367    -0.57125470  -130.40990047    -0.00000004     0.00000119  0.17D-08  0.19D-08  6  3    15.17     1.65
  10      1.14228552    -0.57125501  -130.40990078    -0.00000031    -0.00000071  0.41D-09  0.27D-09  6  4    16.67     1.65
  11      1.14228456    -0.57125515  -130.40990092    -0.00000014     0.00000035  0.10D-09  0.27D-10  6  5    18.13     1.65
  12      1.14228366    -0.57125529  -130.40990106    -0.00000014     0.00000035  0.11D-10  0.69D-11  6  6    19.65     1.64
  13      1.14228311    -0.57125530  -130.40990107    -0.00000001     0.00000011  0.46D-11  0.12D-11  6  1    21.13     1.64
  14      1.14228266    -0.57125533  -130.40990110    -0.00000003     0.00000011  0.46D-12  0.42D-12  6  3    22.65     1.64
  15      1.14228249    -0.57125533  -130.40990110    -0.00000000     0.00000002  0.12D-12  0.29D-13  6  2    24.13     1.64
  16      1.14228243    -0.57125533  -130.40990110    -0.00000000     0.00000001  0.26D-13  0.63D-14  6  4    25.61     1.64
  17      1.14228241    -0.57125533  -130.40990110    -0.00000000     0.00000001  0.47D-14  0.12D-14  6  5    27.05     1.63
  18      1.14228241    -0.57125533  -130.40990110    -0.00000000     0.00000000  0.49D-15  0.31D-15  6  6    28.53     1.63
  19      1.14228241    -0.57125533  -130.40990110     0.00000000    -0.00000000  0.62D-16  0.43D-16  6  1    29.98     1.63
  20      1.14228241    -0.57125533  -130.40990110     0.00000000    -0.00000000  0.26D-17  0.95D-17  6  3    31.44     1.62
  21      1.14228241    -0.57125533  -130.40990110     0.00000000    -0.00000000  0.13D-17  0.24D-17  6  2    32.92     1.62
  22      1.14228241    -0.57125533  -130.40990110     0.00000000    -0.00000000  0.23D-18  0.87D-18  6  4    34.39     1.62
  23      1.14228241    -0.57125533  -130.40990110    -0.00000000     0.00000000  0.14D-18  0.13D-18  6  5    35.83     1.62
  24      1.14228241    -0.57125533  -130.40990110     0.00000000    -0.00000000  0.63D-20  0.16D-19  6  1    37.31     1.62
  25      1.14228241    -0.57125533  -130.40990110     0.00000000     0.00000000  0.35D-21  0.16D-20  6  6    38.78     1.62
  26      1.14228241    -0.57125533  -130.40990110    -0.00000000     0.00000000  0.12D-21  0.35D-21  6  3    40.24     1.62

 Norm of t1 vector:      0.07893361      S-energy:     0.00000000      T1 diagnostic:  0.01395362
                                                                       D1 diagnostic:  0.04473440

 Doubles amplitudes (print threshold =  0.500E-01):

         I         J         SYM. A    SYM. B    A         B      T(IJ, AB)

         8         8         2         2         1         1     -0.13607857


 Total CPU time for triples:     26.99 sec


 RESULTS
 =======

  Reference energy                   -129.838645770311

  Correlated core orbitals:             1.1       2.1
  Orbital energies:                   -20.6519  -15.7129
 
  CCSD core-core energy                -0.079236496644
  CCSD core-valence energy             -0.036022184496
  CCSD valence correlation energy      -0.455996651678
 
  CCSD singlet pair energy             -0.408705951530
  CCSD triplet pair energy             -0.162549381290
  CCSD correlation energy              -0.571255332818

  Triples (T) contribution             -0.022516932284
  Total correlation energy             -0.593772265102

  CCSD total energy                  -130.409901103129
  CCSD[T] energy                     -130.433623317903
  CCSD-T energy                      -130.431967445020
 !CCSD(T) total energy               -130.432418035413

 Timing summary (sec):

 STEP                 CPU(USER)    SYS     CPU(TOT)    WALL
 Transformation          1.40      0.20      1.60      1.59
 CCSD iterations        38.85      3.19     42.04     42.06
 Triples                26.99      0.74     27.73     27.73

 Program statistics:

 Available memory in ccsd:               994999644
 Min. memory needed in ccsd:               1368037
 Max. memory used in ccsd:                 1750502
 Max. memory used in cckext:               2014357 (26 integral passes)



 **********************************************************************************************************************************
 DATASETS  * FILE   NREC   LENGTH (MB)   RECORD NAMES
              1      20      500.05       500      610      700      900      950      970     1000      129      960     1100   
                                          VAR    BASINP    GEOM    SYMINP    ZMAT    AOBASIS   BASIS     P2S    ABASIS      S 
                                         1400     1410     1200     1210     1080     1600     1650     1300     1700     1380   
                                           T        V       H0       H01     AOSYM     SMH    MOLCAS    ERIS     OPER     JKOP   

              2       4        3.13       700     1000      520     2100   
                                         GEOM     BASIS   MCVARS     RHF  

 PROGRAMS   *        TOTAL   CCSD(T)        HF       INT
 CPU TIMES  *        80.77     67.28      6.66      6.73
 REAL TIME  *        88.54 SEC
 DISK USED  *         1.33 GB      
 **********************************************************************************************************************************

 CCSD(T)/USERDEF energy=   -130.432418035413

        CCSD(T)         HF-SCF  
   -130.43241804   -129.83864577
 **********************************************************************************************************************************
 Molpro calculation terminated
 Variable memory released
