
 Primary working directories    : /tmp/r2666/235567.maple
 Secondary working directories  : /tmp/r2666/235567.maple
 Wavefunction directory         : /ddn/home4/r2666/wfu/
 Main file repository           : /tmp/r2666/235567.maple/

 SHA1      : d5ffa45e93fdbca01ffc919aa182cfdae0147319
 NAME      : 2015.1.35
 ARCHNAME  : linux/x86_64
 FC        : /opt/intel/composer_xe_2015.1.133/bin/intel64/ifort
 BLASLIB   : -Wl,-_start-group /opt/intel/mkl/lib/intel64/libmkl_intel_ilp64.a /opt/intel/mkl/lib/intel64/libmkl_intel_thread.a /opt/intel/mkl/lib/intel64/libmkl_core.a -Wl,-_end-group
 id        : olemiss

 Nodes     nprocs
 cn096        1

 Using customized tuning parameters: mindgm=1; mindgv=20; mindgc=4; mindgr=1; noblas=0; minvec=7
 default implementation of scratch files=df  

 ***,hno CCSD(T)/TZ-F12 QFF
 memory, 995, m;
 gthresh,energy=1.d-12,zero=1.d-22,oneint=1.d-22,twoint=1.d-22;
 gthresh,optgrad=1.d-8,optstep=1.d-8;
 nocompress;
 geomtyp=xyz
 bohr
 geometry={
 3
         21        21
 N        0.0000000000       -0.1594803621       -1.1423174213
 H        0.0000000000        1.6603998966       -1.9187994383
 O        0.0000000000        0.0408482555        1.1105272686
 }
 
 basis={
 default=aug-cc-pvtz
 s,C,8236.0,1235.0,280.8, 79.27,25.59, 8.997,3.319
 s,C,0.9059,0.3643,0.1285000
 p,C,56.0,18.71,4.133,0.2827,0.3827,0.1209
 d,C,30.0,10.0,3.3,1.097,0.318
 f,C,7.0,2.3,0.7610
 s,N,11420.0,1712.0,389.3,110.0,35.57,12.54,4.644
 s,N,1.293,0.5118,0.1787
 p,N,79.89,26.63,5.948,1.742,0.555,0.1725
 d,N,45.0,15.0,5.0,1.654,0.469
 f,N,9.9,3.3,1.093
 s,O,15330.0,2299.0,522.4,147.3,47.55,16.76,6.207
 s,O,1.752,0.6882,0.2384
 p,O,103.5,34.46,7.749,2.28,0.7156,0.214
 d,O,63.0,21.0,7.0,2.314,0.645
 f,O,12.9,4.3,1.428
 s,mg,164900.0,24710.0,5628.0,1596.0,521.0;
 s,mg,188.0,73.01,29.90,12.54,4.306,1.826;
 s,mg,0.7417,0.0761,0.145,0.033,0.0129;
 p,mg,950.70,316.90,74.86,23.72,8.669,3.363;
 p,mg,1.310,0.4911,0.2364,0.08733,0.03237,0.00745;
 d,mg,1.601,0.686,0.126,0.294,0.0468;
 f,mg,1.372,0.588,0.094,0.252;
 }
   {hf,maxit=500;accu,20;}
 {ccsd(t),nocheck,maxit=250;orbital,IGNORE_ERROR;core}

 Variables initialized (889), CPU time= 0.01 sec
 Commands  initialized (702), CPU time= 0.01 sec, 572 directives.
 Default parameters read. Elapsed time= 0.05 sec

 Checking input...
 Passed
1


                                         ***  PROGRAM SYSTEM MOLPRO  ***
                                       Copyright, TTI GmbH Stuttgart, 2015
                                    Version 2015.1 linked Jul  9 2018 13:16:40


 **********************************************************************************************************************************
 LABEL *   hno CCSD(T)/TZ-F12 QFF                                                        
  64 bit serial version                                                                  DATE: 09-Feb-20          TIME: 14:35:02  
 **********************************************************************************************************************************

 SHA1:             d5ffa45e93fdbca01ffc919aa182cfdae0147319
 **********************************************************************************************************************************

 THRESHOLDS:

 ZERO    =  1.00D-22  ONEINT  =  1.00D-22  TWOINT  =  1.00D-22  PREFAC  =  1.00D-14  LOCALI  =  1.00D-09  EORDER  =  1.00D-04
 ENERGY  =  1.00D-12  ETEST   =  0.00D+00  EDENS   =  0.00D+00  THRDEDEF=  1.00D-06  GRADIENT=  1.00D-02  STEP    =  1.00D-03
 ORBITAL =  1.00D-05  CIVEC   =  1.00D-05  COEFF   =  1.00D-04  PRINTCI =  5.00D-02  PUNCHCI =  9.90D+01  OPTGRAD =  3.00D-04
 OPTENERG=  1.00D-06  OPTSTEP =  3.00D-04  THRGRAD =  1.00D-10  COMPRESS=  1.00D-11  VARMIN  =  1.00D-07  VARMAX  =  1.00D-03
 THRDOUB =  0.00D+00  THRDIV  =  1.00D-05  THRRED  =  1.00D-07  THRPSP  =  1.00D+00  THRDC   =  1.00D-10  THRCS   =  1.00D-10
 THRNRM  =  1.00D-08  THREQ   =  0.00D+00  THRDE   =  1.00D+00  THRREF  =  1.00D-05  SPARFAC =  1.00D+00  THRDLP  =  1.00D-07
 THRDIA  =  1.00D-10  THRDLS  =  1.00D-07  THRGPS  =  0.00D+00  THRKEX  =  0.00D+00  THRDIS  =  2.00D-01  THRVAR  =  1.00D-10
 THRLOC  =  1.00D-06  THRGAP  =  1.00D-06  THRLOCT = -1.00D+00  THRGAPT = -1.00D+00  THRORB  =  1.00D-06  THRMLTP =  0.00D+00
 THRCPQCI=  1.00D-10  KEXTA   =  0.00D+00  THRCOARS=  0.00D+00  SYMTOL  =  1.00D-06  GRADTOL =  1.00D-06  THROVL  =  1.00D-08
 THRORTH =  1.00D-08  GRID    =  1.00D-06  GRIDMAX =  1.00D-03  DTMAX   =  0.00D+00  THROCCDE=  1.00D-01  THROCCDE=  1.00D-01



 THRESHOLDS:

 ZERO    =  1.00D-22  ONEINT  =  1.00D-22  TWOINT  =  1.00D-22  PREFAC  =  1.00D-14  LOCALI  =  1.00D-09  EORDER  =  1.00D-04
 ENERGY  =  1.00D-12  ETEST   =  0.00D+00  EDENS   =  0.00D+00  THRDEDEF=  1.00D-06  GRADIENT=  1.00D-02  STEP    =  1.00D-03
 ORBITAL =  1.00D-05  CIVEC   =  1.00D-05  COEFF   =  1.00D-04  PRINTCI =  5.00D-02  PUNCHCI =  9.90D+01  OPTGRAD =  1.00D-08
 OPTENERG=  1.00D-06  OPTSTEP =  1.00D-08  THRGRAD =  1.00D-10  COMPRESS=  1.00D-11  VARMIN  =  1.00D-07  VARMAX  =  1.00D-03
 THRDOUB =  0.00D+00  THRDIV  =  1.00D-05  THRRED  =  1.00D-07  THRPSP  =  1.00D+00  THRDC   =  1.00D-10  THRCS   =  1.00D-10
 THRNRM  =  1.00D-08  THREQ   =  0.00D+00  THRDE   =  1.00D+00  THRREF  =  1.00D-05  SPARFAC =  1.00D+00  THRDLP  =  1.00D-07
 THRDIA  =  1.00D-10  THRDLS  =  1.00D-07  THRGPS  =  0.00D+00  THRKEX  =  0.00D+00  THRDIS  =  2.00D-01  THRVAR  =  1.00D-10
 THRLOC  =  1.00D-06  THRGAP  =  1.00D-06  THRLOCT = -1.00D+00  THRGAPT = -1.00D+00  THRORB  =  1.00D-06  THRMLTP =  0.00D+00
 THRCPQCI=  1.00D-10  KEXTA   =  0.00D+00  THRCOARS=  0.00D+00  SYMTOL  =  1.00D-06  GRADTOL =  1.00D-06  THROVL  =  1.00D-08
 THRORTH =  1.00D-08  GRID    =  1.00D-06  GRIDMAX =  1.00D-03  DTMAX   =  0.00D+00  THROCCDE=  1.00D-01  THROCCDE=  1.00D-01



 Input parameters for SORTINT:

 COMPRESS =    0.000000
 C_FINAL  =    1.000000
 DEBUG    =   -1.000000
 C_SORT1  =    0.000000
 C_SEWARD =    0.000000
 THRESH   =    0.000000
 IO       =  molpro                                                          
 SPRI     =    0.000000
 SETTING GEOMTYP        =    XYZ
 ZUNIT=BOHR
 

 Variable memory set to  995000000 words,  buffer space   230000 words

 SETTING BASIS          =    USERDEF


 Recomputing integrals since basis changed


 Using spherical harmonics

 Library entry H      S aug-cc-pVTZ          selected for orbital group  2
 Library entry H      P aug-cc-pVTZ          selected for orbital group  2
 Library entry H      D aug-cc-pVTZ          selected for orbital group  2


 PROGRAM * SEWARD (Integral evaluation for generally contracted gaussian basis sets)     Author: Roland Lindh, 1990

 Geometry written to block  1 of record 700


 Point group  Cs  



 ATOMIC COORDINATES

 NR  ATOM    CHARGE       X              Y              Z

   1  N       7.00    0.000000000   -0.159480362   -1.142317421
   2  H       1.00    0.000000000    1.660399897   -1.918799438
   3  O       8.00    0.000000000    0.040848255    1.110527269

 Bond lengths in Bohr (Angstrom)

 1-2  1.978607712  1-3  2.261734014
     ( 1.047034111)     ( 1.196858098)

 Bond angles

  2-1-3  108.02480139

 NUCLEAR CHARGE:                   16
 NUMBER OF PRIMITIVE AOS:         203
 NUMBER OF SYMMETRY AOS:          173
 NUMBER OF CONTRACTIONS:          171   ( 114A'  +  57A"  )
 NUMBER OF CORE ORBITALS:           2   (   2A'  +   0A"  )
 NUMBER OF VALENCE ORBITALS:        9   (   7A'  +   2A"  )


 NUCLEAR REPULSION ENERGY   30.62651802


 Eigenvalues of metric

         1 0.101E-02 0.240E-02 0.326E-02 0.627E-02 0.968E-02 0.136E-01 0.144E-01 0.226E-01
         2 0.357E-01 0.514E-01 0.689E-01 0.939E-01 0.131E+00 0.134E+00 0.140E+00 0.142E+00


 Contracted 2-electron integrals neglected if value below      1.0D-22

       46239623. INTEGRALS WRITTEN OUT IN   11292 BLOCKS ON RECORD 1290 OF FILE 1


 NUMBER OF SORTED TWO-ELECTRON INTEGRALS:   55360566.     BUFFER LENGTH:  32768
 NUMBER OF SEGMENTS:   4  SEGMENT LENGTH:   15997996      RECORD LENGTH: 524288

 Memory used in sort:      16.56 MW

 SORT1 READ    46239623. AND WROTE    46677981. INTEGRALS IN    136 RECORDS. CPU TIME:     0.83 SEC, REAL TIME:     1.07 SEC
 SORT2 READ    46677981. AND WROTE    55360566. INTEGRALS IN      4 RECORDS. CPU TIME:     0.67 SEC, REAL TIME:     0.86 SEC

 FILE SIZES:   FILE 1:   760.8 MBYTE,  FILE 4:   570.5 MBYTE,   TOTAL:   1331.2 MBYTE

 OPERATOR DM      FOR CENTER  0  COORDINATES:    0.000000    0.000000    0.000000


 **********************************************************************************************************************************
 DATASETS  * FILE   NREC   LENGTH (MB)   RECORD NAMES
              1      19      421.87       500      610      700      900      950      970     1000      129      960     1100   
                                          VAR    BASINP    GEOM    SYMINP    ZMAT    AOBASIS   BASIS     P2S    ABASIS      S 
                                         1400     1410     1200     1210     1080     1600     1650     1300     1700   
                                           T        V       H0       H01     AOSYM     SMH    MOLCAS    ERIS     OPER   

 PROGRAMS   *        TOTAL       INT
 CPU TIMES  *         4.45      4.34
 REAL TIME  *         6.10 SEC
 DISK USED  *         1.33 GB      
 **********************************************************************************************************************************


 PROGRAM * RHF-SCF (CLOSED SHELL)       Authors: W. Meyer, H.-J. Werner


 NUMBER OF ELECTRONS:       8+    8-
 CONVERGENCE THRESHOLDS:    1.00E-10 (Density)    1.00E-13 (Energy)
 MAX. NUMBER OF ITERATIONS:      500
 INTERPOLATION TYPE:            DIIS
 INTERPOLATION STEPS:              2 (START)      1 (STEP)
 LEVEL SHIFTS:                  0.00 (CLOSED)  0.00 (OPEN) 



 Orbital guess generated from atomic densities. Full valence occupancy:    9   2

 Molecular orbital dump at record        2100.2

 Initial occupancy:   7   1

 ITERATION    DDIFF          GRAD             ENERGY        2-EL.EN.            DIPOLE MOMENTS         DIIS   ORB.
    1      0.000D+00      0.000D+00      -129.79257802    154.526410    0.00000    0.56635   -0.97729    0    start
    2      0.000D+00      0.866D-02      -129.81979051    155.714418    0.00000    0.59107   -0.20279    1    diag
    3      0.360D-02      0.640D-02      -129.84059211    155.813065    0.00000    0.54223   -0.56724    2    diag
    4      0.137D-02      0.102D-02      -129.84135036    155.547503    0.00000    0.55070   -0.50689    3    diag
    5      0.327D-03      0.331D-03      -129.84146576    155.634139    0.00000    0.55663   -0.50948    4    diag
    6      0.152D-03      0.968D-04      -129.84148445    155.618264    0.00000    0.55725   -0.50557    5    diag
    7      0.601D-04      0.480D-04      -129.84148980    155.620887    0.00000    0.55860   -0.50321    6    diag
    8      0.405D-04      0.159D-04      -129.84149033    155.620113    0.00000    0.55865   -0.50238    7    diag
    9      0.132D-04      0.292D-05      -129.84149035    155.620011    0.00000    0.55861   -0.50221    8    diag
   10      0.262D-05      0.681D-06      -129.84149035    155.619999    0.00000    0.55857   -0.50219    9    orth
   11      0.826D-06      0.137D-06      -129.84149035    155.619995    0.00000    0.55857   -0.50218    9    diag
   12      0.199D-06      0.279D-07      -129.84149035    155.619994    0.00000    0.55856   -0.50218    9    diag
   13      0.481D-07      0.725D-08      -129.84149035    155.619994    0.00000    0.55856   -0.50218    9    diag
   14      0.108D-07      0.131D-08      -129.84149035    155.619994    0.00000    0.55856   -0.50218    9    diag
   15      0.150D-08      0.366D-09      -129.84149035    155.619994    0.00000    0.55856   -0.50218    9    diag
   16      0.330D-09      0.114D-09      -129.84149035    155.619994    0.00000    0.55856   -0.50218    9    diag
   17      0.887D-10      0.333D-10      -129.84149035    155.619994    0.00000    0.55856   -0.50218    9    diag
   18      0.294D-10      0.106D-10      -129.84149035    155.619994    0.00000    0.55856   -0.50218    9    diag
   19      0.107D-10      0.261D-11      -129.84149035    155.619994    0.00000    0.55856   -0.50218    0    orth

 Final occupancy:   7   1

 !RHF STATE 1.1 Energy               -129.841490349058
 Nuclear energy                        30.62651802
 One-electron energy                 -238.27800518
 Two-electron energy                   77.80999681
 Virial quotient                       -1.00122692
 !RHF STATE 1.1 Dipole moment           0.00000000     0.55856292    -0.50218033
 Dipole moment /Debye                   0.00000000     1.41963234    -1.27633148

 Orbital energies:

         1.1          2.1          3.1          4.1          5.1          6.1          7.1          8.1          9.1
    -20.650098   -15.708089    -1.537407    -0.991519    -0.749201    -0.667432    -0.425749     0.039927     0.193836

         1.2          2.2          3.2
     -0.599511     0.083027     0.239936

 HOMO      7.1    -0.425749 =     -11.5852eV
 LUMO      8.1     0.039927 =       1.0865eV
 LUMO-HOMO         0.465676 =      12.6717eV


 **********************************************************************************************************************************
 DATASETS  * FILE   NREC   LENGTH (MB)   RECORD NAMES
              1      19      421.87       500      610      700      900      950      970     1000      129      960     1100   
                                          VAR    BASINP    GEOM    SYMINP    ZMAT    AOBASIS   BASIS     P2S    ABASIS      S 
                                         1400     1410     1200     1210     1080     1600     1650     1300     1700   
                                           T        V       H0       H01     AOSYM     SMH    MOLCAS    ERIS     OPER   

              2       4        3.13       700     1000      520     2100   
                                         GEOM     BASIS   MCVARS     RHF  

 PROGRAMS   *        TOTAL        HF       INT
 CPU TIMES  *         9.30      4.85      4.34
 REAL TIME  *        11.95 SEC
 DISK USED  *         1.33 GB      
 **********************************************************************************************************************************


 PROGRAM * CCSD (Closed-shell coupled cluster)     Authors: C. Hampel, H.-J. Werner, 1991, M. Deegan, P.J. Knowles, 1992


 Convergence thresholds:  THRVAR = 1.00D-08  THRDEN = 1.00D-12

 CCSD(T)     terms to be evaluated (factor= 1.000)


 Number of closed-shell orbitals:   8 (   7   1 )
 Number of external orbitals:     163 ( 107  56 )

 Molecular orbitals read from record     2100.2  Type=RHF/CANONICAL (state 1.1)

 Number of N-1 electron functions:               8
 Number of N-2 electron functions:              36
 Number of singly external CSFs:               805
 Number of doubly external CSFs:            449165
 Total number of CSFs:                      449971

 Length of J-op  integral file:               0.00 MB
 Length of K-op  integral file:               1.15 MB
 Length of 3-ext integral record:             0.00 MB

 Memory could be reduced to 24.90 Mwords without degradation in triples

 Integral transformation finished. Total CPU:   0.89 sec, npass=  1  Memory used:   6.89 MW

 Reference energy:                   -129.84149035

 MP2 singlet pair energy:              -0.37772434
 MP2 triplet pair energy:              -0.18588890
 MP2 correlation energy:               -0.56361324
 MP2 total energy:                   -130.40510359

 SCS-MP2 correlation energy:           -0.56893341   (PS=  1.200000  PT=  0.333333)
 SCS-MP2 total energy:               -130.41042376

 ITER.      SQ.NORM     CORR.ENERGY   TOTAL ENERGY   ENERGY CHANGE        DEN1      VAR(S)    VAR(P)  DIIS     TIME  TIME/IT
   1      1.11842000    -0.56875871  -130.41024905    -0.00514547     0.01202454  0.32D-02  0.30D-02  1  1     1.89     1.08
   2      1.12896703    -0.56856053  -130.41005088     0.00019818    -0.01337556  0.85D-04  0.48D-03  2  2     2.92     1.09
   3      1.13401505    -0.56887023  -130.41036058    -0.00030970    -0.00230649  0.51D-04  0.65D-04  3  3     3.89     1.09
   4      1.13729020    -0.56886191  -130.41035226     0.00000832    -0.00134059  0.41D-05  0.92D-05  4  4     4.89     1.09
   5      1.13826451    -0.56888494  -130.41037529    -0.00002303    -0.00022809  0.15D-05  0.18D-05  5  5     5.87     1.08
   6      1.13864659    -0.56887962  -130.41036997     0.00000532    -0.00003636  0.13D-06  0.41D-06  6  6     6.84     1.08
   7      1.13872855    -0.56887987  -130.41037022    -0.00000025     0.00000001  0.19D-07  0.91D-07  6  1     7.80     1.07
   8      1.13876170    -0.56887831  -130.41036866     0.00000156    -0.00000452  0.42D-08  0.12D-07  6  2     8.75     1.07
   9      1.13876633    -0.56887843  -130.41036878    -0.00000012     0.00000094  0.17D-08  0.16D-08  6  3     9.73     1.07
  10      1.13876777    -0.56887872  -130.41036907    -0.00000030    -0.00000054  0.38D-09  0.22D-09  6  4    10.72     1.07
  11      1.13876682    -0.56887885  -130.41036920    -0.00000013     0.00000033  0.89D-10  0.22D-10  6  5    11.69     1.07
  12      1.13876598    -0.56887898  -130.41036933    -0.00000012     0.00000033  0.92D-11  0.57D-11  6  6    12.68     1.07
  13      1.13876549    -0.56887899  -130.41036934    -0.00000001     0.00000010  0.39D-11  0.10D-11  6  1    13.71     1.07
  14      1.13876510    -0.56887901  -130.41036936    -0.00000002     0.00000009  0.42D-12  0.34D-12  6  3    14.70     1.07
  15      1.13876495    -0.56887901  -130.41036936    -0.00000000     0.00000002  0.10D-12  0.23D-13  6  2    15.71     1.07
  16      1.13876490    -0.56887901  -130.41036936    -0.00000000     0.00000001  0.23D-13  0.52D-14  6  4    16.69     1.07
  17      1.13876488    -0.56887901  -130.41036936    -0.00000000     0.00000000  0.37D-14  0.97D-15  6  5    17.65     1.07
  18      1.13876488    -0.56887901  -130.41036936    -0.00000000     0.00000000  0.37D-15  0.24D-15  6  6    18.63     1.07
  19      1.13876488    -0.56887901  -130.41036936     0.00000000    -0.00000000  0.42D-16  0.30D-16  6  1    19.58     1.07
  20      1.13876488    -0.56887901  -130.41036936     0.00000000    -0.00000000  0.17D-17  0.60D-17  6  3    20.57     1.07
  21      1.13876488    -0.56887901  -130.41036936     0.00000000    -0.00000000  0.87D-18  0.14D-17  6  2    21.52     1.07
  22      1.13876488    -0.56887901  -130.41036936     0.00000000    -0.00000000  0.15D-18  0.51D-18  6  4    22.44     1.07
  23      1.13876488    -0.56887901  -130.41036936    -0.00000000     0.00000000  0.88D-19  0.78D-19  6  5    23.42     1.07
  24      1.13876488    -0.56887901  -130.41036936     0.00000000    -0.00000000  0.42D-20  0.99D-20  6  1    24.38     1.07
  25      1.13876488    -0.56887901  -130.41036936     0.00000000     0.00000000  0.22D-21  0.11D-20  6  6    25.37     1.07
  26      1.13876488    -0.56887901  -130.41036936    -0.00000000     0.00000000  0.96D-22  0.25D-21  6  3    26.38     1.07

 Norm of t1 vector:      0.07569476      S-energy:     0.00000000      T1 diagnostic:  0.01338107
                                                                       D1 diagnostic:  0.04263675

 Doubles amplitudes (print threshold =  0.500E-01):

         I         J         SYM. A    SYM. B    A         B      T(IJ, AB)

         8         8         2         2         1         1     -0.13133908


 Total CPU time for triples:     18.98 sec


 RESULTS
 =======

  Reference energy                   -129.841490349058

  Correlated core orbitals:             1.1       2.1
  Orbital energies:                   -20.6501  -15.7081
 
  CCSD core-core energy                -0.079225210820
  CCSD core-valence energy             -0.036158871922
  CCSD valence correlation energy      -0.453494931368
 
  CCSD singlet pair energy             -0.406552750288
  CCSD triplet pair energy             -0.162326263823
  CCSD correlation energy              -0.568879014110

  Triples (T) contribution             -0.021903119171
  Total correlation energy             -0.590782133281

  CCSD total energy                  -130.410369363168
  CCSD[T] energy                     -130.433388623530
  CCSD-T energy                      -130.431847761019
 !CCSD(T) total energy               -130.432272482339

 Timing summary (sec):

 STEP                 CPU(USER)    SYS     CPU(TOT)    WALL
 Transformation          0.91      0.18      1.09      1.10
 CCSD iterations        25.47      2.35     27.82     27.82
 Triples                18.98      0.55     19.53     19.53

 Program statistics:

 Available memory in ccsd:               994999644
 Min. memory needed in ccsd:               1368037
 Max. memory used in ccsd:                 1750502
 Max. memory used in cckext:               2014357 (26 integral passes)



 **********************************************************************************************************************************
 DATASETS  * FILE   NREC   LENGTH (MB)   RECORD NAMES
              1      20      500.79       500      610      700      900      950      970     1000      129      960     1100   
                                          VAR    BASINP    GEOM    SYMINP    ZMAT    AOBASIS   BASIS     P2S    ABASIS      S 
                                         1400     1410     1200     1210     1080     1600     1650     1300     1700     1380   
                                           T        V       H0       H01     AOSYM     SMH    MOLCAS    ERIS     OPER     JKOP   

              2       4        3.13       700     1000      520     2100   
                                         GEOM     BASIS   MCVARS     RHF  

 PROGRAMS   *        TOTAL   CCSD(T)        HF       INT
 CPU TIMES  *        54.68     45.38      4.85      4.34
 REAL TIME  *        60.43 SEC
 DISK USED  *         1.33 GB      
 **********************************************************************************************************************************

 CCSD(T)/USERDEF energy=   -130.432272482339

        CCSD(T)         HF-SCF  
   -130.43227248   -129.84149035
 **********************************************************************************************************************************
 Molpro calculation terminated
 Variable memory released
