
 Primary working directories    : /tmp/r2666/235422.maple
 Secondary working directories  : /tmp/r2666/235422.maple
 Wavefunction directory         : /ddn/home4/r2666/wfu/
 Main file repository           : /tmp/r2666/235422.maple/

 SHA1      : d5ffa45e93fdbca01ffc919aa182cfdae0147319
 NAME      : 2015.1.35
 ARCHNAME  : linux/x86_64
 FC        : /opt/intel/composer_xe_2015.1.133/bin/intel64/ifort
 BLASLIB   : -Wl,-_start-group /opt/intel/mkl/lib/intel64/libmkl_intel_ilp64.a /opt/intel/mkl/lib/intel64/libmkl_intel_thread.a /opt/intel/mkl/lib/intel64/libmkl_core.a -Wl,-_end-group
 id        : olemiss

 Nodes     nprocs
 cn037        1

 Using customized tuning parameters: mindgm=1; mindgv=20; mindgc=4; mindgr=1; noblas=0; minvec=7
 default implementation of scratch files=df  

 ***,hno CCSD(T)/TZ-F12 QFF
 memory, 995, m;
 gthresh,energy=1.d-12,zero=1.d-22,oneint=1.d-22,twoint=1.d-22;
 gthresh,optgrad=1.d-8,optstep=1.d-8;
 nocompress;
 geomtyp=xyz
 bohr
 geometry={
 3
         19        19
 N        0.0000000000       -0.1522406718       -1.1594244221
 H        0.0000000000        1.6598853463       -1.9300000417
 O        0.0000000000        0.0341231154        1.1388348728
 }
 
 basis={
 default=aug-cc-pvtz
 s,C,8236.0,1235.0,280.8, 79.27,25.59, 8.997,3.319
 s,C,0.9059,0.3643,0.1285000
 p,C,56.0,18.71,4.133,0.2827,0.3827,0.1209
 d,C,30.0,10.0,3.3,1.097,0.318
 f,C,7.0,2.3,0.7610
 s,N,11420.0,1712.0,389.3,110.0,35.57,12.54,4.644
 s,N,1.293,0.5118,0.1787
 p,N,79.89,26.63,5.948,1.742,0.555,0.1725
 d,N,45.0,15.0,5.0,1.654,0.469
 f,N,9.9,3.3,1.093
 s,O,15330.0,2299.0,522.4,147.3,47.55,16.76,6.207
 s,O,1.752,0.6882,0.2384
 p,O,103.5,34.46,7.749,2.28,0.7156,0.214
 d,O,63.0,21.0,7.0,2.314,0.645
 f,O,12.9,4.3,1.428
 s,mg,164900.0,24710.0,5628.0,1596.0,521.0;
 s,mg,188.0,73.01,29.90,12.54,4.306,1.826;
 s,mg,0.7417,0.0761,0.145,0.033,0.0129;
 p,mg,950.70,316.90,74.86,23.72,8.669,3.363;
 p,mg,1.310,0.4911,0.2364,0.08733,0.03237,0.00745;
 d,mg,1.601,0.686,0.126,0.294,0.0468;
 f,mg,1.372,0.588,0.094,0.252;
 }
   {hf,maxit=500;accu,20;}
 {ccsd(t),nocheck,maxit=250;orbital,IGNORE_ERROR;core}

 Variables initialized (889), CPU time= 0.00 sec
 Commands  initialized (702), CPU time= 0.01 sec, 572 directives.
 Default parameters read. Elapsed time= 0.06 sec

 Checking input...
 Passed
1


                                         ***  PROGRAM SYSTEM MOLPRO  ***
                                       Copyright, TTI GmbH Stuttgart, 2015
                                    Version 2015.1 linked Jul  9 2018 13:16:40


 **********************************************************************************************************************************
 LABEL *   hno CCSD(T)/TZ-F12 QFF                                                        
  64 bit serial version                                                                  DATE: 08-Feb-20          TIME: 17:59:09  
 **********************************************************************************************************************************

 SHA1:             d5ffa45e93fdbca01ffc919aa182cfdae0147319
 **********************************************************************************************************************************

 THRESHOLDS:

 ZERO    =  1.00D-22  ONEINT  =  1.00D-22  TWOINT  =  1.00D-22  PREFAC  =  1.00D-14  LOCALI  =  1.00D-09  EORDER  =  1.00D-04
 ENERGY  =  1.00D-12  ETEST   =  0.00D+00  EDENS   =  0.00D+00  THRDEDEF=  1.00D-06  GRADIENT=  1.00D-02  STEP    =  1.00D-03
 ORBITAL =  1.00D-05  CIVEC   =  1.00D-05  COEFF   =  1.00D-04  PRINTCI =  5.00D-02  PUNCHCI =  9.90D+01  OPTGRAD =  3.00D-04
 OPTENERG=  1.00D-06  OPTSTEP =  3.00D-04  THRGRAD =  1.00D-10  COMPRESS=  1.00D-11  VARMIN  =  1.00D-07  VARMAX  =  1.00D-03
 THRDOUB =  0.00D+00  THRDIV  =  1.00D-05  THRRED  =  1.00D-07  THRPSP  =  1.00D+00  THRDC   =  1.00D-10  THRCS   =  1.00D-10
 THRNRM  =  1.00D-08  THREQ   =  0.00D+00  THRDE   =  1.00D+00  THRREF  =  1.00D-05  SPARFAC =  1.00D+00  THRDLP  =  1.00D-07
 THRDIA  =  1.00D-10  THRDLS  =  1.00D-07  THRGPS  =  0.00D+00  THRKEX  =  0.00D+00  THRDIS  =  2.00D-01  THRVAR  =  1.00D-10
 THRLOC  =  1.00D-06  THRGAP  =  1.00D-06  THRLOCT = -1.00D+00  THRGAPT = -1.00D+00  THRORB  =  1.00D-06  THRMLTP =  0.00D+00
 THRCPQCI=  1.00D-10  KEXTA   =  0.00D+00  THRCOARS=  0.00D+00  SYMTOL  =  1.00D-06  GRADTOL =  1.00D-06  THROVL  =  1.00D-08
 THRORTH =  1.00D-08  GRID    =  1.00D-06  GRIDMAX =  1.00D-03  DTMAX   =  0.00D+00  THROCCDE=  1.00D-01  THROCCDE=  1.00D-01



 THRESHOLDS:

 ZERO    =  1.00D-22  ONEINT  =  1.00D-22  TWOINT  =  1.00D-22  PREFAC  =  1.00D-14  LOCALI  =  1.00D-09  EORDER  =  1.00D-04
 ENERGY  =  1.00D-12  ETEST   =  0.00D+00  EDENS   =  0.00D+00  THRDEDEF=  1.00D-06  GRADIENT=  1.00D-02  STEP    =  1.00D-03
 ORBITAL =  1.00D-05  CIVEC   =  1.00D-05  COEFF   =  1.00D-04  PRINTCI =  5.00D-02  PUNCHCI =  9.90D+01  OPTGRAD =  1.00D-08
 OPTENERG=  1.00D-06  OPTSTEP =  1.00D-08  THRGRAD =  1.00D-10  COMPRESS=  1.00D-11  VARMIN  =  1.00D-07  VARMAX  =  1.00D-03
 THRDOUB =  0.00D+00  THRDIV  =  1.00D-05  THRRED  =  1.00D-07  THRPSP  =  1.00D+00  THRDC   =  1.00D-10  THRCS   =  1.00D-10
 THRNRM  =  1.00D-08  THREQ   =  0.00D+00  THRDE   =  1.00D+00  THRREF  =  1.00D-05  SPARFAC =  1.00D+00  THRDLP  =  1.00D-07
 THRDIA  =  1.00D-10  THRDLS  =  1.00D-07  THRGPS  =  0.00D+00  THRKEX  =  0.00D+00  THRDIS  =  2.00D-01  THRVAR  =  1.00D-10
 THRLOC  =  1.00D-06  THRGAP  =  1.00D-06  THRLOCT = -1.00D+00  THRGAPT = -1.00D+00  THRORB  =  1.00D-06  THRMLTP =  0.00D+00
 THRCPQCI=  1.00D-10  KEXTA   =  0.00D+00  THRCOARS=  0.00D+00  SYMTOL  =  1.00D-06  GRADTOL =  1.00D-06  THROVL  =  1.00D-08
 THRORTH =  1.00D-08  GRID    =  1.00D-06  GRIDMAX =  1.00D-03  DTMAX   =  0.00D+00  THROCCDE=  1.00D-01  THROCCDE=  1.00D-01



 Input parameters for SORTINT:

 COMPRESS =    0.000000
 C_FINAL  =    1.000000
 DEBUG    =   -1.000000
 C_SORT1  =    0.000000
 C_SEWARD =    0.000000
 THRESH   =    0.000000
 IO       =  molpro                                                          
 SPRI     =    0.000000
 SETTING GEOMTYP        =    XYZ
 ZUNIT=BOHR
 

 Variable memory set to  995000000 words,  buffer space   230000 words

 SETTING BASIS          =    USERDEF


 Recomputing integrals since basis changed


 Using spherical harmonics

 Library entry H      S aug-cc-pVTZ          selected for orbital group  2
 Library entry H      P aug-cc-pVTZ          selected for orbital group  2
 Library entry H      D aug-cc-pVTZ          selected for orbital group  2


 PROGRAM * SEWARD (Integral evaluation for generally contracted gaussian basis sets)     Author: Roland Lindh, 1990

 Geometry written to block  1 of record 700


 Point group  Cs  



 ATOMIC COORDINATES

 NR  ATOM    CHARGE       X              Y              Z

   1  N       7.00    0.000000000   -0.152240672   -1.159424422
   2  H       1.00    0.000000000    1.659885346   -1.930000042
   3  O       8.00    0.000000000    0.034123115    1.138834873

 Bond lengths in Bohr (Angstrom)

 1-2  1.969159082  1-3  2.305802951
     ( 1.042034111)     ( 1.220178374)

 Bond angles

  2-1-3  108.40087407

 NUCLEAR CHARGE:                   16
 NUMBER OF PRIMITIVE AOS:         203
 NUMBER OF SYMMETRY AOS:          173
 NUMBER OF CONTRACTIONS:          171   ( 114A'  +  57A"  )
 NUMBER OF CORE ORBITALS:           2   (   2A'  +   0A"  )
 NUMBER OF VALENCE ORBITALS:        9   (   7A'  +   2A"  )


 NUCLEAR REPULSION ENERGY   30.14493540


 Eigenvalues of metric

         1 0.104E-02 0.259E-02 0.335E-02 0.635E-02 0.952E-02 0.137E-01 0.146E-01 0.228E-01
         2 0.352E-01 0.547E-01 0.699E-01 0.943E-01 0.132E+00 0.134E+00 0.139E+00 0.142E+00


 Contracted 2-electron integrals neglected if value below      1.0D-22

       46082892. INTEGRALS WRITTEN OUT IN   11254 BLOCKS ON RECORD 1290 OF FILE 1


 NUMBER OF SORTED TWO-ELECTRON INTEGRALS:   55360566.     BUFFER LENGTH:  32768
 NUMBER OF SEGMENTS:   4  SEGMENT LENGTH:   15997996      RECORD LENGTH: 524288

 Memory used in sort:      16.56 MW

 SORT1 READ    46082892. AND WROTE    46519622. INTEGRALS IN    135 RECORDS. CPU TIME:     1.28 SEC, REAL TIME:     1.62 SEC
 SORT2 READ    46519622. AND WROTE    55360566. INTEGRALS IN      4 RECORDS. CPU TIME:     0.74 SEC, REAL TIME:     1.00 SEC

 FILE SIZES:   FILE 1:   758.3 MBYTE,  FILE 4:   566.3 MBYTE,   TOTAL:   1324.5 MBYTE

 OPERATOR DM      FOR CENTER  0  COORDINATES:    0.000000    0.000000    0.000000


 **********************************************************************************************************************************
 DATASETS  * FILE   NREC   LENGTH (MB)   RECORD NAMES
              1      19      420.82       500      610      700      900      950      970     1000      129      960     1100   
                                          VAR    BASINP    GEOM    SYMINP    ZMAT    AOBASIS   BASIS     P2S    ABASIS      S 
                                         1400     1410     1200     1210     1080     1600     1650     1300     1700   
                                           T        V       H0       H01     AOSYM     SMH    MOLCAS    ERIS     OPER   

 PROGRAMS   *        TOTAL       INT
 CPU TIMES  *         5.63      5.54
 REAL TIME  *         7.23 SEC
 DISK USED  *         1.32 GB      
 **********************************************************************************************************************************


 PROGRAM * RHF-SCF (CLOSED SHELL)       Authors: W. Meyer, H.-J. Werner


 NUMBER OF ELECTRONS:       8+    8-
 CONVERGENCE THRESHOLDS:    1.00E-10 (Density)    1.00E-13 (Energy)
 MAX. NUMBER OF ITERATIONS:      500
 INTERPOLATION TYPE:            DIIS
 INTERPOLATION STEPS:              2 (START)      1 (STEP)
 LEVEL SHIFTS:                  0.00 (CLOSED)  0.00 (OPEN) 



 Orbital guess generated from atomic densities. Full valence occupancy:    9   2

 Molecular orbital dump at record        2100.2

 Initial occupancy:   7   1

 ITERATION    DDIFF          GRAD             ENERGY        2-EL.EN.            DIPOLE MOMENTS         DIIS   ORB.
    1      0.000D+00      0.000D+00      -129.78635874    153.666126    0.00000    0.58322   -1.05171    0    start
    2      0.000D+00      0.886D-02      -129.81283805    154.805285    0.00000    0.60577   -0.19368    1    diag
    3      0.373D-02      0.689D-02      -129.83723693    154.955437    0.00000    0.55640   -0.60283    2    diag
    4      0.146D-02      0.105D-02      -129.83804447    154.673322    0.00000    0.56416   -0.53824    3    diag
    5      0.338D-03      0.341D-03      -129.83816731    154.761715    0.00000    0.57007   -0.54040    4    diag
    6      0.154D-03      0.996D-04      -129.83818729    154.745611    0.00000    0.57058   -0.53609    5    diag
    7      0.609D-04      0.507D-04      -129.83819340    154.747971    0.00000    0.57185   -0.53342    6    diag
    8      0.418D-04      0.180D-04      -129.83819413    154.747095    0.00000    0.57190   -0.53241    7    diag
    9      0.154D-04      0.339D-05      -129.83819416    154.746974    0.00000    0.57184   -0.53221    8    diag
   10      0.321D-05      0.752D-06      -129.83819417    154.746961    0.00000    0.57181   -0.53219    9    orth
   11      0.908D-06      0.148D-06      -129.83819417    154.746957    0.00000    0.57180   -0.53219    9    diag
   12      0.210D-06      0.316D-07      -129.83819417    154.746957    0.00000    0.57180   -0.53218    9    diag
   13      0.510D-07      0.859D-08      -129.83819417    154.746956    0.00000    0.57180   -0.53218    9    diag
   14      0.119D-07      0.151D-08      -129.83819417    154.746956    0.00000    0.57180   -0.53218    9    diag
   15      0.137D-08      0.400D-09      -129.83819417    154.746956    0.00000    0.57180   -0.53218    9    diag
   16      0.340D-09      0.116D-09      -129.83819417    154.746956    0.00000    0.57180   -0.53218    9    diag
   17      0.625D-10      0.303D-10      -129.83819417    154.746956    0.00000    0.57180   -0.53218    9    diag
   18      0.175D-10      0.976D-11      -129.83819417    154.746956    0.00000    0.57180   -0.53218    9    diag
   19      0.618D-11      0.228D-11      -129.83819417    154.746956    0.00000    0.57180   -0.53218    9    fixocc
   20      0.161D-11      0.604D-12      -129.83819417    154.746956    0.00000    0.57180   -0.53218    9    orth
   21      0.266D-12      0.329D-12      -129.83819417    154.746956    0.00000    0.57180   -0.53218    9    diag
   22      0.168D-12      0.406D-12      -129.83819417    154.746956    0.00000    0.57180   -0.53218    9    diag
   23      0.102D-12      0.206D-12      -129.83819417    154.746956    0.00000    0.57180   -0.53218    9    diag
   24      0.108D-12      0.439D-12      -129.83819417    154.746956    0.00000    0.57180   -0.53218    0    orth

 Final occupancy:   7   1

 !RHF STATE 1.1 Energy               -129.838194165490
 Nuclear energy                        30.14493540
 One-electron energy                 -237.35660775
 Two-electron energy                   77.37347819
 Virial quotient                       -1.00187330
 !RHF STATE 1.1 Dipole moment           0.00000000     0.57179632    -0.53218363
 Dipole moment /Debye                   0.00000000     1.45326610    -1.35258727

 Orbital energies:

         1.1          2.1          3.1          4.1          5.1          6.1          7.1          8.1          9.1
    -20.652303   -15.711294    -1.518194    -0.998444    -0.742612    -0.660779    -0.432872     0.039558     0.193072

         1.2          2.2          3.2
     -0.588328     0.074753     0.239250

 HOMO      7.1    -0.432872 =     -11.7791eV
 LUMO      8.1     0.039558 =       1.0764eV
 LUMO-HOMO         0.472430 =      12.8555eV


 **********************************************************************************************************************************
 DATASETS  * FILE   NREC   LENGTH (MB)   RECORD NAMES
              1      19      420.82       500      610      700      900      950      970     1000      129      960     1100   
                                          VAR    BASINP    GEOM    SYMINP    ZMAT    AOBASIS   BASIS     P2S    ABASIS      S 
                                         1400     1410     1200     1210     1080     1600     1650     1300     1700   
                                           T        V       H0       H01     AOSYM     SMH    MOLCAS    ERIS     OPER   

              2       4        3.13       700     1000      520     2100   
                                         GEOM     BASIS   MCVARS     RHF  

 PROGRAMS   *        TOTAL        HF       INT
 CPU TIMES  *        12.52      6.89      5.54
 REAL TIME  *        15.89 SEC
 DISK USED  *         1.32 GB      
 **********************************************************************************************************************************


 PROGRAM * CCSD (Closed-shell coupled cluster)     Authors: C. Hampel, H.-J. Werner, 1991, M. Deegan, P.J. Knowles, 1992


 Convergence thresholds:  THRVAR = 1.00D-08  THRDEN = 1.00D-12

 CCSD(T)     terms to be evaluated (factor= 1.000)


 Number of closed-shell orbitals:   8 (   7   1 )
 Number of external orbitals:     163 ( 107  56 )

 Molecular orbitals read from record     2100.2  Type=RHF/CANONICAL (state 1.1)

 Number of N-1 electron functions:               8
 Number of N-2 electron functions:              36
 Number of singly external CSFs:               805
 Number of doubly external CSFs:            449165
 Total number of CSFs:                      449971

 Length of J-op  integral file:               0.00 MB
 Length of K-op  integral file:               1.15 MB
 Length of 3-ext integral record:             0.00 MB

 Memory could be reduced to 24.90 Mwords without degradation in triples

 Integral transformation finished. Total CPU:   1.06 sec, npass=  1  Memory used:   6.89 MW

 Reference energy:                   -129.83819417

 MP2 singlet pair energy:              -0.37994755
 MP2 triplet pair energy:              -0.18728779
 MP2 correlation energy:               -0.56723534
 MP2 total energy:                   -130.40542951

 SCS-MP2 correlation energy:           -0.57247169   (PS=  1.200000  PT=  0.333333)
 SCS-MP2 total energy:               -130.41066585

 ITER.      SQ.NORM     CORR.ENERGY   TOTAL ENERGY   ENERGY CHANGE        DEN1      VAR(S)    VAR(P)  DIIS     TIME  TIME/IT
   1      1.12075016    -0.57152707  -130.40972124    -0.00429173     0.01388610  0.35D-02  0.32D-02  1  1     2.28     1.26
   2      1.13189670    -0.57112218  -130.40931634     0.00040489    -0.01400012  0.96D-04  0.52D-03  2  2     3.52     1.30
   3      1.13729637    -0.57145733  -130.40965150    -0.00033515    -0.00238917  0.58D-04  0.72D-04  3  3     4.80     1.31
   4      1.14087559    -0.57145116  -130.40964533     0.00000617    -0.00142244  0.48D-05  0.10D-04  4  4     6.06     1.32
   5      1.14199632    -0.57147660  -130.40967077    -0.00002544    -0.00026411  0.16D-05  0.19D-05  5  5     7.27     1.32
   6      1.14242767    -0.57146994  -130.40966410     0.00000666    -0.00004200  0.13D-06  0.42D-06  6  6     8.54     1.33
   7      1.14251169    -0.57147044  -130.40966460    -0.00000050     0.00000115  0.17D-07  0.10D-06  6  1     9.78     1.34
   8      1.14254581    -0.57146856  -130.40966273     0.00000187    -0.00000492  0.41D-08  0.15D-07  6  2    11.03     1.34
   9      1.14255031    -0.57146866  -130.40966283    -0.00000010     0.00000134  0.18D-08  0.20D-08  6  3    12.24     1.34
  10      1.14255205    -0.57146897  -130.40966314    -0.00000031    -0.00000073  0.44D-09  0.28D-09  6  4    13.49     1.34
  11      1.14255107    -0.57146911  -130.40966328    -0.00000014     0.00000035  0.11D-09  0.29D-10  6  5    14.76     1.34
  12      1.14255020    -0.57146926  -130.40966342    -0.00000014     0.00000034  0.11D-10  0.70D-11  6  6    16.01     1.34
  13      1.14254967    -0.57146927  -130.40966343    -0.00000001     0.00000010  0.44D-11  0.13D-11  6  1    17.25     1.34
  14      1.14254923    -0.57146929  -130.40966346    -0.00000003     0.00000011  0.44D-12  0.43D-12  6  3    18.51     1.34
  15      1.14254905    -0.57146929  -130.40966346    -0.00000000     0.00000002  0.11D-12  0.31D-13  6  2    19.75     1.34
  16      1.14254899    -0.57146930  -130.40966346    -0.00000000     0.00000001  0.23D-13  0.65D-14  6  4    21.03     1.34
  17      1.14254896    -0.57146930  -130.40966346    -0.00000000     0.00000001  0.45D-14  0.12D-14  6  5    22.26     1.34
  18      1.14254896    -0.57146930  -130.40966346    -0.00000000     0.00000000  0.52D-15  0.31D-15  6  6    23.46     1.34
  19      1.14254896    -0.57146930  -130.40966346     0.00000000    -0.00000000  0.67D-16  0.50D-16  6  1    24.71     1.34
  20      1.14254896    -0.57146930  -130.40966346     0.00000000    -0.00000000  0.28D-17  0.11D-16  6  3    25.96     1.34
  21      1.14254896    -0.57146930  -130.40966346     0.00000000    -0.00000000  0.15D-17  0.29D-17  6  2    27.18     1.34
  22      1.14254896    -0.57146930  -130.40966346     0.00000000    -0.00000000  0.41D-18  0.10D-17  6  4    28.45     1.34
  23      1.14254896    -0.57146930  -130.40966346    -0.00000000     0.00000000  0.19D-18  0.14D-18  6  5    29.72     1.34
  24      1.14254896    -0.57146930  -130.40966346     0.00000000    -0.00000000  0.60D-20  0.18D-19  6  1    30.96     1.34
  25      1.14254896    -0.57146930  -130.40966346     0.00000000     0.00000000  0.48D-21  0.17D-20  6  6    32.19     1.34
  26      1.14254896    -0.57146930  -130.40966346    -0.00000000     0.00000000  0.17D-21  0.25D-21  6  1    33.49     1.35

 Norm of t1 vector:      0.07929524      S-energy:     0.00000000      T1 diagnostic:  0.01401755
                                                                       D1 diagnostic:  0.04564176

 Doubles amplitudes (print threshold =  0.500E-01):

         I         J         SYM. A    SYM. B    A         B      T(IJ, AB)

         8         8         2         2         1         1     -0.13832133


 Total CPU time for triples:     15.58 sec


 RESULTS
 =======

  Reference energy                   -129.838194165490

  Correlated core orbitals:             1.1       2.1
  Orbital energies:                   -20.6523  -15.7113
 
  CCSD core-core energy                -0.079237979193
  CCSD core-valence energy             -0.036020068478
  CCSD valence correlation energy      -0.456211250024
 
  CCSD singlet pair energy             -0.408902797095
  CCSD triplet pair energy             -0.162566500599
  CCSD correlation energy              -0.571469297694

  Triples (T) contribution             -0.022611290633
  Total correlation energy             -0.594080588328

  CCSD total energy                  -130.409663463184
  CCSD[T] energy                     -130.433493798328
  CCSD-T energy                      -130.431823091813
 !CCSD(T) total energy               -130.432274753818

 Timing summary (sec):

 STEP                 CPU(USER)    SYS     CPU(TOT)    WALL
 Transformation          1.08      0.21      1.29      1.30
 CCSD iterations        32.41      2.61     35.02     35.01
 Triples                15.58      0.50     16.08     16.09

 Program statistics:

 Available memory in ccsd:               994999644
 Min. memory needed in ccsd:               1368037
 Max. memory used in ccsd:                 1750502
 Max. memory used in cckext:               2014357 (26 integral passes)



 **********************************************************************************************************************************
 DATASETS  * FILE   NREC   LENGTH (MB)   RECORD NAMES
              1      20      499.73       500      610      700      900      950      970     1000      129      960     1100   
                                          VAR    BASINP    GEOM    SYMINP    ZMAT    AOBASIS   BASIS     P2S    ABASIS      S 
                                         1400     1410     1200     1210     1080     1600     1650     1300     1700     1380   
                                           T        V       H0       H01     AOSYM     SMH    MOLCAS    ERIS     OPER     JKOP   

              2       4        3.13       700     1000      520     2100   
                                         GEOM     BASIS   MCVARS     RHF  

 PROGRAMS   *        TOTAL   CCSD(T)        HF       INT
 CPU TIMES  *        61.61     49.09      6.89      5.54
 REAL TIME  *        68.34 SEC
 DISK USED  *         1.32 GB      
 **********************************************************************************************************************************

 CCSD(T)/USERDEF energy=   -130.432274753818

        CCSD(T)         HF-SCF  
   -130.43227475   -129.83819417
 **********************************************************************************************************************************
 Molpro calculation terminated
 Variable memory released
