
 Primary working directories    : /tmp/r2666/235502.maple
 Secondary working directories  : /tmp/r2666/235502.maple
 Wavefunction directory         : /ddn/home4/r2666/wfu/
 Main file repository           : /tmp/r2666/235502.maple/

 SHA1      : d5ffa45e93fdbca01ffc919aa182cfdae0147319
 NAME      : 2015.1.35
 ARCHNAME  : linux/x86_64
 FC        : /opt/intel/composer_xe_2015.1.133/bin/intel64/ifort
 BLASLIB   : -Wl,-_start-group /opt/intel/mkl/lib/intel64/libmkl_intel_ilp64.a /opt/intel/mkl/lib/intel64/libmkl_intel_thread.a /opt/intel/mkl/lib/intel64/libmkl_core.a -Wl,-_end-group
 id        : olemiss

 Nodes     nprocs
 cn096        1

 Using customized tuning parameters: mindgm=1; mindgv=20; mindgc=4; mindgr=1; noblas=0; minvec=7
 default implementation of scratch files=df  

 ***,hno CCSD(T)/TZ-F12 QFF
 memory, 995, m;
 gthresh,energy=1.d-12,zero=1.d-22,oneint=1.d-22,twoint=1.d-22;
 gthresh,optgrad=1.d-8,optstep=1.d-8;
 nocompress;
 geomtyp=xyz
 bohr
 geometry={
 3
         99        99
 N        0.0000000000       -0.1693821065       -1.1516032740
 H        0.0000000000        1.6715111819       -1.9269341801
 O        0.0000000000        0.0396387146        1.1279478630
 }
 
 basis={
 default=aug-cc-pvtz
 s,C,8236.0,1235.0,280.8, 79.27,25.59, 8.997,3.319
 s,C,0.9059,0.3643,0.1285000
 p,C,56.0,18.71,4.133,0.2827,0.3827,0.1209
 d,C,30.0,10.0,3.3,1.097,0.318
 f,C,7.0,2.3,0.7610
 s,N,11420.0,1712.0,389.3,110.0,35.57,12.54,4.644
 s,N,1.293,0.5118,0.1787
 p,N,79.89,26.63,5.948,1.742,0.555,0.1725
 d,N,45.0,15.0,5.0,1.654,0.469
 f,N,9.9,3.3,1.093
 s,O,15330.0,2299.0,522.4,147.3,47.55,16.76,6.207
 s,O,1.752,0.6882,0.2384
 p,O,103.5,34.46,7.749,2.28,0.7156,0.214
 d,O,63.0,21.0,7.0,2.314,0.645
 f,O,12.9,4.3,1.428
 s,mg,164900.0,24710.0,5628.0,1596.0,521.0;
 s,mg,188.0,73.01,29.90,12.54,4.306,1.826;
 s,mg,0.7417,0.0761,0.145,0.033,0.0129;
 p,mg,950.70,316.90,74.86,23.72,8.669,3.363;
 p,mg,1.310,0.4911,0.2364,0.08733,0.03237,0.00745;
 d,mg,1.601,0.686,0.126,0.294,0.0468;
 f,mg,1.372,0.588,0.094,0.252;
 }
   {hf,maxit=500;accu,20;}
 {ccsd(t),nocheck,maxit=250;orbital,IGNORE_ERROR;core}

 Variables initialized (889), CPU time= 0.01 sec
 Commands  initialized (702), CPU time= 0.01 sec, 572 directives.
 Default parameters read. Elapsed time= 0.05 sec

 Checking input...
 Passed
1


                                         ***  PROGRAM SYSTEM MOLPRO  ***
                                       Copyright, TTI GmbH Stuttgart, 2015
                                    Version 2015.1 linked Jul  9 2018 13:16:40


 **********************************************************************************************************************************
 LABEL *   hno CCSD(T)/TZ-F12 QFF                                                        
  64 bit serial version                                                                  DATE: 08-Feb-20          TIME: 18:00:32  
 **********************************************************************************************************************************

 SHA1:             d5ffa45e93fdbca01ffc919aa182cfdae0147319
 **********************************************************************************************************************************

 THRESHOLDS:

 ZERO    =  1.00D-22  ONEINT  =  1.00D-22  TWOINT  =  1.00D-22  PREFAC  =  1.00D-14  LOCALI  =  1.00D-09  EORDER  =  1.00D-04
 ENERGY  =  1.00D-12  ETEST   =  0.00D+00  EDENS   =  0.00D+00  THRDEDEF=  1.00D-06  GRADIENT=  1.00D-02  STEP    =  1.00D-03
 ORBITAL =  1.00D-05  CIVEC   =  1.00D-05  COEFF   =  1.00D-04  PRINTCI =  5.00D-02  PUNCHCI =  9.90D+01  OPTGRAD =  3.00D-04
 OPTENERG=  1.00D-06  OPTSTEP =  3.00D-04  THRGRAD =  1.00D-10  COMPRESS=  1.00D-11  VARMIN  =  1.00D-07  VARMAX  =  1.00D-03
 THRDOUB =  0.00D+00  THRDIV  =  1.00D-05  THRRED  =  1.00D-07  THRPSP  =  1.00D+00  THRDC   =  1.00D-10  THRCS   =  1.00D-10
 THRNRM  =  1.00D-08  THREQ   =  0.00D+00  THRDE   =  1.00D+00  THRREF  =  1.00D-05  SPARFAC =  1.00D+00  THRDLP  =  1.00D-07
 THRDIA  =  1.00D-10  THRDLS  =  1.00D-07  THRGPS  =  0.00D+00  THRKEX  =  0.00D+00  THRDIS  =  2.00D-01  THRVAR  =  1.00D-10
 THRLOC  =  1.00D-06  THRGAP  =  1.00D-06  THRLOCT = -1.00D+00  THRGAPT = -1.00D+00  THRORB  =  1.00D-06  THRMLTP =  0.00D+00
 THRCPQCI=  1.00D-10  KEXTA   =  0.00D+00  THRCOARS=  0.00D+00  SYMTOL  =  1.00D-06  GRADTOL =  1.00D-06  THROVL  =  1.00D-08
 THRORTH =  1.00D-08  GRID    =  1.00D-06  GRIDMAX =  1.00D-03  DTMAX   =  0.00D+00  THROCCDE=  1.00D-01  THROCCDE=  1.00D-01



 THRESHOLDS:

 ZERO    =  1.00D-22  ONEINT  =  1.00D-22  TWOINT  =  1.00D-22  PREFAC  =  1.00D-14  LOCALI  =  1.00D-09  EORDER  =  1.00D-04
 ENERGY  =  1.00D-12  ETEST   =  0.00D+00  EDENS   =  0.00D+00  THRDEDEF=  1.00D-06  GRADIENT=  1.00D-02  STEP    =  1.00D-03
 ORBITAL =  1.00D-05  CIVEC   =  1.00D-05  COEFF   =  1.00D-04  PRINTCI =  5.00D-02  PUNCHCI =  9.90D+01  OPTGRAD =  1.00D-08
 OPTENERG=  1.00D-06  OPTSTEP =  1.00D-08  THRGRAD =  1.00D-10  COMPRESS=  1.00D-11  VARMIN  =  1.00D-07  VARMAX  =  1.00D-03
 THRDOUB =  0.00D+00  THRDIV  =  1.00D-05  THRRED  =  1.00D-07  THRPSP  =  1.00D+00  THRDC   =  1.00D-10  THRCS   =  1.00D-10
 THRNRM  =  1.00D-08  THREQ   =  0.00D+00  THRDE   =  1.00D+00  THRREF  =  1.00D-05  SPARFAC =  1.00D+00  THRDLP  =  1.00D-07
 THRDIA  =  1.00D-10  THRDLS  =  1.00D-07  THRGPS  =  0.00D+00  THRKEX  =  0.00D+00  THRDIS  =  2.00D-01  THRVAR  =  1.00D-10
 THRLOC  =  1.00D-06  THRGAP  =  1.00D-06  THRLOCT = -1.00D+00  THRGAPT = -1.00D+00  THRORB  =  1.00D-06  THRMLTP =  0.00D+00
 THRCPQCI=  1.00D-10  KEXTA   =  0.00D+00  THRCOARS=  0.00D+00  SYMTOL  =  1.00D-06  GRADTOL =  1.00D-06  THROVL  =  1.00D-08
 THRORTH =  1.00D-08  GRID    =  1.00D-06  GRIDMAX =  1.00D-03  DTMAX   =  0.00D+00  THROCCDE=  1.00D-01  THROCCDE=  1.00D-01



 Input parameters for SORTINT:

 COMPRESS =    0.000000
 C_FINAL  =    1.000000
 DEBUG    =   -1.000000
 C_SORT1  =    0.000000
 C_SEWARD =    0.000000
 THRESH   =    0.000000
 IO       =  molpro                                                          
 SPRI     =    0.000000
 SETTING GEOMTYP        =    XYZ
 ZUNIT=BOHR
 

 Variable memory set to  995000000 words,  buffer space   230000 words

 SETTING BASIS          =    USERDEF


 Recomputing integrals since basis changed


 Using spherical harmonics

 Library entry H      S aug-cc-pVTZ          selected for orbital group  2
 Library entry H      P aug-cc-pVTZ          selected for orbital group  2
 Library entry H      D aug-cc-pVTZ          selected for orbital group  2


 PROGRAM * SEWARD (Integral evaluation for generally contracted gaussian basis sets)     Author: Roland Lindh, 1990

 Geometry written to block  1 of record 700


 Point group  Cs  



 ATOMIC COORDINATES

 NR  ATOM    CHARGE       X              Y              Z

   1  N       7.00    0.000000000   -0.169382106   -1.151603274
   2  H       1.00    0.000000000    1.671511182   -1.926934180
   3  O       8.00    0.000000000    0.039638715    1.127947863

 Bond lengths in Bohr (Angstrom)

 1-2  1.997504972  1-3  2.289114040
     ( 1.057034110)     ( 1.211346983)

 Bond angles

  2-1-3  107.60039508

 NUCLEAR CHARGE:                   16
 NUMBER OF PRIMITIVE AOS:         203
 NUMBER OF SYMMETRY AOS:          173
 NUMBER OF CONTRACTIONS:          171   ( 114A'  +  57A"  )
 NUMBER OF CORE ORBITALS:           2   (   2A'  +   0A"  )
 NUMBER OF VALENCE ORBITALS:        9   (   7A'  +   2A"  )


 NUCLEAR REPULSION ENERGY   30.27783706


 Eigenvalues of metric

         1 0.106E-02 0.252E-02 0.337E-02 0.641E-02 0.100E-01 0.137E-01 0.145E-01 0.233E-01
         2 0.370E-01 0.537E-01 0.706E-01 0.941E-01 0.131E+00 0.134E+00 0.141E+00 0.142E+00


 Contracted 2-electron integrals neglected if value below      1.0D-22

       46139251. INTEGRALS WRITTEN OUT IN   11268 BLOCKS ON RECORD 1290 OF FILE 1


 NUMBER OF SORTED TWO-ELECTRON INTEGRALS:   55360566.     BUFFER LENGTH:  32768
 NUMBER OF SEGMENTS:   4  SEGMENT LENGTH:   15997996      RECORD LENGTH: 524288

 Memory used in sort:      16.56 MW

 SORT1 READ    46139251. AND WROTE    46576644. INTEGRALS IN    135 RECORDS. CPU TIME:     0.89 SEC, REAL TIME:     1.22 SEC
 SORT2 READ    46576644. AND WROTE    55360566. INTEGRALS IN      4 RECORDS. CPU TIME:     0.69 SEC, REAL TIME:     0.95 SEC

 FILE SIZES:   FILE 1:   759.2 MBYTE,  FILE 4:   566.3 MBYTE,   TOTAL:   1325.5 MBYTE

 OPERATOR DM      FOR CENTER  0  COORDINATES:    0.000000    0.000000    0.000000


 **********************************************************************************************************************************
 DATASETS  * FILE   NREC   LENGTH (MB)   RECORD NAMES
              1      19      421.21       500      610      700      900      950      970     1000      129      960     1100   
                                          VAR    BASINP    GEOM    SYMINP    ZMAT    AOBASIS   BASIS     P2S    ABASIS      S 
                                         1400     1410     1200     1210     1080     1600     1650     1300     1700   
                                           T        V       H0       H01     AOSYM     SMH    MOLCAS    ERIS     OPER   

 PROGRAMS   *        TOTAL       INT
 CPU TIMES  *         4.85      4.76
 REAL TIME  *         6.56 SEC
 DISK USED  *         1.33 GB      
 **********************************************************************************************************************************


 PROGRAM * RHF-SCF (CLOSED SHELL)       Authors: W. Meyer, H.-J. Werner


 NUMBER OF ELECTRONS:       8+    8-
 CONVERGENCE THRESHOLDS:    1.00E-10 (Density)    1.00E-13 (Energy)
 MAX. NUMBER OF ITERATIONS:      500
 INTERPOLATION TYPE:            DIIS
 INTERPOLATION STEPS:              2 (START)      1 (STEP)
 LEVEL SHIFTS:                  0.00 (CLOSED)  0.00 (OPEN) 



 Orbital guess generated from atomic densities. Full valence occupancy:    9   2

 Molecular orbital dump at record        2100.2

 Initial occupancy:   7   1

 ITERATION    DDIFF          GRAD             ENERGY        2-EL.EN.            DIPOLE MOMENTS         DIIS   ORB.
    1      0.000D+00      0.000D+00      -129.78778730    153.897280    0.00000    0.56264   -1.02384    0    start
    2      0.000D+00      0.884D-02      -129.81458943    155.067769    0.00000    0.59958   -0.18982    1    diag
    3      0.365D-02      0.679D-02      -129.83822380    155.195212    0.00000    0.54397   -0.58572    2    diag
    4      0.144D-02      0.104D-02      -129.83901366    154.917778    0.00000    0.55225   -0.52294    3    diag
    5      0.331D-03      0.340D-03      -129.83913649    155.006364    0.00000    0.55829   -0.52527    4    diag
    6      0.154D-03      0.100D-03      -129.83915665    154.990139    0.00000    0.55883   -0.52107    5    diag
    7      0.610D-04      0.503D-04      -129.83916264    154.992671    0.00000    0.56017   -0.51850    6    diag
    8      0.415D-04      0.174D-04      -129.83916330    154.991819    0.00000    0.56022   -0.51756    7    diag
    9      0.147D-04      0.326D-05      -129.83916333    154.991702    0.00000    0.56017   -0.51737    8    diag
   10      0.300D-05      0.734D-06      -129.83916333    154.991688    0.00000    0.56013   -0.51735    9    orth
   11      0.871D-06      0.146D-06      -129.83916333    154.991684    0.00000    0.56012   -0.51734    9    diag
   12      0.206D-06      0.306D-07      -129.83916333    154.991683    0.00000    0.56012   -0.51734    9    diag
   13      0.510D-07      0.818D-08      -129.83916333    154.991683    0.00000    0.56012   -0.51734    9    diag
   14      0.118D-07      0.143D-08      -129.83916333    154.991683    0.00000    0.56012   -0.51734    9    diag
   15      0.148D-08      0.382D-09      -129.83916333    154.991683    0.00000    0.56012   -0.51734    9    diag
   16      0.332D-09      0.111D-09      -129.83916333    154.991683    0.00000    0.56012   -0.51734    9    diag
   17      0.749D-10      0.306D-10      -129.83916333    154.991683    0.00000    0.56012   -0.51734    0    orth

 Final occupancy:   7   1

 !RHF STATE 1.1 Energy               -129.839163331580
 Nuclear energy                        30.27783706
 One-electron energy                 -237.61284174
 Two-electron energy                   77.49584134
 Virial quotient                       -1.00177578
 !RHF STATE 1.1 Dipole moment           0.00000000     0.56012192    -0.51734091
 Dipole moment /Debye                   0.00000000     1.42359468    -1.31486331

 Orbital energies:

         1.1          2.1          3.1          4.1          5.1          6.1          7.1          8.1          9.1
    -20.651553   -15.711963    -1.525527    -0.992099    -0.743644    -0.663155    -0.429874     0.039685     0.192220

         1.2          2.2          3.2
     -0.592764     0.078053     0.239323

 HOMO      7.1    -0.429874 =     -11.6975eV
 LUMO      8.1     0.039685 =       1.0799eV
 LUMO-HOMO         0.469559 =      12.7773eV


 **********************************************************************************************************************************
 DATASETS  * FILE   NREC   LENGTH (MB)   RECORD NAMES
              1      19      421.21       500      610      700      900      950      970     1000      129      960     1100   
                                          VAR    BASINP    GEOM    SYMINP    ZMAT    AOBASIS   BASIS     P2S    ABASIS      S 
                                         1400     1410     1200     1210     1080     1600     1650     1300     1700   
                                           T        V       H0       H01     AOSYM     SMH    MOLCAS    ERIS     OPER   

              2       4        3.13       700     1000      520     2100   
                                         GEOM     BASIS   MCVARS     RHF  

 PROGRAMS   *        TOTAL        HF       INT
 CPU TIMES  *        10.14      5.30      4.76
 REAL TIME  *        12.97 SEC
 DISK USED  *         1.33 GB      
 **********************************************************************************************************************************


 PROGRAM * CCSD (Closed-shell coupled cluster)     Authors: C. Hampel, H.-J. Werner, 1991, M. Deegan, P.J. Knowles, 1992


 Convergence thresholds:  THRVAR = 1.00D-08  THRDEN = 1.00D-12

 CCSD(T)     terms to be evaluated (factor= 1.000)


 Number of closed-shell orbitals:   8 (   7   1 )
 Number of external orbitals:     163 ( 107  56 )

 Molecular orbitals read from record     2100.2  Type=RHF/CANONICAL (state 1.1)

 Number of N-1 electron functions:               8
 Number of N-2 electron functions:              36
 Number of singly external CSFs:               805
 Number of doubly external CSFs:            449165
 Total number of CSFs:                      449971

 Length of J-op  integral file:               0.00 MB
 Length of K-op  integral file:               1.15 MB
 Length of 3-ext integral record:             0.00 MB

 Memory could be reduced to 24.90 Mwords without degradation in triples

 Integral transformation finished. Total CPU:   1.09 sec, npass=  1  Memory used:   6.89 MW

 Reference energy:                   -129.83916333

 MP2 singlet pair energy:              -0.37938585
 MP2 triplet pair energy:              -0.18689975
 MP2 correlation energy:               -0.56628560
 MP2 total energy:                   -130.40544894

 SCS-MP2 correlation energy:           -0.57155620   (PS=  1.200000  PT=  0.333333)
 SCS-MP2 total energy:               -130.41071953

 ITER.      SQ.NORM     CORR.ENERGY   TOTAL ENERGY   ENERGY CHANGE        DEN1      VAR(S)    VAR(P)  DIIS     TIME  TIME/IT
   1      1.12027866    -0.57087520  -130.41003854    -0.00458960     0.01330238  0.34D-02  0.32D-02  1  1     2.28     1.27
   2      1.13126812    -0.57054490  -130.40970823     0.00033030    -0.01382720  0.92D-04  0.51D-03  2  2     3.54     1.30
   3      1.13658401    -0.57087657  -130.41003990    -0.00033167    -0.00237786  0.56D-04  0.69D-04  3  3     4.73     1.30
   4      1.14006893    -0.57086848  -130.41003181     0.00000809    -0.00140145  0.47D-05  0.99D-05  4  4     5.94     1.30
   5      1.14114232    -0.57089340  -130.41005673    -0.00002493    -0.00025368  0.16D-05  0.18D-05  5  5     7.14     1.30
   6      1.14155728    -0.57088723  -130.41005056     0.00000617    -0.00004021  0.14D-06  0.41D-06  6  6     8.37     1.30
   7      1.14164119    -0.57088748  -130.41005081    -0.00000025     0.00000067  0.21D-07  0.93D-07  6  1     9.61     1.31
   8      1.14167536    -0.57088568  -130.41004901     0.00000180    -0.00000483  0.40D-08  0.14D-07  6  2    10.86     1.32
   9      1.14168017    -0.57088575  -130.41004908    -0.00000007     0.00000117  0.17D-08  0.18D-08  6  3    12.12     1.32
  10      1.14168192    -0.57088605  -130.41004938    -0.00000030    -0.00000067  0.40D-09  0.26D-09  6  4    13.37     1.32
  11      1.14168097    -0.57088619  -130.41004952    -0.00000014     0.00000034  0.10D-09  0.26D-10  6  5    14.58     1.33
  12      1.14168009    -0.57088632  -130.41004965    -0.00000014     0.00000034  0.10D-10  0.65D-11  6  6    15.83     1.33
  13      1.14167957    -0.57088633  -130.41004966    -0.00000001     0.00000011  0.43D-11  0.12D-11  6  1    17.04     1.32
  14      1.14167913    -0.57088636  -130.41004969    -0.00000003     0.00000010  0.44D-12  0.40D-12  6  3    18.24     1.32
  15      1.14167897    -0.57088636  -130.41004969    -0.00000000     0.00000002  0.11D-12  0.27D-13  6  2    19.44     1.32
  16      1.14167891    -0.57088636  -130.41004969    -0.00000000     0.00000001  0.25D-13  0.60D-14  6  4    20.60     1.32
  17      1.14167889    -0.57088636  -130.41004970    -0.00000000     0.00000001  0.44D-14  0.11D-14  6  5    21.78     1.32
  18      1.14167889    -0.57088636  -130.41004970    -0.00000000     0.00000000  0.46D-15  0.29D-15  6  6    22.97     1.32
  19      1.14167889    -0.57088636  -130.41004970     0.00000000    -0.00000000  0.57D-16  0.41D-16  6  1    24.21     1.32
  20      1.14167889    -0.57088636  -130.41004970     0.00000000    -0.00000000  0.24D-17  0.90D-17  6  3    25.42     1.32
  21      1.14167889    -0.57088636  -130.41004970     0.00000000    -0.00000000  0.12D-17  0.23D-17  6  2    26.62     1.32
  22      1.14167889    -0.57088636  -130.41004970     0.00000000    -0.00000000  0.23D-18  0.82D-18  6  4    27.86     1.32
  23      1.14167889    -0.57088636  -130.41004970    -0.00000000     0.00000000  0.13D-18  0.12D-18  6  5    29.10     1.32
  24      1.14167889    -0.57088636  -130.41004970     0.00000000    -0.00000000  0.59D-20  0.15D-19  6  1    30.33     1.32
  25      1.14167889    -0.57088636  -130.41004970     0.00000000     0.00000000  0.33D-21  0.14D-20  6  6    31.55     1.32
  26      1.14167889    -0.57088636  -130.41004970    -0.00000000     0.00000000  0.11D-21  0.32D-21  6  3    32.78     1.32

 Norm of t1 vector:      0.07829517      S-energy:     0.00000000      T1 diagnostic:  0.01384076
                                                                       D1 diagnostic:  0.04445224

 Doubles amplitudes (print threshold =  0.500E-01):

         I         J         SYM. A    SYM. B    A         B      T(IJ, AB)

         8         8         2         2         1         1     -0.13564777


 Total CPU time for triples:     20.06 sec


 RESULTS
 =======

  Reference energy                   -129.839163331580

  Correlated core orbitals:             1.1       2.1
  Orbital energies:                   -20.6516  -15.7120
 
  CCSD core-core energy                -0.079234448601
  CCSD core-valence energy             -0.036043911099
  CCSD valence correlation energy      -0.455608003940
 
  CCSD singlet pair energy             -0.408371048989
  CCSD triplet pair energy             -0.162515314659
  CCSD correlation energy              -0.570886363640

  Triples (T) contribution             -0.022421251621
  Total correlation energy             -0.593307615262

  CCSD total energy                  -130.410049695220
  CCSD[T] energy                     -130.433660231720
  CCSD-T energy                      -130.432025148601
 !CCSD(T) total energy               -130.432470946841

 Timing summary (sec):

 STEP                 CPU(USER)    SYS     CPU(TOT)    WALL
 Transformation          1.11      0.19      1.30      1.30
 CCSD iterations        31.67      2.69     34.36     34.39
 Triples                20.06      0.61     20.67     20.67

 Program statistics:

 Available memory in ccsd:               994999644
 Min. memory needed in ccsd:               1368037
 Max. memory used in ccsd:                 1750502
 Max. memory used in cckext:               2014357 (26 integral passes)



 **********************************************************************************************************************************
 DATASETS  * FILE   NREC   LENGTH (MB)   RECORD NAMES
              1      20      500.12       500      610      700      900      950      970     1000      129      960     1100   
                                          VAR    BASINP    GEOM    SYMINP    ZMAT    AOBASIS   BASIS     P2S    ABASIS      S 
                                         1400     1410     1200     1210     1080     1600     1650     1300     1700     1380   
                                           T        V       H0       H01     AOSYM     SMH    MOLCAS    ERIS     OPER     JKOP   

              2       4        3.13       700     1000      520     2100   
                                         GEOM     BASIS   MCVARS     RHF  

 PROGRAMS   *        TOTAL   CCSD(T)        HF       INT
 CPU TIMES  *        63.01     52.87      5.30      4.76
 REAL TIME  *        69.36 SEC
 DISK USED  *         1.33 GB      
 **********************************************************************************************************************************

 CCSD(T)/USERDEF energy=   -130.432470946841

        CCSD(T)         HF-SCF  
   -130.43247095   -129.83916333
 **********************************************************************************************************************************
 Molpro calculation terminated
 Variable memory released
