
 Primary working directories    : /tmp/r2666/235500.maple
 Secondary working directories  : /tmp/r2666/235500.maple
 Wavefunction directory         : /ddn/home4/r2666/wfu/
 Main file repository           : /tmp/r2666/235500.maple/

 SHA1      : d5ffa45e93fdbca01ffc919aa182cfdae0147319
 NAME      : 2015.1.35
 ARCHNAME  : linux/x86_64
 FC        : /opt/intel/composer_xe_2015.1.133/bin/intel64/ifort
 BLASLIB   : -Wl,-_start-group /opt/intel/mkl/lib/intel64/libmkl_intel_ilp64.a /opt/intel/mkl/lib/intel64/libmkl_intel_thread.a /opt/intel/mkl/lib/intel64/libmkl_core.a -Wl,-_end-group
 id        : olemiss

 Nodes     nprocs
 cn076        1

 Using customized tuning parameters: mindgm=1; mindgv=20; mindgc=4; mindgr=1; noblas=0; minvec=7
 default implementation of scratch files=df  

 ***,hno CCSD(T)/TZ-F12 QFF
 memory, 995, m;
 gthresh,energy=1.d-12,zero=1.d-22,oneint=1.d-22,twoint=1.d-22;
 gthresh,optgrad=1.d-8,optstep=1.d-8;
 nocompress;
 geomtyp=xyz
 bohr
 geometry={
 3
         97        97
 N        0.0000000000       -0.1635617136       -1.1401738589
 H        0.0000000000        1.6704419361       -1.9316640523
 O        0.0000000000        0.0348875675        1.1212483202
 }
 
 basis={
 default=aug-cc-pvtz
 s,C,8236.0,1235.0,280.8, 79.27,25.59, 8.997,3.319
 s,C,0.9059,0.3643,0.1285000
 p,C,56.0,18.71,4.133,0.2827,0.3827,0.1209
 d,C,30.0,10.0,3.3,1.097,0.318
 f,C,7.0,2.3,0.7610
 s,N,11420.0,1712.0,389.3,110.0,35.57,12.54,4.644
 s,N,1.293,0.5118,0.1787
 p,N,79.89,26.63,5.948,1.742,0.555,0.1725
 d,N,45.0,15.0,5.0,1.654,0.469
 f,N,9.9,3.3,1.093
 s,O,15330.0,2299.0,522.4,147.3,47.55,16.76,6.207
 s,O,1.752,0.6882,0.2384
 p,O,103.5,34.46,7.749,2.28,0.7156,0.214
 d,O,63.0,21.0,7.0,2.314,0.645
 f,O,12.9,4.3,1.428
 s,mg,164900.0,24710.0,5628.0,1596.0,521.0;
 s,mg,188.0,73.01,29.90,12.54,4.306,1.826;
 s,mg,0.7417,0.0761,0.145,0.033,0.0129;
 p,mg,950.70,316.90,74.86,23.72,8.669,3.363;
 p,mg,1.310,0.4911,0.2364,0.08733,0.03237,0.00745;
 d,mg,1.601,0.686,0.126,0.294,0.0468;
 f,mg,1.372,0.588,0.094,0.252;
 }
   {hf,maxit=500;accu,20;}
 {ccsd(t),nocheck,maxit=250;orbital,IGNORE_ERROR;core}

 Variables initialized (889), CPU time= 0.01 sec
 Commands  initialized (702), CPU time= 0.00 sec, 572 directives.
 Default parameters read. Elapsed time= 0.04 sec

 Checking input...
 Passed
1


                                         ***  PROGRAM SYSTEM MOLPRO  ***
                                       Copyright, TTI GmbH Stuttgart, 2015
                                    Version 2015.1 linked Jul  9 2018 13:16:40


 **********************************************************************************************************************************
 LABEL *   hno CCSD(T)/TZ-F12 QFF                                                        
  64 bit serial version                                                                  DATE: 08-Feb-20          TIME: 18:00:31  
 **********************************************************************************************************************************

 SHA1:             d5ffa45e93fdbca01ffc919aa182cfdae0147319
 **********************************************************************************************************************************

 THRESHOLDS:

 ZERO    =  1.00D-22  ONEINT  =  1.00D-22  TWOINT  =  1.00D-22  PREFAC  =  1.00D-14  LOCALI  =  1.00D-09  EORDER  =  1.00D-04
 ENERGY  =  1.00D-12  ETEST   =  0.00D+00  EDENS   =  0.00D+00  THRDEDEF=  1.00D-06  GRADIENT=  1.00D-02  STEP    =  1.00D-03
 ORBITAL =  1.00D-05  CIVEC   =  1.00D-05  COEFF   =  1.00D-04  PRINTCI =  5.00D-02  PUNCHCI =  9.90D+01  OPTGRAD =  3.00D-04
 OPTENERG=  1.00D-06  OPTSTEP =  3.00D-04  THRGRAD =  1.00D-10  COMPRESS=  1.00D-11  VARMIN  =  1.00D-07  VARMAX  =  1.00D-03
 THRDOUB =  0.00D+00  THRDIV  =  1.00D-05  THRRED  =  1.00D-07  THRPSP  =  1.00D+00  THRDC   =  1.00D-10  THRCS   =  1.00D-10
 THRNRM  =  1.00D-08  THREQ   =  0.00D+00  THRDE   =  1.00D+00  THRREF  =  1.00D-05  SPARFAC =  1.00D+00  THRDLP  =  1.00D-07
 THRDIA  =  1.00D-10  THRDLS  =  1.00D-07  THRGPS  =  0.00D+00  THRKEX  =  0.00D+00  THRDIS  =  2.00D-01  THRVAR  =  1.00D-10
 THRLOC  =  1.00D-06  THRGAP  =  1.00D-06  THRLOCT = -1.00D+00  THRGAPT = -1.00D+00  THRORB  =  1.00D-06  THRMLTP =  0.00D+00
 THRCPQCI=  1.00D-10  KEXTA   =  0.00D+00  THRCOARS=  0.00D+00  SYMTOL  =  1.00D-06  GRADTOL =  1.00D-06  THROVL  =  1.00D-08
 THRORTH =  1.00D-08  GRID    =  1.00D-06  GRIDMAX =  1.00D-03  DTMAX   =  0.00D+00  THROCCDE=  1.00D-01  THROCCDE=  1.00D-01



 THRESHOLDS:

 ZERO    =  1.00D-22  ONEINT  =  1.00D-22  TWOINT  =  1.00D-22  PREFAC  =  1.00D-14  LOCALI  =  1.00D-09  EORDER  =  1.00D-04
 ENERGY  =  1.00D-12  ETEST   =  0.00D+00  EDENS   =  0.00D+00  THRDEDEF=  1.00D-06  GRADIENT=  1.00D-02  STEP    =  1.00D-03
 ORBITAL =  1.00D-05  CIVEC   =  1.00D-05  COEFF   =  1.00D-04  PRINTCI =  5.00D-02  PUNCHCI =  9.90D+01  OPTGRAD =  1.00D-08
 OPTENERG=  1.00D-06  OPTSTEP =  1.00D-08  THRGRAD =  1.00D-10  COMPRESS=  1.00D-11  VARMIN  =  1.00D-07  VARMAX  =  1.00D-03
 THRDOUB =  0.00D+00  THRDIV  =  1.00D-05  THRRED  =  1.00D-07  THRPSP  =  1.00D+00  THRDC   =  1.00D-10  THRCS   =  1.00D-10
 THRNRM  =  1.00D-08  THREQ   =  0.00D+00  THRDE   =  1.00D+00  THRREF  =  1.00D-05  SPARFAC =  1.00D+00  THRDLP  =  1.00D-07
 THRDIA  =  1.00D-10  THRDLS  =  1.00D-07  THRGPS  =  0.00D+00  THRKEX  =  0.00D+00  THRDIS  =  2.00D-01  THRVAR  =  1.00D-10
 THRLOC  =  1.00D-06  THRGAP  =  1.00D-06  THRLOCT = -1.00D+00  THRGAPT = -1.00D+00  THRORB  =  1.00D-06  THRMLTP =  0.00D+00
 THRCPQCI=  1.00D-10  KEXTA   =  0.00D+00  THRCOARS=  0.00D+00  SYMTOL  =  1.00D-06  GRADTOL =  1.00D-06  THROVL  =  1.00D-08
 THRORTH =  1.00D-08  GRID    =  1.00D-06  GRIDMAX =  1.00D-03  DTMAX   =  0.00D+00  THROCCDE=  1.00D-01  THROCCDE=  1.00D-01



 Input parameters for SORTINT:

 COMPRESS =    0.000000
 C_FINAL  =    1.000000
 DEBUG    =   -1.000000
 C_SORT1  =    0.000000
 C_SEWARD =    0.000000
 THRESH   =    0.000000
 IO       =  molpro                                                          
 SPRI     =    0.000000
 SETTING GEOMTYP        =    XYZ
 ZUNIT=BOHR
 

 Variable memory set to  995000000 words,  buffer space   230000 words

 SETTING BASIS          =    USERDEF


 Recomputing integrals since basis changed


 Using spherical harmonics

 Library entry H      S aug-cc-pVTZ          selected for orbital group  2
 Library entry H      P aug-cc-pVTZ          selected for orbital group  2
 Library entry H      D aug-cc-pVTZ          selected for orbital group  2


 PROGRAM * SEWARD (Integral evaluation for generally contracted gaussian basis sets)     Author: Roland Lindh, 1990

 Geometry written to block  1 of record 700


 Point group  Cs  



 ATOMIC COORDINATES

 NR  ATOM    CHARGE       X              Y              Z

   1  N       7.00    0.000000000   -0.163561714   -1.140173859
   2  H       1.00    0.000000000    1.670441936   -1.931664052
   3  O       8.00    0.000000000    0.034887568    1.121248320

 Bond lengths in Bohr (Angstrom)

 1-2  1.997504972  1-3  2.270112858
     ( 1.057034110)     ( 1.201291991)

 Bond angles

  2-1-3  108.32819752

 NUCLEAR CHARGE:                   16
 NUMBER OF PRIMITIVE AOS:         203
 NUMBER OF SYMMETRY AOS:          173
 NUMBER OF CONTRACTIONS:          171   ( 114A'  +  57A"  )
 NUMBER OF CORE ORBITALS:           2   (   2A'  +   0A"  )
 NUMBER OF VALENCE ORBITALS:        9   (   7A'  +   2A"  )


 NUCLEAR REPULSION ENERGY   30.48260114


 Eigenvalues of metric

         1 0.104E-02 0.244E-02 0.332E-02 0.636E-02 0.100E-01 0.137E-01 0.144E-01 0.231E-01
         2 0.369E-01 0.522E-01 0.698E-01 0.941E-01 0.131E+00 0.134E+00 0.141E+00 0.142E+00


 Contracted 2-electron integrals neglected if value below      1.0D-22

       46198685. INTEGRALS WRITTEN OUT IN   11282 BLOCKS ON RECORD 1290 OF FILE 1


 NUMBER OF SORTED TWO-ELECTRON INTEGRALS:   55360566.     BUFFER LENGTH:  32768
 NUMBER OF SEGMENTS:   4  SEGMENT LENGTH:   15997996      RECORD LENGTH: 524288

 Memory used in sort:      16.56 MW

 SORT1 READ    46198685. AND WROTE    46636709. INTEGRALS IN    135 RECORDS. CPU TIME:     0.74 SEC, REAL TIME:     1.02 SEC
 SORT2 READ    46636709. AND WROTE    55360566. INTEGRALS IN      4 RECORDS. CPU TIME:     0.63 SEC, REAL TIME:     0.84 SEC

 FILE SIZES:   FILE 1:   760.1 MBYTE,  FILE 4:   566.3 MBYTE,   TOTAL:   1326.4 MBYTE

 OPERATOR DM      FOR CENTER  0  COORDINATES:    0.000000    0.000000    0.000000


 **********************************************************************************************************************************
 DATASETS  * FILE   NREC   LENGTH (MB)   RECORD NAMES
              1      19      421.61       500      610      700      900      950      970     1000      129      960     1100   
                                          VAR    BASINP    GEOM    SYMINP    ZMAT    AOBASIS   BASIS     P2S    ABASIS      S 
                                         1400     1410     1200     1210     1080     1600     1650     1300     1700   
                                           T        V       H0       H01     AOSYM     SMH    MOLCAS    ERIS     OPER   

 PROGRAMS   *        TOTAL       INT
 CPU TIMES  *         4.01      3.93
 REAL TIME  *         5.46 SEC
 DISK USED  *         1.33 GB      
 **********************************************************************************************************************************


 PROGRAM * RHF-SCF (CLOSED SHELL)       Authors: W. Meyer, H.-J. Werner


 NUMBER OF ELECTRONS:       8+    8-
 CONVERGENCE THRESHOLDS:    1.00E-10 (Density)    1.00E-13 (Energy)
 MAX. NUMBER OF ITERATIONS:      500
 INTERPOLATION TYPE:            DIIS
 INTERPOLATION STEPS:              2 (START)      1 (STEP)
 LEVEL SHIFTS:                  0.00 (CLOSED)  0.00 (OPEN) 



 Orbital guess generated from atomic densities. Full valence occupancy:    9   2

 Molecular orbital dump at record        2100.2

 Initial occupancy:   7   1

 ITERATION    DDIFF          GRAD             ENERGY        2-EL.EN.            DIPOLE MOMENTS         DIIS   ORB.
    1      0.000D+00      0.000D+00      -129.79070104    154.259267    0.00000    0.56427   -0.99301    0    start
    2      0.000D+00      0.874D-02      -129.81779806    155.453039    0.00000    0.59257   -0.19795    1    diag
    3      0.360D-02      0.655D-02      -129.83968807    155.557879    0.00000    0.54187   -0.57373    2    diag
    4      0.139D-02      0.103D-02      -129.84045876    155.287484    0.00000    0.55003   -0.51250    3    diag
    5      0.328D-03      0.334D-03      -129.84057759    155.375402    0.00000    0.55614   -0.51508    4    diag
    6      0.152D-03      0.983D-04      -129.84059699    155.359338    0.00000    0.55675   -0.51106    5    diag
    7      0.606D-04      0.489D-04      -129.84060259    155.361972    0.00000    0.55811   -0.50865    6    diag
    8      0.409D-04      0.164D-04      -129.84060317    155.361174    0.00000    0.55817   -0.50778    7    diag
    9      0.137D-04      0.305D-05      -129.84060319    155.361065    0.00000    0.55813   -0.50761    8    diag
   10      0.274D-05      0.707D-06      -129.84060319    155.361051    0.00000    0.55809   -0.50758    9    orth
   11      0.840D-06      0.142D-06      -129.84060319    155.361046    0.00000    0.55808   -0.50758    9    diag
   12      0.202D-06      0.291D-07      -129.84060319    155.361045    0.00000    0.55808   -0.50758    9    diag
   13      0.494D-07      0.764D-08      -129.84060319    155.361045    0.00000    0.55808   -0.50758    9    diag
   14      0.114D-07      0.137D-08      -129.84060319    155.361045    0.00000    0.55808   -0.50758    9    diag
   15      0.153D-08      0.378D-09      -129.84060319    155.361045    0.00000    0.55808   -0.50758    9    diag
   16      0.337D-09      0.116D-09      -129.84060319    155.361045    0.00000    0.55808   -0.50758    9    diag
   17      0.874D-10      0.338D-10      -129.84060319    155.361045    0.00000    0.55808   -0.50758    9    diag
   18      0.291D-10      0.111D-10      -129.84060319    155.361045    0.00000    0.55808   -0.50758    0    orth

 Final occupancy:   7   1

 !RHF STATE 1.1 Energy               -129.840603191535
 Nuclear energy                        30.48260114
 One-electron energy                 -238.00372687
 Two-electron energy                   77.68052254
 Virial quotient                       -1.00149368
 !RHF STATE 1.1 Dipole moment           0.00000000     0.55807867    -0.50757602
 Dipole moment /Debye                   0.00000000     1.41840158    -1.29004507

 Orbital energies:

         1.1          2.1          3.1          4.1          5.1          6.1          7.1          8.1          9.1
    -20.650806   -15.710144    -1.533447    -0.990214    -0.746713    -0.666213    -0.426325     0.039771     0.192693

         1.2          2.2          3.2
     -0.597480     0.081399     0.239734

 HOMO      7.1    -0.426325 =     -11.6009eV
 LUMO      8.1     0.039771 =       1.0822eV
 LUMO-HOMO         0.466095 =      12.6831eV


 **********************************************************************************************************************************
 DATASETS  * FILE   NREC   LENGTH (MB)   RECORD NAMES
              1      19      421.61       500      610      700      900      950      970     1000      129      960     1100   
                                          VAR    BASINP    GEOM    SYMINP    ZMAT    AOBASIS   BASIS     P2S    ABASIS      S 
                                         1400     1410     1200     1210     1080     1600     1650     1300     1700   
                                           T        V       H0       H01     AOSYM     SMH    MOLCAS    ERIS     OPER   

              2       4        3.13       700     1000      520     2100   
                                         GEOM     BASIS   MCVARS     RHF  

 PROGRAMS   *        TOTAL        HF       INT
 CPU TIMES  *         8.45      4.43      3.93
 REAL TIME  *        10.86 SEC
 DISK USED  *         1.33 GB      
 **********************************************************************************************************************************


 PROGRAM * CCSD (Closed-shell coupled cluster)     Authors: C. Hampel, H.-J. Werner, 1991, M. Deegan, P.J. Knowles, 1992


 Convergence thresholds:  THRVAR = 1.00D-08  THRDEN = 1.00D-12

 CCSD(T)     terms to be evaluated (factor= 1.000)


 Number of closed-shell orbitals:   8 (   7   1 )
 Number of external orbitals:     163 ( 107  56 )

 Molecular orbitals read from record     2100.2  Type=RHF/CANONICAL (state 1.1)

 Number of N-1 electron functions:               8
 Number of N-2 electron functions:              36
 Number of singly external CSFs:               805
 Number of doubly external CSFs:            449165
 Total number of CSFs:                      449971

 Length of J-op  integral file:               0.00 MB
 Length of K-op  integral file:               1.15 MB
 Length of 3-ext integral record:             0.00 MB

 Memory could be reduced to 24.90 Mwords without degradation in triples

 Integral transformation finished. Total CPU:   0.82 sec, npass=  1  Memory used:   6.89 MW

 Reference energy:                   -129.84060319

 MP2 singlet pair energy:              -0.37838270
 MP2 triplet pair energy:              -0.18627586
 MP2 correlation energy:               -0.56465856
 MP2 total energy:                   -130.40526175

 SCS-MP2 correlation energy:           -0.56996422   (PS=  1.200000  PT=  0.333333)
 SCS-MP2 total energy:               -130.41056741

 ITER.      SQ.NORM     CORR.ENERGY   TOTAL ENERGY   ENERGY CHANGE        DEN1      VAR(S)    VAR(P)  DIIS     TIME  TIME/IT
   1      1.11923031    -0.56962059  -130.41022378    -0.00496203     0.01249801  0.33D-02  0.30D-02  1  1     1.71     0.96
   2      1.12996576    -0.56937716  -130.40998035     0.00024343    -0.01355808  0.88D-04  0.49D-03  2  2     2.66     1.00
   3      1.13513631    -0.56969853  -130.41030172    -0.00032137    -0.00234015  0.54D-04  0.67D-04  3  3     3.60     1.01
   4      1.13849937    -0.56968948  -130.41029268     0.00000904    -0.00136697  0.44D-05  0.95D-05  4  4     4.50     1.01
   5      1.13951844    -0.56971338  -130.41031657    -0.00002390    -0.00023964  0.16D-05  0.18D-05  5  5     5.40     1.00
   6      1.13991741    -0.56970772  -130.41031091     0.00000567    -0.00003827  0.14D-06  0.41D-06  6  6     6.31     1.00
   7      1.14000192    -0.56970789  -130.41031108    -0.00000017     0.00000013  0.21D-07  0.91D-07  6  1     7.23     1.00
   8      1.14003615    -0.56970624  -130.41030943     0.00000165    -0.00000469  0.42D-08  0.13D-07  6  2     8.11     1.00
   9      1.14004115    -0.56970631  -130.41030950    -0.00000007     0.00000099  0.17D-08  0.17D-08  6  3     9.03     1.00
  10      1.14004277    -0.56970661  -130.41030980    -0.00000030    -0.00000060  0.39D-09  0.23D-09  6  4     9.94     1.00
  11      1.14004181    -0.56970675  -130.41030994    -0.00000013     0.00000034  0.95D-10  0.24D-10  6  5    10.83     1.00
  12      1.14004092    -0.56970688  -130.41031007    -0.00000013     0.00000034  0.10D-10  0.62D-11  6  6    11.73     1.00
  13      1.14004041    -0.56970689  -130.41031008    -0.00000001     0.00000011  0.43D-11  0.11D-11  6  1    12.64     1.00
  14      1.14003999    -0.56970691  -130.41031010    -0.00000003     0.00000010  0.45D-12  0.38D-12  6  3    13.54     1.00
  15      1.14003983    -0.56970691  -130.41031010    -0.00000000     0.00000002  0.11D-12  0.25D-13  6  2    14.43     1.00
  16      1.14003977    -0.56970691  -130.41031011    -0.00000000     0.00000001  0.25D-13  0.57D-14  6  4    15.32     1.00
  17      1.14003976    -0.56970692  -130.41031011    -0.00000000     0.00000001  0.41D-14  0.11D-14  6  5    16.21     1.00
  18      1.14003975    -0.56970692  -130.41031011    -0.00000000     0.00000000  0.40D-15  0.27D-15  6  6    17.10     1.00
  19      1.14003976    -0.56970692  -130.41031011     0.00000000    -0.00000000  0.48D-16  0.34D-16  6  1    18.01     1.00
  20      1.14003976    -0.56970692  -130.41031011     0.00000000    -0.00000000  0.20D-17  0.69D-17  6  3    18.88     1.00
  21      1.14003976    -0.56970692  -130.41031011     0.00000000    -0.00000000  0.10D-17  0.17D-17  6  2    19.78     1.00
  22      1.14003976    -0.56970692  -130.41031011     0.00000000    -0.00000000  0.16D-18  0.60D-18  6  4    20.65     1.00
  23      1.14003976    -0.56970692  -130.41031011    -0.00000000     0.00000000  0.10D-18  0.92D-19  6  5    21.56     1.00
  24      1.14003976    -0.56970692  -130.41031011     0.00000000    -0.00000000  0.49D-20  0.12D-19  6  1    22.49     1.00
  25      1.14003976    -0.56970692  -130.41031011     0.00000000     0.00000000  0.25D-21  0.13D-20  6  6    23.41     1.00
  26      1.14003976    -0.56970692  -130.41031011    -0.00000000     0.00000000  0.11D-21  0.28D-21  6  3    24.32     1.00

 Norm of t1 vector:      0.07692790      S-energy:     0.00000000      T1 diagnostic:  0.01359906
                                                                       D1 diagnostic:  0.04323738

 Doubles amplitudes (print threshold =  0.500E-01):

         I         J         SYM. A    SYM. B    A         B      T(IJ, AB)

         8         8         2         2         1         1     -0.13253211


 Total CPU time for triples:     17.13 sec


 RESULTS
 =======

  Reference energy                   -129.840603191535

  Correlated core orbitals:             1.1       2.1
  Orbital energies:                   -20.6508  -15.7101
 
  CCSD core-core energy                -0.079229584423
  CCSD core-valence energy             -0.036108276304
  CCSD valence correlation energy      -0.454369054289
 
  CCSD singlet pair energy             -0.407302538995
  CCSD triplet pair energy             -0.162404376022
  CCSD correlation energy              -0.569706915015

  Triples (T) contribution             -0.022112367124
  Total correlation energy             -0.591819282139

  CCSD total energy                  -130.410310106551
  CCSD[T] energy                     -130.433570199319
  CCSD-T energy                      -130.431987919017
 !CCSD(T) total energy               -130.432422473675

 Timing summary (sec):

 STEP                 CPU(USER)    SYS     CPU(TOT)    WALL
 Transformation          0.83      0.17      1.00      1.00
 CCSD iterations        23.50      2.54     26.04     26.05
 Triples                17.13      0.55     17.68     17.68

 Program statistics:

 Available memory in ccsd:               994999644
 Min. memory needed in ccsd:               1368037
 Max. memory used in ccsd:                 1750502
 Max. memory used in cckext:               2014357 (26 integral passes)



 **********************************************************************************************************************************
 DATASETS  * FILE   NREC   LENGTH (MB)   RECORD NAMES
              1      20      500.52       500      610      700      900      950      970     1000      129      960     1100   
                                          VAR    BASINP    GEOM    SYMINP    ZMAT    AOBASIS   BASIS     P2S    ABASIS      S 
                                         1400     1410     1200     1210     1080     1600     1650     1300     1700     1380   
                                           T        V       H0       H01     AOSYM     SMH    MOLCAS    ERIS     OPER     JKOP   

              2       4        3.13       700     1000      520     2100   
                                         GEOM     BASIS   MCVARS     RHF  

 PROGRAMS   *        TOTAL   CCSD(T)        HF       INT
 CPU TIMES  *        49.93     41.49      4.43      3.93
 REAL TIME  *        55.63 SEC
 DISK USED  *         1.33 GB      
 **********************************************************************************************************************************

 CCSD(T)/USERDEF energy=   -130.432422473675

        CCSD(T)         HF-SCF  
   -130.43242247   -129.84060319
 **********************************************************************************************************************************
 Molpro calculation terminated
 Variable memory released
