
 Primary working directories    : /tmp/r2666/235423.maple
 Secondary working directories  : /tmp/r2666/235423.maple
 Wavefunction directory         : /ddn/home4/r2666/wfu/
 Main file repository           : /tmp/r2666/235423.maple/

 SHA1      : d5ffa45e93fdbca01ffc919aa182cfdae0147319
 NAME      : 2015.1.35
 ARCHNAME  : linux/x86_64
 FC        : /opt/intel/composer_xe_2015.1.133/bin/intel64/ifort
 BLASLIB   : -Wl,-_start-group /opt/intel/mkl/lib/intel64/libmkl_intel_ilp64.a /opt/intel/mkl/lib/intel64/libmkl_intel_thread.a /opt/intel/mkl/lib/intel64/libmkl_core.a -Wl,-_end-group
 id        : olemiss

 Nodes     nprocs
 cn030        1

 Using customized tuning parameters: mindgm=1; mindgv=20; mindgc=4; mindgr=1; noblas=0; minvec=7
 default implementation of scratch files=df  

 ***,hno CCSD(T)/TZ-F12 QFF
 memory, 995, m;
 gthresh,energy=1.d-12,zero=1.d-22,oneint=1.d-22,twoint=1.d-22;
 gthresh,optgrad=1.d-8,optstep=1.d-8;
 nocompress;
 geomtyp=xyz
 bohr
 geometry={
 3
         20        20
 N        0.0000000000       -0.1481600244       -1.1562031038
 H        0.0000000000        1.6601252549       -1.9357490228
 O        0.0000000000        0.0298025595        1.1413625356
 }
 
 basis={
 default=aug-cc-pvtz
 s,C,8236.0,1235.0,280.8, 79.27,25.59, 8.997,3.319
 s,C,0.9059,0.3643,0.1285000
 p,C,56.0,18.71,4.133,0.2827,0.3827,0.1209
 d,C,30.0,10.0,3.3,1.097,0.318
 f,C,7.0,2.3,0.7610
 s,N,11420.0,1712.0,389.3,110.0,35.57,12.54,4.644
 s,N,1.293,0.5118,0.1787
 p,N,79.89,26.63,5.948,1.742,0.555,0.1725
 d,N,45.0,15.0,5.0,1.654,0.469
 f,N,9.9,3.3,1.093
 s,O,15330.0,2299.0,522.4,147.3,47.55,16.76,6.207
 s,O,1.752,0.6882,0.2384
 p,O,103.5,34.46,7.749,2.28,0.7156,0.214
 d,O,63.0,21.0,7.0,2.314,0.645
 f,O,12.9,4.3,1.428
 s,mg,164900.0,24710.0,5628.0,1596.0,521.0;
 s,mg,188.0,73.01,29.90,12.54,4.306,1.826;
 s,mg,0.7417,0.0761,0.145,0.033,0.0129;
 p,mg,950.70,316.90,74.86,23.72,8.669,3.363;
 p,mg,1.310,0.4911,0.2364,0.08733,0.03237,0.00745;
 d,mg,1.601,0.686,0.126,0.294,0.0468;
 f,mg,1.372,0.588,0.094,0.252;
 }
   {hf,maxit=500;accu,20;}
 {ccsd(t),nocheck,maxit=250;orbital,IGNORE_ERROR;core}

 Variables initialized (889), CPU time= 0.00 sec
 Commands  initialized (702), CPU time= 0.01 sec, 572 directives.
 Default parameters read. Elapsed time= 0.05 sec

 Checking input...
 Passed
1


                                         ***  PROGRAM SYSTEM MOLPRO  ***
                                       Copyright, TTI GmbH Stuttgart, 2015
                                    Version 2015.1 linked Jul  9 2018 13:16:40


 **********************************************************************************************************************************
 LABEL *   hno CCSD(T)/TZ-F12 QFF                                                        
  64 bit serial version                                                                  DATE: 08-Feb-20          TIME: 17:59:10  
 **********************************************************************************************************************************

 SHA1:             d5ffa45e93fdbca01ffc919aa182cfdae0147319
 **********************************************************************************************************************************

 THRESHOLDS:

 ZERO    =  1.00D-22  ONEINT  =  1.00D-22  TWOINT  =  1.00D-22  PREFAC  =  1.00D-14  LOCALI  =  1.00D-09  EORDER  =  1.00D-04
 ENERGY  =  1.00D-12  ETEST   =  0.00D+00  EDENS   =  0.00D+00  THRDEDEF=  1.00D-06  GRADIENT=  1.00D-02  STEP    =  1.00D-03
 ORBITAL =  1.00D-05  CIVEC   =  1.00D-05  COEFF   =  1.00D-04  PRINTCI =  5.00D-02  PUNCHCI =  9.90D+01  OPTGRAD =  3.00D-04
 OPTENERG=  1.00D-06  OPTSTEP =  3.00D-04  THRGRAD =  1.00D-10  COMPRESS=  1.00D-11  VARMIN  =  1.00D-07  VARMAX  =  1.00D-03
 THRDOUB =  0.00D+00  THRDIV  =  1.00D-05  THRRED  =  1.00D-07  THRPSP  =  1.00D+00  THRDC   =  1.00D-10  THRCS   =  1.00D-10
 THRNRM  =  1.00D-08  THREQ   =  0.00D+00  THRDE   =  1.00D+00  THRREF  =  1.00D-05  SPARFAC =  1.00D+00  THRDLP  =  1.00D-07
 THRDIA  =  1.00D-10  THRDLS  =  1.00D-07  THRGPS  =  0.00D+00  THRKEX  =  0.00D+00  THRDIS  =  2.00D-01  THRVAR  =  1.00D-10
 THRLOC  =  1.00D-06  THRGAP  =  1.00D-06  THRLOCT = -1.00D+00  THRGAPT = -1.00D+00  THRORB  =  1.00D-06  THRMLTP =  0.00D+00
 THRCPQCI=  1.00D-10  KEXTA   =  0.00D+00  THRCOARS=  0.00D+00  SYMTOL  =  1.00D-06  GRADTOL =  1.00D-06  THROVL  =  1.00D-08
 THRORTH =  1.00D-08  GRID    =  1.00D-06  GRIDMAX =  1.00D-03  DTMAX   =  0.00D+00  THROCCDE=  1.00D-01  THROCCDE=  1.00D-01



 THRESHOLDS:

 ZERO    =  1.00D-22  ONEINT  =  1.00D-22  TWOINT  =  1.00D-22  PREFAC  =  1.00D-14  LOCALI  =  1.00D-09  EORDER  =  1.00D-04
 ENERGY  =  1.00D-12  ETEST   =  0.00D+00  EDENS   =  0.00D+00  THRDEDEF=  1.00D-06  GRADIENT=  1.00D-02  STEP    =  1.00D-03
 ORBITAL =  1.00D-05  CIVEC   =  1.00D-05  COEFF   =  1.00D-04  PRINTCI =  5.00D-02  PUNCHCI =  9.90D+01  OPTGRAD =  1.00D-08
 OPTENERG=  1.00D-06  OPTSTEP =  1.00D-08  THRGRAD =  1.00D-10  COMPRESS=  1.00D-11  VARMIN  =  1.00D-07  VARMAX  =  1.00D-03
 THRDOUB =  0.00D+00  THRDIV  =  1.00D-05  THRRED  =  1.00D-07  THRPSP  =  1.00D+00  THRDC   =  1.00D-10  THRCS   =  1.00D-10
 THRNRM  =  1.00D-08  THREQ   =  0.00D+00  THRDE   =  1.00D+00  THRREF  =  1.00D-05  SPARFAC =  1.00D+00  THRDLP  =  1.00D-07
 THRDIA  =  1.00D-10  THRDLS  =  1.00D-07  THRGPS  =  0.00D+00  THRKEX  =  0.00D+00  THRDIS  =  2.00D-01  THRVAR  =  1.00D-10
 THRLOC  =  1.00D-06  THRGAP  =  1.00D-06  THRLOCT = -1.00D+00  THRGAPT = -1.00D+00  THRORB  =  1.00D-06  THRMLTP =  0.00D+00
 THRCPQCI=  1.00D-10  KEXTA   =  0.00D+00  THRCOARS=  0.00D+00  SYMTOL  =  1.00D-06  GRADTOL =  1.00D-06  THROVL  =  1.00D-08
 THRORTH =  1.00D-08  GRID    =  1.00D-06  GRIDMAX =  1.00D-03  DTMAX   =  0.00D+00  THROCCDE=  1.00D-01  THROCCDE=  1.00D-01



 Input parameters for SORTINT:

 COMPRESS =    0.000000
 C_FINAL  =    1.000000
 DEBUG    =   -1.000000
 C_SORT1  =    0.000000
 C_SEWARD =    0.000000
 THRESH   =    0.000000
 IO       =  molpro                                                          
 SPRI     =    0.000000
 SETTING GEOMTYP        =    XYZ
 ZUNIT=BOHR
 

 Variable memory set to  995000000 words,  buffer space   230000 words

 SETTING BASIS          =    USERDEF


 Recomputing integrals since basis changed


 Using spherical harmonics

 Library entry H      S aug-cc-pVTZ          selected for orbital group  2
 Library entry H      P aug-cc-pVTZ          selected for orbital group  2
 Library entry H      D aug-cc-pVTZ          selected for orbital group  2


 PROGRAM * SEWARD (Integral evaluation for generally contracted gaussian basis sets)     Author: Roland Lindh, 1990

 Geometry written to block  1 of record 700


 Point group  Cs  



 ATOMIC COORDINATES

 NR  ATOM    CHARGE       X              Y              Z

   1  N       7.00    0.000000000   -0.148160024   -1.156203104
   2  H       1.00    0.000000000    1.660125255   -1.935749023
   3  O       8.00    0.000000000    0.029802559    1.141362536

 Bond lengths in Bohr (Angstrom)

 1-2  1.969159082  1-3  2.304447558
     ( 1.042034111)     ( 1.219461132)

 Bond angles

  2-1-3  108.89160056

 NUCLEAR CHARGE:                   16
 NUMBER OF PRIMITIVE AOS:         203
 NUMBER OF SYMMETRY AOS:          173
 NUMBER OF CONTRACTIONS:          171   ( 114A'  +  57A"  )
 NUMBER OF CORE ORBITALS:           2   (   2A'  +   0A"  )
 NUMBER OF VALENCE ORBITALS:        9   (   7A'  +   2A"  )


 NUCLEAR REPULSION ENERGY   30.15296956


 Eigenvalues of metric

         1 0.104E-02 0.258E-02 0.335E-02 0.635E-02 0.952E-02 0.137E-01 0.145E-01 0.228E-01
         2 0.352E-01 0.546E-01 0.697E-01 0.943E-01 0.131E+00 0.134E+00 0.139E+00 0.142E+00


 Contracted 2-electron integrals neglected if value below      1.0D-22

       46084368. INTEGRALS WRITTEN OUT IN   11254 BLOCKS ON RECORD 1290 OF FILE 1


 NUMBER OF SORTED TWO-ELECTRON INTEGRALS:   55360566.     BUFFER LENGTH:  32768
 NUMBER OF SEGMENTS:   4  SEGMENT LENGTH:   15997996      RECORD LENGTH: 524288

 Memory used in sort:      16.56 MW

 SORT1 READ    46084368. AND WROTE    46521115. INTEGRALS IN    135 RECORDS. CPU TIME:     1.28 SEC, REAL TIME:     1.63 SEC
 SORT2 READ    46521115. AND WROTE    55360566. INTEGRALS IN      4 RECORDS. CPU TIME:     0.82 SEC, REAL TIME:     1.03 SEC

 FILE SIZES:   FILE 1:   758.3 MBYTE,  FILE 4:   566.3 MBYTE,   TOTAL:   1324.5 MBYTE

 OPERATOR DM      FOR CENTER  0  COORDINATES:    0.000000    0.000000    0.000000


 **********************************************************************************************************************************
 DATASETS  * FILE   NREC   LENGTH (MB)   RECORD NAMES
              1      19      420.83       500      610      700      900      950      970     1000      129      960     1100   
                                          VAR    BASINP    GEOM    SYMINP    ZMAT    AOBASIS   BASIS     P2S    ABASIS      S 
                                         1400     1410     1200     1210     1080     1600     1650     1300     1700   
                                           T        V       H0       H01     AOSYM     SMH    MOLCAS    ERIS     OPER   

 PROGRAMS   *        TOTAL       INT
 CPU TIMES  *         5.85      5.77
 REAL TIME  *         7.45 SEC
 DISK USED  *         1.32 GB      
 **********************************************************************************************************************************


 PROGRAM * RHF-SCF (CLOSED SHELL)       Authors: W. Meyer, H.-J. Werner


 NUMBER OF ELECTRONS:       8+    8-
 CONVERGENCE THRESHOLDS:    1.00E-10 (Density)    1.00E-13 (Energy)
 MAX. NUMBER OF ITERATIONS:      500
 INTERPOLATION TYPE:            DIIS
 INTERPOLATION STEPS:              2 (START)      1 (STEP)
 LEVEL SHIFTS:                  0.00 (CLOSED)  0.00 (OPEN) 



 Orbital guess generated from atomic densities. Full valence occupancy:    9   2

 Molecular orbital dump at record        2100.2

 Initial occupancy:   7   1

 ITERATION    DDIFF          GRAD             ENERGY        2-EL.EN.            DIPOLE MOMENTS         DIIS   ORB.
    1      0.000D+00      0.000D+00      -129.78659273    153.678543    0.00000    0.58730   -1.05056    0    start
    2      0.000D+00      0.885D-02      -129.81309243    154.821464    0.00000    0.60515   -0.19624    1    diag
    3      0.372D-02      0.687D-02      -129.83731752    154.969496    0.00000    0.55812   -0.60375    2    diag
    4      0.145D-02      0.106D-02      -129.83812490    154.687688    0.00000    0.56566   -0.53914    3    diag
    5      0.338D-03      0.341D-03      -129.83824728    154.776153    0.00000    0.57161   -0.54135    4    diag
    6      0.154D-03      0.993D-04      -129.83826715    154.760069    0.00000    0.57213   -0.53706    5    diag
    7      0.609D-04      0.505D-04      -129.83827321    154.762434    0.00000    0.57340   -0.53440    6    diag
    8      0.417D-04      0.179D-04      -129.83827393    154.761567    0.00000    0.57345   -0.53340    7    diag
    9      0.153D-04      0.337D-05      -129.83827397    154.761446    0.00000    0.57340   -0.53320    8    diag
   10      0.319D-05      0.753D-06      -129.83827397    154.761432    0.00000    0.57336   -0.53318    9    orth
   11      0.909D-06      0.148D-06      -129.83827397    154.761428    0.00000    0.57335   -0.53317    9    diag
   12      0.209D-06      0.315D-07      -129.83827397    154.761427    0.00000    0.57335   -0.53317    9    diag
   13      0.508D-07      0.855D-08      -129.83827397    154.761427    0.00000    0.57335   -0.53317    9    diag
   14      0.118D-07      0.151D-08      -129.83827397    154.761427    0.00000    0.57335   -0.53317    9    diag
   15      0.138D-08      0.400D-09      -129.83827397    154.761427    0.00000    0.57335   -0.53317    9    diag
   16      0.340D-09      0.116D-09      -129.83827397    154.761427    0.00000    0.57335   -0.53317    9    diag
   17      0.623D-10      0.303D-10      -129.83827397    154.761427    0.00000    0.57335   -0.53317    9    diag
   18      0.175D-10      0.976D-11      -129.83827397    154.761427    0.00000    0.57335   -0.53317    9    diag
   19      0.622D-11      0.227D-11      -129.83827397    154.761427    0.00000    0.57335   -0.53317    0    orth

 Final occupancy:   7   1

 !RHF STATE 1.1 Energy               -129.838273966455
 Nuclear energy                        30.15296956
 One-electron energy                 -237.37195712
 Two-electron energy                   77.38071359
 Virial quotient                       -1.00186637
 !RHF STATE 1.1 Dipole moment           0.00000000     0.57335174    -0.53317098
 Dipole moment /Debye                   0.00000000     1.45721932    -1.35509669

 Orbital energies:

         1.1          2.1          3.1          4.1          5.1          6.1          7.1          8.1          9.1
    -20.652345   -15.711073    -1.518505    -0.998578    -0.742811    -0.661057    -0.432306     0.039517     0.193043

         1.2          2.2          3.2
     -0.588590     0.074891     0.239314

 HOMO      7.1    -0.432306 =     -11.7636eV
 LUMO      8.1     0.039517 =       1.0753eV
 LUMO-HOMO         0.471823 =      12.8389eV


 **********************************************************************************************************************************
 DATASETS  * FILE   NREC   LENGTH (MB)   RECORD NAMES
              1      19      420.83       500      610      700      900      950      970     1000      129      960     1100   
                                          VAR    BASINP    GEOM    SYMINP    ZMAT    AOBASIS   BASIS     P2S    ABASIS      S 
                                         1400     1410     1200     1210     1080     1600     1650     1300     1700   
                                           T        V       H0       H01     AOSYM     SMH    MOLCAS    ERIS     OPER   

              2       4        3.13       700     1000      520     2100   
                                         GEOM     BASIS   MCVARS     RHF  

 PROGRAMS   *        TOTAL        HF       INT
 CPU TIMES  *        11.36      5.51      5.77
 REAL TIME  *        14.51 SEC
 DISK USED  *         1.32 GB      
 **********************************************************************************************************************************


 PROGRAM * CCSD (Closed-shell coupled cluster)     Authors: C. Hampel, H.-J. Werner, 1991, M. Deegan, P.J. Knowles, 1992


 Convergence thresholds:  THRVAR = 1.00D-08  THRDEN = 1.00D-12

 CCSD(T)     terms to be evaluated (factor= 1.000)


 Number of closed-shell orbitals:   8 (   7   1 )
 Number of external orbitals:     163 ( 107  56 )

 Molecular orbitals read from record     2100.2  Type=RHF/CANONICAL (state 1.1)

 Number of N-1 electron functions:               8
 Number of N-2 electron functions:              36
 Number of singly external CSFs:               805
 Number of doubly external CSFs:            449165
 Total number of CSFs:                      449971

 Length of J-op  integral file:               0.00 MB
 Length of K-op  integral file:               1.15 MB
 Length of 3-ext integral record:             0.00 MB

 Memory could be reduced to 24.90 Mwords without degradation in triples

 Integral transformation finished. Total CPU:   1.15 sec, npass=  1  Memory used:   6.89 MW

 Reference energy:                   -129.83827397

 MP2 singlet pair energy:              -0.37987300
 MP2 triplet pair energy:              -0.18724111
 MP2 correlation energy:               -0.56711411
 MP2 total energy:                   -130.40538808

 SCS-MP2 correlation energy:           -0.57235318   (PS=  1.200000  PT=  0.333333)
 SCS-MP2 total energy:               -130.41062715

 ITER.      SQ.NORM     CORR.ENERGY   TOTAL ENERGY   ENERGY CHANGE        DEN1      VAR(S)    VAR(P)  DIIS     TIME  TIME/IT
   1      1.12068433    -0.57143504  -130.40970900    -0.00432092     0.01383315  0.35D-02  0.32D-02  1  1     2.37     1.28
   2      1.13181948    -0.57103555  -130.40930951     0.00039949    -0.01398488  0.95D-04  0.51D-03  2  2     3.63     1.32
   3      1.13721584    -0.57137095  -130.40964492    -0.00033540    -0.00238712  0.58D-04  0.71D-04  3  3     4.89     1.33
   4      1.14079259    -0.57136463  -130.40963859     0.00000633    -0.00142124  0.48D-05  0.10D-04  4  4     6.15     1.34
   5      1.14191459    -0.57139004  -130.40966401    -0.00002541    -0.00026411  0.16D-05  0.19D-05  5  5     7.40     1.34
   6      1.14234765    -0.57138338  -130.40965734     0.00000666    -0.00004214  0.13D-06  0.43D-06  6  6     8.66     1.35
   7      1.14243253    -0.57138388  -130.40965785    -0.00000050     0.00000109  0.18D-07  0.10D-06  6  1     9.91     1.35
   8      1.14246694    -0.57138202  -130.40965599     0.00000186    -0.00000494  0.42D-08  0.15D-07  6  2    11.15     1.35
   9      1.14247155    -0.57138212  -130.40965608    -0.00000009     0.00000131  0.19D-08  0.20D-08  6  3    12.41     1.36
  10      1.14247331    -0.57138243  -130.40965639    -0.00000031    -0.00000073  0.45D-09  0.29D-09  6  4    13.67     1.36
  11      1.14247232    -0.57138257  -130.40965654    -0.00000015     0.00000035  0.11D-09  0.30D-10  6  5    14.96     1.36
  12      1.14247143    -0.57138272  -130.40965668    -0.00000014     0.00000035  0.11D-10  0.72D-11  6  6    16.24     1.36
  13      1.14247089    -0.57138273  -130.40965669    -0.00000001     0.00000011  0.45D-11  0.13D-11  6  1    17.50     1.36
  14      1.14247044    -0.57138275  -130.40965672    -0.00000003     0.00000011  0.45D-12  0.44D-12  6  3    18.77     1.36
  15      1.14247026    -0.57138276  -130.40965672    -0.00000000     0.00000002  0.11D-12  0.32D-13  6  2    20.03     1.36
  16      1.14247019    -0.57138276  -130.40965672    -0.00000000     0.00000001  0.24D-13  0.67D-14  6  4    21.31     1.37
  17      1.14247017    -0.57138276  -130.40965673    -0.00000000     0.00000001  0.46D-14  0.12D-14  6  5    22.54     1.37
  18      1.14247017    -0.57138276  -130.40965673    -0.00000000     0.00000000  0.53D-15  0.31D-15  6  6    23.81     1.37
  19      1.14247017    -0.57138276  -130.40965673     0.00000000    -0.00000000  0.67D-16  0.50D-16  6  1    25.07     1.37
  20      1.14247017    -0.57138276  -130.40965673     0.00000000    -0.00000000  0.29D-17  0.11D-16  6  3    26.34     1.37
  21      1.14247017    -0.57138276  -130.40965673     0.00000000    -0.00000000  0.15D-17  0.29D-17  6  2    27.61     1.37
  22      1.14247017    -0.57138276  -130.40965673     0.00000000    -0.00000000  0.41D-18  0.10D-17  6  4    28.86     1.37
  23      1.14247017    -0.57138276  -130.40965673    -0.00000000     0.00000000  0.19D-18  0.14D-18  6  5    30.13     1.37
  24      1.14247017    -0.57138276  -130.40965673     0.00000000    -0.00000000  0.61D-20  0.18D-19  6  1    31.39     1.37
  25      1.14247017    -0.57138276  -130.40965673     0.00000000     0.00000000  0.47D-21  0.17D-20  6  6    32.73     1.37
  26      1.14247017    -0.57138276  -130.40965673    -0.00000000     0.00000000  0.17D-21  0.25D-21  6  1    34.19     1.38

 Norm of t1 vector:      0.07931429      S-energy:     0.00000000      T1 diagnostic:  0.01402092
                                                                       D1 diagnostic:  0.04559648

 Doubles amplitudes (print threshold =  0.500E-01):

         I         J         SYM. A    SYM. B    A         B      T(IJ, AB)

         8         8         2         2         1         1     -0.13803862


 Total CPU time for triples:     20.20 sec


 RESULTS
 =======

  Reference energy                   -129.838273966455

  Correlated core orbitals:             1.1       2.1
  Orbital energies:                   -20.6523  -15.7111
 
  CCSD core-core energy                -0.079238206610
  CCSD core-valence energy             -0.036024326204
  CCSD valence correlation energy      -0.456120226118
 
  CCSD singlet pair energy             -0.408825944138
  CCSD triplet pair energy             -0.162556814795
  CCSD correlation energy              -0.571382758931

  Triples (T) contribution             -0.022592617064
  Total correlation energy             -0.593975375995

  CCSD total energy                  -130.409656725386
  CCSD[T] energy                     -130.433467465920
  CCSD-T energy                      -130.431797979850
 !CCSD(T) total energy               -130.432249342450

 Timing summary (sec):

 STEP                 CPU(USER)    SYS     CPU(TOT)    WALL
 Transformation          1.17      0.18      1.35      1.35
 CCSD iterations        33.02      2.79     35.81     35.82
 Triples                20.20      0.59     20.79     20.80

 Program statistics:

 Available memory in ccsd:               994999644
 Min. memory needed in ccsd:               1368037
 Max. memory used in ccsd:                 1750502
 Max. memory used in cckext:               2014357 (26 integral passes)



 **********************************************************************************************************************************
 DATASETS  * FILE   NREC   LENGTH (MB)   RECORD NAMES
              1      20      499.74       500      610      700      900      950      970     1000      129      960     1100   
                                          VAR    BASINP    GEOM    SYMINP    ZMAT    AOBASIS   BASIS     P2S    ABASIS      S 
                                         1400     1410     1200     1210     1080     1600     1650     1300     1700     1380   
                                           T        V       H0       H01     AOSYM     SMH    MOLCAS    ERIS     OPER     JKOP   

              2       4        3.13       700     1000      520     2100   
                                         GEOM     BASIS   MCVARS     RHF  

 PROGRAMS   *        TOTAL   CCSD(T)        HF       INT
 CPU TIMES  *        65.78     54.42      5.51      5.77
 REAL TIME  *        72.52 SEC
 DISK USED  *         1.32 GB      
 **********************************************************************************************************************************

 CCSD(T)/USERDEF energy=   -130.432249342450

        CCSD(T)         HF-SCF  
   -130.43224934   -129.83827397
 **********************************************************************************************************************************
 Molpro calculation terminated
 Variable memory released
