
 Primary working directories    : /tmp/r2666/235528.maple
 Secondary working directories  : /tmp/r2666/235528.maple
 Wavefunction directory         : /ddn/home4/r2666/wfu/
 Main file repository           : /tmp/r2666/235528.maple/

 SHA1      : d5ffa45e93fdbca01ffc919aa182cfdae0147319
 NAME      : 2015.1.35
 ARCHNAME  : linux/x86_64
 FC        : /opt/intel/composer_xe_2015.1.133/bin/intel64/ifort
 BLASLIB   : -Wl,-_start-group /opt/intel/mkl/lib/intel64/libmkl_intel_ilp64.a /opt/intel/mkl/lib/intel64/libmkl_intel_thread.a /opt/intel/mkl/lib/intel64/libmkl_core.a -Wl,-_end-group
 id        : olemiss

 Nodes     nprocs
 cn039        1

 Using customized tuning parameters: mindgm=1; mindgv=20; mindgc=4; mindgr=1; noblas=0; minvec=7
 default implementation of scratch files=df  

 ***,hno CCSD(T)/TZ-F12 QFF
 memory, 995, m;
 gthresh,energy=1.d-12,zero=1.d-22,oneint=1.d-22,twoint=1.d-22;
 gthresh,optgrad=1.d-8,optstep=1.d-8;
 nocompress;
 geomtyp=xyz
 bohr
 geometry={
 3
        125       125
 N        0.0000000000       -0.1741867926       -1.1365174315
 H        0.0000000000        1.6787134164       -1.9319033608
 O        0.0000000000        0.0372411662        1.1178312013
 }
 
 basis={
 default=aug-cc-pvtz
 s,C,8236.0,1235.0,280.8, 79.27,25.59, 8.997,3.319
 s,C,0.9059,0.3643,0.1285000
 p,C,56.0,18.71,4.133,0.2827,0.3827,0.1209
 d,C,30.0,10.0,3.3,1.097,0.318
 f,C,7.0,2.3,0.7610
 s,N,11420.0,1712.0,389.3,110.0,35.57,12.54,4.644
 s,N,1.293,0.5118,0.1787
 p,N,79.89,26.63,5.948,1.742,0.555,0.1725
 d,N,45.0,15.0,5.0,1.654,0.469
 f,N,9.9,3.3,1.093
 s,O,15330.0,2299.0,522.4,147.3,47.55,16.76,6.207
 s,O,1.752,0.6882,0.2384
 p,O,103.5,34.46,7.749,2.28,0.7156,0.214
 d,O,63.0,21.0,7.0,2.314,0.645
 f,O,12.9,4.3,1.428
 s,mg,164900.0,24710.0,5628.0,1596.0,521.0;
 s,mg,188.0,73.01,29.90,12.54,4.306,1.826;
 s,mg,0.7417,0.0761,0.145,0.033,0.0129;
 p,mg,950.70,316.90,74.86,23.72,8.669,3.363;
 p,mg,1.310,0.4911,0.2364,0.08733,0.03237,0.00745;
 d,mg,1.601,0.686,0.126,0.294,0.0468;
 f,mg,1.372,0.588,0.094,0.252;
 }
   {hf,maxit=500;accu,20;}
 {ccsd(t),nocheck,maxit=250;orbital,IGNORE_ERROR;core}

 Variables initialized (889), CPU time= 0.00 sec
 Commands  initialized (702), CPU time= 0.01 sec, 572 directives.
 Default parameters read. Elapsed time= 0.05 sec

 Checking input...
 Passed
1


                                         ***  PROGRAM SYSTEM MOLPRO  ***
                                       Copyright, TTI GmbH Stuttgart, 2015
                                    Version 2015.1 linked Jul  9 2018 13:16:40


 **********************************************************************************************************************************
 LABEL *   hno CCSD(T)/TZ-F12 QFF                                                        
  64 bit serial version                                                                  DATE: 08-Feb-20          TIME: 18:00:55  
 **********************************************************************************************************************************

 SHA1:             d5ffa45e93fdbca01ffc919aa182cfdae0147319
 **********************************************************************************************************************************

 THRESHOLDS:

 ZERO    =  1.00D-22  ONEINT  =  1.00D-22  TWOINT  =  1.00D-22  PREFAC  =  1.00D-14  LOCALI  =  1.00D-09  EORDER  =  1.00D-04
 ENERGY  =  1.00D-12  ETEST   =  0.00D+00  EDENS   =  0.00D+00  THRDEDEF=  1.00D-06  GRADIENT=  1.00D-02  STEP    =  1.00D-03
 ORBITAL =  1.00D-05  CIVEC   =  1.00D-05  COEFF   =  1.00D-04  PRINTCI =  5.00D-02  PUNCHCI =  9.90D+01  OPTGRAD =  3.00D-04
 OPTENERG=  1.00D-06  OPTSTEP =  3.00D-04  THRGRAD =  1.00D-10  COMPRESS=  1.00D-11  VARMIN  =  1.00D-07  VARMAX  =  1.00D-03
 THRDOUB =  0.00D+00  THRDIV  =  1.00D-05  THRRED  =  1.00D-07  THRPSP  =  1.00D+00  THRDC   =  1.00D-10  THRCS   =  1.00D-10
 THRNRM  =  1.00D-08  THREQ   =  0.00D+00  THRDE   =  1.00D+00  THRREF  =  1.00D-05  SPARFAC =  1.00D+00  THRDLP  =  1.00D-07
 THRDIA  =  1.00D-10  THRDLS  =  1.00D-07  THRGPS  =  0.00D+00  THRKEX  =  0.00D+00  THRDIS  =  2.00D-01  THRVAR  =  1.00D-10
 THRLOC  =  1.00D-06  THRGAP  =  1.00D-06  THRLOCT = -1.00D+00  THRGAPT = -1.00D+00  THRORB  =  1.00D-06  THRMLTP =  0.00D+00
 THRCPQCI=  1.00D-10  KEXTA   =  0.00D+00  THRCOARS=  0.00D+00  SYMTOL  =  1.00D-06  GRADTOL =  1.00D-06  THROVL  =  1.00D-08
 THRORTH =  1.00D-08  GRID    =  1.00D-06  GRIDMAX =  1.00D-03  DTMAX   =  0.00D+00  THROCCDE=  1.00D-01  THROCCDE=  1.00D-01



 THRESHOLDS:

 ZERO    =  1.00D-22  ONEINT  =  1.00D-22  TWOINT  =  1.00D-22  PREFAC  =  1.00D-14  LOCALI  =  1.00D-09  EORDER  =  1.00D-04
 ENERGY  =  1.00D-12  ETEST   =  0.00D+00  EDENS   =  0.00D+00  THRDEDEF=  1.00D-06  GRADIENT=  1.00D-02  STEP    =  1.00D-03
 ORBITAL =  1.00D-05  CIVEC   =  1.00D-05  COEFF   =  1.00D-04  PRINTCI =  5.00D-02  PUNCHCI =  9.90D+01  OPTGRAD =  1.00D-08
 OPTENERG=  1.00D-06  OPTSTEP =  1.00D-08  THRGRAD =  1.00D-10  COMPRESS=  1.00D-11  VARMIN  =  1.00D-07  VARMAX  =  1.00D-03
 THRDOUB =  0.00D+00  THRDIV  =  1.00D-05  THRRED  =  1.00D-07  THRPSP  =  1.00D+00  THRDC   =  1.00D-10  THRCS   =  1.00D-10
 THRNRM  =  1.00D-08  THREQ   =  0.00D+00  THRDE   =  1.00D+00  THRREF  =  1.00D-05  SPARFAC =  1.00D+00  THRDLP  =  1.00D-07
 THRDIA  =  1.00D-10  THRDLS  =  1.00D-07  THRGPS  =  0.00D+00  THRKEX  =  0.00D+00  THRDIS  =  2.00D-01  THRVAR  =  1.00D-10
 THRLOC  =  1.00D-06  THRGAP  =  1.00D-06  THRLOCT = -1.00D+00  THRGAPT = -1.00D+00  THRORB  =  1.00D-06  THRMLTP =  0.00D+00
 THRCPQCI=  1.00D-10  KEXTA   =  0.00D+00  THRCOARS=  0.00D+00  SYMTOL  =  1.00D-06  GRADTOL =  1.00D-06  THROVL  =  1.00D-08
 THRORTH =  1.00D-08  GRID    =  1.00D-06  GRIDMAX =  1.00D-03  DTMAX   =  0.00D+00  THROCCDE=  1.00D-01  THROCCDE=  1.00D-01



 Input parameters for SORTINT:

 COMPRESS =    0.000000
 C_FINAL  =    1.000000
 DEBUG    =   -1.000000
 C_SORT1  =    0.000000
 C_SEWARD =    0.000000
 THRESH   =    0.000000
 IO       =  molpro                                                          
 SPRI     =    0.000000
 SETTING GEOMTYP        =    XYZ
 ZUNIT=BOHR
 

 Variable memory set to  995000000 words,  buffer space   230000 words

 SETTING BASIS          =    USERDEF


 Recomputing integrals since basis changed


 Using spherical harmonics

 Library entry H      S aug-cc-pVTZ          selected for orbital group  2
 Library entry H      P aug-cc-pVTZ          selected for orbital group  2
 Library entry H      D aug-cc-pVTZ          selected for orbital group  2


 PROGRAM * SEWARD (Integral evaluation for generally contracted gaussian basis sets)     Author: Roland Lindh, 1990

 Geometry written to block  1 of record 700


 Point group  Cs  



 ATOMIC COORDINATES

 NR  ATOM    CHARGE       X              Y              Z

   1  N       7.00    0.000000000   -0.174186793   -1.136517431
   2  H       1.00    0.000000000    1.678713416   -1.931903361
   3  O       8.00    0.000000000    0.037241166    1.117831201

 Bond lengths in Bohr (Angstrom)

 1-2  2.016402232  1-3  2.264241493
     ( 1.067034109)     ( 1.198184998)

 Bond angles

  2-1-3  107.87426280

 NUCLEAR CHARGE:                   16
 NUMBER OF PRIMITIVE AOS:         203
 NUMBER OF SYMMETRY AOS:          173
 NUMBER OF CONTRACTIONS:          171   ( 114A'  +  57A"  )
 NUMBER OF CORE ORBITALS:           2   (   2A'  +   0A"  )
 NUMBER OF VALENCE ORBITALS:        9   (   7A'  +   2A"  )


 NUCLEAR REPULSION ENERGY   30.51372611


 Eigenvalues of metric

         1 0.106E-02 0.242E-02 0.335E-02 0.641E-02 0.104E-01 0.138E-01 0.144E-01 0.235E-01
         2 0.381E-01 0.518E-01 0.705E-01 0.940E-01 0.131E+00 0.134E+00 0.141E+00 0.142E+00


 Contracted 2-electron integrals neglected if value below      1.0D-22

       46222626. INTEGRALS WRITTEN OUT IN   11288 BLOCKS ON RECORD 1290 OF FILE 1


 NUMBER OF SORTED TWO-ELECTRON INTEGRALS:   55360566.     BUFFER LENGTH:  32768
 NUMBER OF SEGMENTS:   4  SEGMENT LENGTH:   15997996      RECORD LENGTH: 524288

 Memory used in sort:      16.56 MW

 SORT1 READ    46222626. AND WROTE    46660847. INTEGRALS IN    135 RECORDS. CPU TIME:     1.69 SEC, REAL TIME:     2.05 SEC
 SORT2 READ    46660847. AND WROTE    55360566. INTEGRALS IN      4 RECORDS. CPU TIME:     0.85 SEC, REAL TIME:     1.23 SEC

 FILE SIZES:   FILE 1:   760.5 MBYTE,  FILE 4:   566.3 MBYTE,   TOTAL:   1326.8 MBYTE

 OPERATOR DM      FOR CENTER  0  COORDINATES:    0.000000    0.000000    0.000000


 **********************************************************************************************************************************
 DATASETS  * FILE   NREC   LENGTH (MB)   RECORD NAMES
              1      19      421.77       500      610      700      900      950      970     1000      129      960     1100   
                                          VAR    BASINP    GEOM    SYMINP    ZMAT    AOBASIS   BASIS     P2S    ABASIS      S 
                                         1400     1410     1200     1210     1080     1600     1650     1300     1700   
                                           T        V       H0       H01     AOSYM     SMH    MOLCAS    ERIS     OPER   

 PROGRAMS   *        TOTAL       INT
 CPU TIMES  *         6.81      6.73
 REAL TIME  *         8.75 SEC
 DISK USED  *         1.33 GB      
 **********************************************************************************************************************************


 PROGRAM * RHF-SCF (CLOSED SHELL)       Authors: W. Meyer, H.-J. Werner


 NUMBER OF ELECTRONS:       8+    8-
 CONVERGENCE THRESHOLDS:    1.00E-10 (Density)    1.00E-13 (Energy)
 MAX. NUMBER OF ITERATIONS:      500
 INTERPOLATION TYPE:            DIIS
 INTERPOLATION STEPS:              2 (START)      1 (STEP)
 LEVEL SHIFTS:                  0.00 (CLOSED)  0.00 (OPEN) 



 Orbital guess generated from atomic densities. Full valence occupancy:    9   2

 Molecular orbital dump at record        2100.2

 Initial occupancy:   7   1

 ITERATION    DDIFF          GRAD             ENERGY        2-EL.EN.            DIPOLE MOMENTS         DIIS   ORB.
    1      0.000D+00      0.000D+00      -129.79056280    154.306939    0.00000    0.55171   -0.98232    0    start
    2      0.000D+00      0.875D-02      -129.81774223    155.517309    0.00000    0.58922   -0.19301    1    diag
    3      0.357D-02      0.655D-02      -129.83959323    155.612739    0.00000    0.53450   -0.56578    2    diag
    4      0.139D-02      0.102D-02      -129.84035842    155.343448    0.00000    0.54290   -0.50523    3    diag
    5      0.325D-03      0.335D-03      -129.84047812    155.431790    0.00000    0.54912   -0.50790    4    diag
    6      0.152D-03      0.990D-04      -129.84049778    155.415628    0.00000    0.54973   -0.50391    5    diag
    7      0.607D-04      0.490D-04      -129.84050339    155.418355    0.00000    0.55114   -0.50155    6    diag
    8      0.408D-04      0.163D-04      -129.84050395    155.417560    0.00000    0.55120   -0.50070    7    diag
    9      0.135D-04      0.304D-05      -129.84050397    155.417450    0.00000    0.55116   -0.50053    8    diag
   10      0.268D-05      0.704D-06      -129.84050397    155.417435    0.00000    0.55112   -0.50050    9    orth
   11      0.823D-06      0.143D-06      -129.84050397    155.417430    0.00000    0.55111   -0.50050    9    diag
   12      0.201D-06      0.294D-07      -129.84050397    155.417430    0.00000    0.55111   -0.50050    9    diag
   13      0.501D-07      0.773D-08      -129.84050397    155.417429    0.00000    0.55111   -0.50050    9    diag
   14      0.116D-07      0.141D-08      -129.84050397    155.417429    0.00000    0.55111   -0.50050    9    diag
   15      0.161D-08      0.397D-09      -129.84050397    155.417429    0.00000    0.55111   -0.50050    9    diag
   16      0.354D-09      0.124D-09      -129.84050397    155.417429    0.00000    0.55111   -0.50050    9    diag
   17      0.983D-10      0.373D-10      -129.84050397    155.417429    0.00000    0.55111   -0.50050    0    orth

 Final occupancy:   7   1

 !RHF STATE 1.1 Energy               -129.840503971735
 Nuclear energy                        30.51372611
 One-electron energy                 -238.06294467
 Two-electron energy                   77.70871459
 Virial quotient                       -1.00149879
 !RHF STATE 1.1 Dipole moment           0.00000000     0.55110789    -0.50049639
 Dipole moment /Debye                   0.00000000     1.40068480    -1.27205161

 Orbital energies:

         1.1          2.1          3.1          4.1          5.1          6.1          7.1          8.1          9.1
    -20.650652   -15.711080    -1.536211    -0.986805    -0.746643    -0.667061    -0.425072     0.039813     0.191956

         1.2          2.2          3.2
     -0.599234     0.082602     0.239705

 HOMO      7.1    -0.425072 =     -11.5668eV
 LUMO      8.1     0.039813 =       1.0834eV
 LUMO-HOMO         0.464885 =      12.6502eV


 **********************************************************************************************************************************
 DATASETS  * FILE   NREC   LENGTH (MB)   RECORD NAMES
              1      19      421.77       500      610      700      900      950      970     1000      129      960     1100   
                                          VAR    BASINP    GEOM    SYMINP    ZMAT    AOBASIS   BASIS     P2S    ABASIS      S 
                                         1400     1410     1200     1210     1080     1600     1650     1300     1700   
                                           T        V       H0       H01     AOSYM     SMH    MOLCAS    ERIS     OPER   

              2       4        3.13       700     1000      520     2100   
                                         GEOM     BASIS   MCVARS     RHF  

 PROGRAMS   *        TOTAL        HF       INT
 CPU TIMES  *        13.15      6.34      6.73
 REAL TIME  *        16.77 SEC
 DISK USED  *         1.33 GB      
 **********************************************************************************************************************************


 PROGRAM * CCSD (Closed-shell coupled cluster)     Authors: C. Hampel, H.-J. Werner, 1991, M. Deegan, P.J. Knowles, 1992


 Convergence thresholds:  THRVAR = 1.00D-08  THRDEN = 1.00D-12

 CCSD(T)     terms to be evaluated (factor= 1.000)


 Number of closed-shell orbitals:   8 (   7   1 )
 Number of external orbitals:     163 ( 107  56 )

 Molecular orbitals read from record     2100.2  Type=RHF/CANONICAL (state 1.1)

 Number of N-1 electron functions:               8
 Number of N-2 electron functions:              36
 Number of singly external CSFs:               805
 Number of doubly external CSFs:            449165
 Total number of CSFs:                      449971

 Length of J-op  integral file:               0.00 MB
 Length of K-op  integral file:               1.15 MB
 Length of 3-ext integral record:             0.00 MB

 Memory could be reduced to 24.90 Mwords without degradation in triples

 Integral transformation finished. Total CPU:   1.37 sec, npass=  1  Memory used:   6.89 MW

 Reference energy:                   -129.84050397

 MP2 singlet pair energy:              -0.37830664
 MP2 triplet pair energy:              -0.18620502
 MP2 correlation energy:               -0.56451166
 MP2 total energy:                   -130.40501563

 SCS-MP2 correlation energy:           -0.56982887   (PS=  1.200000  PT=  0.333333)
 SCS-MP2 total energy:               -130.41033284

 ITER.      SQ.NORM     CORR.ENERGY   TOTAL ENERGY   ENERGY CHANGE        DEN1      VAR(S)    VAR(P)  DIIS     TIME  TIME/IT
   1      1.11923981    -0.56956275  -130.41006672    -0.00505109     0.01235924  0.33D-02  0.30D-02  1  1     2.83     1.57
   2      1.12995840    -0.56934121  -130.40984518     0.00022154    -0.01352980  0.87D-04  0.49D-03  2  2     4.40     1.63
   3      1.13512701    -0.56966439  -130.41016836    -0.00032318    -0.00234486  0.54D-04  0.66D-04  3  3     5.99     1.65
   4      1.13847313    -0.56965437  -130.41015834     0.00001002    -0.00136482  0.44D-05  0.94D-05  4  4     7.56     1.66
   5      1.13948444    -0.56967830  -130.41018227    -0.00002394    -0.00023835  0.16D-05  0.18D-05  5  5     9.12     1.66
   6      1.13988107    -0.56967277  -130.41017674     0.00000553    -0.00003804  0.15D-06  0.40D-06  6  6    10.72     1.67
   7      1.13996642    -0.56967280  -130.41017678    -0.00000004    -0.00000006  0.24D-07  0.88D-07  6  1    12.27     1.67
   8      1.14000106    -0.56967116  -130.41017513     0.00000165    -0.00000471  0.41D-08  0.13D-07  6  2    13.86     1.68
   9      1.14000629    -0.56967120  -130.41017517    -0.00000004     0.00000094  0.17D-08  0.16D-08  6  3    15.40     1.68
  10      1.14000799    -0.56967150  -130.41017547    -0.00000030    -0.00000059  0.37D-09  0.23D-09  6  4    16.99     1.68
  11      1.14000706    -0.56967163  -130.41017560    -0.00000013     0.00000034  0.91D-10  0.23D-10  6  5    18.55     1.68
  12      1.14000617    -0.56967176  -130.41017573    -0.00000013     0.00000034  0.97D-11  0.60D-11  6  6    20.12     1.68
  13      1.14000566    -0.56967177  -130.41017574    -0.00000001     0.00000011  0.42D-11  0.10D-11  6  1    21.69     1.68
  14      1.14000524    -0.56967179  -130.41017576    -0.00000003     0.00000010  0.44D-12  0.36D-12  6  3    23.24     1.68
  15      1.14000508    -0.56967179  -130.41017576    -0.00000000     0.00000002  0.11D-12  0.24D-13  6  2    24.78     1.68
  16      1.14000503    -0.56967179  -130.41017577    -0.00000000     0.00000001  0.25D-13  0.55D-14  6  4    26.35     1.68
  17      1.14000501    -0.56967179  -130.41017577    -0.00000000     0.00000001  0.40D-14  0.10D-14  6  5    27.96     1.68
  18      1.14000501    -0.56967179  -130.41017577    -0.00000000     0.00000000  0.38D-15  0.27D-15  6  6    29.52     1.69
  19      1.14000501    -0.56967179  -130.41017577     0.00000000    -0.00000000  0.45D-16  0.32D-16  6  1    31.06     1.68
  20      1.14000501    -0.56967179  -130.41017577     0.00000000    -0.00000000  0.20D-17  0.63D-17  6  3    32.59     1.69
  21      1.14000501    -0.56967179  -130.41017577     0.00000000    -0.00000000  0.94D-18  0.15D-17  6  2    34.18     1.69
  22      1.14000502    -0.56967179  -130.41017577     0.00000000    -0.00000000  0.13D-18  0.53D-18  6  4    35.71     1.69
  23      1.14000502    -0.56967179  -130.41017577    -0.00000000     0.00000000  0.85D-19  0.83D-19  6  5    37.27     1.69
  24      1.14000502    -0.56967179  -130.41017577     0.00000000    -0.00000000  0.48D-20  0.11D-19  6  1    38.86     1.69
  25      1.14000502    -0.56967179  -130.41017577     0.00000000     0.00000000  0.23D-21  0.12D-20  6  6    40.39     1.69
  26      1.14000502    -0.56967179  -130.41017577    -0.00000000     0.00000000  0.11D-21  0.26D-21  6  3    41.89     1.69

 Norm of t1 vector:      0.07681612      S-energy:     0.00000000      T1 diagnostic:  0.01357930
                                                                       D1 diagnostic:  0.04283144

 Doubles amplitudes (print threshold =  0.500E-01):

         I         J         SYM. A    SYM. B    A         B      T(IJ, AB)

         8         8         2         2         1         1     -0.13158797


 Total CPU time for triples:     21.70 sec


 RESULTS
 =======

  Reference energy                   -129.840503971734

  Correlated core orbitals:             1.1       2.1
  Orbital energies:                   -20.6507  -15.7111
 
  CCSD core-core energy                -0.079228371284
  CCSD core-valence energy             -0.036108568358
  CCSD valence correlation energy      -0.454334854747
 
  CCSD singlet pair energy             -0.407266877983
  CCSD triplet pair energy             -0.162404916413
  CCSD correlation energy              -0.569671794389

  Triples (T) contribution             -0.022082993261
  Total correlation energy             -0.591754787650

  CCSD total energy                  -130.410175766123
  CCSD[T] energy                     -130.433401610792
  CCSD-T energy                      -130.431824341202
 !CCSD(T) total energy               -130.432258759384

 Timing summary (sec):

 STEP                 CPU(USER)    SYS     CPU(TOT)    WALL
 Transformation          1.41      0.20      1.61      1.61
 CCSD iterations        40.49      3.40     43.89     43.89
 Triples                21.70      0.71     22.41     22.42

 Program statistics:

 Available memory in ccsd:               994999644
 Min. memory needed in ccsd:               1368037
 Max. memory used in ccsd:                 1750502
 Max. memory used in cckext:               2014357 (26 integral passes)



 **********************************************************************************************************************************
 DATASETS  * FILE   NREC   LENGTH (MB)   RECORD NAMES
              1      20      500.68       500      610      700      900      950      970     1000      129      960     1100   
                                          VAR    BASINP    GEOM    SYMINP    ZMAT    AOBASIS   BASIS     P2S    ABASIS      S 
                                         1400     1410     1200     1210     1080     1600     1650     1300     1700     1380   
                                           T        V       H0       H01     AOSYM     SMH    MOLCAS    ERIS     OPER     JKOP   

              2       4        3.13       700     1000      520     2100   
                                         GEOM     BASIS   MCVARS     RHF  

 PROGRAMS   *        TOTAL   CCSD(T)        HF       INT
 CPU TIMES  *        76.77     63.62      6.34      6.73
 REAL TIME  *        84.73 SEC
 DISK USED  *         1.33 GB      
 **********************************************************************************************************************************

 CCSD(T)/USERDEF energy=   -130.432258759384

        CCSD(T)         HF-SCF  
   -130.43225876   -129.84050397
 **********************************************************************************************************************************
 Molpro calculation terminated
 Variable memory released
