
 Primary working directories    : /tmp/r2666/235320.maple
 Secondary working directories  : /tmp/r2666/235320.maple
 Wavefunction directory         : /ddn/home4/r2666/wfu/
 Main file repository           : /tmp/r2666/235320.maple/

 SHA1      : d5ffa45e93fdbca01ffc919aa182cfdae0147319
 NAME      : 2015.1.35
 ARCHNAME  : linux/x86_64
 FC        : /opt/intel/composer_xe_2015.1.133/bin/intel64/ifort
 BLASLIB   : -Wl,-_start-group /opt/intel/mkl/lib/intel64/libmkl_intel_ilp64.a /opt/intel/mkl/lib/intel64/libmkl_intel_thread.a /opt/intel/mkl/lib/intel64/libmkl_core.a -Wl,-_end-group
 id        : olemiss

 Nodes     nprocs
 cn076        1

 Using customized tuning parameters: mindgm=1; mindgv=20; mindgc=4; mindgr=1; noblas=0; minvec=7
 default implementation of scratch files=df  

 ***,hno CCSD(T)/TZ-F12 QFF
 memory, 995, m;
 gthresh,energy=1.d-12,zero=1.d-22,oneint=1.d-22,twoint=1.d-22;
 gthresh,optgrad=1.d-8,optstep=1.d-8;
 nocompress;
 geomtyp=xyz
 bohr
 geometry={
 3
         46        46
 N        0.0000000000       -0.1660083273       -1.1381157618
 H        0.0000000000        1.6637621183       -1.9154883467
 O        0.0000000000        0.0440139990        1.1030145174
 }
 
 basis={
 default=aug-cc-pvtz
 s,C,8236.0,1235.0,280.8, 79.27,25.59, 8.997,3.319
 s,C,0.9059,0.3643,0.1285000
 p,C,56.0,18.71,4.133,0.2827,0.3827,0.1209
 d,C,30.0,10.0,3.3,1.097,0.318
 f,C,7.0,2.3,0.7610
 s,N,11420.0,1712.0,389.3,110.0,35.57,12.54,4.644
 s,N,1.293,0.5118,0.1787
 p,N,79.89,26.63,5.948,1.742,0.555,0.1725
 d,N,45.0,15.0,5.0,1.654,0.469
 f,N,9.9,3.3,1.093
 s,O,15330.0,2299.0,522.4,147.3,47.55,16.76,6.207
 s,O,1.752,0.6882,0.2384
 p,O,103.5,34.46,7.749,2.28,0.7156,0.214
 d,O,63.0,21.0,7.0,2.314,0.645
 f,O,12.9,4.3,1.428
 s,mg,164900.0,24710.0,5628.0,1596.0,521.0;
 s,mg,188.0,73.01,29.90,12.54,4.306,1.826;
 s,mg,0.7417,0.0761,0.145,0.033,0.0129;
 p,mg,950.70,316.90,74.86,23.72,8.669,3.363;
 p,mg,1.310,0.4911,0.2364,0.08733,0.03237,0.00745;
 d,mg,1.601,0.686,0.126,0.294,0.0468;
 f,mg,1.372,0.588,0.094,0.252;
 }
   {hf,maxit=500;accu,20;}
 {ccsd(t),nocheck,maxit=250;orbital,IGNORE_ERROR;}

 Variables initialized (889), CPU time= 0.00 sec
 Commands  initialized (702), CPU time= 0.01 sec, 572 directives.
 Default parameters read. Elapsed time= 0.06 sec

 Checking input...
 Passed
1


                                         ***  PROGRAM SYSTEM MOLPRO  ***
                                       Copyright, TTI GmbH Stuttgart, 2015
                                    Version 2015.1 linked Jul  9 2018 13:16:40


 **********************************************************************************************************************************
 LABEL *   hno CCSD(T)/TZ-F12 QFF                                                        
  64 bit serial version                                                                  DATE: 08-Feb-20          TIME: 17:57:31  
 **********************************************************************************************************************************

 SHA1:             d5ffa45e93fdbca01ffc919aa182cfdae0147319
 **********************************************************************************************************************************

 THRESHOLDS:

 ZERO    =  1.00D-22  ONEINT  =  1.00D-22  TWOINT  =  1.00D-22  PREFAC  =  1.00D-14  LOCALI  =  1.00D-09  EORDER  =  1.00D-04
 ENERGY  =  1.00D-12  ETEST   =  0.00D+00  EDENS   =  0.00D+00  THRDEDEF=  1.00D-06  GRADIENT=  1.00D-02  STEP    =  1.00D-03
 ORBITAL =  1.00D-05  CIVEC   =  1.00D-05  COEFF   =  1.00D-04  PRINTCI =  5.00D-02  PUNCHCI =  9.90D+01  OPTGRAD =  3.00D-04
 OPTENERG=  1.00D-06  OPTSTEP =  3.00D-04  THRGRAD =  1.00D-10  COMPRESS=  1.00D-11  VARMIN  =  1.00D-07  VARMAX  =  1.00D-03
 THRDOUB =  0.00D+00  THRDIV  =  1.00D-05  THRRED  =  1.00D-07  THRPSP  =  1.00D+00  THRDC   =  1.00D-10  THRCS   =  1.00D-10
 THRNRM  =  1.00D-08  THREQ   =  0.00D+00  THRDE   =  1.00D+00  THRREF  =  1.00D-05  SPARFAC =  1.00D+00  THRDLP  =  1.00D-07
 THRDIA  =  1.00D-10  THRDLS  =  1.00D-07  THRGPS  =  0.00D+00  THRKEX  =  0.00D+00  THRDIS  =  2.00D-01  THRVAR  =  1.00D-10
 THRLOC  =  1.00D-06  THRGAP  =  1.00D-06  THRLOCT = -1.00D+00  THRGAPT = -1.00D+00  THRORB  =  1.00D-06  THRMLTP =  0.00D+00
 THRCPQCI=  1.00D-10  KEXTA   =  0.00D+00  THRCOARS=  0.00D+00  SYMTOL  =  1.00D-06  GRADTOL =  1.00D-06  THROVL  =  1.00D-08
 THRORTH =  1.00D-08  GRID    =  1.00D-06  GRIDMAX =  1.00D-03  DTMAX   =  0.00D+00  THROCCDE=  1.00D-01  THROCCDE=  1.00D-01



 THRESHOLDS:

 ZERO    =  1.00D-22  ONEINT  =  1.00D-22  TWOINT  =  1.00D-22  PREFAC  =  1.00D-14  LOCALI  =  1.00D-09  EORDER  =  1.00D-04
 ENERGY  =  1.00D-12  ETEST   =  0.00D+00  EDENS   =  0.00D+00  THRDEDEF=  1.00D-06  GRADIENT=  1.00D-02  STEP    =  1.00D-03
 ORBITAL =  1.00D-05  CIVEC   =  1.00D-05  COEFF   =  1.00D-04  PRINTCI =  5.00D-02  PUNCHCI =  9.90D+01  OPTGRAD =  1.00D-08
 OPTENERG=  1.00D-06  OPTSTEP =  1.00D-08  THRGRAD =  1.00D-10  COMPRESS=  1.00D-11  VARMIN  =  1.00D-07  VARMAX  =  1.00D-03
 THRDOUB =  0.00D+00  THRDIV  =  1.00D-05  THRRED  =  1.00D-07  THRPSP  =  1.00D+00  THRDC   =  1.00D-10  THRCS   =  1.00D-10
 THRNRM  =  1.00D-08  THREQ   =  0.00D+00  THRDE   =  1.00D+00  THRREF  =  1.00D-05  SPARFAC =  1.00D+00  THRDLP  =  1.00D-07
 THRDIA  =  1.00D-10  THRDLS  =  1.00D-07  THRGPS  =  0.00D+00  THRKEX  =  0.00D+00  THRDIS  =  2.00D-01  THRVAR  =  1.00D-10
 THRLOC  =  1.00D-06  THRGAP  =  1.00D-06  THRLOCT = -1.00D+00  THRGAPT = -1.00D+00  THRORB  =  1.00D-06  THRMLTP =  0.00D+00
 THRCPQCI=  1.00D-10  KEXTA   =  0.00D+00  THRCOARS=  0.00D+00  SYMTOL  =  1.00D-06  GRADTOL =  1.00D-06  THROVL  =  1.00D-08
 THRORTH =  1.00D-08  GRID    =  1.00D-06  GRIDMAX =  1.00D-03  DTMAX   =  0.00D+00  THROCCDE=  1.00D-01  THROCCDE=  1.00D-01



 Input parameters for SORTINT:

 COMPRESS =    0.000000
 C_FINAL  =    1.000000
 DEBUG    =   -1.000000
 C_SORT1  =    0.000000
 C_SEWARD =    0.000000
 THRESH   =    0.000000
 IO       =  molpro                                                          
 SPRI     =    0.000000
 SETTING GEOMTYP        =    XYZ
 ZUNIT=BOHR
 

 Variable memory set to  995000000 words,  buffer space   230000 words

 SETTING BASIS          =    USERDEF


 Recomputing integrals since basis changed


 Using spherical harmonics

 Library entry H      S aug-cc-pVTZ          selected for orbital group  2
 Library entry H      P aug-cc-pVTZ          selected for orbital group  2
 Library entry H      D aug-cc-pVTZ          selected for orbital group  2


 PROGRAM * SEWARD (Integral evaluation for generally contracted gaussian basis sets)     Author: Roland Lindh, 1990

 Geometry written to block  1 of record 700


 Point group  Cs  



 ATOMIC COORDINATES

 NR  ATOM    CHARGE       X              Y              Z

   1  N       7.00    0.000000000   -0.166008327   -1.138115762
   2  H       1.00    0.000000000    1.663762118   -1.915488347
   3  O       8.00    0.000000000    0.044013999    1.103014517

 Bond lengths in Bohr (Angstrom)

 1-2  1.988056342  1-3  2.250949645
     ( 1.052034110)     ( 1.191151255)

 Bond angles

  2-1-3  107.66436374

 NUCLEAR CHARGE:                   16
 NUMBER OF PRIMITIVE AOS:         203
 NUMBER OF SYMMETRY AOS:          173
 NUMBER OF CONTRACTIONS:          171   ( 114A'  +  57A"  )
 NUMBER OF CORE ORBITALS:           2   (   2A'  +   0A"  )
 NUMBER OF VALENCE ORBITALS:        9   (   7A'  +   2A"  )


 NUCLEAR REPULSION ENERGY   30.73475217


 Eigenvalues of metric

         1 0.101E-02 0.235E-02 0.325E-02 0.627E-02 0.985E-02 0.136E-01 0.143E-01 0.227E-01
         2 0.363E-01 0.506E-01 0.692E-01 0.938E-01 0.130E+00 0.134E+00 0.140E+00 0.142E+00


 Contracted 2-electron integrals neglected if value below      1.0D-22

       46298269. INTEGRALS WRITTEN OUT IN   11307 BLOCKS ON RECORD 1290 OF FILE 1


 NUMBER OF SORTED TWO-ELECTRON INTEGRALS:   55360566.     BUFFER LENGTH:  32768
 NUMBER OF SEGMENTS:   4  SEGMENT LENGTH:   15997996      RECORD LENGTH: 524288

 Memory used in sort:      16.56 MW

 SORT1 READ    46298269. AND WROTE    46737235. INTEGRALS IN    136 RECORDS. CPU TIME:     0.73 SEC, REAL TIME:     1.02 SEC
 SORT2 READ    46737235. AND WROTE    55360566. INTEGRALS IN      4 RECORDS. CPU TIME:     0.67 SEC, REAL TIME:     0.86 SEC

 FILE SIZES:   FILE 1:   761.7 MBYTE,  FILE 4:   570.5 MBYTE,   TOTAL:   1332.2 MBYTE

 OPERATOR DM      FOR CENTER  0  COORDINATES:    0.000000    0.000000    0.000000


 **********************************************************************************************************************************
 DATASETS  * FILE   NREC   LENGTH (MB)   RECORD NAMES
              1      19      422.23       500      610      700      900      950      970     1000      129      960     1100   
                                          VAR    BASINP    GEOM    SYMINP    ZMAT    AOBASIS   BASIS     P2S    ABASIS      S 
                                         1400     1410     1200     1210     1080     1600     1650     1300     1700   
                                           T        V       H0       H01     AOSYM     SMH    MOLCAS    ERIS     OPER   

 PROGRAMS   *        TOTAL       INT
 CPU TIMES  *         4.11      4.01
 REAL TIME  *         5.57 SEC
 DISK USED  *         1.33 GB      
 **********************************************************************************************************************************


 PROGRAM * RHF-SCF (CLOSED SHELL)       Authors: W. Meyer, H.-J. Werner


 NUMBER OF ELECTRONS:       8+    8-
 CONVERGENCE THRESHOLDS:    1.00E-10 (Density)    1.00E-13 (Energy)
 MAX. NUMBER OF ITERATIONS:      500
 INTERPOLATION TYPE:            DIIS
 INTERPOLATION STEPS:              2 (START)      1 (STEP)
 LEVEL SHIFTS:                  0.00 (CLOSED)  0.00 (OPEN) 



 Orbital guess generated from atomic densities. Full valence occupancy:    9   2

 Molecular orbital dump at record        2100.2

 Initial occupancy:   7   1

 ITERATION    DDIFF          GRAD             ENERGY        2-EL.EN.            DIPOLE MOMENTS         DIIS   ORB.
    1      0.000D+00      0.000D+00      -129.79348917    154.717215    0.00000    0.55715   -0.95868    0    start
    2      0.000D+00      0.862D-02      -129.82082697    155.919097    0.00000    0.58666   -0.20118    1    diag
    3      0.356D-02      0.631D-02      -129.84100973    156.004845    0.00000    0.53598   -0.55657    2    diag
    4      0.135D-02      0.101D-02      -129.84175555    155.743065    0.00000    0.54473   -0.49737    3    diag
    5      0.324D-03      0.329D-03      -129.84186980    155.829510    0.00000    0.55070   -0.50007    4    diag
    6      0.151D-03      0.964D-04      -129.84188833    155.813644    0.00000    0.55134   -0.49625    5    diag
    7      0.600D-04      0.475D-04      -129.84189354    155.816356    0.00000    0.55272   -0.49398    6    diag
    8      0.402D-04      0.155D-04      -129.84189403    155.815600    0.00000    0.55278   -0.49318    7    diag
    9      0.128D-04      0.283D-05      -129.84189405    155.815502    0.00000    0.55273   -0.49302    8    diag
   10      0.250D-05      0.666D-06      -129.84189405    155.815489    0.00000    0.55270   -0.49300    9    orth
   11      0.802D-06      0.136D-06      -129.84189405    155.815484    0.00000    0.55269   -0.49299    9    diag
   12      0.197D-06      0.277D-07      -129.84189405    155.815484    0.00000    0.55269   -0.49299    9    diag
   13      0.481D-07      0.716D-08      -129.84189405    155.815483    0.00000    0.55269   -0.49299    9    diag
   14      0.108D-07      0.132D-08      -129.84189405    155.815483    0.00000    0.55269   -0.49299    9    diag
   15      0.156D-08      0.378D-09      -129.84189405    155.815483    0.00000    0.55269   -0.49299    9    diag
   16      0.343D-09      0.120D-09      -129.84189405    155.815483    0.00000    0.55269   -0.49299    9    diag
   17      0.985D-10      0.355D-10      -129.84189405    155.815483    0.00000    0.55269   -0.49299    9    diag
   18      0.323D-10      0.110D-10      -129.84189405    155.815483    0.00000    0.55269   -0.49299    9    diag
   19      0.107D-10      0.271D-11      -129.84189405    155.815483    0.00000    0.55269   -0.49299    9    fixocc
   20      0.245D-11      0.628D-12      -129.84189405    155.815483    0.00000    0.55269   -0.49299    9    orth
   21      0.272D-12      0.375D-12      -129.84189405    155.815483    0.00000    0.55269   -0.49299    0    orth

 Final occupancy:   7   1

 !RHF STATE 1.1 Energy               -129.841894048519
 Nuclear energy                        30.73475217
 One-electron energy                 -238.48438788
 Two-electron energy                   77.90774166
 Virial quotient                       -1.00109321
 !RHF STATE 1.1 Dipole moment           0.00000000     0.55268808    -0.49299202
 Dipole moment /Debye                   0.00000000     1.40470098    -1.25297867

 Orbital energies:

         1.1          2.1          3.1          4.1          5.1          6.1          7.1          8.1          9.1
    -20.649584   -15.707885    -1.542371    -0.988715    -0.750507    -0.669033    -0.423906     0.040029     0.193706

         1.2          2.2          3.2
     -0.602452     0.085145     0.240057

 HOMO      7.1    -0.423906 =     -11.5351eV
 LUMO      8.1     0.040029 =       1.0892eV
 LUMO-HOMO         0.463935 =      12.6243eV


 **********************************************************************************************************************************
 DATASETS  * FILE   NREC   LENGTH (MB)   RECORD NAMES
              1      19      422.23       500      610      700      900      950      970     1000      129      960     1100   
                                          VAR    BASINP    GEOM    SYMINP    ZMAT    AOBASIS   BASIS     P2S    ABASIS      S 
                                         1400     1410     1200     1210     1080     1600     1650     1300     1700   
                                           T        V       H0       H01     AOSYM     SMH    MOLCAS    ERIS     OPER   

              2       4        3.13       700     1000      520     2100   
                                         GEOM     BASIS   MCVARS     RHF  

 PROGRAMS   *        TOTAL        HF       INT
 CPU TIMES  *         9.15      5.04      4.01
 REAL TIME  *        11.79 SEC
 DISK USED  *         1.33 GB      
 **********************************************************************************************************************************


 PROGRAM * CCSD (Closed-shell coupled cluster)     Authors: C. Hampel, H.-J. Werner, 1991, M. Deegan, P.J. Knowles, 1992


 Convergence thresholds:  THRVAR = 1.00D-08  THRDEN = 1.00D-12

 CCSD(T)     terms to be evaluated (factor= 1.000)


 Number of core orbitals:           2 (   2   0 )
 Number of closed-shell orbitals:   6 (   5   1 )
 Number of external orbitals:     163 ( 107  56 )

 Molecular orbitals read from record     2100.2  Type=RHF/CANONICAL (state 1.1)

 Number of N-1 electron functions:               6
 Number of N-2 electron functions:              21
 Number of singly external CSFs:               591
 Number of doubly external CSFs:            250014
 Total number of CSFs:                      250606

 Length of J-op  integral file:               0.00 MB
 Length of K-op  integral file:               1.15 MB
 Length of 3-ext integral record:             0.00 MB

 Memory could be reduced to 19.93 Mwords without degradation in triples

 Integral transformation finished. Total CPU:   0.67 sec, npass=  1  Memory used:   5.10 MW

 Reference energy:                   -129.84189405

 MP2 singlet pair energy:              -0.28519792
 MP2 triplet pair energy:              -0.16607884
 MP2 correlation energy:               -0.45127676
 MP2 total energy:                   -130.29317081

 SCS-MP2 correlation energy:           -0.44557545   (PS=  1.200000  PT=  0.333333)
 SCS-MP2 total energy:               -130.28746949

 ITER.      SQ.NORM     CORR.ENERGY   TOTAL ENERGY   ENERGY CHANGE        DEN1      VAR(S)    VAR(P)  DIIS     TIME  TIME/IT
   1      1.11700488    -0.45402683  -130.29592088    -0.00275008     0.01329209  0.30D-02  0.29D-02  1  1     1.29     0.64
   2      1.12710661    -0.45408128  -130.29597532    -0.00005444    -0.01208648  0.11D-03  0.47D-03  2  2     1.89     0.66
   3      1.13333123    -0.45443036  -130.29632441    -0.00034909    -0.00325987  0.40D-04  0.53D-04  3  3     2.47     0.66
   4      1.13600085    -0.45446087  -130.29635492    -0.00003051    -0.00089222  0.39D-05  0.89D-05  4  4     3.08     0.66
   5      1.13697066    -0.45448985  -130.29638390    -0.00002898    -0.00019870  0.12D-05  0.17D-05  5  5     3.69     0.66
   6      1.13733606    -0.45447595  -130.29637000     0.00001390    -0.00006038  0.12D-06  0.41D-06  6  6     4.28     0.67
   7      1.13740827    -0.45447727  -130.29637132    -0.00000133     0.00000741  0.18D-07  0.85D-07  6  1     4.86     0.67
   8      1.13744142    -0.45447702  -130.29637107     0.00000026    -0.00000415  0.48D-08  0.12D-07  6  2     5.44     0.67
   9      1.13744661    -0.45447692  -130.29637097     0.00000009     0.00000066  0.19D-08  0.14D-08  6  3     6.05     0.67
  10      1.13744684    -0.45447723  -130.29637128    -0.00000031    -0.00000013  0.43D-09  0.21D-09  6  4     6.63     0.67
  11      1.13744541    -0.45447735  -130.29637140    -0.00000012     0.00000033  0.10D-09  0.21D-10  6  5     7.23     0.67
  12      1.13744435    -0.45447748  -130.29637153    -0.00000013     0.00000043  0.13D-10  0.63D-11  6  6     7.85     0.67
  13      1.13744376    -0.45447750  -130.29637155    -0.00000002     0.00000011  0.53D-11  0.11D-11  6  1     8.44     0.67
  14      1.13744330    -0.45447753  -130.29637157    -0.00000002     0.00000010  0.51D-12  0.36D-12  6  3     9.03     0.67
  15      1.13744317    -0.45447753  -130.29637157    -0.00000000     0.00000001  0.12D-12  0.25D-13  6  2     9.63     0.67
  16      1.13744312    -0.45447753  -130.29637158    -0.00000000     0.00000001  0.28D-13  0.64D-14  6  4    10.24     0.67
  17      1.13744311    -0.45447753  -130.29637158    -0.00000000     0.00000001  0.32D-14  0.10D-14  6  5    10.84     0.67
  18      1.13744311    -0.45447753  -130.29637158     0.00000000    -0.00000000  0.34D-15  0.27D-15  6  6    11.45     0.67
  19      1.13744311    -0.45447753  -130.29637158     0.00000000    -0.00000000  0.44D-16  0.28D-16  6  1    12.06     0.67
  20      1.13744311    -0.45447753  -130.29637158     0.00000000    -0.00000000  0.24D-17  0.61D-17  6  3    12.69     0.67
  21      1.13744311    -0.45447753  -130.29637158     0.00000000    -0.00000000  0.41D-18  0.12D-17  6  4    13.30     0.67
  22      1.13744311    -0.45447753  -130.29637158     0.00000000    -0.00000000  0.16D-19  0.41D-18  6  2    13.88     0.67
  23      1.13744311    -0.45447753  -130.29637158    -0.00000000     0.00000000  0.23D-19  0.94D-19  6  5    14.49     0.67
  24      1.13744311    -0.45447753  -130.29637158    -0.00000000     0.00000000  0.37D-20  0.87D-20  6  1    15.09     0.67
  25      1.13744311    -0.45447753  -130.29637158     0.00000000    -0.00000000  0.14D-20  0.57D-21  6  6    15.71     0.67

 Norm of t1 vector:      0.07450377      S-energy:     0.00000000      T1 diagnostic:  0.01520802
                                                                       D1 diagnostic:  0.04082822

 Doubles amplitudes (print threshold =  0.500E-01):

         I         J         SYM. A    SYM. B    A         B      T(IJ, AB)

         6         6         2         2         1         1     -0.13041756


 Total CPU time for triples:      7.58 sec


 RESULTS
 =======

  Reference energy                   -129.841894048519
  CCSD singlet pair energy             -0.311743667165
  CCSD triplet pair energy             -0.142733860692
  CCSD correlation energy              -0.454477527856

  Triples (T) contribution             -0.020687159816
  Total correlation energy             -0.475164687672

  CCSD total energy                  -130.296371576375
  CCSD[T] energy                     -130.318080799255
  CCSD-T energy                      -130.316664270621
 !CCSD(T) total energy               -130.317058736191

 Timing summary (sec):

 STEP                 CPU(USER)    SYS     CPU(TOT)    WALL
 Transformation          0.68      0.13      0.81      0.82
 CCSD iterations        15.03      1.82     16.85     16.87
 Triples                 7.58      0.28      7.86      7.85

 Program statistics:

 Available memory in ccsd:               994999756
 Min. memory needed in ccsd:                887758
 Max. memory used in ccsd:                 1088212
 Max. memory used in cckext:               1535578 (25 integral passes)



 **********************************************************************************************************************************
 DATASETS  * FILE   NREC   LENGTH (MB)   RECORD NAMES
              1      20      480.19       500      610      700      900      950      970     1000      129      960     1100   
                                          VAR    BASINP    GEOM    SYMINP    ZMAT    AOBASIS   BASIS     P2S    ABASIS      S 
                                         1400     1410     1200     1210     1080     1600     1650     1300     1700     1380   
                                           T        V       H0       H01     AOSYM     SMH    MOLCAS    ERIS     OPER     JKOP   

              2       4        3.13       700     1000      520     2100   
                                         GEOM     BASIS   MCVARS     RHF  

 PROGRAMS   *        TOTAL   CCSD(T)        HF       INT
 CPU TIMES  *        32.48     23.33      5.04      4.01
 REAL TIME  *        37.49 SEC
 DISK USED  *         1.33 GB      
 **********************************************************************************************************************************

 CCSD(T)/USERDEF energy=   -130.317058736191

        CCSD(T)         HF-SCF  
   -130.31705874   -129.84189405
 **********************************************************************************************************************************
 Molpro calculation terminated
 Variable memory released
