
 Primary working directories    : /tmp/r2666/235293.maple
 Secondary working directories  : /tmp/r2666/235293.maple
 Wavefunction directory         : /ddn/home4/r2666/wfu/
 Main file repository           : /tmp/r2666/235293.maple/

 SHA1      : d5ffa45e93fdbca01ffc919aa182cfdae0147319
 NAME      : 2015.1.35
 ARCHNAME  : linux/x86_64
 FC        : /opt/intel/composer_xe_2015.1.133/bin/intel64/ifort
 BLASLIB   : -Wl,-_start-group /opt/intel/mkl/lib/intel64/libmkl_intel_ilp64.a /opt/intel/mkl/lib/intel64/libmkl_intel_thread.a /opt/intel/mkl/lib/intel64/libmkl_core.a -Wl,-_end-group
 id        : olemiss

 Nodes     nprocs
 cn036        1

 Using customized tuning parameters: mindgm=1; mindgv=20; mindgc=4; mindgr=1; noblas=0; minvec=7
 default implementation of scratch files=df  

 ***,hno CCSD(T)/TZ-F12 QFF
 memory, 995, m;
 gthresh,energy=1.d-12,zero=1.d-22,oneint=1.d-22,twoint=1.d-22;
 gthresh,optgrad=1.d-8,optstep=1.d-8;
 nocompress;
 geomtyp=xyz
 bohr
 geometry={
 3
         19        19
 N        0.0000000000       -0.1522406718       -1.1594244221
 H        0.0000000000        1.6598853463       -1.9300000417
 O        0.0000000000        0.0341231154        1.1388348728
 }
 
 basis={
 default=aug-cc-pvtz
 s,C,8236.0,1235.0,280.8, 79.27,25.59, 8.997,3.319
 s,C,0.9059,0.3643,0.1285000
 p,C,56.0,18.71,4.133,0.2827,0.3827,0.1209
 d,C,30.0,10.0,3.3,1.097,0.318
 f,C,7.0,2.3,0.7610
 s,N,11420.0,1712.0,389.3,110.0,35.57,12.54,4.644
 s,N,1.293,0.5118,0.1787
 p,N,79.89,26.63,5.948,1.742,0.555,0.1725
 d,N,45.0,15.0,5.0,1.654,0.469
 f,N,9.9,3.3,1.093
 s,O,15330.0,2299.0,522.4,147.3,47.55,16.76,6.207
 s,O,1.752,0.6882,0.2384
 p,O,103.5,34.46,7.749,2.28,0.7156,0.214
 d,O,63.0,21.0,7.0,2.314,0.645
 f,O,12.9,4.3,1.428
 s,mg,164900.0,24710.0,5628.0,1596.0,521.0;
 s,mg,188.0,73.01,29.90,12.54,4.306,1.826;
 s,mg,0.7417,0.0761,0.145,0.033,0.0129;
 p,mg,950.70,316.90,74.86,23.72,8.669,3.363;
 p,mg,1.310,0.4911,0.2364,0.08733,0.03237,0.00745;
 d,mg,1.601,0.686,0.126,0.294,0.0468;
 f,mg,1.372,0.588,0.094,0.252;
 }
   {hf,maxit=500;accu,20;}
 {ccsd(t),nocheck,maxit=250;orbital,IGNORE_ERROR;}

 Variables initialized (889), CPU time= 0.00 sec
 Commands  initialized (702), CPU time= 0.00 sec, 572 directives.
 Default parameters read. Elapsed time= 0.07 sec

 Checking input...
 Passed
1


                                         ***  PROGRAM SYSTEM MOLPRO  ***
                                       Copyright, TTI GmbH Stuttgart, 2015
                                    Version 2015.1 linked Jul  9 2018 13:16:40


 **********************************************************************************************************************************
 LABEL *   hno CCSD(T)/TZ-F12 QFF                                                        
  64 bit serial version                                                                  DATE: 08-Feb-20          TIME: 17:57:28  
 **********************************************************************************************************************************

 SHA1:             d5ffa45e93fdbca01ffc919aa182cfdae0147319
 **********************************************************************************************************************************

 THRESHOLDS:

 ZERO    =  1.00D-22  ONEINT  =  1.00D-22  TWOINT  =  1.00D-22  PREFAC  =  1.00D-14  LOCALI  =  1.00D-09  EORDER  =  1.00D-04
 ENERGY  =  1.00D-12  ETEST   =  0.00D+00  EDENS   =  0.00D+00  THRDEDEF=  1.00D-06  GRADIENT=  1.00D-02  STEP    =  1.00D-03
 ORBITAL =  1.00D-05  CIVEC   =  1.00D-05  COEFF   =  1.00D-04  PRINTCI =  5.00D-02  PUNCHCI =  9.90D+01  OPTGRAD =  3.00D-04
 OPTENERG=  1.00D-06  OPTSTEP =  3.00D-04  THRGRAD =  1.00D-10  COMPRESS=  1.00D-11  VARMIN  =  1.00D-07  VARMAX  =  1.00D-03
 THRDOUB =  0.00D+00  THRDIV  =  1.00D-05  THRRED  =  1.00D-07  THRPSP  =  1.00D+00  THRDC   =  1.00D-10  THRCS   =  1.00D-10
 THRNRM  =  1.00D-08  THREQ   =  0.00D+00  THRDE   =  1.00D+00  THRREF  =  1.00D-05  SPARFAC =  1.00D+00  THRDLP  =  1.00D-07
 THRDIA  =  1.00D-10  THRDLS  =  1.00D-07  THRGPS  =  0.00D+00  THRKEX  =  0.00D+00  THRDIS  =  2.00D-01  THRVAR  =  1.00D-10
 THRLOC  =  1.00D-06  THRGAP  =  1.00D-06  THRLOCT = -1.00D+00  THRGAPT = -1.00D+00  THRORB  =  1.00D-06  THRMLTP =  0.00D+00
 THRCPQCI=  1.00D-10  KEXTA   =  0.00D+00  THRCOARS=  0.00D+00  SYMTOL  =  1.00D-06  GRADTOL =  1.00D-06  THROVL  =  1.00D-08
 THRORTH =  1.00D-08  GRID    =  1.00D-06  GRIDMAX =  1.00D-03  DTMAX   =  0.00D+00  THROCCDE=  1.00D-01  THROCCDE=  1.00D-01



 THRESHOLDS:

 ZERO    =  1.00D-22  ONEINT  =  1.00D-22  TWOINT  =  1.00D-22  PREFAC  =  1.00D-14  LOCALI  =  1.00D-09  EORDER  =  1.00D-04
 ENERGY  =  1.00D-12  ETEST   =  0.00D+00  EDENS   =  0.00D+00  THRDEDEF=  1.00D-06  GRADIENT=  1.00D-02  STEP    =  1.00D-03
 ORBITAL =  1.00D-05  CIVEC   =  1.00D-05  COEFF   =  1.00D-04  PRINTCI =  5.00D-02  PUNCHCI =  9.90D+01  OPTGRAD =  1.00D-08
 OPTENERG=  1.00D-06  OPTSTEP =  1.00D-08  THRGRAD =  1.00D-10  COMPRESS=  1.00D-11  VARMIN  =  1.00D-07  VARMAX  =  1.00D-03
 THRDOUB =  0.00D+00  THRDIV  =  1.00D-05  THRRED  =  1.00D-07  THRPSP  =  1.00D+00  THRDC   =  1.00D-10  THRCS   =  1.00D-10
 THRNRM  =  1.00D-08  THREQ   =  0.00D+00  THRDE   =  1.00D+00  THRREF  =  1.00D-05  SPARFAC =  1.00D+00  THRDLP  =  1.00D-07
 THRDIA  =  1.00D-10  THRDLS  =  1.00D-07  THRGPS  =  0.00D+00  THRKEX  =  0.00D+00  THRDIS  =  2.00D-01  THRVAR  =  1.00D-10
 THRLOC  =  1.00D-06  THRGAP  =  1.00D-06  THRLOCT = -1.00D+00  THRGAPT = -1.00D+00  THRORB  =  1.00D-06  THRMLTP =  0.00D+00
 THRCPQCI=  1.00D-10  KEXTA   =  0.00D+00  THRCOARS=  0.00D+00  SYMTOL  =  1.00D-06  GRADTOL =  1.00D-06  THROVL  =  1.00D-08
 THRORTH =  1.00D-08  GRID    =  1.00D-06  GRIDMAX =  1.00D-03  DTMAX   =  0.00D+00  THROCCDE=  1.00D-01  THROCCDE=  1.00D-01



 Input parameters for SORTINT:

 COMPRESS =    0.000000
 C_FINAL  =    1.000000
 DEBUG    =   -1.000000
 C_SORT1  =    0.000000
 C_SEWARD =    0.000000
 THRESH   =    0.000000
 IO       =  molpro                                                          
 SPRI     =    0.000000
 SETTING GEOMTYP        =    XYZ
 ZUNIT=BOHR
 

 Variable memory set to  995000000 words,  buffer space   230000 words

 SETTING BASIS          =    USERDEF


 Recomputing integrals since basis changed


 Using spherical harmonics

 Library entry H      S aug-cc-pVTZ          selected for orbital group  2
 Library entry H      P aug-cc-pVTZ          selected for orbital group  2
 Library entry H      D aug-cc-pVTZ          selected for orbital group  2


 PROGRAM * SEWARD (Integral evaluation for generally contracted gaussian basis sets)     Author: Roland Lindh, 1990

 Geometry written to block  1 of record 700


 Point group  Cs  



 ATOMIC COORDINATES

 NR  ATOM    CHARGE       X              Y              Z

   1  N       7.00    0.000000000   -0.152240672   -1.159424422
   2  H       1.00    0.000000000    1.659885346   -1.930000042
   3  O       8.00    0.000000000    0.034123115    1.138834873

 Bond lengths in Bohr (Angstrom)

 1-2  1.969159082  1-3  2.305802951
     ( 1.042034111)     ( 1.220178374)

 Bond angles

  2-1-3  108.40087407

 NUCLEAR CHARGE:                   16
 NUMBER OF PRIMITIVE AOS:         203
 NUMBER OF SYMMETRY AOS:          173
 NUMBER OF CONTRACTIONS:          171   ( 114A'  +  57A"  )
 NUMBER OF CORE ORBITALS:           2   (   2A'  +   0A"  )
 NUMBER OF VALENCE ORBITALS:        9   (   7A'  +   2A"  )


 NUCLEAR REPULSION ENERGY   30.14493540


 Eigenvalues of metric

         1 0.104E-02 0.259E-02 0.335E-02 0.635E-02 0.952E-02 0.137E-01 0.146E-01 0.228E-01
         2 0.352E-01 0.547E-01 0.699E-01 0.943E-01 0.132E+00 0.134E+00 0.139E+00 0.142E+00


 Contracted 2-electron integrals neglected if value below      1.0D-22

       46082892. INTEGRALS WRITTEN OUT IN   11254 BLOCKS ON RECORD 1290 OF FILE 1


 NUMBER OF SORTED TWO-ELECTRON INTEGRALS:   55360566.     BUFFER LENGTH:  32768
 NUMBER OF SEGMENTS:   4  SEGMENT LENGTH:   15997996      RECORD LENGTH: 524288

 Memory used in sort:      16.56 MW

 SORT1 READ    46082892. AND WROTE    46519622. INTEGRALS IN    135 RECORDS. CPU TIME:     1.30 SEC, REAL TIME:     1.62 SEC
 SORT2 READ    46519622. AND WROTE    55360566. INTEGRALS IN      4 RECORDS. CPU TIME:     0.73 SEC, REAL TIME:     1.02 SEC

 FILE SIZES:   FILE 1:   758.3 MBYTE,  FILE 4:   566.3 MBYTE,   TOTAL:   1324.5 MBYTE

 OPERATOR DM      FOR CENTER  0  COORDINATES:    0.000000    0.000000    0.000000


 **********************************************************************************************************************************
 DATASETS  * FILE   NREC   LENGTH (MB)   RECORD NAMES
              1      19      420.82       500      610      700      900      950      970     1000      129      960     1100   
                                          VAR    BASINP    GEOM    SYMINP    ZMAT    AOBASIS   BASIS     P2S    ABASIS      S 
                                         1400     1410     1200     1210     1080     1600     1650     1300     1700   
                                           T        V       H0       H01     AOSYM     SMH    MOLCAS    ERIS     OPER   

 PROGRAMS   *        TOTAL       INT
 CPU TIMES  *         5.67      5.58
 REAL TIME  *         7.40 SEC
 DISK USED  *         1.32 GB      
 **********************************************************************************************************************************


 PROGRAM * RHF-SCF (CLOSED SHELL)       Authors: W. Meyer, H.-J. Werner


 NUMBER OF ELECTRONS:       8+    8-
 CONVERGENCE THRESHOLDS:    1.00E-10 (Density)    1.00E-13 (Energy)
 MAX. NUMBER OF ITERATIONS:      500
 INTERPOLATION TYPE:            DIIS
 INTERPOLATION STEPS:              2 (START)      1 (STEP)
 LEVEL SHIFTS:                  0.00 (CLOSED)  0.00 (OPEN) 



 Orbital guess generated from atomic densities. Full valence occupancy:    9   2

 Molecular orbital dump at record        2100.2

 Initial occupancy:   7   1

 ITERATION    DDIFF          GRAD             ENERGY        2-EL.EN.            DIPOLE MOMENTS         DIIS   ORB.
    1      0.000D+00      0.000D+00      -129.78635874    153.666126    0.00000    0.58322   -1.05171    0    start
    2      0.000D+00      0.886D-02      -129.81283805    154.805285    0.00000    0.60577   -0.19368    1    diag
    3      0.373D-02      0.689D-02      -129.83723693    154.955437    0.00000    0.55640   -0.60283    2    diag
    4      0.146D-02      0.105D-02      -129.83804447    154.673322    0.00000    0.56416   -0.53824    3    diag
    5      0.338D-03      0.341D-03      -129.83816731    154.761715    0.00000    0.57007   -0.54040    4    diag
    6      0.154D-03      0.996D-04      -129.83818729    154.745611    0.00000    0.57058   -0.53609    5    diag
    7      0.609D-04      0.507D-04      -129.83819340    154.747971    0.00000    0.57185   -0.53342    6    diag
    8      0.418D-04      0.180D-04      -129.83819413    154.747095    0.00000    0.57190   -0.53241    7    diag
    9      0.154D-04      0.339D-05      -129.83819416    154.746974    0.00000    0.57184   -0.53221    8    diag
   10      0.321D-05      0.752D-06      -129.83819417    154.746961    0.00000    0.57181   -0.53219    9    orth
   11      0.908D-06      0.148D-06      -129.83819417    154.746957    0.00000    0.57180   -0.53219    9    diag
   12      0.210D-06      0.316D-07      -129.83819417    154.746957    0.00000    0.57180   -0.53218    9    diag
   13      0.510D-07      0.859D-08      -129.83819417    154.746956    0.00000    0.57180   -0.53218    9    diag
   14      0.119D-07      0.151D-08      -129.83819417    154.746956    0.00000    0.57180   -0.53218    9    diag
   15      0.137D-08      0.400D-09      -129.83819417    154.746956    0.00000    0.57180   -0.53218    9    diag
   16      0.340D-09      0.116D-09      -129.83819417    154.746956    0.00000    0.57180   -0.53218    9    diag
   17      0.625D-10      0.303D-10      -129.83819417    154.746956    0.00000    0.57180   -0.53218    9    diag
   18      0.175D-10      0.976D-11      -129.83819417    154.746956    0.00000    0.57180   -0.53218    9    diag
   19      0.618D-11      0.228D-11      -129.83819417    154.746956    0.00000    0.57180   -0.53218    9    fixocc
   20      0.161D-11      0.604D-12      -129.83819417    154.746956    0.00000    0.57180   -0.53218    9    orth
   21      0.266D-12      0.329D-12      -129.83819417    154.746956    0.00000    0.57180   -0.53218    9    diag
   22      0.168D-12      0.406D-12      -129.83819417    154.746956    0.00000    0.57180   -0.53218    9    diag
   23      0.102D-12      0.206D-12      -129.83819417    154.746956    0.00000    0.57180   -0.53218    9    diag
   24      0.108D-12      0.439D-12      -129.83819417    154.746956    0.00000    0.57180   -0.53218    0    orth

 Final occupancy:   7   1

 !RHF STATE 1.1 Energy               -129.838194165490
 Nuclear energy                        30.14493540
 One-electron energy                 -237.35660775
 Two-electron energy                   77.37347819
 Virial quotient                       -1.00187330
 !RHF STATE 1.1 Dipole moment           0.00000000     0.57179632    -0.53218363
 Dipole moment /Debye                   0.00000000     1.45326610    -1.35258727

 Orbital energies:

         1.1          2.1          3.1          4.1          5.1          6.1          7.1          8.1          9.1
    -20.652303   -15.711294    -1.518194    -0.998444    -0.742612    -0.660779    -0.432872     0.039558     0.193072

         1.2          2.2          3.2
     -0.588328     0.074753     0.239250

 HOMO      7.1    -0.432872 =     -11.7791eV
 LUMO      8.1     0.039558 =       1.0764eV
 LUMO-HOMO         0.472430 =      12.8555eV


 **********************************************************************************************************************************
 DATASETS  * FILE   NREC   LENGTH (MB)   RECORD NAMES
              1      19      420.82       500      610      700      900      950      970     1000      129      960     1100   
                                          VAR    BASINP    GEOM    SYMINP    ZMAT    AOBASIS   BASIS     P2S    ABASIS      S 
                                         1400     1410     1200     1210     1080     1600     1650     1300     1700   
                                           T        V       H0       H01     AOSYM     SMH    MOLCAS    ERIS     OPER   

              2       4        3.13       700     1000      520     2100   
                                         GEOM     BASIS   MCVARS     RHF  

 PROGRAMS   *        TOTAL        HF       INT
 CPU TIMES  *        12.59      6.92      5.58
 REAL TIME  *        16.15 SEC
 DISK USED  *         1.32 GB      
 **********************************************************************************************************************************


 PROGRAM * CCSD (Closed-shell coupled cluster)     Authors: C. Hampel, H.-J. Werner, 1991, M. Deegan, P.J. Knowles, 1992


 Convergence thresholds:  THRVAR = 1.00D-08  THRDEN = 1.00D-12

 CCSD(T)     terms to be evaluated (factor= 1.000)


 Number of core orbitals:           2 (   2   0 )
 Number of closed-shell orbitals:   6 (   5   1 )
 Number of external orbitals:     163 ( 107  56 )

 Molecular orbitals read from record     2100.2  Type=RHF/CANONICAL (state 1.1)

 Number of N-1 electron functions:               6
 Number of N-2 electron functions:              21
 Number of singly external CSFs:               591
 Number of doubly external CSFs:            250014
 Total number of CSFs:                      250606

 Length of J-op  integral file:               0.00 MB
 Length of K-op  integral file:               1.15 MB
 Length of 3-ext integral record:             0.00 MB

 Memory could be reduced to 19.93 Mwords without degradation in triples

 Integral transformation finished. Total CPU:   0.90 sec, npass=  1  Memory used:   5.10 MW

 Reference energy:                   -129.83819417

 MP2 singlet pair energy:              -0.28789599
 MP2 triplet pair energy:              -0.16788938
 MP2 correlation energy:               -0.45578537
 MP2 total energy:                   -130.29397954

 SCS-MP2 correlation energy:           -0.44993969   (PS=  1.200000  PT=  0.333333)
 SCS-MP2 total energy:               -130.28813386

 ITER.      SQ.NORM     CORR.ENERGY   TOTAL ENERGY   ENERGY CHANGE        DEN1      VAR(S)    VAR(P)  DIIS     TIME  TIME/IT
   1      1.11979545    -0.45747716  -130.29567133    -0.00169179     0.01552330  0.33D-02  0.32D-02  1  1     1.71     0.87
   2      1.13056628    -0.45729548  -130.29548964     0.00018168    -0.01277252  0.13D-03  0.51D-03  2  2     2.55     0.89
   3      1.13731779    -0.45767869  -130.29587286    -0.00038321    -0.00342419  0.46D-04  0.61D-04  3  3     3.37     0.90
   4      1.14031496    -0.45771322  -130.29590738    -0.00003453    -0.00097644  0.46D-05  0.10D-04  4  4     4.20     0.90
   5      1.14146258    -0.45774735  -130.29594152    -0.00003413    -0.00023450  0.13D-05  0.18D-05  5  5     5.00     0.91
   6      1.14187762    -0.45773045  -130.29592461     0.00001691    -0.00006903  0.12D-06  0.44D-06  6  6     5.81     0.91
   7      1.14194930    -0.45773223  -130.29592639    -0.00000178     0.00000941  0.15D-07  0.99D-07  6  1     6.64     0.91
   8      1.14198447    -0.45773170  -130.29592586     0.00000053    -0.00000493  0.50D-08  0.16D-07  6  2     7.47     0.91
   9      1.14198946    -0.45773159  -130.29592576     0.00000011     0.00000124  0.23D-08  0.18D-08  6  3     8.26     0.91
  10      1.14198999    -0.45773192  -130.29592609    -0.00000033    -0.00000036  0.53D-09  0.29D-09  6  4     9.07     0.91
  11      1.14198845    -0.45773206  -130.29592623    -0.00000014     0.00000035  0.13D-09  0.29D-10  6  5     9.89     0.91
  12      1.14198727    -0.45773222  -130.29592639    -0.00000016     0.00000048  0.16D-10  0.80D-11  6  6    10.70     0.91
  13      1.14198660    -0.45773224  -130.29592641    -0.00000002     0.00000012  0.58D-11  0.15D-11  6  1    11.52     0.91
  14      1.14198608    -0.45773227  -130.29592644    -0.00000003     0.00000012  0.52D-12  0.47D-12  6  3    12.34     0.91
  15      1.14198591    -0.45773227  -130.29592644     0.00000000     0.00000001  0.13D-12  0.34D-13  6  2    13.16     0.91
  16      1.14198586    -0.45773227  -130.29592644    -0.00000000     0.00000001  0.31D-13  0.79D-14  6  4    13.98     0.92
  17      1.14198583    -0.45773227  -130.29592644    -0.00000000     0.00000001  0.45D-14  0.12D-14  6  5    14.84     0.92
  18      1.14198583    -0.45773227  -130.29592644    -0.00000000     0.00000000  0.53D-15  0.34D-15  6  6    15.69     0.92
  19      1.14198583    -0.45773227  -130.29592644     0.00000000    -0.00000000  0.73D-16  0.50D-16  6  1    16.52     0.92
  20      1.14198584    -0.45773227  -130.29592644     0.00000000    -0.00000000  0.35D-17  0.12D-16  6  3    17.36     0.92
  21      1.14198584    -0.45773227  -130.29592644     0.00000000    -0.00000000  0.60D-18  0.27D-17  6  4    18.20     0.92
  22      1.14198584    -0.45773227  -130.29592644     0.00000000    -0.00000000  0.59D-19  0.96D-18  6  2    19.03     0.92
  23      1.14198584    -0.45773227  -130.29592644    -0.00000000     0.00000000  0.93D-19  0.18D-18  6  5    19.84     0.92
  24      1.14198584    -0.45773227  -130.29592644    -0.00000000     0.00000000  0.51D-20  0.17D-19  6  1    20.68     0.92
  25      1.14198584    -0.45773227  -130.29592644     0.00000000    -0.00000000  0.27D-20  0.12D-20  6  6    21.53     0.92

 Norm of t1 vector:      0.07875780      S-energy:     0.00000000      T1 diagnostic:  0.01607637
                                                                       D1 diagnostic:  0.04458104

 Doubles amplitudes (print threshold =  0.500E-01):

         I         J         SYM. A    SYM. B    A         B      T(IJ, AB)

         6         6         2         2         1         1     -0.13918731


 Total CPU time for triples:      6.85 sec


 RESULTS
 =======

  Reference energy                   -129.838194165490
  CCSD singlet pair energy             -0.314601459659
  CCSD triplet pair energy             -0.143130814233
  CCSD correlation energy              -0.457732273892

  Triples (T) contribution             -0.021514866497
  Total correlation energy             -0.479247140389

  CCSD total energy                  -130.295926439382
  CCSD[T] energy                     -130.318582461812
  CCSD-T energy                      -130.317017255886
 !CCSD(T) total energy               -130.317441305879

 Timing summary (sec):

 STEP                 CPU(USER)    SYS     CPU(TOT)    WALL
 Transformation          0.92      0.12      1.04      1.04
 CCSD iterations        20.61      2.35     22.96     22.98
 Triples                 6.85      0.17      7.02      7.02

 Program statistics:

 Available memory in ccsd:               994999756
 Min. memory needed in ccsd:                887758
 Max. memory used in ccsd:                 1088212
 Max. memory used in cckext:               1535578 (25 integral passes)



 **********************************************************************************************************************************
 DATASETS  * FILE   NREC   LENGTH (MB)   RECORD NAMES
              1      20      478.77       500      610      700      900      950      970     1000      129      960     1100   
                                          VAR    BASINP    GEOM    SYMINP    ZMAT    AOBASIS   BASIS     P2S    ABASIS      S 
                                         1400     1410     1200     1210     1080     1600     1650     1300     1700     1380   
                                           T        V       H0       H01     AOSYM     SMH    MOLCAS    ERIS     OPER     JKOP   

              2       4        3.13       700     1000      520     2100   
                                         GEOM     BASIS   MCVARS     RHF  

 PROGRAMS   *        TOTAL   CCSD(T)        HF       INT
 CPU TIMES  *        40.99     28.40      6.92      5.58
 REAL TIME  *        47.22 SEC
 DISK USED  *         1.32 GB      
 **********************************************************************************************************************************

 CCSD(T)/USERDEF energy=   -130.317441305879

        CCSD(T)         HF-SCF  
   -130.31744131   -129.83819417
 **********************************************************************************************************************************
 Molpro calculation terminated
 Variable memory released
