
 Primary working directories    : /tmp/r2666/235347.maple
 Secondary working directories  : /tmp/r2666/235347.maple
 Wavefunction directory         : /ddn/home4/r2666/wfu/
 Main file repository           : /tmp/r2666/235347.maple/

 SHA1      : d5ffa45e93fdbca01ffc919aa182cfdae0147319
 NAME      : 2015.1.35
 ARCHNAME  : linux/x86_64
 FC        : /opt/intel/composer_xe_2015.1.133/bin/intel64/ifort
 BLASLIB   : -Wl,-_start-group /opt/intel/mkl/lib/intel64/libmkl_intel_ilp64.a /opt/intel/mkl/lib/intel64/libmkl_intel_thread.a /opt/intel/mkl/lib/intel64/libmkl_core.a -Wl,-_end-group
 id        : olemiss

 Nodes     nprocs
 cn091        1

 Using customized tuning parameters: mindgm=1; mindgv=20; mindgc=4; mindgr=1; noblas=0; minvec=7
 default implementation of scratch files=df  

 ***,hno CCSD(T)/TZ-F12 QFF
 memory, 995, m;
 gthresh,energy=1.d-12,zero=1.d-22,oneint=1.d-22,twoint=1.d-22;
 gthresh,optgrad=1.d-8,optstep=1.d-8;
 nocompress;
 geomtyp=xyz
 bohr
 geometry={
 3
         73        73
 N        0.0000000000       -0.1599644569       -1.1501072939
 H        0.0000000000        1.6676225404       -1.9325993301
 O        0.0000000000        0.0341097065        1.1321170329
 }
 
 basis={
 default=aug-cc-pvtz
 s,C,8236.0,1235.0,280.8, 79.27,25.59, 8.997,3.319
 s,C,0.9059,0.3643,0.1285000
 p,C,56.0,18.71,4.133,0.2827,0.3827,0.1209
 d,C,30.0,10.0,3.3,1.097,0.318
 f,C,7.0,2.3,0.7610
 s,N,11420.0,1712.0,389.3,110.0,35.57,12.54,4.644
 s,N,1.293,0.5118,0.1787
 p,N,79.89,26.63,5.948,1.742,0.555,0.1725
 d,N,45.0,15.0,5.0,1.654,0.469
 f,N,9.9,3.3,1.093
 s,O,15330.0,2299.0,522.4,147.3,47.55,16.76,6.207
 s,O,1.752,0.6882,0.2384
 p,O,103.5,34.46,7.749,2.28,0.7156,0.214
 d,O,63.0,21.0,7.0,2.314,0.645
 f,O,12.9,4.3,1.428
 s,mg,164900.0,24710.0,5628.0,1596.0,521.0;
 s,mg,188.0,73.01,29.90,12.54,4.306,1.826;
 s,mg,0.7417,0.0761,0.145,0.033,0.0129;
 p,mg,950.70,316.90,74.86,23.72,8.669,3.363;
 p,mg,1.310,0.4911,0.2364,0.08733,0.03237,0.00745;
 d,mg,1.601,0.686,0.126,0.294,0.0468;
 f,mg,1.372,0.588,0.094,0.252;
 }
   {hf,maxit=500;accu,20;}
 {ccsd(t),nocheck,maxit=250;orbital,IGNORE_ERROR;}

 Variables initialized (889), CPU time= 0.00 sec
 Commands  initialized (702), CPU time= 0.01 sec, 572 directives.
 Default parameters read. Elapsed time= 0.04 sec

 Checking input...
 Passed
1


                                         ***  PROGRAM SYSTEM MOLPRO  ***
                                       Copyright, TTI GmbH Stuttgart, 2015
                                    Version 2015.1 linked Jul  9 2018 13:16:40


 **********************************************************************************************************************************
 LABEL *   hno CCSD(T)/TZ-F12 QFF                                                        
  64 bit serial version                                                                  DATE: 08-Feb-20          TIME: 17:58:13  
 **********************************************************************************************************************************

 SHA1:             d5ffa45e93fdbca01ffc919aa182cfdae0147319
 **********************************************************************************************************************************

 THRESHOLDS:

 ZERO    =  1.00D-22  ONEINT  =  1.00D-22  TWOINT  =  1.00D-22  PREFAC  =  1.00D-14  LOCALI  =  1.00D-09  EORDER  =  1.00D-04
 ENERGY  =  1.00D-12  ETEST   =  0.00D+00  EDENS   =  0.00D+00  THRDEDEF=  1.00D-06  GRADIENT=  1.00D-02  STEP    =  1.00D-03
 ORBITAL =  1.00D-05  CIVEC   =  1.00D-05  COEFF   =  1.00D-04  PRINTCI =  5.00D-02  PUNCHCI =  9.90D+01  OPTGRAD =  3.00D-04
 OPTENERG=  1.00D-06  OPTSTEP =  3.00D-04  THRGRAD =  1.00D-10  COMPRESS=  1.00D-11  VARMIN  =  1.00D-07  VARMAX  =  1.00D-03
 THRDOUB =  0.00D+00  THRDIV  =  1.00D-05  THRRED  =  1.00D-07  THRPSP  =  1.00D+00  THRDC   =  1.00D-10  THRCS   =  1.00D-10
 THRNRM  =  1.00D-08  THREQ   =  0.00D+00  THRDE   =  1.00D+00  THRREF  =  1.00D-05  SPARFAC =  1.00D+00  THRDLP  =  1.00D-07
 THRDIA  =  1.00D-10  THRDLS  =  1.00D-07  THRGPS  =  0.00D+00  THRKEX  =  0.00D+00  THRDIS  =  2.00D-01  THRVAR  =  1.00D-10
 THRLOC  =  1.00D-06  THRGAP  =  1.00D-06  THRLOCT = -1.00D+00  THRGAPT = -1.00D+00  THRORB  =  1.00D-06  THRMLTP =  0.00D+00
 THRCPQCI=  1.00D-10  KEXTA   =  0.00D+00  THRCOARS=  0.00D+00  SYMTOL  =  1.00D-06  GRADTOL =  1.00D-06  THROVL  =  1.00D-08
 THRORTH =  1.00D-08  GRID    =  1.00D-06  GRIDMAX =  1.00D-03  DTMAX   =  0.00D+00  THROCCDE=  1.00D-01  THROCCDE=  1.00D-01



 THRESHOLDS:

 ZERO    =  1.00D-22  ONEINT  =  1.00D-22  TWOINT  =  1.00D-22  PREFAC  =  1.00D-14  LOCALI  =  1.00D-09  EORDER  =  1.00D-04
 ENERGY  =  1.00D-12  ETEST   =  0.00D+00  EDENS   =  0.00D+00  THRDEDEF=  1.00D-06  GRADIENT=  1.00D-02  STEP    =  1.00D-03
 ORBITAL =  1.00D-05  CIVEC   =  1.00D-05  COEFF   =  1.00D-04  PRINTCI =  5.00D-02  PUNCHCI =  9.90D+01  OPTGRAD =  1.00D-08
 OPTENERG=  1.00D-06  OPTSTEP =  1.00D-08  THRGRAD =  1.00D-10  COMPRESS=  1.00D-11  VARMIN  =  1.00D-07  VARMAX  =  1.00D-03
 THRDOUB =  0.00D+00  THRDIV  =  1.00D-05  THRRED  =  1.00D-07  THRPSP  =  1.00D+00  THRDC   =  1.00D-10  THRCS   =  1.00D-10
 THRNRM  =  1.00D-08  THREQ   =  0.00D+00  THRDE   =  1.00D+00  THRREF  =  1.00D-05  SPARFAC =  1.00D+00  THRDLP  =  1.00D-07
 THRDIA  =  1.00D-10  THRDLS  =  1.00D-07  THRGPS  =  0.00D+00  THRKEX  =  0.00D+00  THRDIS  =  2.00D-01  THRVAR  =  1.00D-10
 THRLOC  =  1.00D-06  THRGAP  =  1.00D-06  THRLOCT = -1.00D+00  THRGAPT = -1.00D+00  THRORB  =  1.00D-06  THRMLTP =  0.00D+00
 THRCPQCI=  1.00D-10  KEXTA   =  0.00D+00  THRCOARS=  0.00D+00  SYMTOL  =  1.00D-06  GRADTOL =  1.00D-06  THROVL  =  1.00D-08
 THRORTH =  1.00D-08  GRID    =  1.00D-06  GRIDMAX =  1.00D-03  DTMAX   =  0.00D+00  THROCCDE=  1.00D-01  THROCCDE=  1.00D-01



 Input parameters for SORTINT:

 COMPRESS =    0.000000
 C_FINAL  =    1.000000
 DEBUG    =   -1.000000
 C_SORT1  =    0.000000
 C_SEWARD =    0.000000
 THRESH   =    0.000000
 IO       =  molpro                                                          
 SPRI     =    0.000000
 SETTING GEOMTYP        =    XYZ
 ZUNIT=BOHR
 

 Variable memory set to  995000000 words,  buffer space   230000 words

 SETTING BASIS          =    USERDEF


 Recomputing integrals since basis changed


 Using spherical harmonics

 Library entry H      S aug-cc-pVTZ          selected for orbital group  2
 Library entry H      P aug-cc-pVTZ          selected for orbital group  2
 Library entry H      D aug-cc-pVTZ          selected for orbital group  2


 PROGRAM * SEWARD (Integral evaluation for generally contracted gaussian basis sets)     Author: Roland Lindh, 1990

 Geometry written to block  1 of record 700


 Point group  Cs  



 ATOMIC COORDINATES

 NR  ATOM    CHARGE       X              Y              Z

   1  N       7.00    0.000000000   -0.159964457   -1.150107294
   2  H       1.00    0.000000000    1.667622540   -1.932599330
   3  O       8.00    0.000000000    0.034109707    1.132117033

 Bond lengths in Bohr (Angstrom)

 1-2  1.988056342  1-3  2.290461233
     ( 1.052034110)     ( 1.212059887)

 Bond angles

  2-1-3  108.31788671

 NUCLEAR CHARGE:                   16
 NUMBER OF PRIMITIVE AOS:         203
 NUMBER OF SYMMETRY AOS:          173
 NUMBER OF CONTRACTIONS:          171   ( 114A'  +  57A"  )
 NUMBER OF CORE ORBITALS:           2   (   2A'  +   0A"  )
 NUMBER OF VALENCE ORBITALS:        9   (   7A'  +   2A"  )


 NUCLEAR REPULSION ENERGY   30.27381899


 Eigenvalues of metric

         1 0.105E-02 0.252E-02 0.335E-02 0.638E-02 0.985E-02 0.137E-01 0.145E-01 0.231E-01
         2 0.364E-01 0.537E-01 0.701E-01 0.942E-01 0.131E+00 0.134E+00 0.140E+00 0.142E+00


 Contracted 2-electron integrals neglected if value below      1.0D-22

       46131223. INTEGRALS WRITTEN OUT IN   11266 BLOCKS ON RECORD 1290 OF FILE 1


 NUMBER OF SORTED TWO-ELECTRON INTEGRALS:   55360566.     BUFFER LENGTH:  32768
 NUMBER OF SEGMENTS:   4  SEGMENT LENGTH:   15997996      RECORD LENGTH: 524288

 Memory used in sort:      16.56 MW

 SORT1 READ    46131223. AND WROTE    46568566. INTEGRALS IN    135 RECORDS. CPU TIME:     0.77 SEC, REAL TIME:     1.07 SEC
 SORT2 READ    46568566. AND WROTE    55360566. INTEGRALS IN      4 RECORDS. CPU TIME:     0.65 SEC, REAL TIME:     0.87 SEC

 FILE SIZES:   FILE 1:   759.1 MBYTE,  FILE 4:   566.3 MBYTE,   TOTAL:   1325.3 MBYTE

 OPERATOR DM      FOR CENTER  0  COORDINATES:    0.000000    0.000000    0.000000


 **********************************************************************************************************************************
 DATASETS  * FILE   NREC   LENGTH (MB)   RECORD NAMES
              1      19      421.15       500      610      700      900      950      970     1000      129      960     1100   
                                          VAR    BASINP    GEOM    SYMINP    ZMAT    AOBASIS   BASIS     P2S    ABASIS      S 
                                         1400     1410     1200     1210     1080     1600     1650     1300     1700   
                                           T        V       H0       H01     AOSYM     SMH    MOLCAS    ERIS     OPER   

 PROGRAMS   *        TOTAL       INT
 CPU TIMES  *         4.31      4.22
 REAL TIME  *         5.71 SEC
 DISK USED  *         1.33 GB      
 **********************************************************************************************************************************


 PROGRAM * RHF-SCF (CLOSED SHELL)       Authors: W. Meyer, H.-J. Werner


 NUMBER OF ELECTRONS:       8+    8-
 CONVERGENCE THRESHOLDS:    1.00E-10 (Density)    1.00E-13 (Energy)
 MAX. NUMBER OF ITERATIONS:      500
 INTERPOLATION TYPE:            DIIS
 INTERPOLATION STEPS:              2 (START)      1 (STEP)
 LEVEL SHIFTS:                  0.00 (CLOSED)  0.00 (OPEN) 



 Orbital guess generated from atomic densities. Full valence occupancy:    9   2

 Molecular orbital dump at record        2100.2

 Initial occupancy:   7   1

 ITERATION    DDIFF          GRAD             ENERGY        2-EL.EN.            DIPOLE MOMENTS         DIIS   ORB.
    1      0.000D+00      0.000D+00      -129.78808084    153.890712    0.00000    0.57261   -1.02720    0    start
    2      0.000D+00      0.882D-02      -129.81485225    155.057314    0.00000    0.60014   -0.19450    1    diag
    3      0.367D-02      0.677D-02      -129.83831197    155.187026    0.00000    0.54899   -0.59013    2    diag
    4      0.143D-02      0.104D-02      -129.83910429    154.909427    0.00000    0.55693   -0.52699    3    diag
    5      0.333D-03      0.339D-03      -129.83922616    154.997878    0.00000    0.56297   -0.52934    4    diag
    6      0.154D-03      0.995D-04      -129.83924607    154.981733    0.00000    0.56352   -0.52514    5    diag
    7      0.609D-04      0.501D-04      -129.83925200    154.984229    0.00000    0.56484   -0.52258    6    diag
    8      0.415D-04      0.174D-04      -129.83925267    154.983384    0.00000    0.56489   -0.52163    7    diag
    9      0.147D-04      0.326D-05      -129.83925270    154.983267    0.00000    0.56484   -0.52144    8    diag
   10      0.301D-05      0.736D-06      -129.83925270    154.983253    0.00000    0.56480   -0.52142    9    orth
   11      0.879D-06      0.146D-06      -129.83925270    154.983249    0.00000    0.56480   -0.52141    9    diag
   12      0.206D-06      0.305D-07      -129.83925270    154.983248    0.00000    0.56479   -0.52141    9    diag
   13      0.505D-07      0.813D-08      -129.83925270    154.983248    0.00000    0.56479   -0.52141    9    diag
   14      0.117D-07      0.142D-08      -129.83925270    154.983248    0.00000    0.56479   -0.52141    9    diag
   15      0.145D-08      0.378D-09      -129.83925270    154.983248    0.00000    0.56479   -0.52141    9    diag
   16      0.328D-09      0.109D-09      -129.83925270    154.983248    0.00000    0.56479   -0.52141    9    diag
   17      0.698D-10      0.290D-10      -129.83925270    154.983248    0.00000    0.56479   -0.52141    9    diag
   18      0.209D-10      0.950D-11      -129.83925270    154.983248    0.00000    0.56479   -0.52141    9    diag
   19      0.832D-11      0.219D-11      -129.83925270    154.983248    0.00000    0.56479   -0.52141    9    fixocc
   20      0.201D-11      0.715D-12      -129.83925270    154.983248    0.00000    0.56479   -0.52141    9    orth
   21      0.298D-12      0.481D-12      -129.83925270    154.983248    0.00000    0.56479   -0.52141    9    diag
   22      0.193D-12      0.510D-12      -129.83925270    154.983248    0.00000    0.56479   -0.52141    9    diag
   23      0.843D-13      0.233D-12      -129.83925270    154.983248    0.00000    0.56479   -0.52141    9    diag
   24      0.364D-13      0.370D-12      -129.83925270    154.983248    0.00000    0.56479   -0.52141    9    diag
   25      0.425D-13      0.304D-12      -129.83925270    154.983248    0.00000    0.56479   -0.52141    0    orth

 Final occupancy:   7   1

 !RHF STATE 1.1 Energy               -129.839252696884
 Nuclear energy                        30.27381899
 One-electron energy                 -237.60469555
 Two-electron energy                   77.49162386
 Virial quotient                       -1.00175844
 !RHF STATE 1.1 Dipole moment           0.00000000     0.56479340    -0.52141263
 Dipole moment /Debye                   0.00000000     1.43546760    -1.32521192

 Orbital energies:

         1.1          2.1          3.1          4.1          5.1          6.1          7.1          8.1          9.1
    -20.651693   -15.711274    -1.524633    -0.993943    -0.743941    -0.663077    -0.429908     0.039629     0.192588

         1.2          2.2          3.2
     -0.592255     0.077627     0.239413

 HOMO      7.1    -0.429908 =     -11.6984eV
 LUMO      8.1     0.039629 =       1.0784eV
 LUMO-HOMO         0.469537 =      12.7768eV


 **********************************************************************************************************************************
 DATASETS  * FILE   NREC   LENGTH (MB)   RECORD NAMES
              1      19      421.15       500      610      700      900      950      970     1000      129      960     1100   
                                          VAR    BASINP    GEOM    SYMINP    ZMAT    AOBASIS   BASIS     P2S    ABASIS      S 
                                         1400     1410     1200     1210     1080     1600     1650     1300     1700   
                                           T        V       H0       H01     AOSYM     SMH    MOLCAS    ERIS     OPER   

              2       4        3.13       700     1000      520     2100   
                                         GEOM     BASIS   MCVARS     RHF  

 PROGRAMS   *        TOTAL        HF       INT
 CPU TIMES  *        10.55      6.24      4.22
 REAL TIME  *        13.31 SEC
 DISK USED  *         1.33 GB      
 **********************************************************************************************************************************


 PROGRAM * CCSD (Closed-shell coupled cluster)     Authors: C. Hampel, H.-J. Werner, 1991, M. Deegan, P.J. Knowles, 1992


 Convergence thresholds:  THRVAR = 1.00D-08  THRDEN = 1.00D-12

 CCSD(T)     terms to be evaluated (factor= 1.000)


 Number of core orbitals:           2 (   2   0 )
 Number of closed-shell orbitals:   6 (   5   1 )
 Number of external orbitals:     163 ( 107  56 )

 Molecular orbitals read from record     2100.2  Type=RHF/CANONICAL (state 1.1)

 Number of N-1 electron functions:               6
 Number of N-2 electron functions:              21
 Number of singly external CSFs:               591
 Number of doubly external CSFs:            250014
 Total number of CSFs:                      250606

 Length of J-op  integral file:               0.00 MB
 Length of K-op  integral file:               1.15 MB
 Length of 3-ext integral record:             0.00 MB

 Memory could be reduced to 19.93 Mwords without degradation in triples

 Integral transformation finished. Total CPU:   0.76 sec, npass=  1  Memory used:   5.10 MW

 Reference energy:                   -129.83925270

 MP2 singlet pair energy:              -0.28728652
 MP2 triplet pair energy:              -0.16746407
 MP2 correlation energy:               -0.45475059
 MP2 total energy:                   -130.29400329

 SCS-MP2 correlation energy:           -0.44894369   (PS=  1.200000  PT=  0.333333)
 SCS-MP2 total energy:               -130.28819639

 ITER.      SQ.NORM     CORR.ENERGY   TOTAL ENERGY   ENERGY CHANGE        DEN1      VAR(S)    VAR(P)  DIIS     TIME  TIME/IT
   1      1.11924315    -0.45673044  -130.29598313    -0.00197984     0.01495991  0.33D-02  0.31D-02  1  1     1.40     0.68
   2      1.12986673    -0.45661399  -130.29586669     0.00011644    -0.01261395  0.12D-03  0.50D-03  2  2     2.07     0.69
   3      1.13651031    -0.45699226  -130.29624496    -0.00037827    -0.00339352  0.45D-04  0.59D-04  3  3     2.71     0.70
   4      1.13942751    -0.45702467  -130.29627737    -0.00003241    -0.00095809  0.45D-05  0.99D-05  4  4     3.36     0.70
   5      1.14053331    -0.45705784  -130.29631054    -0.00003317    -0.00022579  0.14D-05  0.18D-05  5  5     3.98     0.70
   6      1.14093758    -0.45704168  -130.29629437     0.00001616    -0.00006709  0.12D-06  0.43D-06  6  6     4.61     0.70
   7      1.14101066    -0.45704322  -130.29629592    -0.00000155     0.00000876  0.17D-07  0.95D-07  6  1     5.25     0.71
   8      1.14104573    -0.45704275  -130.29629544     0.00000047    -0.00000477  0.49D-08  0.15D-07  6  2     5.88     0.71
   9      1.14105117    -0.45704262  -130.29629532     0.00000013     0.00000101  0.22D-08  0.17D-08  6  3     6.54     0.71
  10      1.14105161    -0.45704295  -130.29629565    -0.00000033    -0.00000026  0.51D-09  0.27D-09  6  4     7.15     0.71
  11      1.14105008    -0.45704309  -130.29629579    -0.00000014     0.00000035  0.12D-09  0.27D-10  6  5     7.81     0.71
  12      1.14104890    -0.45704324  -130.29629594    -0.00000015     0.00000048  0.16D-10  0.77D-11  6  6     8.44     0.71
  13      1.14104824    -0.45704326  -130.29629596    -0.00000002     0.00000012  0.60D-11  0.14D-11  6  1     9.03     0.71
  14      1.14104772    -0.45704329  -130.29629599    -0.00000003     0.00000012  0.55D-12  0.45D-12  6  3     9.68     0.71
  15      1.14104756    -0.45704329  -130.29629599     0.00000000     0.00000001  0.14D-12  0.32D-13  6  2    10.30     0.71
  16      1.14104751    -0.45704329  -130.29629599    -0.00000000     0.00000001  0.33D-13  0.77D-14  6  4    10.92     0.71
  17      1.14104748    -0.45704330  -130.29629599    -0.00000000     0.00000001  0.43D-14  0.12D-14  6  5    11.57     0.71
  18      1.14104748    -0.45704330  -130.29629599     0.00000000     0.00000000  0.48D-15  0.33D-15  6  6    12.22     0.71
  19      1.14104749    -0.45704330  -130.29629599     0.00000000    -0.00000000  0.65D-16  0.43D-16  6  1    12.85     0.71
  20      1.14104749    -0.45704329  -130.29629599     0.00000000    -0.00000000  0.34D-17  0.10D-16  6  3    13.47     0.71
  21      1.14104749    -0.45704329  -130.29629599     0.00000000    -0.00000000  0.53D-18  0.22D-17  6  4    14.14     0.71
  22      1.14104749    -0.45704329  -130.29629599     0.00000000    -0.00000000  0.20D-19  0.78D-18  6  2    14.78     0.71
  23      1.14104749    -0.45704329  -130.29629599    -0.00000000     0.00000000  0.32D-19  0.14D-18  6  4    15.43     0.71
  24      1.14104749    -0.45704329  -130.29629599     0.00000000    -0.00000000  0.35D-20  0.67D-20  6  5    16.08     0.71
  25      1.14104749    -0.45704329  -130.29629599    -0.00000000     0.00000000  0.40D-21  0.56D-21  6  6    16.72     0.71
  26      1.14104749    -0.45704329  -130.29629599     0.00000000    -0.00000000  0.16D-21  0.64D-22  6  1    17.37     0.71
  27      1.14104749    -0.45704329  -130.29629599    -0.00000000    -0.00000000  0.60D-22  0.18D-22  6  3    17.99     0.71

 Norm of t1 vector:      0.07788768      S-energy:    -0.00000000      T1 diagnostic:  0.01589876
                                                                       D1 diagnostic:  0.04352975

 Doubles amplitudes (print threshold =  0.500E-01):

         I         J         SYM. A    SYM. B    A         B      T(IJ, AB)

         6         6         2         2         1         1     -0.13664252


 Total CPU time for triples:      7.79 sec


 RESULTS
 =======

  Reference energy                   -129.839252696884
  CCSD singlet pair energy             -0.313992958248
  CCSD triplet pair energy             -0.143050336539
  CCSD correlation energy              -0.457043294787

  Triples (T) contribution             -0.021325302377
  Total correlation energy             -0.478368597164

  CCSD total energy                  -130.296295991671
  CCSD[T] energy                     -130.318735621479
  CCSD-T energy                      -130.317202552268
 !CCSD(T) total energy               -130.317621294048

 Timing summary (sec):

 STEP                 CPU(USER)    SYS     CPU(TOT)    WALL
 Transformation          0.77      0.10      0.87      0.86
 CCSD iterations        17.22      2.08     19.30     19.30
 Triples                 7.79      0.27      8.06      8.07

 Program statistics:

 Available memory in ccsd:               994999756
 Min. memory needed in ccsd:                887758
 Max. memory used in ccsd:                 1088212
 Max. memory used in cckext:               1535578 (27 integral passes)



 **********************************************************************************************************************************
 DATASETS  * FILE   NREC   LENGTH (MB)   RECORD NAMES
              1      20      479.11       500      610      700      900      950      970     1000      129      960     1100   
                                          VAR    BASINP    GEOM    SYMINP    ZMAT    AOBASIS   BASIS     P2S    ABASIS      S 
                                         1400     1410     1200     1210     1080     1600     1650     1300     1700     1380   
                                           T        V       H0       H01     AOSYM     SMH    MOLCAS    ERIS     OPER     JKOP   

              2       4        3.13       700     1000      520     2100   
                                         GEOM     BASIS   MCVARS     RHF  

 PROGRAMS   *        TOTAL   CCSD(T)        HF       INT
 CPU TIMES  *        36.35     25.80      6.24      4.22
 REAL TIME  *        41.57 SEC
 DISK USED  *         1.33 GB      
 **********************************************************************************************************************************

 CCSD(T)/USERDEF energy=   -130.317621294048

        CCSD(T)         HF-SCF  
   -130.31762129   -129.83925270
 **********************************************************************************************************************************
 Molpro calculation terminated
 Variable memory released
