
 Primary working directories    : /tmp/r2666/235342.maple
 Secondary working directories  : /tmp/r2666/235342.maple
 Wavefunction directory         : /ddn/home4/r2666/wfu/
 Main file repository           : /tmp/r2666/235342.maple/

 SHA1      : d5ffa45e93fdbca01ffc919aa182cfdae0147319
 NAME      : 2015.1.35
 ARCHNAME  : linux/x86_64
 FC        : /opt/intel/composer_xe_2015.1.133/bin/intel64/ifort
 BLASLIB   : -Wl,-_start-group /opt/intel/mkl/lib/intel64/libmkl_intel_ilp64.a /opt/intel/mkl/lib/intel64/libmkl_intel_thread.a /opt/intel/mkl/lib/intel64/libmkl_core.a -Wl,-_end-group
 id        : olemiss

 Nodes     nprocs
 cn076        1

 Using customized tuning parameters: mindgm=1; mindgv=20; mindgc=4; mindgr=1; noblas=0; minvec=7
 default implementation of scratch files=df  

 ***,hno CCSD(T)/TZ-F12 QFF
 memory, 995, m;
 gthresh,energy=1.d-12,zero=1.d-22,oneint=1.d-22,twoint=1.d-22;
 gthresh,optgrad=1.d-8,optstep=1.d-8;
 nocompress;
 geomtyp=xyz
 bohr
 geometry={
 3
         68        68
 N        0.0000000000       -0.1697829235       -1.1648000114
 H        0.0000000000        1.6683818827       -1.9221098321
 O        0.0000000000        0.0431688307        1.1363202525
 }
 
 basis={
 default=aug-cc-pvtz
 s,C,8236.0,1235.0,280.8, 79.27,25.59, 8.997,3.319
 s,C,0.9059,0.3643,0.1285000
 p,C,56.0,18.71,4.133,0.2827,0.3827,0.1209
 d,C,30.0,10.0,3.3,1.097,0.318
 f,C,7.0,2.3,0.7610
 s,N,11420.0,1712.0,389.3,110.0,35.57,12.54,4.644
 s,N,1.293,0.5118,0.1787
 p,N,79.89,26.63,5.948,1.742,0.555,0.1725
 d,N,45.0,15.0,5.0,1.654,0.469
 f,N,9.9,3.3,1.093
 s,O,15330.0,2299.0,522.4,147.3,47.55,16.76,6.207
 s,O,1.752,0.6882,0.2384
 p,O,103.5,34.46,7.749,2.28,0.7156,0.214
 d,O,63.0,21.0,7.0,2.314,0.645
 f,O,12.9,4.3,1.428
 s,mg,164900.0,24710.0,5628.0,1596.0,521.0;
 s,mg,188.0,73.01,29.90,12.54,4.306,1.826;
 s,mg,0.7417,0.0761,0.145,0.033,0.0129;
 p,mg,950.70,316.90,74.86,23.72,8.669,3.363;
 p,mg,1.310,0.4911,0.2364,0.08733,0.03237,0.00745;
 d,mg,1.601,0.686,0.126,0.294,0.0468;
 f,mg,1.372,0.588,0.094,0.252;
 }
   {hf,maxit=500;accu,20;}
 {ccsd(t),nocheck,maxit=250;orbital,IGNORE_ERROR;}

 Variables initialized (889), CPU time= 0.01 sec
 Commands  initialized (702), CPU time= 0.01 sec, 572 directives.
 Default parameters read. Elapsed time= 0.04 sec

 Checking input...
 Passed
1


                                         ***  PROGRAM SYSTEM MOLPRO  ***
                                       Copyright, TTI GmbH Stuttgart, 2015
                                    Version 2015.1 linked Jul  9 2018 13:16:40


 **********************************************************************************************************************************
 LABEL *   hno CCSD(T)/TZ-F12 QFF                                                        
  64 bit serial version                                                                  DATE: 08-Feb-20          TIME: 17:58:11  
 **********************************************************************************************************************************

 SHA1:             d5ffa45e93fdbca01ffc919aa182cfdae0147319
 **********************************************************************************************************************************

 THRESHOLDS:

 ZERO    =  1.00D-22  ONEINT  =  1.00D-22  TWOINT  =  1.00D-22  PREFAC  =  1.00D-14  LOCALI  =  1.00D-09  EORDER  =  1.00D-04
 ENERGY  =  1.00D-12  ETEST   =  0.00D+00  EDENS   =  0.00D+00  THRDEDEF=  1.00D-06  GRADIENT=  1.00D-02  STEP    =  1.00D-03
 ORBITAL =  1.00D-05  CIVEC   =  1.00D-05  COEFF   =  1.00D-04  PRINTCI =  5.00D-02  PUNCHCI =  9.90D+01  OPTGRAD =  3.00D-04
 OPTENERG=  1.00D-06  OPTSTEP =  3.00D-04  THRGRAD =  1.00D-10  COMPRESS=  1.00D-11  VARMIN  =  1.00D-07  VARMAX  =  1.00D-03
 THRDOUB =  0.00D+00  THRDIV  =  1.00D-05  THRRED  =  1.00D-07  THRPSP  =  1.00D+00  THRDC   =  1.00D-10  THRCS   =  1.00D-10
 THRNRM  =  1.00D-08  THREQ   =  0.00D+00  THRDE   =  1.00D+00  THRREF  =  1.00D-05  SPARFAC =  1.00D+00  THRDLP  =  1.00D-07
 THRDIA  =  1.00D-10  THRDLS  =  1.00D-07  THRGPS  =  0.00D+00  THRKEX  =  0.00D+00  THRDIS  =  2.00D-01  THRVAR  =  1.00D-10
 THRLOC  =  1.00D-06  THRGAP  =  1.00D-06  THRLOCT = -1.00D+00  THRGAPT = -1.00D+00  THRORB  =  1.00D-06  THRMLTP =  0.00D+00
 THRCPQCI=  1.00D-10  KEXTA   =  0.00D+00  THRCOARS=  0.00D+00  SYMTOL  =  1.00D-06  GRADTOL =  1.00D-06  THROVL  =  1.00D-08
 THRORTH =  1.00D-08  GRID    =  1.00D-06  GRIDMAX =  1.00D-03  DTMAX   =  0.00D+00  THROCCDE=  1.00D-01  THROCCDE=  1.00D-01



 THRESHOLDS:

 ZERO    =  1.00D-22  ONEINT  =  1.00D-22  TWOINT  =  1.00D-22  PREFAC  =  1.00D-14  LOCALI  =  1.00D-09  EORDER  =  1.00D-04
 ENERGY  =  1.00D-12  ETEST   =  0.00D+00  EDENS   =  0.00D+00  THRDEDEF=  1.00D-06  GRADIENT=  1.00D-02  STEP    =  1.00D-03
 ORBITAL =  1.00D-05  CIVEC   =  1.00D-05  COEFF   =  1.00D-04  PRINTCI =  5.00D-02  PUNCHCI =  9.90D+01  OPTGRAD =  1.00D-08
 OPTENERG=  1.00D-06  OPTSTEP =  1.00D-08  THRGRAD =  1.00D-10  COMPRESS=  1.00D-11  VARMIN  =  1.00D-07  VARMAX  =  1.00D-03
 THRDOUB =  0.00D+00  THRDIV  =  1.00D-05  THRRED  =  1.00D-07  THRPSP  =  1.00D+00  THRDC   =  1.00D-10  THRCS   =  1.00D-10
 THRNRM  =  1.00D-08  THREQ   =  0.00D+00  THRDE   =  1.00D+00  THRREF  =  1.00D-05  SPARFAC =  1.00D+00  THRDLP  =  1.00D-07
 THRDIA  =  1.00D-10  THRDLS  =  1.00D-07  THRGPS  =  0.00D+00  THRKEX  =  0.00D+00  THRDIS  =  2.00D-01  THRVAR  =  1.00D-10
 THRLOC  =  1.00D-06  THRGAP  =  1.00D-06  THRLOCT = -1.00D+00  THRGAPT = -1.00D+00  THRORB  =  1.00D-06  THRMLTP =  0.00D+00
 THRCPQCI=  1.00D-10  KEXTA   =  0.00D+00  THRCOARS=  0.00D+00  SYMTOL  =  1.00D-06  GRADTOL =  1.00D-06  THROVL  =  1.00D-08
 THRORTH =  1.00D-08  GRID    =  1.00D-06  GRIDMAX =  1.00D-03  DTMAX   =  0.00D+00  THROCCDE=  1.00D-01  THROCCDE=  1.00D-01



 Input parameters for SORTINT:

 COMPRESS =    0.000000
 C_FINAL  =    1.000000
 DEBUG    =   -1.000000
 C_SORT1  =    0.000000
 C_SEWARD =    0.000000
 THRESH   =    0.000000
 IO       =  molpro                                                          
 SPRI     =    0.000000
 SETTING GEOMTYP        =    XYZ
 ZUNIT=BOHR
 

 Variable memory set to  995000000 words,  buffer space   230000 words

 SETTING BASIS          =    USERDEF


 Recomputing integrals since basis changed


 Using spherical harmonics

 Library entry H      S aug-cc-pVTZ          selected for orbital group  2
 Library entry H      P aug-cc-pVTZ          selected for orbital group  2
 Library entry H      D aug-cc-pVTZ          selected for orbital group  2


 PROGRAM * SEWARD (Integral evaluation for generally contracted gaussian basis sets)     Author: Roland Lindh, 1990

 Geometry written to block  1 of record 700


 Point group  Cs  



 ATOMIC COORDINATES

 NR  ATOM    CHARGE       X              Y              Z

   1  N       7.00    0.000000000   -0.169782923   -1.164800011
   2  H       1.00    0.000000000    1.668381883   -1.922109832
   3  O       8.00    0.000000000    0.043168831    1.136320253

 Bond lengths in Bohr (Angstrom)

 1-2  1.988056342  1-3  2.310952816
     ( 1.052034110)     ( 1.222903566)

 Bond angles

  2-1-3  107.10404219

 NUCLEAR CHARGE:                   16
 NUMBER OF PRIMITIVE AOS:         203
 NUMBER OF SYMMETRY AOS:          173
 NUMBER OF CONTRACTIONS:          171   ( 114A'  +  57A"  )
 NUMBER OF CORE ORBITALS:           2   (   2A'  +   0A"  )
 NUMBER OF VALENCE ORBITALS:        9   (   7A'  +   2A"  )


 NUCLEAR REPULSION ENERGY   30.06330826


 Eigenvalues of metric

         1 0.107E-02 0.263E-02 0.339E-02 0.643E-02 0.986E-02 0.137E-01 0.146E-01 0.233E-01
         2 0.366E-01 0.553E-01 0.712E-01 0.942E-01 0.132E+00 0.134E+00 0.140E+00 0.142E+00


 Contracted 2-electron integrals neglected if value below      1.0D-22

       46072146. INTEGRALS WRITTEN OUT IN   11251 BLOCKS ON RECORD 1290 OF FILE 1


 NUMBER OF SORTED TWO-ELECTRON INTEGRALS:   55360566.     BUFFER LENGTH:  32768
 NUMBER OF SEGMENTS:   4  SEGMENT LENGTH:   15997996      RECORD LENGTH: 524288

 Memory used in sort:      16.56 MW

 SORT1 READ    46072146. AND WROTE    46508827. INTEGRALS IN    135 RECORDS. CPU TIME:     0.67 SEC, REAL TIME:     1.01 SEC
 SORT2 READ    46508827. AND WROTE    55360566. INTEGRALS IN      4 RECORDS. CPU TIME:     0.62 SEC, REAL TIME:     0.84 SEC

 FILE SIZES:   FILE 1:   758.1 MBYTE,  FILE 4:   566.3 MBYTE,   TOTAL:   1324.3 MBYTE

 OPERATOR DM      FOR CENTER  0  COORDINATES:    0.000000    0.000000    0.000000


 **********************************************************************************************************************************
 DATASETS  * FILE   NREC   LENGTH (MB)   RECORD NAMES
              1      19      420.75       500      610      700      900      950      970     1000      129      960     1100   
                                          VAR    BASINP    GEOM    SYMINP    ZMAT    AOBASIS   BASIS     P2S    ABASIS      S 
                                         1400     1410     1200     1210     1080     1600     1650     1300     1700   
                                           T        V       H0       H01     AOSYM     SMH    MOLCAS    ERIS     OPER   

 PROGRAMS   *        TOTAL       INT
 CPU TIMES  *         3.95      3.86
 REAL TIME  *         5.40 SEC
 DISK USED  *         1.32 GB      
 **********************************************************************************************************************************


 PROGRAM * RHF-SCF (CLOSED SHELL)       Authors: W. Meyer, H.-J. Werner


 NUMBER OF ELECTRONS:       8+    8-
 CONVERGENCE THRESHOLDS:    1.00E-10 (Density)    1.00E-13 (Energy)
 MAX. NUMBER OF ITERATIONS:      500
 INTERPOLATION TYPE:            DIIS
 INTERPOLATION STEPS:              2 (START)      1 (STEP)
 LEVEL SHIFTS:                  0.00 (CLOSED)  0.00 (OPEN) 



 Orbital guess generated from atomic densities. Full valence occupancy:    9   2

 Molecular orbital dump at record        2100.2

 Initial occupancy:   7   1

 ITERATION    DDIFF          GRAD             ENERGY        2-EL.EN.            DIPOLE MOMENTS         DIIS   ORB.
    1      0.000D+00      0.000D+00      -129.78453281    153.520277    0.00000    0.56643   -1.05942    0    start
    2      0.000D+00      0.894D-02      -129.81088544    154.657459    0.00000    0.60756   -0.18217    1    diag
    3      0.372D-02      0.704D-02      -129.83641456    154.812686    0.00000    0.54901   -0.60076    2    diag
    4      0.149D-02      0.105D-02      -129.83722539    154.527941    0.00000    0.55729   -0.53614    3    diag
    5      0.336D-03      0.345D-03      -129.83735166    154.617002    0.00000    0.56322   -0.53821    4    diag
    6      0.155D-03      0.101D-03      -129.83737242    154.600675    0.00000    0.56369   -0.53381    5    diag
    7      0.613D-04      0.516D-04      -129.83737881    154.603063    0.00000    0.56498   -0.53108    6    diag
    8      0.421D-04      0.185D-04      -129.83737959    154.602153    0.00000    0.56503   -0.53005    7    diag
    9      0.158D-04      0.349D-05      -129.83737963    154.602027    0.00000    0.56498   -0.52984    8    diag
   10      0.331D-05      0.763D-06      -129.83737963    154.602014    0.00000    0.56494   -0.52982    9    orth
   11      0.908D-06      0.150D-06      -129.83737963    154.602010    0.00000    0.56493   -0.52981    9    diag
   12      0.212D-06      0.327D-07      -129.83737963    154.602009    0.00000    0.56493   -0.52981    9    diag
   13      0.527D-07      0.896D-08      -129.83737963    154.602009    0.00000    0.56493   -0.52981    9    diag
   14      0.123D-07      0.156D-08      -129.83737963    154.602009    0.00000    0.56493   -0.52981    9    diag
   15      0.140D-08      0.411D-09      -129.83737963    154.602009    0.00000    0.56493   -0.52981    9    diag
   16      0.345D-09      0.117D-09      -129.83737963    154.602009    0.00000    0.56493   -0.52981    9    diag
   17      0.648D-10      0.310D-10      -129.83737963    154.602009    0.00000    0.56493   -0.52981    0    orth

 Final occupancy:   7   1

 !RHF STATE 1.1 Energy               -129.837379629269
 Nuclear energy                        30.06330826
 One-electron energy                 -237.20169234
 Two-electron energy                   77.30100445
 Virial quotient                       -1.00203334
 !RHF STATE 1.1 Dipole moment           0.00000000     0.56492882    -0.52981248
 Dipole moment /Debye                   0.00000000     1.43581179    -1.34656081

 Orbital energies:

         1.1          2.1          3.1          4.1          5.1          6.1          7.1          8.1          9.1
    -20.652414   -15.713330    -1.516549    -0.995725    -0.740722    -0.659781    -0.433946     0.039589     0.192155

         1.2          2.2          3.2
     -0.587376     0.074140     0.238973

 HOMO      7.1    -0.433946 =     -11.8083eV
 LUMO      8.1     0.039589 =       1.0773eV
 LUMO-HOMO         0.473535 =      12.8856eV


 **********************************************************************************************************************************
 DATASETS  * FILE   NREC   LENGTH (MB)   RECORD NAMES
              1      19      420.75       500      610      700      900      950      970     1000      129      960     1100   
                                          VAR    BASINP    GEOM    SYMINP    ZMAT    AOBASIS   BASIS     P2S    ABASIS      S 
                                         1400     1410     1200     1210     1080     1600     1650     1300     1700   
                                           T        V       H0       H01     AOSYM     SMH    MOLCAS    ERIS     OPER   

              2       4        3.13       700     1000      520     2100   
                                         GEOM     BASIS   MCVARS     RHF  

 PROGRAMS   *        TOTAL        HF       INT
 CPU TIMES  *         8.13      4.18      3.86
 REAL TIME  *        10.52 SEC
 DISK USED  *         1.32 GB      
 **********************************************************************************************************************************


 PROGRAM * CCSD (Closed-shell coupled cluster)     Authors: C. Hampel, H.-J. Werner, 1991, M. Deegan, P.J. Knowles, 1992


 Convergence thresholds:  THRVAR = 1.00D-08  THRDEN = 1.00D-12

 CCSD(T)     terms to be evaluated (factor= 1.000)


 Number of core orbitals:           2 (   2   0 )
 Number of closed-shell orbitals:   6 (   5   1 )
 Number of external orbitals:     163 ( 107  56 )

 Molecular orbitals read from record     2100.2  Type=RHF/CANONICAL (state 1.1)

 Number of N-1 electron functions:               6
 Number of N-2 electron functions:              21
 Number of singly external CSFs:               591
 Number of doubly external CSFs:            250014
 Total number of CSFs:                      250606

 Length of J-op  integral file:               0.00 MB
 Length of K-op  integral file:               1.15 MB
 Length of 3-ext integral record:             0.00 MB

 Memory could be reduced to 19.93 Mwords without degradation in triples

 Integral transformation finished. Total CPU:   0.69 sec, npass=  1  Memory used:   5.10 MW

 Reference energy:                   -129.83737963

 MP2 singlet pair energy:              -0.28840592
 MP2 triplet pair energy:              -0.16821564
 MP2 correlation energy:               -0.45662156
 MP2 total energy:                   -130.29400119

 SCS-MP2 correlation energy:           -0.45075461   (PS=  1.200000  PT=  0.333333)
 SCS-MP2 total energy:               -130.28813424

 ITER.      SQ.NORM     CORR.ENERGY   TOTAL ENERGY   ENERGY CHANGE        DEN1      VAR(S)    VAR(P)  DIIS     TIME  TIME/IT
   1      1.12039369    -0.45817761  -130.29555724    -0.00155605     0.01584684  0.34D-02  0.33D-02  1  1     1.28     0.63
   2      1.13127745    -0.45796831  -130.29534794     0.00020931    -0.01288608  0.13D-03  0.52D-03  2  2     1.86     0.65
   3      1.13811946    -0.45835880  -130.29573843    -0.00039049    -0.00346113  0.47D-04  0.61D-04  3  3     2.44     0.65
   4      1.14115266    -0.45839315  -130.29577278    -0.00003435    -0.00098860  0.48D-05  0.10D-04  4  4     3.03     0.66
   5      1.14231876    -0.45842836  -130.29580799    -0.00003521    -0.00023886  0.14D-05  0.18D-05  5  5     3.60     0.66
   6      1.14273666    -0.45841112  -130.29579075     0.00001724    -0.00006981  0.12D-06  0.42D-06  6  6     4.22     0.66
   7      1.14280765    -0.45841277  -130.29579240    -0.00000164     0.00000952  0.16D-07  0.95D-07  6  1     4.81     0.66
   8      1.14284283    -0.45841214  -130.29579177     0.00000063    -0.00000502  0.46D-08  0.16D-07  6  2     5.37     0.66
   9      1.14284785    -0.45841201  -130.29579164     0.00000013     0.00000131  0.22D-08  0.18D-08  6  3     5.97     0.66
  10      1.14284849    -0.45841233  -130.29579196    -0.00000032    -0.00000039  0.51D-09  0.29D-09  6  4     6.54     0.66
  11      1.14284697    -0.45841248  -130.29579211    -0.00000014     0.00000036  0.13D-09  0.29D-10  6  5     7.14     0.66
  12      1.14284580    -0.45841263  -130.29579226    -0.00000016     0.00000048  0.16D-10  0.79D-11  6  6     7.73     0.67
  13      1.14284513    -0.45841265  -130.29579228    -0.00000002     0.00000012  0.57D-11  0.14D-11  6  1     8.33     0.67
  14      1.14284461    -0.45841268  -130.29579231    -0.00000003     0.00000012  0.51D-12  0.46D-12  6  3     8.91     0.67
  15      1.14284445    -0.45841268  -130.29579231     0.00000000     0.00000001  0.14D-12  0.34D-13  6  2     9.53     0.67
  16      1.14284439    -0.45841268  -130.29579231    -0.00000000     0.00000001  0.32D-13  0.79D-14  6  4    10.14     0.67
  17      1.14284436    -0.45841269  -130.29579232    -0.00000000     0.00000001  0.46D-14  0.13D-14  6  5    10.73     0.67
  18      1.14284436    -0.45841269  -130.29579232    -0.00000000     0.00000000  0.54D-15  0.36D-15  6  6    11.32     0.67
  19      1.14284436    -0.45841269  -130.29579232     0.00000000    -0.00000000  0.75D-16  0.54D-16  6  1    11.91     0.67
  20      1.14284437    -0.45841269  -130.29579232     0.00000000    -0.00000000  0.36D-17  0.14D-16  6  3    12.52     0.67
  21      1.14284437    -0.45841269  -130.29579232     0.00000000    -0.00000000  0.59D-18  0.31D-17  6  4    13.11     0.67
  22      1.14284437    -0.45841269  -130.29579232     0.00000000    -0.00000000  0.53D-19  0.11D-17  6  2    13.70     0.67
  23      1.14284437    -0.45841269  -130.29579232    -0.00000000     0.00000000  0.91D-19  0.20D-18  6  5    14.30     0.67
  24      1.14284437    -0.45841269  -130.29579232    -0.00000000     0.00000000  0.47D-20  0.18D-19  6  1    14.91     0.67
  25      1.14284437    -0.45841269  -130.29579232     0.00000000    -0.00000000  0.25D-20  0.13D-20  6  6    15.50     0.67

 Norm of t1 vector:      0.07929138      S-energy:     0.00000000      T1 diagnostic:  0.01618528
                                                                       D1 diagnostic:  0.04484932

 Doubles amplitudes (print threshold =  0.500E-01):

         I         J         SYM. A    SYM. B    A         B      T(IJ, AB)

         6         6         2         2         1         1     -0.14008754


 Total CPU time for triples:      7.60 sec


 RESULTS
 =======

  Reference energy                   -129.837379629269
  CCSD singlet pair energy             -0.315185847635
  CCSD triplet pair energy             -0.143226838192
  CCSD correlation energy              -0.458412685818

  Triples (T) contribution             -0.021655208211
  Total correlation energy             -0.480067894030

  CCSD total energy                  -130.295792315087
  CCSD[T] energy                     -130.318604973771
  CCSD-T energy                      -130.317018149367
 !CCSD(T) total energy               -130.317447523299

 Timing summary (sec):

 STEP                 CPU(USER)    SYS     CPU(TOT)    WALL
 Transformation          0.70      0.11      0.81      0.82
 CCSD iterations        14.80      1.90     16.70     16.71
 Triples                 7.60      0.21      7.81      7.81

 Program statistics:

 Available memory in ccsd:               994999756
 Min. memory needed in ccsd:                887758
 Max. memory used in ccsd:                 1088212
 Max. memory used in cckext:               1535578 (25 integral passes)



 **********************************************************************************************************************************
 DATASETS  * FILE   NREC   LENGTH (MB)   RECORD NAMES
              1      20      478.70       500      610      700      900      950      970     1000      129      960     1100   
                                          VAR    BASINP    GEOM    SYMINP    ZMAT    AOBASIS   BASIS     P2S    ABASIS      S 
                                         1400     1410     1200     1210     1080     1600     1650     1300     1700     1380   
                                           T        V       H0       H01     AOSYM     SMH    MOLCAS    ERIS     OPER     JKOP   

              2       4        3.13       700     1000      520     2100   
                                         GEOM     BASIS   MCVARS     RHF  

 PROGRAMS   *        TOTAL   CCSD(T)        HF       INT
 CPU TIMES  *        31.28     23.15      4.18      3.86
 REAL TIME  *        36.33 SEC
 DISK USED  *         1.32 GB      
 **********************************************************************************************************************************

 CCSD(T)/USERDEF energy=   -130.317447523299

        CCSD(T)         HF-SCF  
   -130.31744752   -129.83737963
 **********************************************************************************************************************************
 Molpro calculation terminated
 Variable memory released
