
 Primary working directories    : /tmp/r2666/235292.maple
 Secondary working directories  : /tmp/r2666/235292.maple
 Wavefunction directory         : /ddn/home4/r2666/wfu/
 Main file repository           : /tmp/r2666/235292.maple/

 SHA1      : d5ffa45e93fdbca01ffc919aa182cfdae0147319
 NAME      : 2015.1.35
 ARCHNAME  : linux/x86_64
 FC        : /opt/intel/composer_xe_2015.1.133/bin/intel64/ifort
 BLASLIB   : -Wl,-_start-group /opt/intel/mkl/lib/intel64/libmkl_intel_ilp64.a /opt/intel/mkl/lib/intel64/libmkl_intel_thread.a /opt/intel/mkl/lib/intel64/libmkl_core.a -Wl,-_end-group
 id        : olemiss

 Nodes     nprocs
 cn033        1

 Using customized tuning parameters: mindgm=1; mindgv=20; mindgc=4; mindgr=1; noblas=0; minvec=7
 default implementation of scratch files=df  

 ***,hno CCSD(T)/TZ-F12 QFF
 memory, 995, m;
 gthresh,energy=1.d-12,zero=1.d-22,oneint=1.d-22,twoint=1.d-22;
 gthresh,optgrad=1.d-8,optstep=1.d-8;
 nocompress;
 geomtyp=xyz
 bohr
 geometry={
 3
         18        18
 N        0.0000000000       -0.1493587874       -1.1537834650
 H        0.0000000000        1.6593532507       -1.9323387001
 O        0.0000000000        0.0317733267        1.1355325741
 }
 
 basis={
 default=aug-cc-pvtz
 s,C,8236.0,1235.0,280.8, 79.27,25.59, 8.997,3.319
 s,C,0.9059,0.3643,0.1285000
 p,C,56.0,18.71,4.133,0.2827,0.3827,0.1209
 d,C,30.0,10.0,3.3,1.097,0.318
 f,C,7.0,2.3,0.7610
 s,N,11420.0,1712.0,389.3,110.0,35.57,12.54,4.644
 s,N,1.293,0.5118,0.1787
 p,N,79.89,26.63,5.948,1.742,0.555,0.1725
 d,N,45.0,15.0,5.0,1.654,0.469
 f,N,9.9,3.3,1.093
 s,O,15330.0,2299.0,522.4,147.3,47.55,16.76,6.207
 s,O,1.752,0.6882,0.2384
 p,O,103.5,34.46,7.749,2.28,0.7156,0.214
 d,O,63.0,21.0,7.0,2.314,0.645
 f,O,12.9,4.3,1.428
 s,mg,164900.0,24710.0,5628.0,1596.0,521.0;
 s,mg,188.0,73.01,29.90,12.54,4.306,1.826;
 s,mg,0.7417,0.0761,0.145,0.033,0.0129;
 p,mg,950.70,316.90,74.86,23.72,8.669,3.363;
 p,mg,1.310,0.4911,0.2364,0.08733,0.03237,0.00745;
 d,mg,1.601,0.686,0.126,0.294,0.0468;
 f,mg,1.372,0.588,0.094,0.252;
 }
   {hf,maxit=500;accu,20;}
 {ccsd(t),nocheck,maxit=250;orbital,IGNORE_ERROR;}

 Variables initialized (889), CPU time= 0.01 sec
 Commands  initialized (702), CPU time= 0.00 sec, 572 directives.
 Default parameters read. Elapsed time= 0.06 sec

 Checking input...
 Passed
1


                                         ***  PROGRAM SYSTEM MOLPRO  ***
                                       Copyright, TTI GmbH Stuttgart, 2015
                                    Version 2015.1 linked Jul  9 2018 13:16:40


 **********************************************************************************************************************************
 LABEL *   hno CCSD(T)/TZ-F12 QFF                                                        
  64 bit serial version                                                                  DATE: 08-Feb-20          TIME: 17:57:28  
 **********************************************************************************************************************************

 SHA1:             d5ffa45e93fdbca01ffc919aa182cfdae0147319
 **********************************************************************************************************************************

 THRESHOLDS:

 ZERO    =  1.00D-22  ONEINT  =  1.00D-22  TWOINT  =  1.00D-22  PREFAC  =  1.00D-14  LOCALI  =  1.00D-09  EORDER  =  1.00D-04
 ENERGY  =  1.00D-12  ETEST   =  0.00D+00  EDENS   =  0.00D+00  THRDEDEF=  1.00D-06  GRADIENT=  1.00D-02  STEP    =  1.00D-03
 ORBITAL =  1.00D-05  CIVEC   =  1.00D-05  COEFF   =  1.00D-04  PRINTCI =  5.00D-02  PUNCHCI =  9.90D+01  OPTGRAD =  3.00D-04
 OPTENERG=  1.00D-06  OPTSTEP =  3.00D-04  THRGRAD =  1.00D-10  COMPRESS=  1.00D-11  VARMIN  =  1.00D-07  VARMAX  =  1.00D-03
 THRDOUB =  0.00D+00  THRDIV  =  1.00D-05  THRRED  =  1.00D-07  THRPSP  =  1.00D+00  THRDC   =  1.00D-10  THRCS   =  1.00D-10
 THRNRM  =  1.00D-08  THREQ   =  0.00D+00  THRDE   =  1.00D+00  THRREF  =  1.00D-05  SPARFAC =  1.00D+00  THRDLP  =  1.00D-07
 THRDIA  =  1.00D-10  THRDLS  =  1.00D-07  THRGPS  =  0.00D+00  THRKEX  =  0.00D+00  THRDIS  =  2.00D-01  THRVAR  =  1.00D-10
 THRLOC  =  1.00D-06  THRGAP  =  1.00D-06  THRLOCT = -1.00D+00  THRGAPT = -1.00D+00  THRORB  =  1.00D-06  THRMLTP =  0.00D+00
 THRCPQCI=  1.00D-10  KEXTA   =  0.00D+00  THRCOARS=  0.00D+00  SYMTOL  =  1.00D-06  GRADTOL =  1.00D-06  THROVL  =  1.00D-08
 THRORTH =  1.00D-08  GRID    =  1.00D-06  GRIDMAX =  1.00D-03  DTMAX   =  0.00D+00  THROCCDE=  1.00D-01  THROCCDE=  1.00D-01



 THRESHOLDS:

 ZERO    =  1.00D-22  ONEINT  =  1.00D-22  TWOINT  =  1.00D-22  PREFAC  =  1.00D-14  LOCALI  =  1.00D-09  EORDER  =  1.00D-04
 ENERGY  =  1.00D-12  ETEST   =  0.00D+00  EDENS   =  0.00D+00  THRDEDEF=  1.00D-06  GRADIENT=  1.00D-02  STEP    =  1.00D-03
 ORBITAL =  1.00D-05  CIVEC   =  1.00D-05  COEFF   =  1.00D-04  PRINTCI =  5.00D-02  PUNCHCI =  9.90D+01  OPTGRAD =  1.00D-08
 OPTENERG=  1.00D-06  OPTSTEP =  1.00D-08  THRGRAD =  1.00D-10  COMPRESS=  1.00D-11  VARMIN  =  1.00D-07  VARMAX  =  1.00D-03
 THRDOUB =  0.00D+00  THRDIV  =  1.00D-05  THRRED  =  1.00D-07  THRPSP  =  1.00D+00  THRDC   =  1.00D-10  THRCS   =  1.00D-10
 THRNRM  =  1.00D-08  THREQ   =  0.00D+00  THRDE   =  1.00D+00  THRREF  =  1.00D-05  SPARFAC =  1.00D+00  THRDLP  =  1.00D-07
 THRDIA  =  1.00D-10  THRDLS  =  1.00D-07  THRGPS  =  0.00D+00  THRKEX  =  0.00D+00  THRDIS  =  2.00D-01  THRVAR  =  1.00D-10
 THRLOC  =  1.00D-06  THRGAP  =  1.00D-06  THRLOCT = -1.00D+00  THRGAPT = -1.00D+00  THRORB  =  1.00D-06  THRMLTP =  0.00D+00
 THRCPQCI=  1.00D-10  KEXTA   =  0.00D+00  THRCOARS=  0.00D+00  SYMTOL  =  1.00D-06  GRADTOL =  1.00D-06  THROVL  =  1.00D-08
 THRORTH =  1.00D-08  GRID    =  1.00D-06  GRIDMAX =  1.00D-03  DTMAX   =  0.00D+00  THROCCDE=  1.00D-01  THROCCDE=  1.00D-01



 Input parameters for SORTINT:

 COMPRESS =    0.000000
 C_FINAL  =    1.000000
 DEBUG    =   -1.000000
 C_SORT1  =    0.000000
 C_SEWARD =    0.000000
 THRESH   =    0.000000
 IO       =  molpro                                                          
 SPRI     =    0.000000
 SETTING GEOMTYP        =    XYZ
 ZUNIT=BOHR
 

 Variable memory set to  995000000 words,  buffer space   230000 words

 SETTING BASIS          =    USERDEF


 Recomputing integrals since basis changed


 Using spherical harmonics

 Library entry H      S aug-cc-pVTZ          selected for orbital group  2
 Library entry H      P aug-cc-pVTZ          selected for orbital group  2
 Library entry H      D aug-cc-pVTZ          selected for orbital group  2


 PROGRAM * SEWARD (Integral evaluation for generally contracted gaussian basis sets)     Author: Roland Lindh, 1990

 Geometry written to block  1 of record 700


 Point group  Cs  



 ATOMIC COORDINATES

 NR  ATOM    CHARGE       X              Y              Z

   1  N       7.00    0.000000000   -0.149358787   -1.153783465
   2  H       1.00    0.000000000    1.659353251   -1.932338700
   3  O       8.00    0.000000000    0.031773327    1.135532574

 Bond lengths in Bohr (Angstrom)

 1-2  1.969159082  1-3  2.296470503
     ( 1.042034111)     ( 1.215239856)

 Bond angles

  2-1-3  108.76547739

 NUCLEAR CHARGE:                   16
 NUMBER OF PRIMITIVE AOS:         203
 NUMBER OF SYMMETRY AOS:          173
 NUMBER OF CONTRACTIONS:          171   ( 114A'  +  57A"  )
 NUMBER OF CORE ORBITALS:           2   (   2A'  +   0A"  )
 NUMBER OF VALENCE ORBITALS:        9   (   7A'  +   2A"  )


 NUCLEAR REPULSION ENERGY   30.24363162


 Eigenvalues of metric

         1 0.103E-02 0.254E-02 0.333E-02 0.633E-02 0.952E-02 0.136E-01 0.145E-01 0.228E-01
         2 0.352E-01 0.540E-01 0.694E-01 0.942E-01 0.131E+00 0.134E+00 0.139E+00 0.142E+00


 Contracted 2-electron integrals neglected if value below      1.0D-22

       46106969. INTEGRALS WRITTEN OUT IN   11260 BLOCKS ON RECORD 1290 OF FILE 1


 NUMBER OF SORTED TWO-ELECTRON INTEGRALS:   55360566.     BUFFER LENGTH:  32768
 NUMBER OF SEGMENTS:   4  SEGMENT LENGTH:   15997996      RECORD LENGTH: 524288

 Memory used in sort:      16.56 MW

 SORT1 READ    46106969. AND WROTE    46543976. INTEGRALS IN    135 RECORDS. CPU TIME:     1.30 SEC, REAL TIME:     1.65 SEC
 SORT2 READ    46543976. AND WROTE    55360566. INTEGRALS IN      4 RECORDS. CPU TIME:     0.77 SEC, REAL TIME:     1.01 SEC

 FILE SIZES:   FILE 1:   758.7 MBYTE,  FILE 4:   566.3 MBYTE,   TOTAL:   1324.9 MBYTE

 OPERATOR DM      FOR CENTER  0  COORDINATES:    0.000000    0.000000    0.000000


 **********************************************************************************************************************************
 DATASETS  * FILE   NREC   LENGTH (MB)   RECORD NAMES
              1      19      420.98       500      610      700      900      950      970     1000      129      960     1100   
                                          VAR    BASINP    GEOM    SYMINP    ZMAT    AOBASIS   BASIS     P2S    ABASIS      S 
                                         1400     1410     1200     1210     1080     1600     1650     1300     1700   
                                           T        V       H0       H01     AOSYM     SMH    MOLCAS    ERIS     OPER   

 PROGRAMS   *        TOTAL       INT
 CPU TIMES  *         5.62      5.53
 REAL TIME  *         7.33 SEC
 DISK USED  *         1.33 GB      
 **********************************************************************************************************************************


 PROGRAM * RHF-SCF (CLOSED SHELL)       Authors: W. Meyer, H.-J. Werner


 NUMBER OF ELECTRONS:       8+    8-
 CONVERGENCE THRESHOLDS:    1.00E-10 (Density)    1.00E-13 (Energy)
 MAX. NUMBER OF ITERATIONS:      500
 INTERPOLATION TYPE:            DIIS
 INTERPOLATION STEPS:              2 (START)      1 (STEP)
 LEVEL SHIFTS:                  0.00 (CLOSED)  0.00 (OPEN) 



 Orbital guess generated from atomic densities. Full valence occupancy:    9   2

 Molecular orbital dump at record        2100.2

 Initial occupancy:   7   1

 ITERATION    DDIFF          GRAD             ENERGY        2-EL.EN.            DIPOLE MOMENTS         DIIS   ORB.
    1      0.000D+00      0.000D+00      -129.78791708    153.841330    0.00000    0.58434   -1.03677    0    start
    2      0.000D+00      0.881D-02      -129.81458264    154.992630    0.00000    0.60274   -0.19851    1    diag
    3      0.370D-02      0.677D-02      -129.83807707    155.131364    0.00000    0.55570   -0.59731    2    diag
    4      0.144D-02      0.105D-02      -129.83887550    154.852627    0.00000    0.56341   -0.53346    3    diag
    5      0.336D-03      0.339D-03      -129.83899643    154.940681    0.00000    0.56934   -0.53573    4    diag
    6      0.154D-03      0.987D-04      -129.83901605    154.924647    0.00000    0.56988   -0.53151    5    diag
    7      0.607D-04      0.500D-04      -129.83902197    154.927055    0.00000    0.57117   -0.52891    6    diag
    8      0.415D-04      0.175D-04      -129.83902265    154.926207    0.00000    0.57122   -0.52794    7    diag
    9      0.149D-04      0.328D-05      -129.83902268    154.926090    0.00000    0.57117   -0.52775    8    diag
   10      0.307D-05      0.739D-06      -129.83902268    154.926077    0.00000    0.57113   -0.52773    9    orth
   11      0.894D-06      0.145D-06      -129.83902268    154.926073    0.00000    0.57112   -0.52772    9    diag
   12      0.207D-06      0.305D-07      -129.83902268    154.926072    0.00000    0.57112   -0.52772    9    diag
   13      0.500D-07      0.819D-08      -129.83902268    154.926072    0.00000    0.57112   -0.52772    9    diag
   14      0.116D-07      0.144D-08      -129.83902268    154.926072    0.00000    0.57112   -0.52772    9    diag
   15      0.139D-08      0.380D-09      -129.83902268    154.926072    0.00000    0.57112   -0.52772    9    diag
   16      0.327D-09      0.109D-09      -129.83902268    154.926072    0.00000    0.57112   -0.52772    9    diag
   17      0.625D-10      0.279D-10      -129.83902268    154.926072    0.00000    0.57112   -0.52772    0    orth

 Final occupancy:   7   1

 !RHF STATE 1.1 Energy               -129.839022680043
 Nuclear energy                        30.24363162
 One-electron energy                 -237.54569028
 Two-electron energy                   77.46303597
 Virial quotient                       -1.00174251
 !RHF STATE 1.1 Dipole moment           0.00000000     0.57111899    -0.52772159
 Dipole moment /Debye                   0.00000000     1.45154460    -1.34124665

 Orbital energies:

         1.1          2.1          3.1          4.1          5.1          6.1          7.1          8.1          9.1
    -20.651919   -15.710381    -1.521960    -0.997523    -0.744074    -0.662248    -0.431138     0.039594     0.193273

         1.2          2.2          3.2
     -0.590566     0.076386     0.239437

 HOMO      7.1    -0.431138 =     -11.7319eV
 LUMO      8.1     0.039594 =       1.0774eV
 LUMO-HOMO         0.470733 =      12.8093eV


 **********************************************************************************************************************************
 DATASETS  * FILE   NREC   LENGTH (MB)   RECORD NAMES
              1      19      420.98       500      610      700      900      950      970     1000      129      960     1100   
                                          VAR    BASINP    GEOM    SYMINP    ZMAT    AOBASIS   BASIS     P2S    ABASIS      S 
                                         1400     1410     1200     1210     1080     1600     1650     1300     1700   
                                           T        V       H0       H01     AOSYM     SMH    MOLCAS    ERIS     OPER   

              2       4        3.13       700     1000      520     2100   
                                         GEOM     BASIS   MCVARS     RHF  

 PROGRAMS   *        TOTAL        HF       INT
 CPU TIMES  *        10.65      5.03      5.53
 REAL TIME  *        13.57 SEC
 DISK USED  *         1.33 GB      
 **********************************************************************************************************************************


 PROGRAM * CCSD (Closed-shell coupled cluster)     Authors: C. Hampel, H.-J. Werner, 1991, M. Deegan, P.J. Knowles, 1992


 Convergence thresholds:  THRVAR = 1.00D-08  THRDEN = 1.00D-12

 CCSD(T)     terms to be evaluated (factor= 1.000)


 Number of core orbitals:           2 (   2   0 )
 Number of closed-shell orbitals:   6 (   5   1 )
 Number of external orbitals:     163 ( 107  56 )

 Molecular orbitals read from record     2100.2  Type=RHF/CANONICAL (state 1.1)

 Number of N-1 electron functions:               6
 Number of N-2 electron functions:              21
 Number of singly external CSFs:               591
 Number of doubly external CSFs:            250014
 Total number of CSFs:                      250606

 Length of J-op  integral file:               0.00 MB
 Length of K-op  integral file:               1.15 MB
 Length of 3-ext integral record:             0.00 MB

 Memory could be reduced to 19.93 Mwords without degradation in triples

 Integral transformation finished. Total CPU:   0.88 sec, npass=  1  Memory used:   5.10 MW

 Reference energy:                   -129.83902268

 MP2 singlet pair energy:              -0.28738720
 MP2 triplet pair energy:              -0.16754918
 MP2 correlation energy:               -0.45493638
 MP2 total energy:                   -130.29395906

 SCS-MP2 correlation energy:           -0.44911746   (PS=  1.200000  PT=  0.333333)
 SCS-MP2 total energy:               -130.28814014

 ITER.      SQ.NORM     CORR.ENERGY   TOTAL ENERGY   ENERGY CHANGE        DEN1      VAR(S)    VAR(P)  DIIS     TIME  TIME/IT
   1      1.11926608    -0.45681976  -130.29584244    -0.00188337     0.01511680  0.33D-02  0.31D-02  1  1     1.69     0.86
   2      1.12991466    -0.45668080  -130.29570348     0.00013895    -0.01264640  0.12D-03  0.50D-03  2  2     2.52     0.88
   3      1.13657145    -0.45705798  -130.29608066    -0.00037718    -0.00339291  0.45D-04  0.59D-04  3  3     3.34     0.89
   4      1.13951272    -0.45709175  -130.29611443    -0.00003377    -0.00096182  0.45D-05  0.10D-04  4  4     4.17     0.89
   5      1.14063023    -0.45712491  -130.29614759    -0.00003316    -0.00022820  0.13D-05  0.18D-05  5  5     5.00     0.89
   6      1.14103781    -0.45710853  -130.29613121     0.00001638    -0.00006764  0.11D-06  0.44D-06  6  6     5.82     0.89
   7      1.14111009    -0.45711026  -130.29613294    -0.00000174     0.00000907  0.15D-07  0.98D-07  6  1     6.59     0.90
   8      1.14114509    -0.45710980  -130.29613248     0.00000046    -0.00000480  0.51D-08  0.15D-07  6  2     7.39     0.90
   9      1.14115020    -0.45710969  -130.29613237     0.00000011     0.00000111  0.23D-08  0.18D-08  6  3     8.21     0.90
  10      1.14115065    -0.45711003  -130.29613271    -0.00000033    -0.00000030  0.53D-09  0.28D-09  6  4     9.06     0.90
  11      1.14114911    -0.45711017  -130.29613285    -0.00000014     0.00000035  0.13D-09  0.28D-10  6  5     9.88     0.90
  12      1.14114794    -0.45711032  -130.29613300    -0.00000015     0.00000048  0.16D-10  0.78D-11  6  6    10.68     0.90
  13      1.14114728    -0.45711034  -130.29613302    -0.00000002     0.00000012  0.58D-11  0.14D-11  6  1    11.49     0.90
  14      1.14114676    -0.45711037  -130.29613305    -0.00000003     0.00000012  0.53D-12  0.46D-12  6  3    12.28     0.90
  15      1.14114659    -0.45711037  -130.29613305     0.00000000     0.00000001  0.13D-12  0.33D-13  6  2    13.11     0.90
  16      1.14114654    -0.45711037  -130.29613305    -0.00000000     0.00000001  0.32D-13  0.77D-14  6  4    13.90     0.90
  17      1.14114652    -0.45711038  -130.29613306    -0.00000000     0.00000001  0.43D-14  0.12D-14  6  5    14.72     0.90
  18      1.14114651    -0.45711038  -130.29613306     0.00000000     0.00000000  0.50D-15  0.33D-15  6  6    15.52     0.90
  19      1.14114652    -0.45711037  -130.29613305     0.00000000    -0.00000000  0.68D-16  0.45D-16  6  1    16.32     0.90
  20      1.14114652    -0.45711037  -130.29613305     0.00000000    -0.00000000  0.34D-17  0.11D-16  6  3    17.18     0.90
  21      1.14114652    -0.45711037  -130.29613305     0.00000000    -0.00000000  0.56D-18  0.23D-17  6  4    18.02     0.90
  22      1.14114652    -0.45711037  -130.29613305     0.00000000    -0.00000000  0.38D-19  0.83D-18  6  2    18.82     0.90
  23      1.14114652    -0.45711037  -130.29613305    -0.00000000     0.00000000  0.77D-19  0.17D-18  6  5    19.65     0.90
  24      1.14114652    -0.45711037  -130.29613305    -0.00000000     0.00000000  0.51D-20  0.15D-19  6  1    20.47     0.90
  25      1.14114652    -0.45711037  -130.29613305     0.00000000    -0.00000000  0.25D-20  0.11D-20  6  6    21.33     0.91

 Norm of t1 vector:      0.07805173      S-energy:     0.00000000      T1 diagnostic:  0.01593224
                                                                       D1 diagnostic:  0.04396168

 Doubles amplitudes (print threshold =  0.500E-01):

         I         J         SYM. A    SYM. B    A         B      T(IJ, AB)

         6         6         2         2         1         1     -0.13763954


 Total CPU time for triples:      8.43 sec


 RESULTS
 =======

  Reference energy                   -129.839022680043
  CCSD singlet pair energy             -0.314058219256
  CCSD triplet pair energy             -0.143052155479
  CCSD correlation energy              -0.457110374728

  Triples (T) contribution             -0.021362827978
  Total correlation energy             -0.478473202706

  CCSD total energy                  -130.296133054771
  CCSD[T] energy                     -130.318616246991
  CCSD-T energy                      -130.317076979661
 !CCSD(T) total energy               -130.317495882750

 Timing summary (sec):

 STEP                 CPU(USER)    SYS     CPU(TOT)    WALL
 Transformation          0.89      0.16      1.05      1.04
 CCSD iterations        20.46      2.18     22.64     22.65
 Triples                 8.43      0.29      8.72      8.73

 Program statistics:

 Available memory in ccsd:               994999756
 Min. memory needed in ccsd:                887758
 Max. memory used in ccsd:                 1088212
 Max. memory used in cckext:               1535578 (25 integral passes)



 **********************************************************************************************************************************
 DATASETS  * FILE   NREC   LENGTH (MB)   RECORD NAMES
              1      20      478.94       500      610      700      900      950      970     1000      129      960     1100   
                                          VAR    BASINP    GEOM    SYMINP    ZMAT    AOBASIS   BASIS     P2S    ABASIS      S 
                                         1400     1410     1200     1210     1080     1600     1650     1300     1700     1380   
                                           T        V       H0       H01     AOSYM     SMH    MOLCAS    ERIS     OPER     JKOP   

              2       4        3.13       700     1000      520     2100   
                                         GEOM     BASIS   MCVARS     RHF  

 PROGRAMS   *        TOTAL   CCSD(T)        HF       INT
 CPU TIMES  *        40.47     29.81      5.03      5.53
 REAL TIME  *        46.04 SEC
 DISK USED  *         1.33 GB      
 **********************************************************************************************************************************

 CCSD(T)/USERDEF energy=   -130.317495882750

        CCSD(T)         HF-SCF  
   -130.31749588   -129.83902268
 **********************************************************************************************************************************
 Molpro calculation terminated
 Variable memory released
