
 Primary working directories    : /tmp/r2666/235355.maple
 Secondary working directories  : /tmp/r2666/235355.maple
 Wavefunction directory         : /ddn/home4/r2666/wfu/
 Main file repository           : /tmp/r2666/235355.maple/

 SHA1      : d5ffa45e93fdbca01ffc919aa182cfdae0147319
 NAME      : 2015.1.35
 ARCHNAME  : linux/x86_64
 FC        : /opt/intel/composer_xe_2015.1.133/bin/intel64/ifort
 BLASLIB   : -Wl,-_start-group /opt/intel/mkl/lib/intel64/libmkl_intel_ilp64.a /opt/intel/mkl/lib/intel64/libmkl_intel_thread.a /opt/intel/mkl/lib/intel64/libmkl_core.a -Wl,-_end-group
 id        : olemiss

 Nodes     nprocs
 cn035        1

 Using customized tuning parameters: mindgm=1; mindgv=20; mindgc=4; mindgr=1; noblas=0; minvec=7
 default implementation of scratch files=df  

 ***,hno CCSD(T)/TZ-F12 QFF
 memory, 995, m;
 gthresh,energy=1.d-12,zero=1.d-22,oneint=1.d-22,twoint=1.d-22;
 gthresh,optgrad=1.d-8,optstep=1.d-8;
 nocompress;
 geomtyp=xyz
 bohr
 geometry={
 3
         81        81
 N        0.0000000000       -0.1645388011       -1.1639097818
 H        0.0000000000        1.6694412937       -1.9312982306
 O        0.0000000000        0.0368652973        1.1446184214
 }
 
 basis={
 default=aug-cc-pvtz
 s,C,8236.0,1235.0,280.8, 79.27,25.59, 8.997,3.319
 s,C,0.9059,0.3643,0.1285000
 p,C,56.0,18.71,4.133,0.2827,0.3827,0.1209
 d,C,30.0,10.0,3.3,1.097,0.318
 f,C,7.0,2.3,0.7610
 s,N,11420.0,1712.0,389.3,110.0,35.57,12.54,4.644
 s,N,1.293,0.5118,0.1787
 p,N,79.89,26.63,5.948,1.742,0.555,0.1725
 d,N,45.0,15.0,5.0,1.654,0.469
 f,N,9.9,3.3,1.093
 s,O,15330.0,2299.0,522.4,147.3,47.55,16.76,6.207
 s,O,1.752,0.6882,0.2384
 p,O,103.5,34.46,7.749,2.28,0.7156,0.214
 d,O,63.0,21.0,7.0,2.314,0.645
 f,O,12.9,4.3,1.428
 s,mg,164900.0,24710.0,5628.0,1596.0,521.0;
 s,mg,188.0,73.01,29.90,12.54,4.306,1.826;
 s,mg,0.7417,0.0761,0.145,0.033,0.0129;
 p,mg,950.70,316.90,74.86,23.72,8.669,3.363;
 p,mg,1.310,0.4911,0.2364,0.08733,0.03237,0.00745;
 d,mg,1.601,0.686,0.126,0.294,0.0468;
 f,mg,1.372,0.588,0.094,0.252;
 }
   {hf,maxit=500;accu,20;}
 {ccsd(t),nocheck,maxit=250;orbital,IGNORE_ERROR;}

 Variables initialized (889), CPU time= 0.00 sec
 Commands  initialized (702), CPU time= 0.01 sec, 572 directives.
 Default parameters read. Elapsed time= 0.05 sec

 Checking input...
 Passed
1


                                         ***  PROGRAM SYSTEM MOLPRO  ***
                                       Copyright, TTI GmbH Stuttgart, 2015
                                    Version 2015.1 linked Jul  9 2018 13:16:40


 **********************************************************************************************************************************
 LABEL *   hno CCSD(T)/TZ-F12 QFF                                                        
  64 bit serial version                                                                  DATE: 08-Feb-20          TIME: 17:58:17  
 **********************************************************************************************************************************

 SHA1:             d5ffa45e93fdbca01ffc919aa182cfdae0147319
 **********************************************************************************************************************************

 THRESHOLDS:

 ZERO    =  1.00D-22  ONEINT  =  1.00D-22  TWOINT  =  1.00D-22  PREFAC  =  1.00D-14  LOCALI  =  1.00D-09  EORDER  =  1.00D-04
 ENERGY  =  1.00D-12  ETEST   =  0.00D+00  EDENS   =  0.00D+00  THRDEDEF=  1.00D-06  GRADIENT=  1.00D-02  STEP    =  1.00D-03
 ORBITAL =  1.00D-05  CIVEC   =  1.00D-05  COEFF   =  1.00D-04  PRINTCI =  5.00D-02  PUNCHCI =  9.90D+01  OPTGRAD =  3.00D-04
 OPTENERG=  1.00D-06  OPTSTEP =  3.00D-04  THRGRAD =  1.00D-10  COMPRESS=  1.00D-11  VARMIN  =  1.00D-07  VARMAX  =  1.00D-03
 THRDOUB =  0.00D+00  THRDIV  =  1.00D-05  THRRED  =  1.00D-07  THRPSP  =  1.00D+00  THRDC   =  1.00D-10  THRCS   =  1.00D-10
 THRNRM  =  1.00D-08  THREQ   =  0.00D+00  THRDE   =  1.00D+00  THRREF  =  1.00D-05  SPARFAC =  1.00D+00  THRDLP  =  1.00D-07
 THRDIA  =  1.00D-10  THRDLS  =  1.00D-07  THRGPS  =  0.00D+00  THRKEX  =  0.00D+00  THRDIS  =  2.00D-01  THRVAR  =  1.00D-10
 THRLOC  =  1.00D-06  THRGAP  =  1.00D-06  THRLOCT = -1.00D+00  THRGAPT = -1.00D+00  THRORB  =  1.00D-06  THRMLTP =  0.00D+00
 THRCPQCI=  1.00D-10  KEXTA   =  0.00D+00  THRCOARS=  0.00D+00  SYMTOL  =  1.00D-06  GRADTOL =  1.00D-06  THROVL  =  1.00D-08
 THRORTH =  1.00D-08  GRID    =  1.00D-06  GRIDMAX =  1.00D-03  DTMAX   =  0.00D+00  THROCCDE=  1.00D-01  THROCCDE=  1.00D-01



 THRESHOLDS:

 ZERO    =  1.00D-22  ONEINT  =  1.00D-22  TWOINT  =  1.00D-22  PREFAC  =  1.00D-14  LOCALI  =  1.00D-09  EORDER  =  1.00D-04
 ENERGY  =  1.00D-12  ETEST   =  0.00D+00  EDENS   =  0.00D+00  THRDEDEF=  1.00D-06  GRADIENT=  1.00D-02  STEP    =  1.00D-03
 ORBITAL =  1.00D-05  CIVEC   =  1.00D-05  COEFF   =  1.00D-04  PRINTCI =  5.00D-02  PUNCHCI =  9.90D+01  OPTGRAD =  1.00D-08
 OPTENERG=  1.00D-06  OPTSTEP =  1.00D-08  THRGRAD =  1.00D-10  COMPRESS=  1.00D-11  VARMIN  =  1.00D-07  VARMAX  =  1.00D-03
 THRDOUB =  0.00D+00  THRDIV  =  1.00D-05  THRRED  =  1.00D-07  THRPSP  =  1.00D+00  THRDC   =  1.00D-10  THRCS   =  1.00D-10
 THRNRM  =  1.00D-08  THREQ   =  0.00D+00  THRDE   =  1.00D+00  THRREF  =  1.00D-05  SPARFAC =  1.00D+00  THRDLP  =  1.00D-07
 THRDIA  =  1.00D-10  THRDLS  =  1.00D-07  THRGPS  =  0.00D+00  THRKEX  =  0.00D+00  THRDIS  =  2.00D-01  THRVAR  =  1.00D-10
 THRLOC  =  1.00D-06  THRGAP  =  1.00D-06  THRLOCT = -1.00D+00  THRGAPT = -1.00D+00  THRORB  =  1.00D-06  THRMLTP =  0.00D+00
 THRCPQCI=  1.00D-10  KEXTA   =  0.00D+00  THRCOARS=  0.00D+00  SYMTOL  =  1.00D-06  GRADTOL =  1.00D-06  THROVL  =  1.00D-08
 THRORTH =  1.00D-08  GRID    =  1.00D-06  GRIDMAX =  1.00D-03  DTMAX   =  0.00D+00  THROCCDE=  1.00D-01  THROCCDE=  1.00D-01



 Input parameters for SORTINT:

 COMPRESS =    0.000000
 C_FINAL  =    1.000000
 DEBUG    =   -1.000000
 C_SORT1  =    0.000000
 C_SEWARD =    0.000000
 THRESH   =    0.000000
 IO       =  molpro                                                          
 SPRI     =    0.000000
 SETTING GEOMTYP        =    XYZ
 ZUNIT=BOHR
 

 Variable memory set to  995000000 words,  buffer space   230000 words

 SETTING BASIS          =    USERDEF


 Recomputing integrals since basis changed


 Using spherical harmonics

 Library entry H      S aug-cc-pVTZ          selected for orbital group  2
 Library entry H      P aug-cc-pVTZ          selected for orbital group  2
 Library entry H      D aug-cc-pVTZ          selected for orbital group  2


 PROGRAM * SEWARD (Integral evaluation for generally contracted gaussian basis sets)     Author: Roland Lindh, 1990

 Geometry written to block  1 of record 700


 Point group  Cs  



 ATOMIC COORDINATES

 NR  ATOM    CHARGE       X              Y              Z

   1  N       7.00    0.000000000   -0.164538801   -1.163909782
   2  H       1.00    0.000000000    1.669441294   -1.931298231
   3  O       8.00    0.000000000    0.036865297    1.144618421

 Bond lengths in Bohr (Angstrom)

 1-2  1.988056342  1-3  2.317297149
     ( 1.052034110)     ( 1.226260842)

 Bond angles

  2-1-3  107.71973492

 NUCLEAR CHARGE:                   16
 NUMBER OF PRIMITIVE AOS:         203
 NUMBER OF SYMMETRY AOS:          173
 NUMBER OF CONTRACTIONS:          171   ( 114A'  +  57A"  )
 NUMBER OF CORE ORBITALS:           2   (   2A'  +   0A"  )
 NUMBER OF VALENCE ORBITALS:        9   (   7A'  +   2A"  )


 NUCLEAR REPULSION ENERGY   29.98442963


 Eigenvalues of metric

         1 0.107E-02 0.266E-02 0.341E-02 0.645E-02 0.986E-02 0.137E-01 0.147E-01 0.234E-01
         2 0.365E-01 0.557E-01 0.712E-01 0.943E-01 0.132E+00 0.134E+00 0.141E+00 0.142E+00


 Contracted 2-electron integrals neglected if value below      1.0D-22

       46048163. INTEGRALS WRITTEN OUT IN   11245 BLOCKS ON RECORD 1290 OF FILE 1


 NUMBER OF SORTED TWO-ELECTRON INTEGRALS:   55360566.     BUFFER LENGTH:  32768
 NUMBER OF SEGMENTS:   4  SEGMENT LENGTH:   15997996      RECORD LENGTH: 524288

 Memory used in sort:      16.56 MW

 SORT1 READ    46048163. AND WROTE    46484714. INTEGRALS IN    135 RECORDS. CPU TIME:     1.29 SEC, REAL TIME:     1.63 SEC
 SORT2 READ    46484714. AND WROTE    55360566. INTEGRALS IN      4 RECORDS. CPU TIME:     0.74 SEC, REAL TIME:     1.03 SEC

 FILE SIZES:   FILE 1:   757.7 MBYTE,  FILE 4:   566.3 MBYTE,   TOTAL:   1323.9 MBYTE

 OPERATOR DM      FOR CENTER  0  COORDINATES:    0.000000    0.000000    0.000000


 **********************************************************************************************************************************
 DATASETS  * FILE   NREC   LENGTH (MB)   RECORD NAMES
              1      19      420.59       500      610      700      900      950      970     1000      129      960     1100   
                                          VAR    BASINP    GEOM    SYMINP    ZMAT    AOBASIS   BASIS     P2S    ABASIS      S 
                                         1400     1410     1200     1210     1080     1600     1650     1300     1700   
                                           T        V       H0       H01     AOSYM     SMH    MOLCAS    ERIS     OPER   

 PROGRAMS   *        TOTAL       INT
 CPU TIMES  *         5.75      5.66
 REAL TIME  *         7.51 SEC
 DISK USED  *         1.32 GB      
 **********************************************************************************************************************************


 PROGRAM * RHF-SCF (CLOSED SHELL)       Authors: W. Meyer, H.-J. Werner


 NUMBER OF ELECTRONS:       8+    8-
 CONVERGENCE THRESHOLDS:    1.00E-10 (Density)    1.00E-13 (Energy)
 MAX. NUMBER OF ITERATIONS:      500
 INTERPOLATION TYPE:            DIIS
 INTERPOLATION STEPS:              2 (START)      1 (STEP)
 LEVEL SHIFTS:                  0.00 (CLOSED)  0.00 (OPEN) 



 Orbital guess generated from atomic densities. Full valence occupancy:    9   2

 Molecular orbital dump at record        2100.2

 Initial occupancy:   7   1

 ITERATION    DDIFF          GRAD             ENERGY        2-EL.EN.            DIPOLE MOMENTS         DIIS   ORB.
    1      0.000D+00      0.000D+00      -129.78347997    153.376795    0.00000    0.57339   -1.07186    0    start
    2      0.000D+00      0.897D-02      -129.80966051    154.508912    0.00000    0.60925   -0.18219    1    diag
    3      0.374D-02      0.711D-02      -129.83577035    154.671284    0.00000    0.55308   -0.60792    2    diag
    4      0.150D-02      0.106D-02      -129.83658939    154.383915    0.00000    0.56096   -0.54257    3    diag
    5      0.338D-03      0.346D-03      -129.83671662    154.473458    0.00000    0.56695   -0.54463    4    diag
    6      0.156D-03      0.102D-03      -129.83673753    154.457105    0.00000    0.56742   -0.54017    5    diag
    7      0.615D-04      0.519D-04      -129.83674401    154.459458    0.00000    0.56870   -0.53741    6    diag
    8      0.423D-04      0.188D-04      -129.83674483    154.458536    0.00000    0.56875   -0.53635    7    diag
    9      0.162D-04      0.357D-05      -129.83674487    154.458405    0.00000    0.56869   -0.53613    8    diag
   10      0.341D-05      0.779D-06      -129.83674487    154.458391    0.00000    0.56866   -0.53611    9    orth
   11      0.923D-06      0.153D-06      -129.83674487    154.458387    0.00000    0.56865   -0.53611    9    diag
   12      0.214D-06      0.336D-07      -129.83674487    154.458386    0.00000    0.56865   -0.53611    9    diag
   13      0.532D-07      0.931D-08      -129.83674487    154.458386    0.00000    0.56865   -0.53610    9    diag
   14      0.126D-07      0.164D-08      -129.83674487    154.458386    0.00000    0.56865   -0.53610    9    diag
   15      0.140D-08      0.435D-09      -129.83674487    154.458386    0.00000    0.56865   -0.53610    9    diag
   16      0.365D-09      0.127D-09      -129.83674487    154.458386    0.00000    0.56865   -0.53610    9    diag
   17      0.677D-10      0.347D-10      -129.83674487    154.458386    0.00000    0.56865   -0.53610    9    diag
   18      0.198D-10      0.116D-10      -129.83674487    154.458386    0.00000    0.56865   -0.53610    9    diag
   19      0.759D-11      0.278D-11      -129.83674487    154.458386    0.00000    0.56865   -0.53610    0    orth

 Final occupancy:   7   1

 !RHF STATE 1.1 Energy               -129.836744867765
 Nuclear energy                        29.98442963
 One-electron energy                 -237.05036754
 Two-electron energy                   77.22919305
 Virial quotient                       -1.00214355
 !RHF STATE 1.1 Dipole moment           0.00000000     0.56864563    -0.53610455
 Dipole moment /Debye                   0.00000000     1.44525835    -1.36255261

 Orbital energies:

         1.1          2.1          3.1          4.1          5.1          6.1          7.1          8.1          9.1
    -20.652864   -15.713782    -1.513561    -0.996878    -0.739693    -0.658927    -0.434532     0.039472     0.191936

         1.2          2.2          3.2
     -0.585753     0.072842     0.238921

 HOMO      7.1    -0.434532 =     -11.8242eV
 LUMO      8.1     0.039472 =       1.0741eV
 LUMO-HOMO         0.474004 =      12.8983eV


 **********************************************************************************************************************************
 DATASETS  * FILE   NREC   LENGTH (MB)   RECORD NAMES
              1      19      420.59       500      610      700      900      950      970     1000      129      960     1100   
                                          VAR    BASINP    GEOM    SYMINP    ZMAT    AOBASIS   BASIS     P2S    ABASIS      S 
                                         1400     1410     1200     1210     1080     1600     1650     1300     1700   
                                           T        V       H0       H01     AOSYM     SMH    MOLCAS    ERIS     OPER   

              2       4        3.13       700     1000      520     2100   
                                         GEOM     BASIS   MCVARS     RHF  

 PROGRAMS   *        TOTAL        HF       INT
 CPU TIMES  *        11.34      5.59      5.66
 REAL TIME  *        14.54 SEC
 DISK USED  *         1.32 GB      
 **********************************************************************************************************************************


 PROGRAM * CCSD (Closed-shell coupled cluster)     Authors: C. Hampel, H.-J. Werner, 1991, M. Deegan, P.J. Knowles, 1992


 Convergence thresholds:  THRVAR = 1.00D-08  THRDEN = 1.00D-12

 CCSD(T)     terms to be evaluated (factor= 1.000)


 Number of core orbitals:           2 (   2   0 )
 Number of closed-shell orbitals:   6 (   5   1 )
 Number of external orbitals:     163 ( 107  56 )

 Molecular orbitals read from record     2100.2  Type=RHF/CANONICAL (state 1.1)

 Number of N-1 electron functions:               6
 Number of N-2 electron functions:              21
 Number of singly external CSFs:               591
 Number of doubly external CSFs:            250014
 Total number of CSFs:                      250606

 Length of J-op  integral file:               0.00 MB
 Length of K-op  integral file:               1.15 MB
 Length of 3-ext integral record:             0.00 MB

 Memory could be reduced to 19.93 Mwords without degradation in triples

 Integral transformation finished. Total CPU:   0.87 sec, npass=  1  Memory used:   5.10 MW

 Reference energy:                   -129.83674487

 MP2 singlet pair energy:              -0.28875224
 MP2 triplet pair energy:              -0.16844607
 MP2 correlation energy:               -0.45719831
 MP2 total energy:                   -130.29394318

 SCS-MP2 correlation energy:           -0.45131358   (PS=  1.200000  PT=  0.333333)
 SCS-MP2 total energy:               -130.28805845

 ITER.      SQ.NORM     CORR.ENERGY   TOTAL ENERGY   ENERGY CHANGE        DEN1      VAR(S)    VAR(P)  DIIS     TIME  TIME/IT
   1      1.12077613    -0.45862476  -130.29536963    -0.00142645     0.01614469  0.34D-02  0.33D-02  1  1     1.70     0.87
   2      1.13175987    -0.45838202  -130.29512689     0.00024274    -0.01298346  0.13D-03  0.52D-03  2  2     2.53     0.90
   3      1.13868589    -0.45877907  -130.29552394    -0.00039705    -0.00348446  0.48D-04  0.62D-04  3  3     3.37     0.91
   4      1.14177171    -0.45881349  -130.29555835    -0.00003442    -0.00100208  0.50D-05  0.11D-04  4  4     4.18     0.91
   5      1.14297181    -0.45884973  -130.29559460    -0.00003624    -0.00024505  0.14D-05  0.18D-05  5  5     5.02     0.91
   6      1.14340110    -0.45883199  -130.29557685     0.00001774    -0.00007156  0.13D-06  0.43D-06  6  6     5.85     0.91
   7      1.14347340    -0.45883367  -130.29557854    -0.00000169     0.00000974  0.17D-07  0.98D-07  6  1     6.68     0.92
   8      1.14350923    -0.45883301  -130.29557788     0.00000067    -0.00000516  0.47D-08  0.16D-07  6  2     7.52     0.92
   9      1.14351444    -0.45883287  -130.29557773     0.00000014     0.00000135  0.22D-08  0.19D-08  6  3     8.38     0.92
  10      1.14351510    -0.45883320  -130.29557807    -0.00000033    -0.00000040  0.54D-09  0.31D-09  6  4     9.21     0.92
  11      1.14351355    -0.45883335  -130.29557821    -0.00000015     0.00000036  0.13D-09  0.31D-10  6  5    10.02     0.92
  12      1.14351234    -0.45883351  -130.29557838    -0.00000016     0.00000049  0.17D-10  0.83D-11  6  6    10.87     0.92
  13      1.14351164    -0.45883353  -130.29557840    -0.00000002     0.00000013  0.60D-11  0.15D-11  6  1    11.69     0.92
  14      1.14351110    -0.45883356  -130.29557843    -0.00000003     0.00000013  0.53D-12  0.49D-12  6  3    12.54     0.92
  15      1.14351093    -0.45883356  -130.29557843     0.00000000     0.00000001  0.14D-12  0.36D-13  6  2    13.41     0.92
  16      1.14351087    -0.45883356  -130.29557843    -0.00000000     0.00000001  0.33D-13  0.84D-14  6  4    14.20     0.92
  17      1.14351084    -0.45883356  -130.29557843    -0.00000000     0.00000001  0.49D-14  0.13D-14  6  5    15.03     0.92
  18      1.14351084    -0.45883356  -130.29557843    -0.00000000     0.00000000  0.58D-15  0.38D-15  6  6    15.89     0.92
  19      1.14351084    -0.45883356  -130.29557843     0.00000000    -0.00000000  0.82D-16  0.58D-16  6  1    16.75     0.92
  20      1.14351084    -0.45883356  -130.29557843     0.00000000    -0.00000000  0.40D-17  0.15D-16  6  3    17.58     0.92
  21      1.14351084    -0.45883356  -130.29557843     0.00000000    -0.00000000  0.65D-18  0.33D-17  6  4    18.40     0.92
  22      1.14351084    -0.45883356  -130.29557843     0.00000000    -0.00000000  0.68D-19  0.12D-17  6  2    19.20     0.93
  23      1.14351084    -0.45883356  -130.29557843    -0.00000000     0.00000000  0.11D-18  0.21D-18  6  5    20.06     0.93
  24      1.14351084    -0.45883356  -130.29557843    -0.00000000     0.00000000  0.50D-20  0.20D-19  6  1    20.91     0.93
  25      1.14351084    -0.45883356  -130.29557843     0.00000000    -0.00000000  0.27D-20  0.14D-20  6  6    21.75     0.93

 Norm of t1 vector:      0.08004820      S-energy:     0.00000000      T1 diagnostic:  0.01633977
                                                                       D1 diagnostic:  0.04536669

 Doubles amplitudes (print threshold =  0.500E-01):

         I         J         SYM. A    SYM. B    A         B      T(IJ, AB)

         6         6         2         2         1         1     -0.14102025


 Total CPU time for triples:      7.99 sec


 RESULTS
 =======

  Reference energy                   -129.836744867765
  CCSD singlet pair energy             -0.315558713348
  CCSD triplet pair energy             -0.143274850826
  CCSD correlation energy              -0.458833564172

  Triples (T) contribution             -0.021767672150
  Total correlation energy             -0.480601236322

  CCSD total energy                  -130.295578431937
  CCSD[T] energy                     -130.318523099190
  CCSD-T energy                      -130.316912041914
 !CCSD(T) total energy               -130.317346104087

 Timing summary (sec):

 STEP                 CPU(USER)    SYS     CPU(TOT)    WALL
 Transformation          0.88      0.19      1.07      1.07
 CCSD iterations        20.88      2.30     23.18     23.18
 Triples                 7.99      0.23      8.22      8.23

 Program statistics:

 Available memory in ccsd:               994999756
 Min. memory needed in ccsd:                887758
 Max. memory used in ccsd:                 1088212
 Max. memory used in cckext:               1535578 (25 integral passes)



 **********************************************************************************************************************************
 DATASETS  * FILE   NREC   LENGTH (MB)   RECORD NAMES
              1      20      478.54       500      610      700      900      950      970     1000      129      960     1100   
                                          VAR    BASINP    GEOM    SYMINP    ZMAT    AOBASIS   BASIS     P2S    ABASIS      S 
                                         1400     1410     1200     1210     1080     1600     1650     1300     1700     1380   
                                           T        V       H0       H01     AOSYM     SMH    MOLCAS    ERIS     OPER     JKOP   

              2       4        3.13       700     1000      520     2100   
                                         GEOM     BASIS   MCVARS     RHF  

 PROGRAMS   *        TOTAL   CCSD(T)        HF       INT
 CPU TIMES  *        41.12     29.78      5.59      5.66
 REAL TIME  *        47.07 SEC
 DISK USED  *         1.32 GB      
 **********************************************************************************************************************************

 CCSD(T)/USERDEF energy=   -130.317346104087

        CCSD(T)         HF-SCF  
   -130.31734610   -129.83674487
 **********************************************************************************************************************************
 Molpro calculation terminated
 Variable memory released
