
 Primary working directories    : /tmp/r2666/235304.maple
 Secondary working directories  : /tmp/r2666/235304.maple
 Wavefunction directory         : /ddn/home4/r2666/wfu/
 Main file repository           : /tmp/r2666/235304.maple/

 SHA1      : d5ffa45e93fdbca01ffc919aa182cfdae0147319
 NAME      : 2015.1.35
 ARCHNAME  : linux/x86_64
 FC        : /opt/intel/composer_xe_2015.1.133/bin/intel64/ifort
 BLASLIB   : -Wl,-_start-group /opt/intel/mkl/lib/intel64/libmkl_intel_ilp64.a /opt/intel/mkl/lib/intel64/libmkl_intel_thread.a /opt/intel/mkl/lib/intel64/libmkl_core.a -Wl,-_end-group
 id        : olemiss

 Nodes     nprocs
 cn034        1

 Using customized tuning parameters: mindgm=1; mindgv=20; mindgc=4; mindgr=1; noblas=0; minvec=7
 default implementation of scratch files=df  

 ***,hno CCSD(T)/TZ-F12 QFF
 memory, 995, m;
 gthresh,energy=1.d-12,zero=1.d-22,oneint=1.d-22,twoint=1.d-22;
 gthresh,optgrad=1.d-8,optstep=1.d-8;
 nocompress;
 geomtyp=xyz
 bohr
 geometry={
 3
         30        30
 N        0.0000000000       -0.1470778689       -1.1325740764
 H        0.0000000000        1.6610286493       -1.9360909072
 O        0.0000000000        0.0278170095        1.1180753925
 }
 
 basis={
 default=aug-cc-pvtz
 s,C,8236.0,1235.0,280.8, 79.27,25.59, 8.997,3.319
 s,C,0.9059,0.3643,0.1285000
 p,C,56.0,18.71,4.133,0.2827,0.3827,0.1209
 d,C,30.0,10.0,3.3,1.097,0.318
 f,C,7.0,2.3,0.7610
 s,N,11420.0,1712.0,389.3,110.0,35.57,12.54,4.644
 s,N,1.293,0.5118,0.1787
 p,N,79.89,26.63,5.948,1.742,0.555,0.1725
 d,N,45.0,15.0,5.0,1.654,0.469
 f,N,9.9,3.3,1.093
 s,O,15330.0,2299.0,522.4,147.3,47.55,16.76,6.207
 s,O,1.752,0.6882,0.2384
 p,O,103.5,34.46,7.749,2.28,0.7156,0.214
 d,O,63.0,21.0,7.0,2.314,0.645
 f,O,12.9,4.3,1.428
 s,mg,164900.0,24710.0,5628.0,1596.0,521.0;
 s,mg,188.0,73.01,29.90,12.54,4.306,1.826;
 s,mg,0.7417,0.0761,0.145,0.033,0.0129;
 p,mg,950.70,316.90,74.86,23.72,8.669,3.363;
 p,mg,1.310,0.4911,0.2364,0.08733,0.03237,0.00745;
 d,mg,1.601,0.686,0.126,0.294,0.0468;
 f,mg,1.372,0.588,0.094,0.252;
 }
   {hf,maxit=500;accu,20;}
 {ccsd(t),nocheck,maxit=250;orbital,IGNORE_ERROR;}

 Variables initialized (889), CPU time= 0.00 sec
 Commands  initialized (702), CPU time= 0.01 sec, 572 directives.
 Default parameters read. Elapsed time= 0.05 sec

 Checking input...
 Passed
1


                                         ***  PROGRAM SYSTEM MOLPRO  ***
                                       Copyright, TTI GmbH Stuttgart, 2015
                                    Version 2015.1 linked Jul  9 2018 13:16:40


 **********************************************************************************************************************************
 LABEL *   hno CCSD(T)/TZ-F12 QFF                                                        
  64 bit serial version                                                                  DATE: 08-Feb-20          TIME: 17:57:29  
 **********************************************************************************************************************************

 SHA1:             d5ffa45e93fdbca01ffc919aa182cfdae0147319
 **********************************************************************************************************************************

 THRESHOLDS:

 ZERO    =  1.00D-22  ONEINT  =  1.00D-22  TWOINT  =  1.00D-22  PREFAC  =  1.00D-14  LOCALI  =  1.00D-09  EORDER  =  1.00D-04
 ENERGY  =  1.00D-12  ETEST   =  0.00D+00  EDENS   =  0.00D+00  THRDEDEF=  1.00D-06  GRADIENT=  1.00D-02  STEP    =  1.00D-03
 ORBITAL =  1.00D-05  CIVEC   =  1.00D-05  COEFF   =  1.00D-04  PRINTCI =  5.00D-02  PUNCHCI =  9.90D+01  OPTGRAD =  3.00D-04
 OPTENERG=  1.00D-06  OPTSTEP =  3.00D-04  THRGRAD =  1.00D-10  COMPRESS=  1.00D-11  VARMIN  =  1.00D-07  VARMAX  =  1.00D-03
 THRDOUB =  0.00D+00  THRDIV  =  1.00D-05  THRRED  =  1.00D-07  THRPSP  =  1.00D+00  THRDC   =  1.00D-10  THRCS   =  1.00D-10
 THRNRM  =  1.00D-08  THREQ   =  0.00D+00  THRDE   =  1.00D+00  THRREF  =  1.00D-05  SPARFAC =  1.00D+00  THRDLP  =  1.00D-07
 THRDIA  =  1.00D-10  THRDLS  =  1.00D-07  THRGPS  =  0.00D+00  THRKEX  =  0.00D+00  THRDIS  =  2.00D-01  THRVAR  =  1.00D-10
 THRLOC  =  1.00D-06  THRGAP  =  1.00D-06  THRLOCT = -1.00D+00  THRGAPT = -1.00D+00  THRORB  =  1.00D-06  THRMLTP =  0.00D+00
 THRCPQCI=  1.00D-10  KEXTA   =  0.00D+00  THRCOARS=  0.00D+00  SYMTOL  =  1.00D-06  GRADTOL =  1.00D-06  THROVL  =  1.00D-08
 THRORTH =  1.00D-08  GRID    =  1.00D-06  GRIDMAX =  1.00D-03  DTMAX   =  0.00D+00  THROCCDE=  1.00D-01  THROCCDE=  1.00D-01



 THRESHOLDS:

 ZERO    =  1.00D-22  ONEINT  =  1.00D-22  TWOINT  =  1.00D-22  PREFAC  =  1.00D-14  LOCALI  =  1.00D-09  EORDER  =  1.00D-04
 ENERGY  =  1.00D-12  ETEST   =  0.00D+00  EDENS   =  0.00D+00  THRDEDEF=  1.00D-06  GRADIENT=  1.00D-02  STEP    =  1.00D-03
 ORBITAL =  1.00D-05  CIVEC   =  1.00D-05  COEFF   =  1.00D-04  PRINTCI =  5.00D-02  PUNCHCI =  9.90D+01  OPTGRAD =  1.00D-08
 OPTENERG=  1.00D-06  OPTSTEP =  1.00D-08  THRGRAD =  1.00D-10  COMPRESS=  1.00D-11  VARMIN  =  1.00D-07  VARMAX  =  1.00D-03
 THRDOUB =  0.00D+00  THRDIV  =  1.00D-05  THRRED  =  1.00D-07  THRPSP  =  1.00D+00  THRDC   =  1.00D-10  THRCS   =  1.00D-10
 THRNRM  =  1.00D-08  THREQ   =  0.00D+00  THRDE   =  1.00D+00  THRREF  =  1.00D-05  SPARFAC =  1.00D+00  THRDLP  =  1.00D-07
 THRDIA  =  1.00D-10  THRDLS  =  1.00D-07  THRGPS  =  0.00D+00  THRKEX  =  0.00D+00  THRDIS  =  2.00D-01  THRVAR  =  1.00D-10
 THRLOC  =  1.00D-06  THRGAP  =  1.00D-06  THRLOCT = -1.00D+00  THRGAPT = -1.00D+00  THRORB  =  1.00D-06  THRMLTP =  0.00D+00
 THRCPQCI=  1.00D-10  KEXTA   =  0.00D+00  THRCOARS=  0.00D+00  SYMTOL  =  1.00D-06  GRADTOL =  1.00D-06  THROVL  =  1.00D-08
 THRORTH =  1.00D-08  GRID    =  1.00D-06  GRIDMAX =  1.00D-03  DTMAX   =  0.00D+00  THROCCDE=  1.00D-01  THROCCDE=  1.00D-01



 Input parameters for SORTINT:

 COMPRESS =    0.000000
 C_FINAL  =    1.000000
 DEBUG    =   -1.000000
 C_SORT1  =    0.000000
 C_SEWARD =    0.000000
 THRESH   =    0.000000
 IO       =  molpro                                                          
 SPRI     =    0.000000
 SETTING GEOMTYP        =    XYZ
 ZUNIT=BOHR
 

 Variable memory set to  995000000 words,  buffer space   230000 words

 SETTING BASIS          =    USERDEF


 Recomputing integrals since basis changed


 Using spherical harmonics

 Library entry H      S aug-cc-pVTZ          selected for orbital group  2
 Library entry H      P aug-cc-pVTZ          selected for orbital group  2
 Library entry H      D aug-cc-pVTZ          selected for orbital group  2


 PROGRAM * SEWARD (Integral evaluation for generally contracted gaussian basis sets)     Author: Roland Lindh, 1990

 Geometry written to block  1 of record 700


 Point group  Cs  



 ATOMIC COORDINATES

 NR  ATOM    CHARGE       X              Y              Z

   1  N       7.00    0.000000000   -0.147077869   -1.132574076
   2  H       1.00    0.000000000    1.661028649   -1.936090907
   3  O       8.00    0.000000000    0.027817009    1.118075392

 Bond lengths in Bohr (Angstrom)

 1-2  1.978607712  1-3  2.257434661
     ( 1.047034111)     ( 1.194582978)

 Bond angles

  2-1-3  109.51676495

 NUCLEAR CHARGE:                   16
 NUMBER OF PRIMITIVE AOS:         203
 NUMBER OF SYMMETRY AOS:          173
 NUMBER OF CONTRACTIONS:          171   ( 114A'  +  57A"  )
 NUMBER OF CORE ORBITALS:           2   (   2A'  +   0A"  )
 NUMBER OF VALENCE ORBITALS:        9   (   7A'  +   2A"  )


 NUCLEAR REPULSION ENERGY   30.65461310


 Eigenvalues of metric

         1 0.101E-02 0.237E-02 0.326E-02 0.626E-02 0.967E-02 0.136E-01 0.143E-01 0.226E-01
         2 0.355E-01 0.510E-01 0.683E-01 0.941E-01 0.130E+00 0.134E+00 0.140E+00 0.142E+00


 Contracted 2-electron integrals neglected if value below      1.0D-22

       46257647. INTEGRALS WRITTEN OUT IN   11297 BLOCKS ON RECORD 1290 OF FILE 1


 NUMBER OF SORTED TWO-ELECTRON INTEGRALS:   55360566.     BUFFER LENGTH:  32768
 NUMBER OF SEGMENTS:   4  SEGMENT LENGTH:   15997996      RECORD LENGTH: 524288

 Memory used in sort:      16.56 MW

 SORT1 READ    46257647. AND WROTE    46696176. INTEGRALS IN    136 RECORDS. CPU TIME:     1.29 SEC, REAL TIME:     1.63 SEC
 SORT2 READ    46696176. AND WROTE    55360566. INTEGRALS IN      4 RECORDS. CPU TIME:     0.73 SEC, REAL TIME:     1.01 SEC

 FILE SIZES:   FILE 1:   761.1 MBYTE,  FILE 4:   570.5 MBYTE,   TOTAL:   1331.5 MBYTE

 OPERATOR DM      FOR CENTER  0  COORDINATES:    0.000000    0.000000    0.000000


 **********************************************************************************************************************************
 DATASETS  * FILE   NREC   LENGTH (MB)   RECORD NAMES
              1      19      421.98       500      610      700      900      950      970     1000      129      960     1100   
                                          VAR    BASINP    GEOM    SYMINP    ZMAT    AOBASIS   BASIS     P2S    ABASIS      S 
                                         1400     1410     1200     1210     1080     1600     1650     1300     1700   
                                           T        V       H0       H01     AOSYM     SMH    MOLCAS    ERIS     OPER   

 PROGRAMS   *        TOTAL       INT
 CPU TIMES  *         5.59      5.50
 REAL TIME  *         7.32 SEC
 DISK USED  *         1.33 GB      
 **********************************************************************************************************************************


 PROGRAM * RHF-SCF (CLOSED SHELL)       Authors: W. Meyer, H.-J. Werner


 NUMBER OF ELECTRONS:       8+    8-
 CONVERGENCE THRESHOLDS:    1.00E-10 (Density)    1.00E-13 (Energy)
 MAX. NUMBER OF ITERATIONS:      500
 INTERPOLATION TYPE:            DIIS
 INTERPOLATION STEPS:              2 (START)      1 (STEP)
 LEVEL SHIFTS:                  0.00 (CLOSED)  0.00 (OPEN) 



 Orbital guess generated from atomic densities. Full valence occupancy:    9   2

 Molecular orbital dump at record        2100.2

 Initial occupancy:   7   1

 ITERATION    DDIFF          GRAD             ENERGY        2-EL.EN.            DIPOLE MOMENTS         DIIS   ORB.
    1      0.000D+00      0.000D+00      -129.79322892    154.570519    0.00000    0.57786   -0.97347    0    start
    2      0.000D+00      0.862D-02      -129.82044983    155.769011    0.00000    0.58922   -0.20973    1    diag
    3      0.359D-02      0.633D-02      -129.84078775    155.861304    0.00000    0.54699   -0.56955    2    diag
    4      0.135D-02      0.103D-02      -129.84154473    155.596876    0.00000    0.55480   -0.50919    3    diag
    5      0.328D-03      0.329D-03      -129.84165880    155.683716    0.00000    0.56086   -0.51192    4    diag
    6      0.151D-03      0.959D-04      -129.84167720    155.667897    0.00000    0.56152   -0.50806    5    diag
    7      0.601D-04      0.475D-04      -129.84168244    155.670537    0.00000    0.56288   -0.50575    6    diag
    8      0.404D-04      0.157D-04      -129.84168294    155.669783    0.00000    0.56294   -0.50494    7    diag
    9      0.131D-04      0.288D-05      -129.84168296    155.669682    0.00000    0.56289   -0.50477    8    diag
   10      0.256D-05      0.682D-06      -129.84168297    155.669668    0.00000    0.56286   -0.50475    9    orth
   11      0.825D-06      0.138D-06      -129.84168297    155.669664    0.00000    0.56285   -0.50474    9    diag
   12      0.199D-06      0.276D-07      -129.84168297    155.669663    0.00000    0.56285   -0.50474    9    diag
   13      0.474D-07      0.712D-08      -129.84168297    155.669663    0.00000    0.56285   -0.50474    9    diag
   14      0.107D-07      0.129D-08      -129.84168297    155.669663    0.00000    0.56285   -0.50474    9    diag
   15      0.150D-08      0.361D-09      -129.84168297    155.669663    0.00000    0.56285   -0.50474    9    diag
   16      0.327D-09      0.112D-09      -129.84168297    155.669663    0.00000    0.56285   -0.50474    9    diag
   17      0.871D-10      0.325D-10      -129.84168297    155.669663    0.00000    0.56285   -0.50474    9    diag
   18      0.294D-10      0.104D-10      -129.84168297    155.669663    0.00000    0.56285   -0.50474    9    diag
   19      0.108D-10      0.258D-11      -129.84168297    155.669663    0.00000    0.56285   -0.50474    9    fixocc
   20      0.250D-11      0.566D-12      -129.84168297    155.669663    0.00000    0.56285   -0.50474    9    orth
   21      0.368D-12      0.244D-12      -129.84168297    155.669663    0.00000    0.56285   -0.50474    9    diag
   22      0.147D-12      0.211D-12      -129.84168297    155.669663    0.00000    0.56285   -0.50474    9    diag
   23      0.768D-13      0.533D-12      -129.84168297    155.669663    0.00000    0.56285   -0.50474    9    diag
   24      0.620D-13      0.428D-12      -129.84168297    155.669663    0.00000    0.56285   -0.50474    9    diag
   25      0.158D-12      0.363D-12      -129.84168297    155.669663    0.00000    0.56285   -0.50474    9    diag
   26      0.156D-12      0.516D-12      -129.84168297    155.669663    0.00000    0.56285   -0.50474    0    orth

 Final occupancy:   7   1

 !RHF STATE 1.1 Energy               -129.841682965252
 Nuclear energy                        30.65461310
 One-electron energy                 -238.33112753
 Two-electron energy                   77.83483147
 Virial quotient                       -1.00119728
 !RHF STATE 1.1 Dipole moment           0.00000000     0.56284774    -0.50474170
 Dipole moment /Debye                   0.00000000     1.43052256    -1.28284140

 Orbital energies:

         1.1          2.1          3.1          4.1          5.1          6.1          7.1          8.1          9.1
    -20.650244   -15.707412    -1.538541    -0.991919    -0.749805    -0.668416    -0.423974     0.039811     0.193839

         1.2          2.2          3.2
     -0.600420     0.083463     0.240190

 HOMO      7.1    -0.423974 =     -11.5369eV
 LUMO      8.1     0.039811 =       1.0833eV
 LUMO-HOMO         0.463786 =      12.6203eV


 **********************************************************************************************************************************
 DATASETS  * FILE   NREC   LENGTH (MB)   RECORD NAMES
              1      19      421.98       500      610      700      900      950      970     1000      129      960     1100   
                                          VAR    BASINP    GEOM    SYMINP    ZMAT    AOBASIS   BASIS     P2S    ABASIS      S 
                                         1400     1410     1200     1210     1080     1600     1650     1300     1700   
                                           T        V       H0       H01     AOSYM     SMH    MOLCAS    ERIS     OPER   

              2       4        3.13       700     1000      520     2100   
                                         GEOM     BASIS   MCVARS     RHF  

 PROGRAMS   *        TOTAL        HF       INT
 CPU TIMES  *        13.17      7.58      5.50
 REAL TIME  *        16.68 SEC
 DISK USED  *         1.33 GB      
 **********************************************************************************************************************************


 PROGRAM * CCSD (Closed-shell coupled cluster)     Authors: C. Hampel, H.-J. Werner, 1991, M. Deegan, P.J. Knowles, 1992


 Convergence thresholds:  THRVAR = 1.00D-08  THRDEN = 1.00D-12

 CCSD(T)     terms to be evaluated (factor= 1.000)


 Number of core orbitals:           2 (   2   0 )
 Number of closed-shell orbitals:   6 (   5   1 )
 Number of external orbitals:     163 ( 107  56 )

 Molecular orbitals read from record     2100.2  Type=RHF/CANONICAL (state 1.1)

 Number of N-1 electron functions:               6
 Number of N-2 electron functions:              21
 Number of singly external CSFs:               591
 Number of doubly external CSFs:            250014
 Total number of CSFs:                      250606

 Length of J-op  integral file:               0.00 MB
 Length of K-op  integral file:               1.15 MB
 Length of 3-ext integral record:             0.00 MB

 Memory could be reduced to 19.93 Mwords without degradation in triples

 Integral transformation finished. Total CPU:   0.87 sec, npass=  1  Memory used:   5.10 MW

 Reference energy:                   -129.84168297

 MP2 singlet pair energy:              -0.28542228
 MP2 triplet pair energy:              -0.16624072
 MP2 correlation energy:               -0.45166300
 MP2 total energy:                   -130.29334597

 SCS-MP2 correlation energy:           -0.44594541   (PS=  1.200000  PT=  0.333333)
 SCS-MP2 total energy:               -130.28762838

 ITER.      SQ.NORM     CORR.ENERGY   TOTAL ENERGY   ENERGY CHANGE        DEN1      VAR(S)    VAR(P)  DIIS     TIME  TIME/IT
   1      1.11724099    -0.45429989  -130.29598285    -0.00263688     0.01353949  0.30D-02  0.29D-02  1  1     1.68     0.86
   2      1.12742184    -0.45432414  -130.29600711    -0.00002425    -0.01216244  0.11D-03  0.48D-03  2  2     2.50     0.88
   3      1.13371553    -0.45467875  -130.29636171    -0.00035461    -0.00327363  0.41D-04  0.54D-04  3  3     3.32     0.89
   4      1.13643758    -0.45470929  -130.29639225    -0.00003054    -0.00090483  0.40D-05  0.92D-05  4  4     4.14     0.90
   5      1.13744230    -0.45473907  -130.29642204    -0.00002979    -0.00020455  0.13D-05  0.17D-05  5  5     4.97     0.90
   6      1.13782202    -0.45472469  -130.29640766     0.00001438    -0.00006240  0.12D-06  0.44D-06  6  6     5.79     0.90
   7      1.13789696    -0.45472614  -130.29640911    -0.00000145     0.00000762  0.17D-07  0.91D-07  6  1     6.62     0.90
   8      1.13793110    -0.45472591  -130.29640887     0.00000023    -0.00000429  0.52D-08  0.13D-07  6  2     7.45     0.90
   9      1.13793662    -0.45472580  -130.29640877     0.00000011     0.00000065  0.22D-08  0.15D-08  6  3     8.28     0.90
  10      1.13793680    -0.45472613  -130.29640909    -0.00000033    -0.00000012  0.48D-09  0.23D-09  6  4     9.05     0.90
  11      1.13793528    -0.45472626  -130.29640923    -0.00000013     0.00000034  0.11D-09  0.23D-10  6  5     9.87     0.90
  12      1.13793414    -0.45472640  -130.29640937    -0.00000014     0.00000046  0.15D-10  0.71D-11  6  6    10.71     0.90
  13      1.13793352    -0.45472642  -130.29640938    -0.00000002     0.00000012  0.59D-11  0.13D-11  6  1    11.54     0.91
  14      1.13793302    -0.45472645  -130.29640941    -0.00000003     0.00000011  0.56D-12  0.41D-12  6  3    12.36     0.91
  15      1.13793288    -0.45472645  -130.29640941    -0.00000000     0.00000001  0.13D-12  0.28D-13  6  2    13.21     0.91
  16      1.13793283    -0.45472645  -130.29640941    -0.00000000     0.00000001  0.31D-13  0.70D-14  6  4    14.07     0.91
  17      1.13793281    -0.45472645  -130.29640941    -0.00000000     0.00000001  0.36D-14  0.11D-14  6  5    14.91     0.91
  18      1.13793281    -0.45472645  -130.29640941     0.00000000    -0.00000000  0.39D-15  0.29D-15  6  6    15.73     0.91
  19      1.13793282    -0.45472645  -130.29640941     0.00000000    -0.00000000  0.51D-16  0.31D-16  6  1    16.54     0.91
  20      1.13793282    -0.45472645  -130.29640941     0.00000000    -0.00000000  0.28D-17  0.65D-17  6  3    17.34     0.91
  21      1.13793282    -0.45472645  -130.29640941     0.00000000    -0.00000000  0.46D-18  0.13D-17  6  4    18.17     0.91
  22      1.13793282    -0.45472645  -130.29640941     0.00000000    -0.00000000  0.17D-19  0.43D-18  6  2    18.96     0.91
  23      1.13793282    -0.45472645  -130.29640941    -0.00000000     0.00000000  0.30D-19  0.10D-18  6  5    19.77     0.91
  24      1.13793282    -0.45472645  -130.29640941    -0.00000000     0.00000000  0.45D-20  0.98D-20  6  1    20.61     0.91
  25      1.13793282    -0.45472645  -130.29640941     0.00000000    -0.00000000  0.16D-20  0.65D-21  6  6    21.45     0.91

 Norm of t1 vector:      0.07530129      S-energy:     0.00000000      T1 diagnostic:  0.01537081
                                                                       D1 diagnostic:  0.04139986

 Doubles amplitudes (print threshold =  0.500E-01):

         I         J         SYM. A    SYM. B    A         B      T(IJ, AB)

         6         6         2         2         1         1     -0.13120728


 Total CPU time for triples:      6.82 sec


 RESULTS
 =======

  Reference energy                   -129.841682965252
  CCSD singlet pair energy             -0.311967450246
  CCSD triplet pair energy             -0.142758997459
  CCSD correlation energy              -0.454726447705

  Triples (T) contribution             -0.020773339369
  Total correlation energy             -0.475499787074

  CCSD total energy                  -130.296409412957
  CCSD[T] energy                     -130.318223159972
  CCSD-T energy                      -130.316784004702
 !CCSD(T) total energy               -130.317182752327

 Timing summary (sec):

 STEP                 CPU(USER)    SYS     CPU(TOT)    WALL
 Transformation          0.88      0.16      1.04      1.03
 CCSD iterations        20.58      2.20     22.78     22.78
 Triples                 6.82      0.24      7.06      7.08

 Program statistics:

 Available memory in ccsd:               994999756
 Min. memory needed in ccsd:                887758
 Max. memory used in ccsd:                 1088212
 Max. memory used in cckext:               1535578 (25 integral passes)



 **********************************************************************************************************************************
 DATASETS  * FILE   NREC   LENGTH (MB)   RECORD NAMES
              1      20      479.94       500      610      700      900      950      970     1000      129      960     1100   
                                          VAR    BASINP    GEOM    SYMINP    ZMAT    AOBASIS   BASIS     P2S    ABASIS      S 
                                         1400     1410     1200     1210     1080     1600     1650     1300     1700     1380   
                                           T        V       H0       H01     AOSYM     SMH    MOLCAS    ERIS     OPER     JKOP   

              2       4        3.13       700     1000      520     2100   
                                         GEOM     BASIS   MCVARS     RHF  

 PROGRAMS   *        TOTAL   CCSD(T)        HF       INT
 CPU TIMES  *        41.48     28.31      7.58      5.50
 REAL TIME  *        47.61 SEC
 DISK USED  *         1.33 GB      
 **********************************************************************************************************************************

 CCSD(T)/USERDEF energy=   -130.317182752327

        CCSD(T)         HF-SCF  
   -130.31718275   -129.84168297
 **********************************************************************************************************************************
 Molpro calculation terminated
 Variable memory released
