
 Primary working directories    : /tmp/r2666/235318.maple
 Secondary working directories  : /tmp/r2666/235318.maple
 Wavefunction directory         : /ddn/home4/r2666/wfu/
 Main file repository           : /tmp/r2666/235318.maple/

 SHA1      : d5ffa45e93fdbca01ffc919aa182cfdae0147319
 NAME      : 2015.1.35
 ARCHNAME  : linux/x86_64
 FC        : /opt/intel/composer_xe_2015.1.133/bin/intel64/ifort
 BLASLIB   : -Wl,-_start-group /opt/intel/mkl/lib/intel64/libmkl_intel_ilp64.a /opt/intel/mkl/lib/intel64/libmkl_intel_thread.a /opt/intel/mkl/lib/intel64/libmkl_core.a -Wl,-_end-group
 id        : olemiss

 Nodes     nprocs
 cn036        1

 Using customized tuning parameters: mindgm=1; mindgv=20; mindgc=4; mindgr=1; noblas=0; minvec=7
 default implementation of scratch files=df  

 ***,hno CCSD(T)/TZ-F12 QFF
 memory, 995, m;
 gthresh,energy=1.d-12,zero=1.d-22,oneint=1.d-22,twoint=1.d-22;
 gthresh,optgrad=1.d-8,optstep=1.d-8;
 nocompress;
 geomtyp=xyz
 bohr
 geometry={
 3
         44        44
 N        0.0000000000       -0.1563506460       -1.1600219139
 H        0.0000000000        1.6647929857       -1.9335362004
 O        0.0000000000        0.0333254503        1.1429685233
 }
 
 basis={
 default=aug-cc-pvtz
 s,C,8236.0,1235.0,280.8, 79.27,25.59, 8.997,3.319
 s,C,0.9059,0.3643,0.1285000
 p,C,56.0,18.71,4.133,0.2827,0.3827,0.1209
 d,C,30.0,10.0,3.3,1.097,0.318
 f,C,7.0,2.3,0.7610
 s,N,11420.0,1712.0,389.3,110.0,35.57,12.54,4.644
 s,N,1.293,0.5118,0.1787
 p,N,79.89,26.63,5.948,1.742,0.555,0.1725
 d,N,45.0,15.0,5.0,1.654,0.469
 f,N,9.9,3.3,1.093
 s,O,15330.0,2299.0,522.4,147.3,47.55,16.76,6.207
 s,O,1.752,0.6882,0.2384
 p,O,103.5,34.46,7.749,2.28,0.7156,0.214
 d,O,63.0,21.0,7.0,2.314,0.645
 f,O,12.9,4.3,1.428
 s,mg,164900.0,24710.0,5628.0,1596.0,521.0;
 s,mg,188.0,73.01,29.90,12.54,4.306,1.826;
 s,mg,0.7417,0.0761,0.145,0.033,0.0129;
 p,mg,950.70,316.90,74.86,23.72,8.669,3.363;
 p,mg,1.310,0.4911,0.2364,0.08733,0.03237,0.00745;
 d,mg,1.601,0.686,0.126,0.294,0.0468;
 f,mg,1.372,0.588,0.094,0.252;
 }
   {hf,maxit=500;accu,20;}
 {ccsd(t),nocheck,maxit=250;orbital,IGNORE_ERROR;}

 Variables initialized (889), CPU time= 0.00 sec
 Commands  initialized (702), CPU time= 0.00 sec, 572 directives.
 Default parameters read. Elapsed time= 0.05 sec

 Checking input...
 Passed
1


                                         ***  PROGRAM SYSTEM MOLPRO  ***
                                       Copyright, TTI GmbH Stuttgart, 2015
                                    Version 2015.1 linked Jul  9 2018 13:16:40


 **********************************************************************************************************************************
 LABEL *   hno CCSD(T)/TZ-F12 QFF                                                        
  64 bit serial version                                                                  DATE: 08-Feb-20          TIME: 17:57:30  
 **********************************************************************************************************************************

 SHA1:             d5ffa45e93fdbca01ffc919aa182cfdae0147319
 **********************************************************************************************************************************

 THRESHOLDS:

 ZERO    =  1.00D-22  ONEINT  =  1.00D-22  TWOINT  =  1.00D-22  PREFAC  =  1.00D-14  LOCALI  =  1.00D-09  EORDER  =  1.00D-04
 ENERGY  =  1.00D-12  ETEST   =  0.00D+00  EDENS   =  0.00D+00  THRDEDEF=  1.00D-06  GRADIENT=  1.00D-02  STEP    =  1.00D-03
 ORBITAL =  1.00D-05  CIVEC   =  1.00D-05  COEFF   =  1.00D-04  PRINTCI =  5.00D-02  PUNCHCI =  9.90D+01  OPTGRAD =  3.00D-04
 OPTENERG=  1.00D-06  OPTSTEP =  3.00D-04  THRGRAD =  1.00D-10  COMPRESS=  1.00D-11  VARMIN  =  1.00D-07  VARMAX  =  1.00D-03
 THRDOUB =  0.00D+00  THRDIV  =  1.00D-05  THRRED  =  1.00D-07  THRPSP  =  1.00D+00  THRDC   =  1.00D-10  THRCS   =  1.00D-10
 THRNRM  =  1.00D-08  THREQ   =  0.00D+00  THRDE   =  1.00D+00  THRREF  =  1.00D-05  SPARFAC =  1.00D+00  THRDLP  =  1.00D-07
 THRDIA  =  1.00D-10  THRDLS  =  1.00D-07  THRGPS  =  0.00D+00  THRKEX  =  0.00D+00  THRDIS  =  2.00D-01  THRVAR  =  1.00D-10
 THRLOC  =  1.00D-06  THRGAP  =  1.00D-06  THRLOCT = -1.00D+00  THRGAPT = -1.00D+00  THRORB  =  1.00D-06  THRMLTP =  0.00D+00
 THRCPQCI=  1.00D-10  KEXTA   =  0.00D+00  THRCOARS=  0.00D+00  SYMTOL  =  1.00D-06  GRADTOL =  1.00D-06  THROVL  =  1.00D-08
 THRORTH =  1.00D-08  GRID    =  1.00D-06  GRIDMAX =  1.00D-03  DTMAX   =  0.00D+00  THROCCDE=  1.00D-01  THROCCDE=  1.00D-01



 THRESHOLDS:

 ZERO    =  1.00D-22  ONEINT  =  1.00D-22  TWOINT  =  1.00D-22  PREFAC  =  1.00D-14  LOCALI  =  1.00D-09  EORDER  =  1.00D-04
 ENERGY  =  1.00D-12  ETEST   =  0.00D+00  EDENS   =  0.00D+00  THRDEDEF=  1.00D-06  GRADIENT=  1.00D-02  STEP    =  1.00D-03
 ORBITAL =  1.00D-05  CIVEC   =  1.00D-05  COEFF   =  1.00D-04  PRINTCI =  5.00D-02  PUNCHCI =  9.90D+01  OPTGRAD =  1.00D-08
 OPTENERG=  1.00D-06  OPTSTEP =  1.00D-08  THRGRAD =  1.00D-10  COMPRESS=  1.00D-11  VARMIN  =  1.00D-07  VARMAX  =  1.00D-03
 THRDOUB =  0.00D+00  THRDIV  =  1.00D-05  THRRED  =  1.00D-07  THRPSP  =  1.00D+00  THRDC   =  1.00D-10  THRCS   =  1.00D-10
 THRNRM  =  1.00D-08  THREQ   =  0.00D+00  THRDE   =  1.00D+00  THRREF  =  1.00D-05  SPARFAC =  1.00D+00  THRDLP  =  1.00D-07
 THRDIA  =  1.00D-10  THRDLS  =  1.00D-07  THRGPS  =  0.00D+00  THRKEX  =  0.00D+00  THRDIS  =  2.00D-01  THRVAR  =  1.00D-10
 THRLOC  =  1.00D-06  THRGAP  =  1.00D-06  THRLOCT = -1.00D+00  THRGAPT = -1.00D+00  THRORB  =  1.00D-06  THRMLTP =  0.00D+00
 THRCPQCI=  1.00D-10  KEXTA   =  0.00D+00  THRCOARS=  0.00D+00  SYMTOL  =  1.00D-06  GRADTOL =  1.00D-06  THROVL  =  1.00D-08
 THRORTH =  1.00D-08  GRID    =  1.00D-06  GRIDMAX =  1.00D-03  DTMAX   =  0.00D+00  THROCCDE=  1.00D-01  THROCCDE=  1.00D-01



 Input parameters for SORTINT:

 COMPRESS =    0.000000
 C_FINAL  =    1.000000
 DEBUG    =   -1.000000
 C_SORT1  =    0.000000
 C_SEWARD =    0.000000
 THRESH   =    0.000000
 IO       =  molpro                                                          
 SPRI     =    0.000000
 SETTING GEOMTYP        =    XYZ
 ZUNIT=BOHR
 

 Variable memory set to  995000000 words,  buffer space   230000 words

 SETTING BASIS          =    USERDEF


 Recomputing integrals since basis changed


 Using spherical harmonics

 Library entry H      S aug-cc-pVTZ          selected for orbital group  2
 Library entry H      P aug-cc-pVTZ          selected for orbital group  2
 Library entry H      D aug-cc-pVTZ          selected for orbital group  2


 PROGRAM * SEWARD (Integral evaluation for generally contracted gaussian basis sets)     Author: Roland Lindh, 1990

 Geometry written to block  1 of record 700


 Point group  Cs  



 ATOMIC COORDINATES

 NR  ATOM    CHARGE       X              Y              Z

   1  N       7.00    0.000000000   -0.156350646   -1.160021914
   2  H       1.00    0.000000000    1.664792986   -1.933536200
   3  O       8.00    0.000000000    0.033325450    1.142968523

 Bond lengths in Bohr (Angstrom)

 1-2  1.978607712  1-3  2.310788172
     ( 1.047034111)     ( 1.222816440)

 Bond angles

  2-1-3  108.30462087

 NUCLEAR CHARGE:                   16
 NUMBER OF PRIMITIVE AOS:         203
 NUMBER OF SYMMETRY AOS:          173
 NUMBER OF CONTRACTIONS:          171   ( 114A'  +  57A"  )
 NUMBER OF CORE ORBITALS:           2   (   2A'  +   0A"  )
 NUMBER OF VALENCE ORBITALS:        9   (   7A'  +   2A"  )


 NUCLEAR REPULSION ENERGY   30.06931441


 Eigenvalues of metric

         1 0.105E-02 0.262E-02 0.338E-02 0.640E-02 0.969E-02 0.137E-01 0.146E-01 0.231E-01
         2 0.359E-01 0.552E-01 0.705E-01 0.943E-01 0.132E+00 0.134E+00 0.140E+00 0.142E+00


 Contracted 2-electron integrals neglected if value below      1.0D-22

       46068491. INTEGRALS WRITTEN OUT IN   11250 BLOCKS ON RECORD 1290 OF FILE 1


 NUMBER OF SORTED TWO-ELECTRON INTEGRALS:   55360566.     BUFFER LENGTH:  32768
 NUMBER OF SEGMENTS:   4  SEGMENT LENGTH:   15997996      RECORD LENGTH: 524288

 Memory used in sort:      16.56 MW

 SORT1 READ    46068491. AND WROTE    46505135. INTEGRALS IN    135 RECORDS. CPU TIME:     1.32 SEC, REAL TIME:     1.64 SEC
 SORT2 READ    46505135. AND WROTE    55360566. INTEGRALS IN      4 RECORDS. CPU TIME:     0.78 SEC, REAL TIME:     1.03 SEC

 FILE SIZES:   FILE 1:   758.0 MBYTE,  FILE 4:   566.3 MBYTE,   TOTAL:   1324.3 MBYTE

 OPERATOR DM      FOR CENTER  0  COORDINATES:    0.000000    0.000000    0.000000


 **********************************************************************************************************************************
 DATASETS  * FILE   NREC   LENGTH (MB)   RECORD NAMES
              1      19      420.72       500      610      700      900      950      970     1000      129      960     1100   
                                          VAR    BASINP    GEOM    SYMINP    ZMAT    AOBASIS   BASIS     P2S    ABASIS      S 
                                         1400     1410     1200     1210     1080     1600     1650     1300     1700   
                                           T        V       H0       H01     AOSYM     SMH    MOLCAS    ERIS     OPER   

 PROGRAMS   *        TOTAL       INT
 CPU TIMES  *         5.69      5.61
 REAL TIME  *         7.36 SEC
 DISK USED  *         1.32 GB      
 **********************************************************************************************************************************


 PROGRAM * RHF-SCF (CLOSED SHELL)       Authors: W. Meyer, H.-J. Werner


 NUMBER OF ELECTRONS:       8+    8-
 CONVERGENCE THRESHOLDS:    1.00E-10 (Density)    1.00E-13 (Energy)
 MAX. NUMBER OF ITERATIONS:      500
 INTERPOLATION TYPE:            DIIS
 INTERPOLATION STEPS:              2 (START)      1 (STEP)
 LEVEL SHIFTS:                  0.00 (CLOSED)  0.00 (OPEN) 



 Orbital guess generated from atomic densities. Full valence occupancy:    9   2

 Molecular orbital dump at record        2100.2

 Initial occupancy:   7   1

 ITERATION    DDIFF          GRAD             ENERGY        2-EL.EN.            DIPOLE MOMENTS         DIIS   ORB.
    1      0.000D+00      0.000D+00      -129.78510213    153.528641    0.00000    0.58039   -1.06104    0    start
    2      0.000D+00      0.891D-02      -129.81145456    154.666451    0.00000    0.60709   -0.18934    1    diag
    3      0.373D-02      0.699D-02      -129.83659775    154.821560    0.00000    0.55557   -0.60580    2    diag
    4      0.148D-02      0.106D-02      -129.83741097    154.536973    0.00000    0.56329   -0.54081    3    diag
    5      0.338D-03      0.344D-03      -129.83753575    154.625975    0.00000    0.56925   -0.54295    4    diag
    6      0.155D-03      0.100D-03      -129.83755613    154.609760    0.00000    0.56975   -0.53858    5    diag
    7      0.611D-04      0.512D-04      -129.83756240    154.612120    0.00000    0.57103   -0.53587    6    diag
    8      0.420D-04      0.183D-04      -129.83756317    154.611226    0.00000    0.57108   -0.53484    7    diag
    9      0.157D-04      0.347D-05      -129.83756320    154.611100    0.00000    0.57102   -0.53463    8    diag
   10      0.329D-05      0.766D-06      -129.83756320    154.611086    0.00000    0.57099   -0.53461    9    orth
   11      0.916D-06      0.150D-06      -129.83756320    154.611082    0.00000    0.57098   -0.53461    9    diag
   12      0.212D-06      0.325D-07      -129.83756320    154.611082    0.00000    0.57098   -0.53460    9    diag
   13      0.520D-07      0.892D-08      -129.83756320    154.611081    0.00000    0.57098   -0.53460    9    diag
   14      0.122D-07      0.157D-08      -129.83756320    154.611081    0.00000    0.57098   -0.53460    9    diag
   15      0.139D-08      0.416D-09      -129.83756320    154.611081    0.00000    0.57098   -0.53460    9    diag
   16      0.352D-09      0.121D-09      -129.83756320    154.611081    0.00000    0.57098   -0.53460    9    diag
   17      0.646D-10      0.323D-10      -129.83756320    154.611081    0.00000    0.57098   -0.53460    0    orth

 Final occupancy:   7   1

 !RHF STATE 1.1 Energy               -129.837563200805
 Nuclear energy                        30.06931441
 One-electron energy                 -237.21241834
 Two-electron energy                   77.30554073
 Virial quotient                       -1.00200522
 !RHF STATE 1.1 Dipole moment           0.00000000     0.57097629    -0.53460443
 Dipole moment /Debye                   0.00000000     1.45118192    -1.35873992

 Orbital energies:

         1.1          2.1          3.1          4.1          5.1          6.1          7.1          8.1          9.1
    -20.652603   -15.712425    -1.516062    -0.997702    -0.741267    -0.660001    -0.433422     0.039496     0.192502

         1.2          2.2          3.2
     -0.587187     0.073881     0.239117

 HOMO      7.1    -0.433422 =     -11.7940eV
 LUMO      8.1     0.039496 =       1.0747eV
 LUMO-HOMO         0.472918 =      12.8688eV


 **********************************************************************************************************************************
 DATASETS  * FILE   NREC   LENGTH (MB)   RECORD NAMES
              1      19      420.72       500      610      700      900      950      970     1000      129      960     1100   
                                          VAR    BASINP    GEOM    SYMINP    ZMAT    AOBASIS   BASIS     P2S    ABASIS      S 
                                         1400     1410     1200     1210     1080     1600     1650     1300     1700   
                                           T        V       H0       H01     AOSYM     SMH    MOLCAS    ERIS     OPER   

              2       4        3.13       700     1000      520     2100   
                                         GEOM     BASIS   MCVARS     RHF  

 PROGRAMS   *        TOTAL        HF       INT
 CPU TIMES  *        10.98      5.29      5.61
 REAL TIME  *        13.90 SEC
 DISK USED  *         1.32 GB      
 **********************************************************************************************************************************


 PROGRAM * CCSD (Closed-shell coupled cluster)     Authors: C. Hampel, H.-J. Werner, 1991, M. Deegan, P.J. Knowles, 1992


 Convergence thresholds:  THRVAR = 1.00D-08  THRDEN = 1.00D-12

 CCSD(T)     terms to be evaluated (factor= 1.000)


 Number of core orbitals:           2 (   2   0 )
 Number of closed-shell orbitals:   6 (   5   1 )
 Number of external orbitals:     163 ( 107  56 )

 Molecular orbitals read from record     2100.2  Type=RHF/CANONICAL (state 1.1)

 Number of N-1 electron functions:               6
 Number of N-2 electron functions:              21
 Number of singly external CSFs:               591
 Number of doubly external CSFs:            250014
 Total number of CSFs:                      250606

 Length of J-op  integral file:               0.00 MB
 Length of K-op  integral file:               1.15 MB
 Length of 3-ext integral record:             0.00 MB

 Memory could be reduced to 19.93 Mwords without degradation in triples

 Integral transformation finished. Total CPU:   0.89 sec, npass=  1  Memory used:   5.10 MW

 Reference energy:                   -129.83756320

 MP2 singlet pair energy:              -0.28828003
 MP2 triplet pair energy:              -0.16813736
 MP2 correlation energy:               -0.45641739
 MP2 total energy:                   -130.29398059

 SCS-MP2 correlation energy:           -0.45055484   (PS=  1.200000  PT=  0.333333)
 SCS-MP2 total energy:               -130.28811804

 ITER.      SQ.NORM     CORR.ENERGY   TOTAL ENERGY   ENERGY CHANGE        DEN1      VAR(S)    VAR(P)  DIIS     TIME  TIME/IT
   1      1.12024613    -0.45799401  -130.29555721    -0.00157662     0.01580179  0.34D-02  0.33D-02  1  1     1.70     0.88
   2      1.13111634    -0.45778510  -130.29534830     0.00020892    -0.01286922  0.13D-03  0.52D-03  2  2     2.55     0.90
   3      1.13795118    -0.45817523  -130.29573843    -0.00039013    -0.00345214  0.47D-04  0.61D-04  3  3     3.40     0.91
   4      1.14099086    -0.45820951  -130.29577272    -0.00003429    -0.00098875  0.48D-05  0.10D-04  4  4     4.21     0.92
   5      1.14216471    -0.45824467  -130.29580787    -0.00003516    -0.00023957  0.14D-05  0.18D-05  5  5     5.05     0.92
   6      1.14258753    -0.45822736  -130.29579056     0.00001731    -0.00007034  0.12D-06  0.44D-06  6  6     5.89     0.92
   7      1.14265994    -0.45822910  -130.29579230    -0.00000174     0.00000955  0.16D-07  0.99D-07  6  1     6.70     0.92
   8      1.14269556    -0.45822851  -130.29579171     0.00000059    -0.00000505  0.49D-08  0.16D-07  6  2     7.52     0.92
   9      1.14270074    -0.45822838  -130.29579158     0.00000013     0.00000127  0.23D-08  0.19D-08  6  3     8.35     0.92
  10      1.14270132    -0.45822871  -130.29579192    -0.00000033    -0.00000037  0.54D-09  0.30D-09  6  4     9.19     0.92
  11      1.14269976    -0.45822886  -130.29579206    -0.00000015     0.00000036  0.13D-09  0.30D-10  6  5    10.04     0.92
  12      1.14269856    -0.45822902  -130.29579222    -0.00000016     0.00000049  0.16D-10  0.82D-11  6  6    10.88     0.93
  13      1.14269787    -0.45822904  -130.29579224    -0.00000002     0.00000013  0.60D-11  0.15D-11  6  1    11.69     0.93
  14      1.14269733    -0.45822907  -130.29579227    -0.00000003     0.00000012  0.53D-12  0.49D-12  6  3    12.55     0.93
  15      1.14269717    -0.45822907  -130.29579227     0.00000000     0.00000001  0.14D-12  0.35D-13  6  2    13.40     0.93
  16      1.14269711    -0.45822907  -130.29579228    -0.00000000     0.00000001  0.33D-13  0.82D-14  6  4    14.27     0.93
  17      1.14269708    -0.45822908  -130.29579228    -0.00000000     0.00000001  0.47D-14  0.13D-14  6  5    15.12     0.93
  18      1.14269708    -0.45822908  -130.29579228    -0.00000000     0.00000000  0.56D-15  0.36D-15  6  6    15.96     0.93
  19      1.14269708    -0.45822908  -130.29579228     0.00000000    -0.00000000  0.77D-16  0.53D-16  6  1    16.80     0.93
  20      1.14269708    -0.45822908  -130.29579228     0.00000000    -0.00000000  0.38D-17  0.13D-16  6  3    17.60     0.93
  21      1.14269708    -0.45822908  -130.29579228     0.00000000    -0.00000000  0.63D-18  0.29D-17  6  4    18.43     0.93
  22      1.14269708    -0.45822908  -130.29579228     0.00000000    -0.00000000  0.60D-19  0.10D-17  6  2    19.30     0.93
  23      1.14269708    -0.45822908  -130.29579228    -0.00000000     0.00000000  0.98D-19  0.20D-18  6  5    20.12     0.93
  24      1.14269708    -0.45822908  -130.29579228    -0.00000000     0.00000000  0.51D-20  0.18D-19  6  1    20.95     0.93
  25      1.14269708    -0.45822908  -130.29579228     0.00000000    -0.00000000  0.27D-20  0.13D-20  6  6    21.78     0.93

 Norm of t1 vector:      0.07940731      S-energy:     0.00000000      T1 diagnostic:  0.01620895
                                                                       D1 diagnostic:  0.04494268

 Doubles amplitudes (print threshold =  0.500E-01):

         I         J         SYM. A    SYM. B    A         B      T(IJ, AB)

         6         6         2         2         1         1     -0.13994911


 Total CPU time for triples:      9.39 sec


 RESULTS
 =======

  Reference energy                   -129.837563200805
  CCSD singlet pair energy             -0.315034189566
  CCSD triplet pair energy             -0.143194886231
  CCSD correlation energy              -0.458229075787

  Triples (T) contribution             -0.021630097855
  Total correlation energy             -0.479859173641

  CCSD total energy                  -130.295792276591
  CCSD[T] energy                     -130.318580782917
  CCSD-T energy                      -130.316993458048
 !CCSD(T) total energy               -130.317422374446

 Timing summary (sec):

 STEP                 CPU(USER)    SYS     CPU(TOT)    WALL
 Transformation          0.90      0.17      1.07      1.08
 CCSD iterations        20.89      2.40     23.29     23.27
 Triples                 9.39      0.31      9.70      9.71

 Program statistics:

 Available memory in ccsd:               994999756
 Min. memory needed in ccsd:                887758
 Max. memory used in ccsd:                 1088212
 Max. memory used in cckext:               1535578 (25 integral passes)



 **********************************************************************************************************************************
 DATASETS  * FILE   NREC   LENGTH (MB)   RECORD NAMES
              1      20      478.68       500      610      700      900      950      970     1000      129      960     1100   
                                          VAR    BASINP    GEOM    SYMINP    ZMAT    AOBASIS   BASIS     P2S    ABASIS      S 
                                         1400     1410     1200     1210     1080     1600     1650     1300     1700     1380   
                                           T        V       H0       H01     AOSYM     SMH    MOLCAS    ERIS     OPER     JKOP   

              2       4        3.13       700     1000      520     2100   
                                         GEOM     BASIS   MCVARS     RHF  

 PROGRAMS   *        TOTAL   CCSD(T)        HF       INT
 CPU TIMES  *        42.18     31.20      5.29      5.61
 REAL TIME  *        48.02 SEC
 DISK USED  *         1.32 GB      
 **********************************************************************************************************************************

 CCSD(T)/USERDEF energy=   -130.317422374446

        CCSD(T)         HF-SCF  
   -130.31742237   -129.83756320
 **********************************************************************************************************************************
 Molpro calculation terminated
 Variable memory released
