
 Primary working directories    : /tmp/r2666/235344.maple
 Secondary working directories  : /tmp/r2666/235344.maple
 Wavefunction directory         : /ddn/home4/r2666/wfu/
 Main file repository           : /tmp/r2666/235344.maple/

 SHA1      : d5ffa45e93fdbca01ffc919aa182cfdae0147319
 NAME      : 2015.1.35
 ARCHNAME  : linux/x86_64
 FC        : /opt/intel/composer_xe_2015.1.133/bin/intel64/ifort
 BLASLIB   : -Wl,-_start-group /opt/intel/mkl/lib/intel64/libmkl_intel_ilp64.a /opt/intel/mkl/lib/intel64/libmkl_intel_thread.a /opt/intel/mkl/lib/intel64/libmkl_core.a -Wl,-_end-group
 id        : olemiss

 Nodes     nprocs
 cn035        1

 Using customized tuning parameters: mindgm=1; mindgv=20; mindgc=4; mindgr=1; noblas=0; minvec=7
 default implementation of scratch files=df  

 ***,hno CCSD(T)/TZ-F12 QFF
 memory, 995, m;
 gthresh,energy=1.d-12,zero=1.d-22,oneint=1.d-22,twoint=1.d-22;
 gthresh,optgrad=1.d-8,optstep=1.d-8;
 nocompress;
 geomtyp=xyz
 bohr
 geometry={
 3
         70        70
 N        0.0000000000       -0.1511468112       -1.1330719104
 H        0.0000000000        1.6659320368       -1.9396650417
 O        0.0000000000        0.0269825644        1.1221473612
 }
 
 basis={
 default=aug-cc-pvtz
 s,C,8236.0,1235.0,280.8, 79.27,25.59, 8.997,3.319
 s,C,0.9059,0.3643,0.1285000
 p,C,56.0,18.71,4.133,0.2827,0.3827,0.1209
 d,C,30.0,10.0,3.3,1.097,0.318
 f,C,7.0,2.3,0.7610
 s,N,11420.0,1712.0,389.3,110.0,35.57,12.54,4.644
 s,N,1.293,0.5118,0.1787
 p,N,79.89,26.63,5.948,1.742,0.555,0.1725
 d,N,45.0,15.0,5.0,1.654,0.469
 f,N,9.9,3.3,1.093
 s,O,15330.0,2299.0,522.4,147.3,47.55,16.76,6.207
 s,O,1.752,0.6882,0.2384
 p,O,103.5,34.46,7.749,2.28,0.7156,0.214
 d,O,63.0,21.0,7.0,2.314,0.645
 f,O,12.9,4.3,1.428
 s,mg,164900.0,24710.0,5628.0,1596.0,521.0;
 s,mg,188.0,73.01,29.90,12.54,4.306,1.826;
 s,mg,0.7417,0.0761,0.145,0.033,0.0129;
 p,mg,950.70,316.90,74.86,23.72,8.669,3.363;
 p,mg,1.310,0.4911,0.2364,0.08733,0.03237,0.00745;
 d,mg,1.601,0.686,0.126,0.294,0.0468;
 f,mg,1.372,0.588,0.094,0.252;
 }
   {hf,maxit=500;accu,20;}
 {ccsd(t),nocheck,maxit=250;orbital,IGNORE_ERROR;}

 Variables initialized (889), CPU time= 0.00 sec
 Commands  initialized (702), CPU time= 0.00 sec, 572 directives.
 Default parameters read. Elapsed time= 0.05 sec

 Checking input...
 Passed
1


                                         ***  PROGRAM SYSTEM MOLPRO  ***
                                       Copyright, TTI GmbH Stuttgart, 2015
                                    Version 2015.1 linked Jul  9 2018 13:16:40


 **********************************************************************************************************************************
 LABEL *   hno CCSD(T)/TZ-F12 QFF                                                        
  64 bit serial version                                                                  DATE: 08-Feb-20          TIME: 17:58:12  
 **********************************************************************************************************************************

 SHA1:             d5ffa45e93fdbca01ffc919aa182cfdae0147319
 **********************************************************************************************************************************

 THRESHOLDS:

 ZERO    =  1.00D-22  ONEINT  =  1.00D-22  TWOINT  =  1.00D-22  PREFAC  =  1.00D-14  LOCALI  =  1.00D-09  EORDER  =  1.00D-04
 ENERGY  =  1.00D-12  ETEST   =  0.00D+00  EDENS   =  0.00D+00  THRDEDEF=  1.00D-06  GRADIENT=  1.00D-02  STEP    =  1.00D-03
 ORBITAL =  1.00D-05  CIVEC   =  1.00D-05  COEFF   =  1.00D-04  PRINTCI =  5.00D-02  PUNCHCI =  9.90D+01  OPTGRAD =  3.00D-04
 OPTENERG=  1.00D-06  OPTSTEP =  3.00D-04  THRGRAD =  1.00D-10  COMPRESS=  1.00D-11  VARMIN  =  1.00D-07  VARMAX  =  1.00D-03
 THRDOUB =  0.00D+00  THRDIV  =  1.00D-05  THRRED  =  1.00D-07  THRPSP  =  1.00D+00  THRDC   =  1.00D-10  THRCS   =  1.00D-10
 THRNRM  =  1.00D-08  THREQ   =  0.00D+00  THRDE   =  1.00D+00  THRREF  =  1.00D-05  SPARFAC =  1.00D+00  THRDLP  =  1.00D-07
 THRDIA  =  1.00D-10  THRDLS  =  1.00D-07  THRGPS  =  0.00D+00  THRKEX  =  0.00D+00  THRDIS  =  2.00D-01  THRVAR  =  1.00D-10
 THRLOC  =  1.00D-06  THRGAP  =  1.00D-06  THRLOCT = -1.00D+00  THRGAPT = -1.00D+00  THRORB  =  1.00D-06  THRMLTP =  0.00D+00
 THRCPQCI=  1.00D-10  KEXTA   =  0.00D+00  THRCOARS=  0.00D+00  SYMTOL  =  1.00D-06  GRADTOL =  1.00D-06  THROVL  =  1.00D-08
 THRORTH =  1.00D-08  GRID    =  1.00D-06  GRIDMAX =  1.00D-03  DTMAX   =  0.00D+00  THROCCDE=  1.00D-01  THROCCDE=  1.00D-01



 THRESHOLDS:

 ZERO    =  1.00D-22  ONEINT  =  1.00D-22  TWOINT  =  1.00D-22  PREFAC  =  1.00D-14  LOCALI  =  1.00D-09  EORDER  =  1.00D-04
 ENERGY  =  1.00D-12  ETEST   =  0.00D+00  EDENS   =  0.00D+00  THRDEDEF=  1.00D-06  GRADIENT=  1.00D-02  STEP    =  1.00D-03
 ORBITAL =  1.00D-05  CIVEC   =  1.00D-05  COEFF   =  1.00D-04  PRINTCI =  5.00D-02  PUNCHCI =  9.90D+01  OPTGRAD =  1.00D-08
 OPTENERG=  1.00D-06  OPTSTEP =  1.00D-08  THRGRAD =  1.00D-10  COMPRESS=  1.00D-11  VARMIN  =  1.00D-07  VARMAX  =  1.00D-03
 THRDOUB =  0.00D+00  THRDIV  =  1.00D-05  THRRED  =  1.00D-07  THRPSP  =  1.00D+00  THRDC   =  1.00D-10  THRCS   =  1.00D-10
 THRNRM  =  1.00D-08  THREQ   =  0.00D+00  THRDE   =  1.00D+00  THRREF  =  1.00D-05  SPARFAC =  1.00D+00  THRDLP  =  1.00D-07
 THRDIA  =  1.00D-10  THRDLS  =  1.00D-07  THRGPS  =  0.00D+00  THRKEX  =  0.00D+00  THRDIS  =  2.00D-01  THRVAR  =  1.00D-10
 THRLOC  =  1.00D-06  THRGAP  =  1.00D-06  THRLOCT = -1.00D+00  THRGAPT = -1.00D+00  THRORB  =  1.00D-06  THRMLTP =  0.00D+00
 THRCPQCI=  1.00D-10  KEXTA   =  0.00D+00  THRCOARS=  0.00D+00  SYMTOL  =  1.00D-06  GRADTOL =  1.00D-06  THROVL  =  1.00D-08
 THRORTH =  1.00D-08  GRID    =  1.00D-06  GRIDMAX =  1.00D-03  DTMAX   =  0.00D+00  THROCCDE=  1.00D-01  THROCCDE=  1.00D-01



 Input parameters for SORTINT:

 COMPRESS =    0.000000
 C_FINAL  =    1.000000
 DEBUG    =   -1.000000
 C_SORT1  =    0.000000
 C_SEWARD =    0.000000
 THRESH   =    0.000000
 IO       =  molpro                                                          
 SPRI     =    0.000000
 SETTING GEOMTYP        =    XYZ
 ZUNIT=BOHR
 

 Variable memory set to  995000000 words,  buffer space   230000 words

 SETTING BASIS          =    USERDEF


 Recomputing integrals since basis changed


 Using spherical harmonics

 Library entry H      S aug-cc-pVTZ          selected for orbital group  2
 Library entry H      P aug-cc-pVTZ          selected for orbital group  2
 Library entry H      D aug-cc-pVTZ          selected for orbital group  2


 PROGRAM * SEWARD (Integral evaluation for generally contracted gaussian basis sets)     Author: Roland Lindh, 1990

 Geometry written to block  1 of record 700


 Point group  Cs  



 ATOMIC COORDINATES

 NR  ATOM    CHARGE       X              Y              Z

   1  N       7.00    0.000000000   -0.151146811   -1.133071910
   2  H       1.00    0.000000000    1.665932037   -1.939665042
   3  O       8.00    0.000000000    0.026982564    1.122147361

 Bond lengths in Bohr (Angstrom)

 1-2  1.988056342  1-3  2.262243143
     ( 1.052034110)     ( 1.197127517)

 Bond angles

  2-1-3  109.42006613

 NUCLEAR CHARGE:                   16
 NUMBER OF PRIMITIVE AOS:         203
 NUMBER OF SYMMETRY AOS:          173
 NUMBER OF CONTRACTIONS:          171   ( 114A'  +  57A"  )
 NUMBER OF CORE ORBITALS:           2   (   2A'  +   0A"  )
 NUMBER OF VALENCE ORBITALS:        9   (   7A'  +   2A"  )


 NUCLEAR REPULSION ENERGY   30.57878638


 Eigenvalues of metric

         1 0.102E-02 0.239E-02 0.329E-02 0.631E-02 0.983E-02 0.136E-01 0.143E-01 0.229E-01
         2 0.362E-01 0.515E-01 0.689E-01 0.941E-01 0.131E+00 0.134E+00 0.140E+00 0.142E+00


 Contracted 2-electron integrals neglected if value below      1.0D-22

       46231249. INTEGRALS WRITTEN OUT IN   11290 BLOCKS ON RECORD 1290 OF FILE 1


 NUMBER OF SORTED TWO-ELECTRON INTEGRALS:   55360566.     BUFFER LENGTH:  32768
 NUMBER OF SEGMENTS:   4  SEGMENT LENGTH:   15997996      RECORD LENGTH: 524288

 Memory used in sort:      16.56 MW

 SORT1 READ    46231249. AND WROTE    46669483. INTEGRALS IN    136 RECORDS. CPU TIME:     1.29 SEC, REAL TIME:     1.65 SEC
 SORT2 READ    46669483. AND WROTE    55360566. INTEGRALS IN      4 RECORDS. CPU TIME:     0.69 SEC, REAL TIME:     1.00 SEC

 FILE SIZES:   FILE 1:   760.6 MBYTE,  FILE 4:   570.5 MBYTE,   TOTAL:   1331.1 MBYTE

 OPERATOR DM      FOR CENTER  0  COORDINATES:    0.000000    0.000000    0.000000


 **********************************************************************************************************************************
 DATASETS  * FILE   NREC   LENGTH (MB)   RECORD NAMES
              1      19      421.82       500      610      700      900      950      970     1000      129      960     1100   
                                          VAR    BASINP    GEOM    SYMINP    ZMAT    AOBASIS   BASIS     P2S    ABASIS      S 
                                         1400     1410     1200     1210     1080     1600     1650     1300     1700   
                                           T        V       H0       H01     AOSYM     SMH    MOLCAS    ERIS     OPER   

 PROGRAMS   *        TOTAL       INT
 CPU TIMES  *         5.66      5.57
 REAL TIME  *         7.34 SEC
 DISK USED  *         1.33 GB      
 **********************************************************************************************************************************


 PROGRAM * RHF-SCF (CLOSED SHELL)       Authors: W. Meyer, H.-J. Werner


 NUMBER OF ELECTRONS:       8+    8-
 CONVERGENCE THRESHOLDS:    1.00E-10 (Density)    1.00E-13 (Energy)
 MAX. NUMBER OF ITERATIONS:      500
 INTERPOLATION TYPE:            DIIS
 INTERPOLATION STEPS:              2 (START)      1 (STEP)
 LEVEL SHIFTS:                  0.00 (CLOSED)  0.00 (OPEN) 



 Orbital guess generated from atomic densities. Full valence occupancy:    9   2

 Molecular orbital dump at record        2100.2

 Initial occupancy:   7   1

 ITERATION    DDIFF          GRAD             ENERGY        2-EL.EN.            DIPOLE MOMENTS         DIIS   ORB.
    1      0.000D+00      0.000D+00      -129.79223385    154.430910    0.00000    0.57497   -0.98175    0    start
    2      0.000D+00      0.867D-02      -129.81940615    155.630871    0.00000    0.59013   -0.20630    1    diag
    3      0.359D-02      0.642D-02      -129.84033992    155.727200    0.00000    0.54598   -0.57237    2    diag
    4      0.137D-02      0.103D-02      -129.84110332    155.460173    0.00000    0.55375   -0.51157    3    diag
    5      0.328D-03      0.331D-03      -129.84121929    155.547620    0.00000    0.55987   -0.51428    4    diag
    6      0.151D-03      0.968D-04      -129.84123809    155.531701    0.00000    0.56052   -0.51036    5    diag
    7      0.603D-04      0.481D-04      -129.84124346    155.534345    0.00000    0.56188   -0.50801    6    diag
    8      0.406D-04      0.160D-04      -129.84124399    155.533577    0.00000    0.56195   -0.50718    7    diag
    9      0.133D-04      0.295D-05      -129.84124401    155.533472    0.00000    0.56190   -0.50701    8    diag
   10      0.263D-05      0.695D-06      -129.84124402    155.533458    0.00000    0.56186   -0.50699    9    orth
   11      0.832D-06      0.140D-06      -129.84124402    155.533453    0.00000    0.56186   -0.50698    9    diag
   12      0.200D-06      0.282D-07      -129.84124402    155.533453    0.00000    0.56185   -0.50698    9    diag
   13      0.481D-07      0.733D-08      -129.84124402    155.533452    0.00000    0.56185   -0.50698    9    diag
   14      0.110D-07      0.133D-08      -129.84124402    155.533452    0.00000    0.56185   -0.50698    9    diag
   15      0.151D-08      0.368D-09      -129.84124402    155.533452    0.00000    0.56185   -0.50698    9    diag
   16      0.332D-09      0.114D-09      -129.84124402    155.533452    0.00000    0.56185   -0.50698    9    diag
   17      0.869D-10      0.329D-10      -129.84124402    155.533452    0.00000    0.56185   -0.50698    9    diag
   18      0.294D-10      0.107D-10      -129.84124402    155.533452    0.00000    0.56185   -0.50698    0    orth

 Final occupancy:   7   1

 !RHF STATE 1.1 Energy               -129.841244015210
 Nuclear energy                        30.57878638
 One-electron energy                 -238.18675651
 Two-electron energy                   77.76672611
 Virial quotient                       -1.00133538
 !RHF STATE 1.1 Dipole moment           0.00000000     0.56185398    -0.50698027
 Dipole moment /Debye                   0.00000000     1.42799683    -1.28853090

 Orbital energies:

         1.1          2.1          3.1          4.1          5.1          6.1          7.1          8.1          9.1
    -20.650572   -15.708546    -1.536413    -0.991164    -0.748483    -0.667649    -0.424553     0.039754     0.193275

         1.2          2.2          3.2
     -0.599273     0.082595     0.240048

 HOMO      7.1    -0.424553 =     -11.5527eV
 LUMO      8.1     0.039754 =       1.0818eV
 LUMO-HOMO         0.464307 =      12.6344eV


 **********************************************************************************************************************************
 DATASETS  * FILE   NREC   LENGTH (MB)   RECORD NAMES
              1      19      421.82       500      610      700      900      950      970     1000      129      960     1100   
                                          VAR    BASINP    GEOM    SYMINP    ZMAT    AOBASIS   BASIS     P2S    ABASIS      S 
                                         1400     1410     1200     1210     1080     1600     1650     1300     1700   
                                           T        V       H0       H01     AOSYM     SMH    MOLCAS    ERIS     OPER   

              2       4        3.13       700     1000      520     2100   
                                         GEOM     BASIS   MCVARS     RHF  

 PROGRAMS   *        TOTAL        HF       INT
 CPU TIMES  *        10.88      5.22      5.57
 REAL TIME  *        13.88 SEC
 DISK USED  *         1.33 GB      
 **********************************************************************************************************************************


 PROGRAM * CCSD (Closed-shell coupled cluster)     Authors: C. Hampel, H.-J. Werner, 1991, M. Deegan, P.J. Knowles, 1992


 Convergence thresholds:  THRVAR = 1.00D-08  THRDEN = 1.00D-12

 CCSD(T)     terms to be evaluated (factor= 1.000)


 Number of core orbitals:           2 (   2   0 )
 Number of closed-shell orbitals:   6 (   5   1 )
 Number of external orbitals:     163 ( 107  56 )

 Molecular orbitals read from record     2100.2  Type=RHF/CANONICAL (state 1.1)

 Number of N-1 electron functions:               6
 Number of N-2 electron functions:              21
 Number of singly external CSFs:               591
 Number of doubly external CSFs:            250014
 Total number of CSFs:                      250606

 Length of J-op  integral file:               0.00 MB
 Length of K-op  integral file:               1.15 MB
 Length of 3-ext integral record:             0.00 MB

 Memory could be reduced to 19.93 Mwords without degradation in triples

 Integral transformation finished. Total CPU:   0.86 sec, npass=  1  Memory used:   5.10 MW

 Reference energy:                   -129.84124402

 MP2 singlet pair energy:              -0.28578698
 MP2 triplet pair energy:              -0.16647250
 MP2 correlation energy:               -0.45225948
 MP2 total energy:                   -130.29350349

 SCS-MP2 correlation energy:           -0.44652726   (PS=  1.200000  PT=  0.333333)
 SCS-MP2 total energy:               -130.28777128

 ITER.      SQ.NORM     CORR.ENERGY   TOTAL ENERGY   ENERGY CHANGE        DEN1      VAR(S)    VAR(P)  DIIS     TIME  TIME/IT
   1      1.11767670    -0.45479290  -130.29603692    -0.00253342     0.01379114  0.31D-02  0.30D-02  1  1     1.66     0.85
   2      1.12794998    -0.45479494  -130.29603896    -0.00000204    -0.01225122  0.11D-03  0.48D-03  2  2     2.48     0.87
   3      1.13432153    -0.45515594  -130.29639995    -0.00036099    -0.00330067  0.43D-04  0.55D-04  3  3     3.30     0.88
   4      1.13708154    -0.45518615  -130.29643017    -0.00003022    -0.00091617  0.42D-05  0.94D-05  4  4     4.11     0.88
   5      1.13810787    -0.45521676  -130.29646078    -0.00003061    -0.00020876  0.13D-05  0.17D-05  5  5     4.91     0.89
   6      1.13849385    -0.45520203  -130.29644605     0.00001473    -0.00006347  0.12D-06  0.43D-06  6  6     5.73     0.89
   7      1.13856943    -0.45520343  -130.29644745    -0.00000140     0.00000773  0.18D-07  0.92D-07  6  1     6.53     0.89
   8      1.13860406    -0.45520315  -130.29644716     0.00000028    -0.00000440  0.51D-08  0.14D-07  6  2     7.36     0.89
   9      1.13860980    -0.45520302  -130.29644704     0.00000012     0.00000067  0.22D-08  0.15D-08  6  3     8.19     0.89
  10      1.13861002    -0.45520336  -130.29644737    -0.00000033    -0.00000013  0.48D-09  0.24D-09  6  4     8.98     0.89
  11      1.13860848    -0.45520349  -130.29644751    -0.00000014     0.00000034  0.12D-09  0.24D-10  6  5     9.77     0.89
  12      1.13860733    -0.45520364  -130.29644765    -0.00000014     0.00000046  0.16D-10  0.73D-11  6  6    10.55     0.89
  13      1.13860669    -0.45520365  -130.29644767    -0.00000002     0.00000012  0.61D-11  0.13D-11  6  1    11.36     0.89
  14      1.13860618    -0.45520368  -130.29644770    -0.00000003     0.00000011  0.57D-12  0.43D-12  6  3    12.17     0.89
  15      1.13860603    -0.45520368  -130.29644770    -0.00000000     0.00000001  0.14D-12  0.29D-13  6  2    12.96     0.89
  16      1.13860598    -0.45520368  -130.29644770    -0.00000000     0.00000001  0.32D-13  0.73D-14  6  4    13.77     0.89
  17      1.13860596    -0.45520368  -130.29644770    -0.00000000     0.00000001  0.37D-14  0.12D-14  6  5    14.60     0.89
  18      1.13860596    -0.45520368  -130.29644770     0.00000000    -0.00000000  0.41D-15  0.30D-15  6  6    15.39     0.89
  19      1.13860597    -0.45520368  -130.29644770     0.00000000    -0.00000000  0.53D-16  0.33D-16  6  1    16.20     0.89
  20      1.13860597    -0.45520368  -130.29644770     0.00000000    -0.00000000  0.30D-17  0.71D-17  6  3    17.01     0.89
  21      1.13860597    -0.45520368  -130.29644770     0.00000000    -0.00000000  0.48D-18  0.14D-17  6  4    17.82     0.89
  22      1.13860597    -0.45520368  -130.29644770     0.00000000    -0.00000000  0.17D-19  0.48D-18  6  2    18.63     0.89
  23      1.13860597    -0.45520368  -130.29644770    -0.00000000     0.00000000  0.31D-19  0.11D-18  6  5    19.46     0.89
  24      1.13860597    -0.45520368  -130.29644770    -0.00000000     0.00000000  0.45D-20  0.11D-19  6  1    20.27     0.89
  25      1.13860597    -0.45520368  -130.29644770     0.00000000    -0.00000000  0.16D-20  0.71D-21  6  6    21.07     0.89

 Norm of t1 vector:      0.07591065      S-energy:     0.00000000      T1 diagnostic:  0.01549520
                                                                       D1 diagnostic:  0.04172067

 Doubles amplitudes (print threshold =  0.500E-01):

         I         J         SYM. A    SYM. B    A         B      T(IJ, AB)

         6         6         2         2         1         1     -0.13194852


 Total CPU time for triples:      7.87 sec


 RESULTS
 =======

  Reference energy                   -129.841244015209
  CCSD singlet pair energy             -0.312382382893
  CCSD triplet pair energy             -0.142821299893
  CCSD correlation energy              -0.455203682785

  Triples (T) contribution             -0.020881871105
  Total correlation energy             -0.476085553889

  CCSD total energy                  -130.296447697994
  CCSD[T] energy                     -130.318385435580
  CCSD-T energy                      -130.316926042226
 !CCSD(T) total energy               -130.317329569099

 Timing summary (sec):

 STEP                 CPU(USER)    SYS     CPU(TOT)    WALL
 Transformation          0.87      0.14      1.01      1.02
 CCSD iterations        20.20      2.18     22.38     22.37
 Triples                 7.87      0.25      8.12      8.12

 Program statistics:

 Available memory in ccsd:               994999756
 Min. memory needed in ccsd:                887758
 Max. memory used in ccsd:                 1088212
 Max. memory used in cckext:               1535578 (25 integral passes)



 **********************************************************************************************************************************
 DATASETS  * FILE   NREC   LENGTH (MB)   RECORD NAMES
              1      20      479.77       500      610      700      900      950      970     1000      129      960     1100   
                                          VAR    BASINP    GEOM    SYMINP    ZMAT    AOBASIS   BASIS     P2S    ABASIS      S 
                                         1400     1410     1200     1210     1080     1600     1650     1300     1700     1380   
                                           T        V       H0       H01     AOSYM     SMH    MOLCAS    ERIS     OPER     JKOP   

              2       4        3.13       700     1000      520     2100   
                                         GEOM     BASIS   MCVARS     RHF  

 PROGRAMS   *        TOTAL   CCSD(T)        HF       INT
 CPU TIMES  *        39.85     28.97      5.22      5.57
 REAL TIME  *        45.51 SEC
 DISK USED  *         1.33 GB      
 **********************************************************************************************************************************

 CCSD(T)/USERDEF energy=   -130.317329569099

        CCSD(T)         HF-SCF  
   -130.31732957   -129.84124402
 **********************************************************************************************************************************
 Molpro calculation terminated
 Variable memory released
