
 Primary working directories    : /tmp/r2666/235382.maple
 Secondary working directories  : /tmp/r2666/235382.maple
 Wavefunction directory         : /ddn/home4/r2666/wfu/
 Main file repository           : /tmp/r2666/235382.maple/

 SHA1      : d5ffa45e93fdbca01ffc919aa182cfdae0147319
 NAME      : 2015.1.35
 ARCHNAME  : linux/x86_64
 FC        : /opt/intel/composer_xe_2015.1.133/bin/intel64/ifort
 BLASLIB   : -Wl,-_start-group /opt/intel/mkl/lib/intel64/libmkl_intel_ilp64.a /opt/intel/mkl/lib/intel64/libmkl_intel_thread.a /opt/intel/mkl/lib/intel64/libmkl_core.a -Wl,-_end-group
 id        : olemiss

 Nodes     nprocs
 cn042        1

 Using customized tuning parameters: mindgm=1; mindgv=20; mindgc=4; mindgr=1; noblas=0; minvec=7
 default implementation of scratch files=df  

 ***,hno CCSD(T)/TZ-F12 QFF
 memory, 995, m;
 gthresh,energy=1.d-12,zero=1.d-22,oneint=1.d-22,twoint=1.d-22;
 gthresh,optgrad=1.d-8,optstep=1.d-8;
 nocompress;
 geomtyp=xyz
 bohr
 geometry={
 3
        108       108
 N        0.0000000000       -0.1640675477       -1.1506867287
 H        0.0000000000        1.6725291487       -1.9361411755
 O        0.0000000000        0.0333061890        1.1362383132
 }
 
 basis={
 default=aug-cc-pvtz
 s,C,8236.0,1235.0,280.8, 79.27,25.59, 8.997,3.319
 s,C,0.9059,0.3643,0.1285000
 p,C,56.0,18.71,4.133,0.2827,0.3827,0.1209
 d,C,30.0,10.0,3.3,1.097,0.318
 f,C,7.0,2.3,0.7610
 s,N,11420.0,1712.0,389.3,110.0,35.57,12.54,4.644
 s,N,1.293,0.5118,0.1787
 p,N,79.89,26.63,5.948,1.742,0.555,0.1725
 d,N,45.0,15.0,5.0,1.654,0.469
 f,N,9.9,3.3,1.093
 s,O,15330.0,2299.0,522.4,147.3,47.55,16.76,6.207
 s,O,1.752,0.6882,0.2384
 p,O,103.5,34.46,7.749,2.28,0.7156,0.214
 d,O,63.0,21.0,7.0,2.314,0.645
 f,O,12.9,4.3,1.428
 s,mg,164900.0,24710.0,5628.0,1596.0,521.0;
 s,mg,188.0,73.01,29.90,12.54,4.306,1.826;
 s,mg,0.7417,0.0761,0.145,0.033,0.0129;
 p,mg,950.70,316.90,74.86,23.72,8.669,3.363;
 p,mg,1.310,0.4911,0.2364,0.08733,0.03237,0.00745;
 d,mg,1.601,0.686,0.126,0.294,0.0468;
 f,mg,1.372,0.588,0.094,0.252;
 }
   {hf,maxit=500;accu,20;}
 {ccsd(t),nocheck,maxit=250;orbital,IGNORE_ERROR;}

 Variables initialized (889), CPU time= 0.01 sec
 Commands  initialized (702), CPU time= 0.01 sec, 572 directives.
 Default parameters read. Elapsed time= 0.06 sec

 Checking input...
 Passed
1


                                         ***  PROGRAM SYSTEM MOLPRO  ***
                                       Copyright, TTI GmbH Stuttgart, 2015
                                    Version 2015.1 linked Jul  9 2018 13:16:40


 **********************************************************************************************************************************
 LABEL *   hno CCSD(T)/TZ-F12 QFF                                                        
  64 bit serial version                                                                  DATE: 08-Feb-20          TIME: 17:58:31  
 **********************************************************************************************************************************

 SHA1:             d5ffa45e93fdbca01ffc919aa182cfdae0147319
 **********************************************************************************************************************************

 THRESHOLDS:

 ZERO    =  1.00D-22  ONEINT  =  1.00D-22  TWOINT  =  1.00D-22  PREFAC  =  1.00D-14  LOCALI  =  1.00D-09  EORDER  =  1.00D-04
 ENERGY  =  1.00D-12  ETEST   =  0.00D+00  EDENS   =  0.00D+00  THRDEDEF=  1.00D-06  GRADIENT=  1.00D-02  STEP    =  1.00D-03
 ORBITAL =  1.00D-05  CIVEC   =  1.00D-05  COEFF   =  1.00D-04  PRINTCI =  5.00D-02  PUNCHCI =  9.90D+01  OPTGRAD =  3.00D-04
 OPTENERG=  1.00D-06  OPTSTEP =  3.00D-04  THRGRAD =  1.00D-10  COMPRESS=  1.00D-11  VARMIN  =  1.00D-07  VARMAX  =  1.00D-03
 THRDOUB =  0.00D+00  THRDIV  =  1.00D-05  THRRED  =  1.00D-07  THRPSP  =  1.00D+00  THRDC   =  1.00D-10  THRCS   =  1.00D-10
 THRNRM  =  1.00D-08  THREQ   =  0.00D+00  THRDE   =  1.00D+00  THRREF  =  1.00D-05  SPARFAC =  1.00D+00  THRDLP  =  1.00D-07
 THRDIA  =  1.00D-10  THRDLS  =  1.00D-07  THRGPS  =  0.00D+00  THRKEX  =  0.00D+00  THRDIS  =  2.00D-01  THRVAR  =  1.00D-10
 THRLOC  =  1.00D-06  THRGAP  =  1.00D-06  THRLOCT = -1.00D+00  THRGAPT = -1.00D+00  THRORB  =  1.00D-06  THRMLTP =  0.00D+00
 THRCPQCI=  1.00D-10  KEXTA   =  0.00D+00  THRCOARS=  0.00D+00  SYMTOL  =  1.00D-06  GRADTOL =  1.00D-06  THROVL  =  1.00D-08
 THRORTH =  1.00D-08  GRID    =  1.00D-06  GRIDMAX =  1.00D-03  DTMAX   =  0.00D+00  THROCCDE=  1.00D-01  THROCCDE=  1.00D-01



 THRESHOLDS:

 ZERO    =  1.00D-22  ONEINT  =  1.00D-22  TWOINT  =  1.00D-22  PREFAC  =  1.00D-14  LOCALI  =  1.00D-09  EORDER  =  1.00D-04
 ENERGY  =  1.00D-12  ETEST   =  0.00D+00  EDENS   =  0.00D+00  THRDEDEF=  1.00D-06  GRADIENT=  1.00D-02  STEP    =  1.00D-03
 ORBITAL =  1.00D-05  CIVEC   =  1.00D-05  COEFF   =  1.00D-04  PRINTCI =  5.00D-02  PUNCHCI =  9.90D+01  OPTGRAD =  1.00D-08
 OPTENERG=  1.00D-06  OPTSTEP =  1.00D-08  THRGRAD =  1.00D-10  COMPRESS=  1.00D-11  VARMIN  =  1.00D-07  VARMAX  =  1.00D-03
 THRDOUB =  0.00D+00  THRDIV  =  1.00D-05  THRRED  =  1.00D-07  THRPSP  =  1.00D+00  THRDC   =  1.00D-10  THRCS   =  1.00D-10
 THRNRM  =  1.00D-08  THREQ   =  0.00D+00  THRDE   =  1.00D+00  THRREF  =  1.00D-05  SPARFAC =  1.00D+00  THRDLP  =  1.00D-07
 THRDIA  =  1.00D-10  THRDLS  =  1.00D-07  THRGPS  =  0.00D+00  THRKEX  =  0.00D+00  THRDIS  =  2.00D-01  THRVAR  =  1.00D-10
 THRLOC  =  1.00D-06  THRGAP  =  1.00D-06  THRLOCT = -1.00D+00  THRGAPT = -1.00D+00  THRORB  =  1.00D-06  THRMLTP =  0.00D+00
 THRCPQCI=  1.00D-10  KEXTA   =  0.00D+00  THRCOARS=  0.00D+00  SYMTOL  =  1.00D-06  GRADTOL =  1.00D-06  THROVL  =  1.00D-08
 THRORTH =  1.00D-08  GRID    =  1.00D-06  GRIDMAX =  1.00D-03  DTMAX   =  0.00D+00  THROCCDE=  1.00D-01  THROCCDE=  1.00D-01



 Input parameters for SORTINT:

 COMPRESS =    0.000000
 C_FINAL  =    1.000000
 DEBUG    =   -1.000000
 C_SORT1  =    0.000000
 C_SEWARD =    0.000000
 THRESH   =    0.000000
 IO       =  molpro                                                          
 SPRI     =    0.000000
 SETTING GEOMTYP        =    XYZ
 ZUNIT=BOHR
 

 Variable memory set to  995000000 words,  buffer space   230000 words

 SETTING BASIS          =    USERDEF


 Recomputing integrals since basis changed


 Using spherical harmonics

 Library entry H      S aug-cc-pVTZ          selected for orbital group  2
 Library entry H      P aug-cc-pVTZ          selected for orbital group  2
 Library entry H      D aug-cc-pVTZ          selected for orbital group  2


 PROGRAM * SEWARD (Integral evaluation for generally contracted gaussian basis sets)     Author: Roland Lindh, 1990

 Geometry written to block  1 of record 700


 Point group  Cs  



 ATOMIC COORDINATES

 NR  ATOM    CHARGE       X              Y              Z

   1  N       7.00    0.000000000   -0.164067548   -1.150686729
   2  H       1.00    0.000000000    1.672529149   -1.936141175
   3  O       8.00    0.000000000    0.033306189    1.136238313

 Bond lengths in Bohr (Angstrom)

 1-2  1.997504972  1-3  2.295426440
     ( 1.057034110)     ( 1.214687361)

 Bond angles

  2-1-3  108.22216105

 NUCLEAR CHARGE:                   16
 NUMBER OF PRIMITIVE AOS:         203
 NUMBER OF SYMMETRY AOS:          173
 NUMBER OF CONTRACTIONS:          171   ( 114A'  +  57A"  )
 NUMBER OF CORE ORBITALS:           2   (   2A'  +   0A"  )
 NUMBER OF VALENCE ORBITALS:        9   (   7A'  +   2A"  )


 NUCLEAR REPULSION ENERGY   30.19802767


 Eigenvalues of metric

         1 0.106E-02 0.255E-02 0.339E-02 0.643E-02 0.100E-01 0.137E-01 0.145E-01 0.234E-01
         2 0.370E-01 0.542E-01 0.706E-01 0.942E-01 0.131E+00 0.134E+00 0.141E+00 0.142E+00


 Contracted 2-electron integrals neglected if value below      1.0D-22

       46117961. INTEGRALS WRITTEN OUT IN   11263 BLOCKS ON RECORD 1290 OF FILE 1


 NUMBER OF SORTED TWO-ELECTRON INTEGRALS:   55360566.     BUFFER LENGTH:  32768
 NUMBER OF SEGMENTS:   4  SEGMENT LENGTH:   15997996      RECORD LENGTH: 524288

 Memory used in sort:      16.56 MW

 SORT1 READ    46117961. AND WROTE    46555166. INTEGRALS IN    135 RECORDS. CPU TIME:     1.62 SEC, REAL TIME:     2.02 SEC
 SORT2 READ    46555166. AND WROTE    55360566. INTEGRALS IN      4 RECORDS. CPU TIME:     0.90 SEC, REAL TIME:     1.17 SEC

 FILE SIZES:   FILE 1:   758.9 MBYTE,  FILE 4:   566.3 MBYTE,   TOTAL:   1325.1 MBYTE

 OPERATOR DM      FOR CENTER  0  COORDINATES:    0.000000    0.000000    0.000000


 **********************************************************************************************************************************
 DATASETS  * FILE   NREC   LENGTH (MB)   RECORD NAMES
              1      19      421.06       500      610      700      900      950      970     1000      129      960     1100   
                                          VAR    BASINP    GEOM    SYMINP    ZMAT    AOBASIS   BASIS     P2S    ABASIS      S 
                                         1400     1410     1200     1210     1080     1600     1650     1300     1700   
                                           T        V       H0       H01     AOSYM     SMH    MOLCAS    ERIS     OPER   

 PROGRAMS   *        TOTAL       INT
 CPU TIMES  *         6.90      6.79
 REAL TIME  *         8.83 SEC
 DISK USED  *         1.33 GB      
 **********************************************************************************************************************************


 PROGRAM * RHF-SCF (CLOSED SHELL)       Authors: W. Meyer, H.-J. Werner


 NUMBER OF ELECTRONS:       8+    8-
 CONVERGENCE THRESHOLDS:    1.00E-10 (Density)    1.00E-13 (Energy)
 MAX. NUMBER OF ITERATIONS:      500
 INTERPOLATION TYPE:            DIIS
 INTERPOLATION STEPS:              2 (START)      1 (STEP)
 LEVEL SHIFTS:                  0.00 (CLOSED)  0.00 (OPEN) 



 Orbital guess generated from atomic densities. Full valence occupancy:    9   2

 Molecular orbital dump at record        2100.2

 Initial occupancy:   7   1

 ITERATION    DDIFF          GRAD             ENERGY        2-EL.EN.            DIPOLE MOMENTS         DIIS   ORB.
    1      0.000D+00      0.000D+00      -129.78684276    153.752202    0.00000    0.56967   -1.03617    0    start
    2      0.000D+00      0.887D-02      -129.81350714    154.918413    0.00000    0.60140   -0.19043    1    diag
    3      0.367D-02      0.686D-02      -129.83767067    155.052716    0.00000    0.54811   -0.59305    2    diag
    4      0.145D-02      0.105D-02      -129.83846904    154.772587    0.00000    0.55600   -0.52950    3    diag
    5      0.333D-03      0.341D-03      -129.83859288    154.861649    0.00000    0.56210   -0.53182    4    diag
    6      0.154D-03      0.100D-03      -129.83861320    154.845393    0.00000    0.56263   -0.52756    5    diag
    7      0.612D-04      0.506D-04      -129.83861929    154.847890    0.00000    0.56396   -0.52496    6    diag
    8      0.417D-04      0.177D-04      -129.83861998    154.847027    0.00000    0.56402   -0.52399    7    diag
    9      0.150D-04      0.334D-05      -129.83862001    154.846906    0.00000    0.56397   -0.52380    8    diag
   10      0.309D-05      0.750D-06      -129.83862001    154.846891    0.00000    0.56393   -0.52377    9    orth
   11      0.886D-06      0.148D-06      -129.83862001    154.846887    0.00000    0.56392   -0.52377    9    diag
   12      0.208D-06      0.312D-07      -129.83862001    154.846886    0.00000    0.56392   -0.52376    9    diag
   13      0.514D-07      0.841D-08      -129.83862001    154.846886    0.00000    0.56392   -0.52376    9    diag
   14      0.120D-07      0.147D-08      -129.83862001    154.846886    0.00000    0.56392   -0.52376    9    diag
   15      0.147D-08      0.389D-09      -129.83862001    154.846886    0.00000    0.56392   -0.52376    9    diag
   16      0.334D-09      0.111D-09      -129.83862001    154.846886    0.00000    0.56392   -0.52376    9    diag
   17      0.693D-10      0.294D-10      -129.83862001    154.846886    0.00000    0.56392   -0.52376    0    orth

 Final occupancy:   7   1

 !RHF STATE 1.1 Energy               -129.838620014174
 Nuclear energy                        30.19802767
 One-electron energy                 -237.46009058
 Two-electron energy                   77.42344290
 Virial quotient                       -1.00189096
 !RHF STATE 1.1 Dipole moment           0.00000000     0.56391702    -0.52376422
 Dipole moment /Debye                   0.00000000     1.43324023    -1.33118866

 Orbital energies:

         1.1          2.1          3.1          4.1          5.1          6.1          7.1          8.1          9.1
    -20.652006   -15.712404    -1.522488    -0.993244    -0.742589    -0.662302    -0.430465     0.039567     0.192000

         1.2          2.2          3.2
     -0.591104     0.076745     0.239273

 HOMO      7.1    -0.430465 =     -11.7136eV
 LUMO      8.1     0.039567 =       1.0767eV
 LUMO-HOMO         0.470032 =      12.7902eV


 **********************************************************************************************************************************
 DATASETS  * FILE   NREC   LENGTH (MB)   RECORD NAMES
              1      19      421.06       500      610      700      900      950      970     1000      129      960     1100   
                                          VAR    BASINP    GEOM    SYMINP    ZMAT    AOBASIS   BASIS     P2S    ABASIS      S 
                                         1400     1410     1200     1210     1080     1600     1650     1300     1700   
                                           T        V       H0       H01     AOSYM     SMH    MOLCAS    ERIS     OPER   

              2       4        3.13       700     1000      520     2100   
                                         GEOM     BASIS   MCVARS     RHF  

 PROGRAMS   *        TOTAL        HF       INT
 CPU TIMES  *        13.40      6.50      6.79
 REAL TIME  *        16.76 SEC
 DISK USED  *         1.33 GB      
 **********************************************************************************************************************************


 PROGRAM * CCSD (Closed-shell coupled cluster)     Authors: C. Hampel, H.-J. Werner, 1991, M. Deegan, P.J. Knowles, 1992


 Convergence thresholds:  THRVAR = 1.00D-08  THRDEN = 1.00D-12

 CCSD(T)     terms to be evaluated (factor= 1.000)


 Number of core orbitals:           2 (   2   0 )
 Number of closed-shell orbitals:   6 (   5   1 )
 Number of external orbitals:     163 ( 107  56 )

 Molecular orbitals read from record     2100.2  Type=RHF/CANONICAL (state 1.1)

 Number of N-1 electron functions:               6
 Number of N-2 electron functions:              21
 Number of singly external CSFs:               591
 Number of doubly external CSFs:            250014
 Total number of CSFs:                      250606

 Length of J-op  integral file:               0.00 MB
 Length of K-op  integral file:               1.15 MB
 Length of 3-ext integral record:             0.00 MB

 Memory could be reduced to 19.93 Mwords without degradation in triples

 Integral transformation finished. Total CPU:   1.13 sec, npass=  1  Memory used:   5.10 MW

 Reference energy:                   -129.83862001

 MP2 singlet pair energy:              -0.28766829
 MP2 triplet pair energy:              -0.16770928
 MP2 correlation energy:               -0.45537758
 MP2 total energy:                   -130.29399759

 SCS-MP2 correlation energy:           -0.44955439   (PS=  1.200000  PT=  0.333333)
 SCS-MP2 total energy:               -130.28817441

 ITER.      SQ.NORM     CORR.ENERGY   TOTAL ENERGY   ENERGY CHANGE        DEN1      VAR(S)    VAR(P)  DIIS     TIME  TIME/IT
   1      1.11969395    -0.45724519  -130.29586521    -0.00186762     0.01523234  0.33D-02  0.32D-02  1  1     2.16     1.09
   2      1.13041602    -0.45710295  -130.29572296     0.00014224    -0.01270913  0.12D-03  0.51D-03  2  2     3.20     1.12
   3      1.13714263    -0.45748814  -130.29610815    -0.00038519    -0.00342158  0.46D-04  0.59D-04  3  3     4.25     1.13
   4      1.14010174    -0.45752030  -130.29614031    -0.00003216    -0.00097034  0.47D-05  0.10D-04  4  4     5.29     1.13
   5      1.14123267    -0.45755444  -130.29617445    -0.00003414    -0.00023066  0.14D-05  0.18D-05  5  5     6.32     1.14
   6      1.14164436    -0.45753789  -130.29615790     0.00001655    -0.00006834  0.13D-06  0.43D-06  6  6     7.35     1.14
   7      1.14171820    -0.45753939  -130.29615940    -0.00000150     0.00000888  0.18D-07  0.95D-07  6  1     8.40     1.14
   8      1.14175375    -0.45753886  -130.29615887     0.00000053    -0.00000488  0.48D-08  0.15D-07  6  2     9.46     1.14
   9      1.14175940    -0.45753871  -130.29615872     0.00000015     0.00000103  0.22D-08  0.18D-08  6  3    10.48     1.14
  10      1.14175989    -0.45753905  -130.29615906    -0.00000034    -0.00000027  0.51D-09  0.28D-09  6  4    11.53     1.14
  11      1.14175835    -0.45753919  -130.29615920    -0.00000014     0.00000035  0.13D-09  0.28D-10  6  5    12.55     1.14
  12      1.14175715    -0.45753934  -130.29615936    -0.00000016     0.00000049  0.16D-10  0.80D-11  6  6    13.61     1.15
  13      1.14175647    -0.45753936  -130.29615938    -0.00000002     0.00000013  0.62D-11  0.14D-11  6  1    14.66     1.15
  14      1.14175594    -0.45753939  -130.29615941    -0.00000003     0.00000012  0.56D-12  0.47D-12  6  3    15.75     1.15
  15      1.14175577    -0.45753939  -130.29615941     0.00000000     0.00000001  0.15D-12  0.33D-13  6  2    16.78     1.15
  16      1.14175572    -0.45753940  -130.29615941    -0.00000000     0.00000001  0.34D-13  0.80D-14  6  4    17.81     1.15
  17      1.14175569    -0.45753940  -130.29615941    -0.00000000     0.00000001  0.45D-14  0.13D-14  6  5    18.90     1.15
  18      1.14175569    -0.45753940  -130.29615941     0.00000000     0.00000000  0.50D-15  0.35D-15  6  6    19.94     1.15
  19      1.14175570    -0.45753940  -130.29615941     0.00000000    -0.00000000  0.69D-16  0.46D-16  6  1    21.01     1.15
  20      1.14175570    -0.45753940  -130.29615941     0.00000000    -0.00000000  0.36D-17  0.11D-16  6  3    22.04     1.15
  21      1.14175570    -0.45753940  -130.29615941     0.00000000    -0.00000000  0.55D-18  0.24D-17  6  4    23.08     1.15
  22      1.14175570    -0.45753940  -130.29615941     0.00000000    -0.00000000  0.20D-19  0.84D-18  6  2    24.15     1.15
  23      1.14175570    -0.45753940  -130.29615941    -0.00000000     0.00000000  0.62D-19  0.17D-18  6  5    25.19     1.15
  24      1.14175570    -0.45753940  -130.29615941    -0.00000000     0.00000000  0.48D-20  0.16D-19  6  1    26.23     1.15
  25      1.14175570    -0.45753940  -130.29615941     0.00000000    -0.00000000  0.22D-20  0.11D-20  6  6    27.26     1.15

 Norm of t1 vector:      0.07853004      S-energy:     0.00000000      T1 diagnostic:  0.01602988
                                                                       D1 diagnostic:  0.04388045

 Doubles amplitudes (print threshold =  0.500E-01):

         I         J         SYM. A    SYM. B    A         B      T(IJ, AB)

         6         6         2         2         1         1     -0.13740369


 Total CPU time for triples:      9.45 sec


 RESULTS
 =======

  Reference energy                   -129.838620014174
  CCSD singlet pair energy             -0.314424936769
  CCSD triplet pair energy             -0.143114459991
  CCSD correlation energy              -0.457539396752

  Triples (T) contribution             -0.021439592926
  Total correlation energy             -0.478978989678

  CCSD total energy                  -130.296159410927
  CCSD[T] energy                     -130.318730172582
  CCSD-T energy                      -130.317175359204
 !CCSD(T) total energy               -130.317599003853

 Timing summary (sec):

 STEP                 CPU(USER)    SYS     CPU(TOT)    WALL
 Transformation          1.14      0.16      1.30      1.31
 CCSD iterations        26.12      2.62     28.74     28.73
 Triples                 9.45      0.27      9.72      9.72

 Program statistics:

 Available memory in ccsd:               994999756
 Min. memory needed in ccsd:                887758
 Max. memory used in ccsd:                 1088212
 Max. memory used in cckext:               1535578 (25 integral passes)



 **********************************************************************************************************************************
 DATASETS  * FILE   NREC   LENGTH (MB)   RECORD NAMES
              1      20      479.01       500      610      700      900      950      970     1000      129      960     1100   
                                          VAR    BASINP    GEOM    SYMINP    ZMAT    AOBASIS   BASIS     P2S    ABASIS      S 
                                         1400     1410     1200     1210     1080     1600     1650     1300     1700     1380   
                                           T        V       H0       H01     AOSYM     SMH    MOLCAS    ERIS     OPER     JKOP   

              2       4        3.13       700     1000      520     2100   
                                         GEOM     BASIS   MCVARS     RHF  

 PROGRAMS   *        TOTAL   CCSD(T)        HF       INT
 CPU TIMES  *        50.14     36.73      6.50      6.79
 REAL TIME  *        56.56 SEC
 DISK USED  *         1.33 GB      
 **********************************************************************************************************************************

 CCSD(T)/USERDEF energy=   -130.317599003853

        CCSD(T)         HF-SCF  
   -130.31759900   -129.83862001
 **********************************************************************************************************************************
 Molpro calculation terminated
 Variable memory released
