
 Primary working directories    : /tmp/r2666/235350.maple
 Secondary working directories  : /tmp/r2666/235350.maple
 Wavefunction directory         : /ddn/home4/r2666/wfu/
 Main file repository           : /tmp/r2666/235350.maple/

 SHA1      : d5ffa45e93fdbca01ffc919aa182cfdae0147319
 NAME      : 2015.1.35
 ARCHNAME  : linux/x86_64
 FC        : /opt/intel/composer_xe_2015.1.133/bin/intel64/ifort
 BLASLIB   : -Wl,-_start-group /opt/intel/mkl/lib/intel64/libmkl_intel_ilp64.a /opt/intel/mkl/lib/intel64/libmkl_intel_thread.a /opt/intel/mkl/lib/intel64/libmkl_core.a -Wl,-_end-group
 id        : olemiss

 Nodes     nprocs
 cn037        1

 Using customized tuning parameters: mindgm=1; mindgv=20; mindgc=4; mindgr=1; noblas=0; minvec=7
 default implementation of scratch files=df  

 ***,hno CCSD(T)/TZ-F12 QFF
 memory, 995, m;
 gthresh,energy=1.d-12,zero=1.d-22,oneint=1.d-22,twoint=1.d-22;
 gthresh,optgrad=1.d-8,optstep=1.d-8;
 nocompress;
 geomtyp=xyz
 bohr
 geometry={
 3
         76        76
 N        0.0000000000       -0.1685886750       -1.1672069937
 H        0.0000000000        1.6691604811       -1.9255249076
 O        0.0000000000        0.0411959839        1.1421423103
 }
 
 basis={
 default=aug-cc-pvtz
 s,C,8236.0,1235.0,280.8, 79.27,25.59, 8.997,3.319
 s,C,0.9059,0.3643,0.1285000
 p,C,56.0,18.71,4.133,0.2827,0.3827,0.1209
 d,C,30.0,10.0,3.3,1.097,0.318
 f,C,7.0,2.3,0.7610
 s,N,11420.0,1712.0,389.3,110.0,35.57,12.54,4.644
 s,N,1.293,0.5118,0.1787
 p,N,79.89,26.63,5.948,1.742,0.555,0.1725
 d,N,45.0,15.0,5.0,1.654,0.469
 f,N,9.9,3.3,1.093
 s,O,15330.0,2299.0,522.4,147.3,47.55,16.76,6.207
 s,O,1.752,0.6882,0.2384
 p,O,103.5,34.46,7.749,2.28,0.7156,0.214
 d,O,63.0,21.0,7.0,2.314,0.645
 f,O,12.9,4.3,1.428
 s,mg,164900.0,24710.0,5628.0,1596.0,521.0;
 s,mg,188.0,73.01,29.90,12.54,4.306,1.826;
 s,mg,0.7417,0.0761,0.145,0.033,0.0129;
 p,mg,950.70,316.90,74.86,23.72,8.669,3.363;
 p,mg,1.310,0.4911,0.2364,0.08733,0.03237,0.00745;
 d,mg,1.601,0.686,0.126,0.294,0.0468;
 f,mg,1.372,0.588,0.094,0.252;
 }
   {hf,maxit=500;accu,20;}
 {ccsd(t),nocheck,maxit=250;orbital,IGNORE_ERROR;}

 Variables initialized (889), CPU time= 0.00 sec
 Commands  initialized (702), CPU time= 0.01 sec, 572 directives.
 Default parameters read. Elapsed time= 0.05 sec

 Checking input...
 Passed
1


                                         ***  PROGRAM SYSTEM MOLPRO  ***
                                       Copyright, TTI GmbH Stuttgart, 2015
                                    Version 2015.1 linked Jul  9 2018 13:16:40


 **********************************************************************************************************************************
 LABEL *   hno CCSD(T)/TZ-F12 QFF                                                        
  64 bit serial version                                                                  DATE: 08-Feb-20          TIME: 17:58:14  
 **********************************************************************************************************************************

 SHA1:             d5ffa45e93fdbca01ffc919aa182cfdae0147319
 **********************************************************************************************************************************

 THRESHOLDS:

 ZERO    =  1.00D-22  ONEINT  =  1.00D-22  TWOINT  =  1.00D-22  PREFAC  =  1.00D-14  LOCALI  =  1.00D-09  EORDER  =  1.00D-04
 ENERGY  =  1.00D-12  ETEST   =  0.00D+00  EDENS   =  0.00D+00  THRDEDEF=  1.00D-06  GRADIENT=  1.00D-02  STEP    =  1.00D-03
 ORBITAL =  1.00D-05  CIVEC   =  1.00D-05  COEFF   =  1.00D-04  PRINTCI =  5.00D-02  PUNCHCI =  9.90D+01  OPTGRAD =  3.00D-04
 OPTENERG=  1.00D-06  OPTSTEP =  3.00D-04  THRGRAD =  1.00D-10  COMPRESS=  1.00D-11  VARMIN  =  1.00D-07  VARMAX  =  1.00D-03
 THRDOUB =  0.00D+00  THRDIV  =  1.00D-05  THRRED  =  1.00D-07  THRPSP  =  1.00D+00  THRDC   =  1.00D-10  THRCS   =  1.00D-10
 THRNRM  =  1.00D-08  THREQ   =  0.00D+00  THRDE   =  1.00D+00  THRREF  =  1.00D-05  SPARFAC =  1.00D+00  THRDLP  =  1.00D-07
 THRDIA  =  1.00D-10  THRDLS  =  1.00D-07  THRGPS  =  0.00D+00  THRKEX  =  0.00D+00  THRDIS  =  2.00D-01  THRVAR  =  1.00D-10
 THRLOC  =  1.00D-06  THRGAP  =  1.00D-06  THRLOCT = -1.00D+00  THRGAPT = -1.00D+00  THRORB  =  1.00D-06  THRMLTP =  0.00D+00
 THRCPQCI=  1.00D-10  KEXTA   =  0.00D+00  THRCOARS=  0.00D+00  SYMTOL  =  1.00D-06  GRADTOL =  1.00D-06  THROVL  =  1.00D-08
 THRORTH =  1.00D-08  GRID    =  1.00D-06  GRIDMAX =  1.00D-03  DTMAX   =  0.00D+00  THROCCDE=  1.00D-01  THROCCDE=  1.00D-01



 THRESHOLDS:

 ZERO    =  1.00D-22  ONEINT  =  1.00D-22  TWOINT  =  1.00D-22  PREFAC  =  1.00D-14  LOCALI  =  1.00D-09  EORDER  =  1.00D-04
 ENERGY  =  1.00D-12  ETEST   =  0.00D+00  EDENS   =  0.00D+00  THRDEDEF=  1.00D-06  GRADIENT=  1.00D-02  STEP    =  1.00D-03
 ORBITAL =  1.00D-05  CIVEC   =  1.00D-05  COEFF   =  1.00D-04  PRINTCI =  5.00D-02  PUNCHCI =  9.90D+01  OPTGRAD =  1.00D-08
 OPTENERG=  1.00D-06  OPTSTEP =  1.00D-08  THRGRAD =  1.00D-10  COMPRESS=  1.00D-11  VARMIN  =  1.00D-07  VARMAX  =  1.00D-03
 THRDOUB =  0.00D+00  THRDIV  =  1.00D-05  THRRED  =  1.00D-07  THRPSP  =  1.00D+00  THRDC   =  1.00D-10  THRCS   =  1.00D-10
 THRNRM  =  1.00D-08  THREQ   =  0.00D+00  THRDE   =  1.00D+00  THRREF  =  1.00D-05  SPARFAC =  1.00D+00  THRDLP  =  1.00D-07
 THRDIA  =  1.00D-10  THRDLS  =  1.00D-07  THRGPS  =  0.00D+00  THRKEX  =  0.00D+00  THRDIS  =  2.00D-01  THRVAR  =  1.00D-10
 THRLOC  =  1.00D-06  THRGAP  =  1.00D-06  THRLOCT = -1.00D+00  THRGAPT = -1.00D+00  THRORB  =  1.00D-06  THRMLTP =  0.00D+00
 THRCPQCI=  1.00D-10  KEXTA   =  0.00D+00  THRCOARS=  0.00D+00  SYMTOL  =  1.00D-06  GRADTOL =  1.00D-06  THROVL  =  1.00D-08
 THRORTH =  1.00D-08  GRID    =  1.00D-06  GRIDMAX =  1.00D-03  DTMAX   =  0.00D+00  THROCCDE=  1.00D-01  THROCCDE=  1.00D-01



 Input parameters for SORTINT:

 COMPRESS =    0.000000
 C_FINAL  =    1.000000
 DEBUG    =   -1.000000
 C_SORT1  =    0.000000
 C_SEWARD =    0.000000
 THRESH   =    0.000000
 IO       =  molpro                                                          
 SPRI     =    0.000000
 SETTING GEOMTYP        =    XYZ
 ZUNIT=BOHR
 

 Variable memory set to  995000000 words,  buffer space   230000 words

 SETTING BASIS          =    USERDEF


 Recomputing integrals since basis changed


 Using spherical harmonics

 Library entry H      S aug-cc-pVTZ          selected for orbital group  2
 Library entry H      P aug-cc-pVTZ          selected for orbital group  2
 Library entry H      D aug-cc-pVTZ          selected for orbital group  2


 PROGRAM * SEWARD (Integral evaluation for generally contracted gaussian basis sets)     Author: Roland Lindh, 1990

 Geometry written to block  1 of record 700


 Point group  Cs  



 ATOMIC COORDINATES

 NR  ATOM    CHARGE       X              Y              Z

   1  N       7.00    0.000000000   -0.168588675   -1.167206994
   2  H       1.00    0.000000000    1.669160481   -1.925524908
   3  O       8.00    0.000000000    0.041195984    1.142142310

 Bond lengths in Bohr (Angstrom)

 1-2  1.988056342  1-3  2.318858299
     ( 1.052034110)     ( 1.227086967)

 Bond angles

  2-1-3  107.23212621

 NUCLEAR CHARGE:                   16
 NUMBER OF PRIMITIVE AOS:         203
 NUMBER OF SYMMETRY AOS:          173
 NUMBER OF CONTRACTIONS:          171   ( 114A'  +  57A"  )
 NUMBER OF CORE ORBITALS:           2   (   2A'  +   0A"  )
 NUMBER OF VALENCE ORBITALS:        9   (   7A'  +   2A"  )


 NUCLEAR REPULSION ENERGY   29.97441033


 Eigenvalues of metric

         1 0.108E-02 0.267E-02 0.341E-02 0.646E-02 0.986E-02 0.137E-01 0.147E-01 0.234E-01
         2 0.366E-01 0.559E-01 0.715E-01 0.943E-01 0.132E+00 0.134E+00 0.141E+00 0.142E+00


 Contracted 2-electron integrals neglected if value below      1.0D-22

       46045465. INTEGRALS WRITTEN OUT IN   11245 BLOCKS ON RECORD 1290 OF FILE 1


 NUMBER OF SORTED TWO-ELECTRON INTEGRALS:   55360566.     BUFFER LENGTH:  32768
 NUMBER OF SEGMENTS:   4  SEGMENT LENGTH:   15997996      RECORD LENGTH: 524288

 Memory used in sort:      16.56 MW

 SORT1 READ    46045465. AND WROTE    46481979. INTEGRALS IN    135 RECORDS. CPU TIME:     1.31 SEC, REAL TIME:     1.64 SEC
 SORT2 READ    46481979. AND WROTE    55360566. INTEGRALS IN      4 RECORDS. CPU TIME:     0.74 SEC, REAL TIME:     1.02 SEC

 FILE SIZES:   FILE 1:   757.7 MBYTE,  FILE 4:   566.3 MBYTE,   TOTAL:   1323.9 MBYTE

 OPERATOR DM      FOR CENTER  0  COORDINATES:    0.000000    0.000000    0.000000


 **********************************************************************************************************************************
 DATASETS  * FILE   NREC   LENGTH (MB)   RECORD NAMES
              1      19      420.57       500      610      700      900      950      970     1000      129      960     1100   
                                          VAR    BASINP    GEOM    SYMINP    ZMAT    AOBASIS   BASIS     P2S    ABASIS      S 
                                         1400     1410     1200     1210     1080     1600     1650     1300     1700   
                                           T        V       H0       H01     AOSYM     SMH    MOLCAS    ERIS     OPER   

 PROGRAMS   *        TOTAL       INT
 CPU TIMES  *         5.72      5.63
 REAL TIME  *         7.50 SEC
 DISK USED  *         1.32 GB      
 **********************************************************************************************************************************


 PROGRAM * RHF-SCF (CLOSED SHELL)       Authors: W. Meyer, H.-J. Werner


 NUMBER OF ELECTRONS:       8+    8-
 CONVERGENCE THRESHOLDS:    1.00E-10 (Density)    1.00E-13 (Energy)
 MAX. NUMBER OF ITERATIONS:      500
 INTERPOLATION TYPE:            DIIS
 INTERPOLATION STEPS:              2 (START)      1 (STEP)
 LEVEL SHIFTS:                  0.00 (CLOSED)  0.00 (OPEN) 



 Orbital guess generated from atomic densities. Full valence occupancy:    9   2

 Molecular orbital dump at record        2100.2

 Initial occupancy:   7   1

 ITERATION    DDIFF          GRAD             ENERGY        2-EL.EN.            DIPOLE MOMENTS         DIIS   ORB.
    1      0.000D+00      0.000D+00      -129.78314386    153.361085    0.00000    0.56928   -1.07337    0    start
    2      0.000D+00      0.898D-02      -129.80929101    154.488967    0.00000    0.61006   -0.17946    1    diag
    3      0.375D-02      0.714D-02      -129.83560882    154.653684    0.00000    0.55140   -0.60711    2    diag
    4      0.150D-02      0.106D-02      -129.83642810    154.365979    0.00000    0.55951   -0.54177    3    diag
    5      0.337D-03      0.347D-03      -129.83655582    154.455453    0.00000    0.56546   -0.54378    4    diag
    6      0.156D-03      0.102D-03      -129.83657684    154.439074    0.00000    0.56591   -0.53931    5    diag
    7      0.615D-04      0.521D-04      -129.83658339    154.441419    0.00000    0.56719   -0.53652    6    diag
    8      0.424D-04      0.189D-04      -129.83658422    154.440488    0.00000    0.56724   -0.53546    7    diag
    9      0.163D-04      0.359D-05      -129.83658425    154.440358    0.00000    0.56718   -0.53524    8    diag
   10      0.343D-05      0.778D-06      -129.83658425    154.440344    0.00000    0.56715   -0.53522    9    orth
   11      0.923D-06      0.153D-06      -129.83658425    154.440340    0.00000    0.56714   -0.53521    9    diag
   12      0.214D-06      0.337D-07      -129.83658425    154.440339    0.00000    0.56714   -0.53521    9    diag
   13      0.535D-07      0.938D-08      -129.83658425    154.440339    0.00000    0.56714   -0.53521    9    diag
   14      0.126D-07      0.165D-08      -129.83658425    154.440339    0.00000    0.56714   -0.53521    9    diag
   15      0.140D-08      0.437D-09      -129.83658425    154.440339    0.00000    0.56714   -0.53521    9    diag
   16      0.365D-09      0.128D-09      -129.83658425    154.440339    0.00000    0.56714   -0.53521    9    diag
   17      0.682D-10      0.349D-10      -129.83658425    154.440339    0.00000    0.56714   -0.53521    0    orth

 Final occupancy:   7   1

 !RHF STATE 1.1 Energy               -129.836584253030
 Nuclear energy                        29.97441033
 One-electron energy                 -237.03116397
 Two-electron energy                   77.22016938
 Virial quotient                       -1.00215226
 !RHF STATE 1.1 Dipole moment           0.00000000     0.56713553    -0.53521107
 Dipole moment /Debye                   0.00000000     1.44142031    -1.36028175

 Orbital energies:

         1.1          2.1          3.1          4.1          5.1          6.1          7.1          8.1          9.1
    -20.652829   -15.714013    -1.513168    -0.996777    -0.739466    -0.658622    -0.435093     0.039512     0.191944

         1.2          2.2          3.2
     -0.585445     0.072666     0.238860

 HOMO      7.1    -0.435093 =     -11.8395eV
 LUMO      8.1     0.039512 =       1.0752eV
 LUMO-HOMO         0.474604 =      12.9146eV


 **********************************************************************************************************************************
 DATASETS  * FILE   NREC   LENGTH (MB)   RECORD NAMES
              1      19      420.57       500      610      700      900      950      970     1000      129      960     1100   
                                          VAR    BASINP    GEOM    SYMINP    ZMAT    AOBASIS   BASIS     P2S    ABASIS      S 
                                         1400     1410     1200     1210     1080     1600     1650     1300     1700   
                                           T        V       H0       H01     AOSYM     SMH    MOLCAS    ERIS     OPER   

              2       4        3.13       700     1000      520     2100   
                                         GEOM     BASIS   MCVARS     RHF  

 PROGRAMS   *        TOTAL        HF       INT
 CPU TIMES  *        10.81      5.09      5.63
 REAL TIME  *        13.89 SEC
 DISK USED  *         1.32 GB      
 **********************************************************************************************************************************


 PROGRAM * CCSD (Closed-shell coupled cluster)     Authors: C. Hampel, H.-J. Werner, 1991, M. Deegan, P.J. Knowles, 1992


 Convergence thresholds:  THRVAR = 1.00D-08  THRDEN = 1.00D-12

 CCSD(T)     terms to be evaluated (factor= 1.000)


 Number of core orbitals:           2 (   2   0 )
 Number of closed-shell orbitals:   6 (   5   1 )
 Number of external orbitals:     163 ( 107  56 )

 Molecular orbitals read from record     2100.2  Type=RHF/CANONICAL (state 1.1)

 Number of N-1 electron functions:               6
 Number of N-2 electron functions:              21
 Number of singly external CSFs:               591
 Number of doubly external CSFs:            250014
 Total number of CSFs:                      250606

 Length of J-op  integral file:               0.00 MB
 Length of K-op  integral file:               1.15 MB
 Length of 3-ext integral record:             0.00 MB

 Memory could be reduced to 19.93 Mwords without degradation in triples

 Integral transformation finished. Total CPU:   0.89 sec, npass=  1  Memory used:   5.10 MW

 Reference energy:                   -129.83658425

 MP2 singlet pair energy:              -0.28884099
 MP2 triplet pair energy:              -0.16850767
 MP2 correlation energy:               -0.45734866
 MP2 total energy:                   -130.29393291

 SCS-MP2 correlation energy:           -0.45145841   (PS=  1.200000  PT=  0.333333)
 SCS-MP2 total energy:               -130.28804266

 ITER.      SQ.NORM     CORR.ENERGY   TOTAL ENERGY   ENERGY CHANGE        DEN1      VAR(S)    VAR(P)  DIIS     TIME  TIME/IT
   1      1.12085588    -0.45873968  -130.29532394    -0.00139102     0.01620867  0.34D-02  0.33D-02  1  1     1.70     0.88
   2      1.13185328    -0.45849066  -130.29507491     0.00024902    -0.01300064  0.13D-03  0.52D-03  2  2     2.54     0.90
   3      1.13878652    -0.45888762  -130.29547187    -0.00039696    -0.00348877  0.48D-04  0.63D-04  3  3     3.39     0.91
   4      1.14187547    -0.45892241  -130.29550666    -0.00003479    -0.00100298  0.50D-05  0.11D-04  4  4     4.23     0.91
   5      1.14307509    -0.45895869  -130.29554294    -0.00003628    -0.00024538  0.14D-05  0.18D-05  5  5     5.07     0.92
   6      1.14350294    -0.45894092  -130.29552517     0.00001777    -0.00007146  0.13D-06  0.42D-06  6  6     5.91     0.92
   7      1.14357437    -0.45894261  -130.29552686    -0.00000169     0.00000981  0.16D-07  0.97D-07  6  1     6.76     0.92
   8      1.14360997    -0.45894193  -130.29552618     0.00000068    -0.00000516  0.46D-08  0.16D-07  6  2     7.63     0.92
   9      1.14361501    -0.45894179  -130.29552604     0.00000014     0.00000140  0.22D-08  0.19D-08  6  3     8.46     0.92
  10      1.14361570    -0.45894212  -130.29552637    -0.00000033    -0.00000043  0.53D-09  0.30D-09  6  4     9.31     0.92
  11      1.14361416    -0.45894226  -130.29552652    -0.00000015     0.00000036  0.13D-09  0.30D-10  6  5    10.15     0.92
  12      1.14361297    -0.45894242  -130.29552668    -0.00000016     0.00000049  0.16D-10  0.82D-11  6  6    11.00     0.92
  13      1.14361228    -0.45894245  -130.29552670    -0.00000002     0.00000012  0.58D-11  0.15D-11  6  1    11.84     0.92
  14      1.14361174    -0.45894248  -130.29552673    -0.00000003     0.00000012  0.51D-12  0.48D-12  6  3    12.67     0.92
  15      1.14361158    -0.45894247  -130.29552673     0.00000000     0.00000001  0.14D-12  0.35D-13  6  2    13.51     0.92
  16      1.14361152    -0.45894248  -130.29552673    -0.00000000     0.00000001  0.33D-13  0.82D-14  6  4    14.34     0.92
  17      1.14361149    -0.45894248  -130.29552673    -0.00000000     0.00000001  0.48D-14  0.13D-14  6  5    15.19     0.92
  18      1.14361149    -0.45894248  -130.29552673    -0.00000000     0.00000000  0.57D-15  0.38D-15  6  6    16.01     0.92
  19      1.14361149    -0.45894248  -130.29552673     0.00000000    -0.00000000  0.82D-16  0.59D-16  6  1    16.87     0.92
  20      1.14361149    -0.45894248  -130.29552673     0.00000000    -0.00000000  0.39D-17  0.15D-16  6  3    17.70     0.92
  21      1.14361149    -0.45894248  -130.29552673     0.00000000    -0.00000000  0.64D-18  0.34D-17  6  4    18.57     0.92
  22      1.14361149    -0.45894248  -130.29552673     0.00000000    -0.00000000  0.76D-19  0.12D-17  6  2    19.41     0.92
  23      1.14361149    -0.45894248  -130.29552673    -0.00000000     0.00000000  0.11D-18  0.22D-18  6  5    20.26     0.92
  24      1.14361149    -0.45894248  -130.29552673    -0.00000000     0.00000000  0.49D-20  0.20D-19  6  1    21.08     0.92
  25      1.14361149    -0.45894248  -130.29552673     0.00000000    -0.00000000  0.27D-20  0.14D-20  6  6    21.89     0.92

 Norm of t1 vector:      0.08003804      S-energy:     0.00000000      T1 diagnostic:  0.01633770
                                                                       D1 diagnostic:  0.04542905

 Doubles amplitudes (print threshold =  0.500E-01):

         I         J         SYM. A    SYM. B    A         B      T(IJ, AB)

         6         6         2         2         1         1     -0.14133368


 Total CPU time for triples:      6.94 sec


 RESULTS
 =======

  Reference energy                   -129.836584253030
  CCSD singlet pair energy             -0.315650808451
  CCSD triplet pair energy             -0.143291669625
  CCSD correlation energy              -0.458942478064

  Triples (T) contribution             -0.021790065299
  Total correlation energy             -0.480732543363

  CCSD total energy                  -130.295526731094
  CCSD[T] energy                     -130.318494983002
  CCSD-T energy                      -130.316882461775
 !CCSD(T) total energy               -130.317316796393

 Timing summary (sec):

 STEP                 CPU(USER)    SYS     CPU(TOT)    WALL
 Transformation          0.90      0.16      1.06      1.06
 CCSD iterations        21.00      2.12     23.12     23.13
 Triples                 6.94      0.23      7.17      7.17

 Program statistics:

 Available memory in ccsd:               994999756
 Min. memory needed in ccsd:                887758
 Max. memory used in ccsd:                 1088212
 Max. memory used in cckext:               1535578 (25 integral passes)



 **********************************************************************************************************************************
 DATASETS  * FILE   NREC   LENGTH (MB)   RECORD NAMES
              1      20      478.52       500      610      700      900      950      970     1000      129      960     1100   
                                          VAR    BASINP    GEOM    SYMINP    ZMAT    AOBASIS   BASIS     P2S    ABASIS      S 
                                         1400     1410     1200     1210     1080     1600     1650     1300     1700     1380   
                                           T        V       H0       H01     AOSYM     SMH    MOLCAS    ERIS     OPER     JKOP   

              2       4        3.13       700     1000      520     2100   
                                         GEOM     BASIS   MCVARS     RHF  

 PROGRAMS   *        TOTAL   CCSD(T)        HF       INT
 CPU TIMES  *        39.68     28.87      5.09      5.63
 REAL TIME  *        45.35 SEC
 DISK USED  *         1.32 GB      
 **********************************************************************************************************************************

 CCSD(T)/USERDEF energy=   -130.317316796393

        CCSD(T)         HF-SCF  
   -130.31731680   -129.83658425
 **********************************************************************************************************************************
 Molpro calculation terminated
 Variable memory released
