
 Primary working directories    : /tmp/r2666/235325.maple
 Secondary working directories  : /tmp/r2666/235325.maple
 Wavefunction directory         : /ddn/home4/r2666/wfu/
 Main file repository           : /tmp/r2666/235325.maple/

 SHA1      : d5ffa45e93fdbca01ffc919aa182cfdae0147319
 NAME      : 2015.1.35
 ARCHNAME  : linux/x86_64
 FC        : /opt/intel/composer_xe_2015.1.133/bin/intel64/ifort
 BLASLIB   : -Wl,-_start-group /opt/intel/mkl/lib/intel64/libmkl_intel_ilp64.a /opt/intel/mkl/lib/intel64/libmkl_intel_thread.a /opt/intel/mkl/lib/intel64/libmkl_core.a -Wl,-_end-group
 id        : olemiss

 Nodes     nprocs
 cn030        1

 Using customized tuning parameters: mindgm=1; mindgv=20; mindgc=4; mindgr=1; noblas=0; minvec=7
 default implementation of scratch files=df  

 ***,hno CCSD(T)/TZ-F12 QFF
 memory, 995, m;
 gthresh,energy=1.d-12,zero=1.d-22,oneint=1.d-22,twoint=1.d-22;
 gthresh,optgrad=1.d-8,optstep=1.d-8;
 nocompress;
 geomtyp=xyz
 bohr
 geometry={
 3
         51        51
 N        0.0000000000       -0.1606799497       -1.1372183735
 H        0.0000000000        1.6647664230       -1.9246912683
 O        0.0000000000        0.0376813167        1.1113200508
 }
 
 basis={
 default=aug-cc-pvtz
 s,C,8236.0,1235.0,280.8, 79.27,25.59, 8.997,3.319
 s,C,0.9059,0.3643,0.1285000
 p,C,56.0,18.71,4.133,0.2827,0.3827,0.1209
 d,C,30.0,10.0,3.3,1.097,0.318
 f,C,7.0,2.3,0.7610
 s,N,11420.0,1712.0,389.3,110.0,35.57,12.54,4.644
 s,N,1.293,0.5118,0.1787
 p,N,79.89,26.63,5.948,1.742,0.555,0.1725
 d,N,45.0,15.0,5.0,1.654,0.469
 f,N,9.9,3.3,1.093
 s,O,15330.0,2299.0,522.4,147.3,47.55,16.76,6.207
 s,O,1.752,0.6882,0.2384
 p,O,103.5,34.46,7.749,2.28,0.7156,0.214
 d,O,63.0,21.0,7.0,2.314,0.645
 f,O,12.9,4.3,1.428
 s,mg,164900.0,24710.0,5628.0,1596.0,521.0;
 s,mg,188.0,73.01,29.90,12.54,4.306,1.826;
 s,mg,0.7417,0.0761,0.145,0.033,0.0129;
 p,mg,950.70,316.90,74.86,23.72,8.669,3.363;
 p,mg,1.310,0.4911,0.2364,0.08733,0.03237,0.00745;
 d,mg,1.601,0.686,0.126,0.294,0.0468;
 f,mg,1.372,0.588,0.094,0.252;
 }
   {hf,maxit=500;accu,20;}
 {ccsd(t),nocheck,maxit=250;orbital,IGNORE_ERROR;}

 Variables initialized (889), CPU time= 0.00 sec
 Commands  initialized (702), CPU time= 0.01 sec, 572 directives.
 Default parameters read. Elapsed time= 0.05 sec

 Checking input...
 Passed
1


                                         ***  PROGRAM SYSTEM MOLPRO  ***
                                       Copyright, TTI GmbH Stuttgart, 2015
                                    Version 2015.1 linked Jul  9 2018 13:16:40


 **********************************************************************************************************************************
 LABEL *   hno CCSD(T)/TZ-F12 QFF                                                        
  64 bit serial version                                                                  DATE: 08-Feb-20          TIME: 17:57:31  
 **********************************************************************************************************************************

 SHA1:             d5ffa45e93fdbca01ffc919aa182cfdae0147319
 **********************************************************************************************************************************

 THRESHOLDS:

 ZERO    =  1.00D-22  ONEINT  =  1.00D-22  TWOINT  =  1.00D-22  PREFAC  =  1.00D-14  LOCALI  =  1.00D-09  EORDER  =  1.00D-04
 ENERGY  =  1.00D-12  ETEST   =  0.00D+00  EDENS   =  0.00D+00  THRDEDEF=  1.00D-06  GRADIENT=  1.00D-02  STEP    =  1.00D-03
 ORBITAL =  1.00D-05  CIVEC   =  1.00D-05  COEFF   =  1.00D-04  PRINTCI =  5.00D-02  PUNCHCI =  9.90D+01  OPTGRAD =  3.00D-04
 OPTENERG=  1.00D-06  OPTSTEP =  3.00D-04  THRGRAD =  1.00D-10  COMPRESS=  1.00D-11  VARMIN  =  1.00D-07  VARMAX  =  1.00D-03
 THRDOUB =  0.00D+00  THRDIV  =  1.00D-05  THRRED  =  1.00D-07  THRPSP  =  1.00D+00  THRDC   =  1.00D-10  THRCS   =  1.00D-10
 THRNRM  =  1.00D-08  THREQ   =  0.00D+00  THRDE   =  1.00D+00  THRREF  =  1.00D-05  SPARFAC =  1.00D+00  THRDLP  =  1.00D-07
 THRDIA  =  1.00D-10  THRDLS  =  1.00D-07  THRGPS  =  0.00D+00  THRKEX  =  0.00D+00  THRDIS  =  2.00D-01  THRVAR  =  1.00D-10
 THRLOC  =  1.00D-06  THRGAP  =  1.00D-06  THRLOCT = -1.00D+00  THRGAPT = -1.00D+00  THRORB  =  1.00D-06  THRMLTP =  0.00D+00
 THRCPQCI=  1.00D-10  KEXTA   =  0.00D+00  THRCOARS=  0.00D+00  SYMTOL  =  1.00D-06  GRADTOL =  1.00D-06  THROVL  =  1.00D-08
 THRORTH =  1.00D-08  GRID    =  1.00D-06  GRIDMAX =  1.00D-03  DTMAX   =  0.00D+00  THROCCDE=  1.00D-01  THROCCDE=  1.00D-01



 THRESHOLDS:

 ZERO    =  1.00D-22  ONEINT  =  1.00D-22  TWOINT  =  1.00D-22  PREFAC  =  1.00D-14  LOCALI  =  1.00D-09  EORDER  =  1.00D-04
 ENERGY  =  1.00D-12  ETEST   =  0.00D+00  EDENS   =  0.00D+00  THRDEDEF=  1.00D-06  GRADIENT=  1.00D-02  STEP    =  1.00D-03
 ORBITAL =  1.00D-05  CIVEC   =  1.00D-05  COEFF   =  1.00D-04  PRINTCI =  5.00D-02  PUNCHCI =  9.90D+01  OPTGRAD =  1.00D-08
 OPTENERG=  1.00D-06  OPTSTEP =  1.00D-08  THRGRAD =  1.00D-10  COMPRESS=  1.00D-11  VARMIN  =  1.00D-07  VARMAX  =  1.00D-03
 THRDOUB =  0.00D+00  THRDIV  =  1.00D-05  THRRED  =  1.00D-07  THRPSP  =  1.00D+00  THRDC   =  1.00D-10  THRCS   =  1.00D-10
 THRNRM  =  1.00D-08  THREQ   =  0.00D+00  THRDE   =  1.00D+00  THRREF  =  1.00D-05  SPARFAC =  1.00D+00  THRDLP  =  1.00D-07
 THRDIA  =  1.00D-10  THRDLS  =  1.00D-07  THRGPS  =  0.00D+00  THRKEX  =  0.00D+00  THRDIS  =  2.00D-01  THRVAR  =  1.00D-10
 THRLOC  =  1.00D-06  THRGAP  =  1.00D-06  THRLOCT = -1.00D+00  THRGAPT = -1.00D+00  THRORB  =  1.00D-06  THRMLTP =  0.00D+00
 THRCPQCI=  1.00D-10  KEXTA   =  0.00D+00  THRCOARS=  0.00D+00  SYMTOL  =  1.00D-06  GRADTOL =  1.00D-06  THROVL  =  1.00D-08
 THRORTH =  1.00D-08  GRID    =  1.00D-06  GRIDMAX =  1.00D-03  DTMAX   =  0.00D+00  THROCCDE=  1.00D-01  THROCCDE=  1.00D-01



 Input parameters for SORTINT:

 COMPRESS =    0.000000
 C_FINAL  =    1.000000
 DEBUG    =   -1.000000
 C_SORT1  =    0.000000
 C_SEWARD =    0.000000
 THRESH   =    0.000000
 IO       =  molpro                                                          
 SPRI     =    0.000000
 SETTING GEOMTYP        =    XYZ
 ZUNIT=BOHR
 

 Variable memory set to  995000000 words,  buffer space   230000 words

 SETTING BASIS          =    USERDEF


 Recomputing integrals since basis changed


 Using spherical harmonics

 Library entry H      S aug-cc-pVTZ          selected for orbital group  2
 Library entry H      P aug-cc-pVTZ          selected for orbital group  2
 Library entry H      D aug-cc-pVTZ          selected for orbital group  2


 PROGRAM * SEWARD (Integral evaluation for generally contracted gaussian basis sets)     Author: Roland Lindh, 1990

 Geometry written to block  1 of record 700


 Point group  Cs  



 ATOMIC COORDINATES

 NR  ATOM    CHARGE       X              Y              Z

   1  N       7.00    0.000000000   -0.160679950   -1.137218374
   2  H       1.00    0.000000000    1.664766423   -1.924691268
   3  O       8.00    0.000000000    0.037681317    1.111320051

 Bond lengths in Bohr (Angstrom)

 1-2  1.988056342  1-3  2.257270971
     ( 1.052034110)     ( 1.194496357)

 Bond angles

  2-1-3  108.29325414

 NUCLEAR CHARGE:                   16
 NUMBER OF PRIMITIVE AOS:         203
 NUMBER OF SYMMETRY AOS:          173
 NUMBER OF CONTRACTIONS:          171   ( 114A'  +  57A"  )
 NUMBER OF CORE ORBITALS:           2   (   2A'  +   0A"  )
 NUMBER OF VALENCE ORBITALS:        9   (   7A'  +   2A"  )


 NUCLEAR REPULSION ENERGY   30.65226997


 Eigenvalues of metric

         1 0.102E-02 0.238E-02 0.327E-02 0.629E-02 0.984E-02 0.136E-01 0.143E-01 0.228E-01
         2 0.362E-01 0.511E-01 0.691E-01 0.939E-01 0.130E+00 0.134E+00 0.140E+00 0.142E+00


 Contracted 2-electron integrals neglected if value below      1.0D-22

       46262825. INTEGRALS WRITTEN OUT IN   11298 BLOCKS ON RECORD 1290 OF FILE 1


 NUMBER OF SORTED TWO-ELECTRON INTEGRALS:   55360566.     BUFFER LENGTH:  32768
 NUMBER OF SEGMENTS:   4  SEGMENT LENGTH:   15997996      RECORD LENGTH: 524288

 Memory used in sort:      16.56 MW

 SORT1 READ    46262825. AND WROTE    46701436. INTEGRALS IN    136 RECORDS. CPU TIME:     1.28 SEC, REAL TIME:     1.64 SEC
 SORT2 READ    46701436. AND WROTE    55360566. INTEGRALS IN      4 RECORDS. CPU TIME:     0.75 SEC, REAL TIME:     1.02 SEC

 FILE SIZES:   FILE 1:   761.2 MBYTE,  FILE 4:   570.5 MBYTE,   TOTAL:   1331.6 MBYTE

 OPERATOR DM      FOR CENTER  0  COORDINATES:    0.000000    0.000000    0.000000


 **********************************************************************************************************************************
 DATASETS  * FILE   NREC   LENGTH (MB)   RECORD NAMES
              1      19      422.02       500      610      700      900      950      970     1000      129      960     1100   
                                          VAR    BASINP    GEOM    SYMINP    ZMAT    AOBASIS   BASIS     P2S    ABASIS      S 
                                         1400     1410     1200     1210     1080     1600     1650     1300     1700   
                                           T        V       H0       H01     AOSYM     SMH    MOLCAS    ERIS     OPER   

 PROGRAMS   *        TOTAL       INT
 CPU TIMES  *         5.69      5.60
 REAL TIME  *         7.39 SEC
 DISK USED  *         1.33 GB      
 **********************************************************************************************************************************


 PROGRAM * RHF-SCF (CLOSED SHELL)       Authors: W. Meyer, H.-J. Werner


 NUMBER OF ELECTRONS:       8+    8-
 CONVERGENCE THRESHOLDS:    1.00E-10 (Density)    1.00E-13 (Energy)
 MAX. NUMBER OF ITERATIONS:      500
 INTERPOLATION TYPE:            DIIS
 INTERPOLATION STEPS:              2 (START)      1 (STEP)
 LEVEL SHIFTS:                  0.00 (CLOSED)  0.00 (OPEN) 



 Orbital guess generated from atomic densities. Full valence occupancy:    9   2

 Molecular orbital dump at record        2100.2

 Initial occupancy:   7   1

 ITERATION    DDIFF          GRAD             ENERGY        2-EL.EN.            DIPOLE MOMENTS         DIIS   ORB.
    1      0.000D+00      0.000D+00      -129.79281290    154.566961    0.00000    0.56408   -0.97078    0    start
    2      0.000D+00      0.865D-02      -129.82007035    155.766323    0.00000    0.58874   -0.20263    1    diag
    3      0.357D-02      0.638D-02      -129.84069936    155.858331    0.00000    0.54017   -0.56405    2    diag
    4      0.136D-02      0.102D-02      -129.84145414    155.593749    0.00000    0.54854   -0.50406    3    diag
    5      0.326D-03      0.330D-03      -129.84156949    155.680657    0.00000    0.55457   -0.50674    4    diag
    6      0.151D-03      0.968D-04      -129.84158820    155.664755    0.00000    0.55521   -0.50286    5    diag
    7      0.602D-04      0.479D-04      -129.84159351    155.667431    0.00000    0.55658   -0.50054    6    diag
    8      0.404D-04      0.157D-04      -129.84159403    155.666666    0.00000    0.55664   -0.49973    7    diag
    9      0.131D-04      0.289D-05      -129.84159405    155.666564    0.00000    0.55660   -0.49957    8    diag
   10      0.257D-05      0.680D-06      -129.84159405    155.666550    0.00000    0.55656   -0.49954    9    orth
   11      0.817D-06      0.138D-06      -129.84159405    155.666546    0.00000    0.55655   -0.49954    9    diag
   12      0.198D-06      0.280D-07      -129.84159405    155.666545    0.00000    0.55655   -0.49953    9    diag
   13      0.482D-07      0.725D-08      -129.84159405    155.666545    0.00000    0.55655   -0.49953    9    diag
   14      0.109D-07      0.133D-08      -129.84159405    155.666545    0.00000    0.55655   -0.49953    9    diag
   15      0.154D-08      0.374D-09      -129.84159405    155.666545    0.00000    0.55655   -0.49953    9    diag
   16      0.337D-09      0.117D-09      -129.84159405    155.666545    0.00000    0.55655   -0.49953    9    diag
   17      0.934D-10      0.346D-10      -129.84159405    155.666545    0.00000    0.55655   -0.49953    0    orth

 Final occupancy:   7   1

 !RHF STATE 1.1 Energy               -129.841594049032
 Nuclear energy                        30.65226997
 One-electron energy                 -238.32713650
 Two-electron energy                   77.83327248
 Virial quotient                       -1.00122001
 !RHF STATE 1.1 Dipole moment           0.00000000     0.55655072    -0.49953333
 Dipole moment /Debye                   0.00000000     1.41451819    -1.26960393

 Orbital energies:

         1.1          2.1          3.1          4.1          5.1          6.1          7.1          8.1          9.1
    -20.650054   -15.708329    -1.539207    -0.989875    -0.749388    -0.668192    -0.424535     0.039911     0.193505

         1.2          2.2          3.2
     -0.600715     0.083801     0.240012

 HOMO      7.1    -0.424535 =     -11.5522eV
 LUMO      8.1     0.039911 =       1.0860eV
 LUMO-HOMO         0.464447 =      12.6382eV


 **********************************************************************************************************************************
 DATASETS  * FILE   NREC   LENGTH (MB)   RECORD NAMES
              1      19      422.02       500      610      700      900      950      970     1000      129      960     1100   
                                          VAR    BASINP    GEOM    SYMINP    ZMAT    AOBASIS   BASIS     P2S    ABASIS      S 
                                         1400     1410     1200     1210     1080     1600     1650     1300     1700   
                                           T        V       H0       H01     AOSYM     SMH    MOLCAS    ERIS     OPER   

              2       4        3.13       700     1000      520     2100   
                                         GEOM     BASIS   MCVARS     RHF  

 PROGRAMS   *        TOTAL        HF       INT
 CPU TIMES  *        10.69      5.00      5.60
 REAL TIME  *        13.80 SEC
 DISK USED  *         1.33 GB      
 **********************************************************************************************************************************


 PROGRAM * CCSD (Closed-shell coupled cluster)     Authors: C. Hampel, H.-J. Werner, 1991, M. Deegan, P.J. Knowles, 1992


 Convergence thresholds:  THRVAR = 1.00D-08  THRDEN = 1.00D-12

 CCSD(T)     terms to be evaluated (factor= 1.000)


 Number of core orbitals:           2 (   2   0 )
 Number of closed-shell orbitals:   6 (   5   1 )
 Number of external orbitals:     163 ( 107  56 )

 Molecular orbitals read from record     2100.2  Type=RHF/CANONICAL (state 1.1)

 Number of N-1 electron functions:               6
 Number of N-2 electron functions:              21
 Number of singly external CSFs:               591
 Number of doubly external CSFs:            250014
 Total number of CSFs:                      250606

 Length of J-op  integral file:               0.00 MB
 Length of K-op  integral file:               1.15 MB
 Length of 3-ext integral record:             0.00 MB

 Memory could be reduced to 19.93 Mwords without degradation in triples

 Integral transformation finished. Total CPU:   0.88 sec, npass=  1  Memory used:   5.10 MW

 Reference energy:                   -129.84159405

 MP2 singlet pair energy:              -0.28552609
 MP2 triplet pair energy:              -0.16629658
 MP2 correlation energy:               -0.45182268
 MP2 total energy:                   -130.29341673

 SCS-MP2 correlation energy:           -0.44610474   (PS=  1.200000  PT=  0.333333)
 SCS-MP2 total energy:               -130.28769879

 ITER.      SQ.NORM     CORR.ENERGY   TOTAL ENERGY   ENERGY CHANGE        DEN1      VAR(S)    VAR(P)  DIIS     TIME  TIME/IT
   1      1.11737076    -0.45445231  -130.29604636    -0.00262964     0.01356224  0.30D-02  0.29D-02  1  1     1.69     0.88
   2      1.12756194    -0.45447895  -130.29607300    -0.00002663    -0.01217420  0.11D-03  0.48D-03  2  2     2.53     0.91
   3      1.13386127    -0.45483374  -130.29642779    -0.00035479    -0.00328193  0.41D-04  0.54D-04  3  3     3.37     0.92
   4      1.13657590    -0.45486425  -130.29645830    -0.00003052    -0.00090424  0.40D-05  0.91D-05  4  4     4.20     0.92
   5      1.13757225    -0.45489401  -130.29648806    -0.00002976    -0.00020361  0.13D-05  0.17D-05  5  5     5.05     0.92
   6      1.13794663    -0.45487970  -130.29647375     0.00001431    -0.00006179  0.12D-06  0.42D-06  6  6     5.85     0.92
   7      1.13801995    -0.45488106  -130.29647511    -0.00000136     0.00000760  0.18D-07  0.88D-07  6  1     6.71     0.92
   8      1.13805369    -0.45488078  -130.29647483     0.00000028    -0.00000427  0.49D-08  0.13D-07  6  2     7.52     0.93
   9      1.13805907    -0.45488068  -130.29647472     0.00000011     0.00000068  0.20D-08  0.14D-08  6  3     8.39     0.93
  10      1.13805932    -0.45488099  -130.29647504    -0.00000032    -0.00000014  0.45D-09  0.22D-09  6  4     9.22     0.93
  11      1.13805784    -0.45488112  -130.29647517    -0.00000013     0.00000033  0.11D-09  0.22D-10  6  5    10.01     0.93
  12      1.13805674    -0.45488126  -130.29647531    -0.00000014     0.00000044  0.14D-10  0.67D-11  6  6    10.81     0.93
  13      1.13805613    -0.45488128  -130.29647532    -0.00000002     0.00000012  0.56D-11  0.12D-11  6  1    11.65     0.93
  14      1.13805566    -0.45488130  -130.29647535    -0.00000003     0.00000011  0.53D-12  0.39D-12  6  3    12.50     0.93
  15      1.13805551    -0.45488130  -130.29647535    -0.00000000     0.00000001  0.13D-12  0.27D-13  6  2    13.33     0.93
  16      1.13805547    -0.45488130  -130.29647535    -0.00000000     0.00000001  0.30D-13  0.68D-14  6  4    14.16     0.93
  17      1.13805545    -0.45488130  -130.29647535    -0.00000000     0.00000001  0.34D-14  0.11D-14  6  5    15.01     0.93
  18      1.13805545    -0.45488130  -130.29647535     0.00000000    -0.00000000  0.37D-15  0.28D-15  6  6    15.86     0.93
  19      1.13805546    -0.45488130  -130.29647535     0.00000000    -0.00000000  0.48D-16  0.31D-16  6  1    16.73     0.93
  20      1.13805546    -0.45488130  -130.29647535     0.00000000    -0.00000000  0.26D-17  0.66D-17  6  3    17.57     0.93
  21      1.13805546    -0.45488130  -130.29647535     0.00000000    -0.00000000  0.44D-18  0.13D-17  6  4    18.40     0.93
  22      1.13805546    -0.45488130  -130.29647535     0.00000000    -0.00000000  0.16D-19  0.45D-18  6  2    19.22     0.93
  23      1.13805546    -0.45488130  -130.29647535    -0.00000000     0.00000000  0.27D-19  0.10D-18  6  5    20.04     0.93
  24      1.13805546    -0.45488130  -130.29647535    -0.00000000     0.00000000  0.40D-20  0.96D-20  6  1    20.89     0.93
  25      1.13805546    -0.45488130  -130.29647535     0.00000000    -0.00000000  0.15D-20  0.63D-21  6  6    21.75     0.93

 Norm of t1 vector:      0.07517979      S-energy:     0.00000000      T1 diagnostic:  0.01534601
                                                                       D1 diagnostic:  0.04129257

 Doubles amplitudes (print threshold =  0.500E-01):

         I         J         SYM. A    SYM. B    A         B      T(IJ, AB)

         6         6         2         2         1         1     -0.13133066


 Total CPU time for triples:      6.91 sec


 RESULTS
 =======

  Reference energy                   -129.841594049032
  CCSD singlet pair energy             -0.312098853473
  CCSD triplet pair energy             -0.142782448975
  CCSD correlation energy              -0.454881302442

  Triples (T) contribution             -0.020792080892
  Total correlation energy             -0.475673383335

  CCSD total energy                  -130.296475351475
  CCSD[T] energy                     -130.318306379700
  CCSD-T energy                      -130.316868383852
 !CCSD(T) total energy               -130.317267432367

 Timing summary (sec):

 STEP                 CPU(USER)    SYS     CPU(TOT)    WALL
 Transformation          0.89      0.17      1.06      1.06
 CCSD iterations        20.88      2.40     23.28     23.27
 Triples                 6.91      0.18      7.09      7.10

 Program statistics:

 Available memory in ccsd:               994999756
 Min. memory needed in ccsd:                887758
 Max. memory used in ccsd:                 1088212
 Max. memory used in cckext:               1535578 (25 integral passes)



 **********************************************************************************************************************************
 DATASETS  * FILE   NREC   LENGTH (MB)   RECORD NAMES
              1      20      479.97       500      610      700      900      950      970     1000      129      960     1100   
                                          VAR    BASINP    GEOM    SYMINP    ZMAT    AOBASIS   BASIS     P2S    ABASIS      S 
                                         1400     1410     1200     1210     1080     1600     1650     1300     1700     1380   
                                           T        V       H0       H01     AOSYM     SMH    MOLCAS    ERIS     OPER     JKOP   

              2       4        3.13       700     1000      520     2100   
                                         GEOM     BASIS   MCVARS     RHF  

 PROGRAMS   *        TOTAL   CCSD(T)        HF       INT
 CPU TIMES  *        39.39     28.70      5.00      5.60
 REAL TIME  *        45.27 SEC
 DISK USED  *         1.33 GB      
 **********************************************************************************************************************************

 CCSD(T)/USERDEF energy=   -130.317267432367

        CCSD(T)         HF-SCF  
   -130.31726743   -129.84159405
 **********************************************************************************************************************************
 Molpro calculation terminated
 Variable memory released
