
 Primary working directories    : /tmp/r2666/235323.maple
 Secondary working directories  : /tmp/r2666/235323.maple
 Wavefunction directory         : /ddn/home4/r2666/wfu/
 Main file repository           : /tmp/r2666/235323.maple/

 SHA1      : d5ffa45e93fdbca01ffc919aa182cfdae0147319
 NAME      : 2015.1.35
 ARCHNAME  : linux/x86_64
 FC        : /opt/intel/composer_xe_2015.1.133/bin/intel64/ifort
 BLASLIB   : -Wl,-_start-group /opt/intel/mkl/lib/intel64/libmkl_intel_ilp64.a /opt/intel/mkl/lib/intel64/libmkl_intel_thread.a /opt/intel/mkl/lib/intel64/libmkl_core.a -Wl,-_end-group
 id        : olemiss

 Nodes     nprocs
 cn026        1

 Using customized tuning parameters: mindgm=1; mindgv=20; mindgc=4; mindgr=1; noblas=0; minvec=7
 default implementation of scratch files=df  

 ***,hno CCSD(T)/TZ-F12 QFF
 memory, 995, m;
 gthresh,energy=1.d-12,zero=1.d-22,oneint=1.d-22,twoint=1.d-22;
 gthresh,optgrad=1.d-8,optstep=1.d-8;
 nocompress;
 geomtyp=xyz
 bohr
 geometry={
 3
         49        49
 N        0.0000000000       -0.1676771826       -1.1461977774
 H        0.0000000000        1.6650551726       -1.9165614146
 O        0.0000000000        0.0443898000        1.1121696010
 }
 
 basis={
 default=aug-cc-pvtz
 s,C,8236.0,1235.0,280.8, 79.27,25.59, 8.997,3.319
 s,C,0.9059,0.3643,0.1285000
 p,C,56.0,18.71,4.133,0.2827,0.3827,0.1209
 d,C,30.0,10.0,3.3,1.097,0.318
 f,C,7.0,2.3,0.7610
 s,N,11420.0,1712.0,389.3,110.0,35.57,12.54,4.644
 s,N,1.293,0.5118,0.1787
 p,N,79.89,26.63,5.948,1.742,0.555,0.1725
 d,N,45.0,15.0,5.0,1.654,0.469
 f,N,9.9,3.3,1.093
 s,O,15330.0,2299.0,522.4,147.3,47.55,16.76,6.207
 s,O,1.752,0.6882,0.2384
 p,O,103.5,34.46,7.749,2.28,0.7156,0.214
 d,O,63.0,21.0,7.0,2.314,0.645
 f,O,12.9,4.3,1.428
 s,mg,164900.0,24710.0,5628.0,1596.0,521.0;
 s,mg,188.0,73.01,29.90,12.54,4.306,1.826;
 s,mg,0.7417,0.0761,0.145,0.033,0.0129;
 p,mg,950.70,316.90,74.86,23.72,8.669,3.363;
 p,mg,1.310,0.4911,0.2364,0.08733,0.03237,0.00745;
 d,mg,1.601,0.686,0.126,0.294,0.0468;
 f,mg,1.372,0.588,0.094,0.252;
 }
   {hf,maxit=500;accu,20;}
 {ccsd(t),nocheck,maxit=250;orbital,IGNORE_ERROR;}

 Variables initialized (889), CPU time= 0.00 sec
 Commands  initialized (702), CPU time= 0.01 sec, 572 directives.
 Default parameters read. Elapsed time= 0.06 sec

 Checking input...
 Passed
1


                                         ***  PROGRAM SYSTEM MOLPRO  ***
                                       Copyright, TTI GmbH Stuttgart, 2015
                                    Version 2015.1 linked Jul  9 2018 13:16:40


 **********************************************************************************************************************************
 LABEL *   hno CCSD(T)/TZ-F12 QFF                                                        
  64 bit serial version                                                                  DATE: 08-Feb-20          TIME: 17:57:31  
 **********************************************************************************************************************************

 SHA1:             d5ffa45e93fdbca01ffc919aa182cfdae0147319
 **********************************************************************************************************************************

 THRESHOLDS:

 ZERO    =  1.00D-22  ONEINT  =  1.00D-22  TWOINT  =  1.00D-22  PREFAC  =  1.00D-14  LOCALI  =  1.00D-09  EORDER  =  1.00D-04
 ENERGY  =  1.00D-12  ETEST   =  0.00D+00  EDENS   =  0.00D+00  THRDEDEF=  1.00D-06  GRADIENT=  1.00D-02  STEP    =  1.00D-03
 ORBITAL =  1.00D-05  CIVEC   =  1.00D-05  COEFF   =  1.00D-04  PRINTCI =  5.00D-02  PUNCHCI =  9.90D+01  OPTGRAD =  3.00D-04
 OPTENERG=  1.00D-06  OPTSTEP =  3.00D-04  THRGRAD =  1.00D-10  COMPRESS=  1.00D-11  VARMIN  =  1.00D-07  VARMAX  =  1.00D-03
 THRDOUB =  0.00D+00  THRDIV  =  1.00D-05  THRRED  =  1.00D-07  THRPSP  =  1.00D+00  THRDC   =  1.00D-10  THRCS   =  1.00D-10
 THRNRM  =  1.00D-08  THREQ   =  0.00D+00  THRDE   =  1.00D+00  THRREF  =  1.00D-05  SPARFAC =  1.00D+00  THRDLP  =  1.00D-07
 THRDIA  =  1.00D-10  THRDLS  =  1.00D-07  THRGPS  =  0.00D+00  THRKEX  =  0.00D+00  THRDIS  =  2.00D-01  THRVAR  =  1.00D-10
 THRLOC  =  1.00D-06  THRGAP  =  1.00D-06  THRLOCT = -1.00D+00  THRGAPT = -1.00D+00  THRORB  =  1.00D-06  THRMLTP =  0.00D+00
 THRCPQCI=  1.00D-10  KEXTA   =  0.00D+00  THRCOARS=  0.00D+00  SYMTOL  =  1.00D-06  GRADTOL =  1.00D-06  THROVL  =  1.00D-08
 THRORTH =  1.00D-08  GRID    =  1.00D-06  GRIDMAX =  1.00D-03  DTMAX   =  0.00D+00  THROCCDE=  1.00D-01  THROCCDE=  1.00D-01



 THRESHOLDS:

 ZERO    =  1.00D-22  ONEINT  =  1.00D-22  TWOINT  =  1.00D-22  PREFAC  =  1.00D-14  LOCALI  =  1.00D-09  EORDER  =  1.00D-04
 ENERGY  =  1.00D-12  ETEST   =  0.00D+00  EDENS   =  0.00D+00  THRDEDEF=  1.00D-06  GRADIENT=  1.00D-02  STEP    =  1.00D-03
 ORBITAL =  1.00D-05  CIVEC   =  1.00D-05  COEFF   =  1.00D-04  PRINTCI =  5.00D-02  PUNCHCI =  9.90D+01  OPTGRAD =  1.00D-08
 OPTENERG=  1.00D-06  OPTSTEP =  1.00D-08  THRGRAD =  1.00D-10  COMPRESS=  1.00D-11  VARMIN  =  1.00D-07  VARMAX  =  1.00D-03
 THRDOUB =  0.00D+00  THRDIV  =  1.00D-05  THRRED  =  1.00D-07  THRPSP  =  1.00D+00  THRDC   =  1.00D-10  THRCS   =  1.00D-10
 THRNRM  =  1.00D-08  THREQ   =  0.00D+00  THRDE   =  1.00D+00  THRREF  =  1.00D-05  SPARFAC =  1.00D+00  THRDLP  =  1.00D-07
 THRDIA  =  1.00D-10  THRDLS  =  1.00D-07  THRGPS  =  0.00D+00  THRKEX  =  0.00D+00  THRDIS  =  2.00D-01  THRVAR  =  1.00D-10
 THRLOC  =  1.00D-06  THRGAP  =  1.00D-06  THRLOCT = -1.00D+00  THRGAPT = -1.00D+00  THRORB  =  1.00D-06  THRMLTP =  0.00D+00
 THRCPQCI=  1.00D-10  KEXTA   =  0.00D+00  THRCOARS=  0.00D+00  SYMTOL  =  1.00D-06  GRADTOL =  1.00D-06  THROVL  =  1.00D-08
 THRORTH =  1.00D-08  GRID    =  1.00D-06  GRIDMAX =  1.00D-03  DTMAX   =  0.00D+00  THROCCDE=  1.00D-01  THROCCDE=  1.00D-01



 Input parameters for SORTINT:

 COMPRESS =    0.000000
 C_FINAL  =    1.000000
 DEBUG    =   -1.000000
 C_SORT1  =    0.000000
 C_SEWARD =    0.000000
 THRESH   =    0.000000
 IO       =  molpro                                                          
 SPRI     =    0.000000
 SETTING GEOMTYP        =    XYZ
 ZUNIT=BOHR
 

 Variable memory set to  995000000 words,  buffer space   230000 words

 SETTING BASIS          =    USERDEF


 Recomputing integrals since basis changed


 Using spherical harmonics

 Library entry H      S aug-cc-pVTZ          selected for orbital group  2
 Library entry H      P aug-cc-pVTZ          selected for orbital group  2
 Library entry H      D aug-cc-pVTZ          selected for orbital group  2


 PROGRAM * SEWARD (Integral evaluation for generally contracted gaussian basis sets)     Author: Roland Lindh, 1990

 Geometry written to block  1 of record 700


 Point group  Cs  



 ATOMIC COORDINATES

 NR  ATOM    CHARGE       X              Y              Z

   1  N       7.00    0.000000000   -0.167677183   -1.146197777
   2  H       1.00    0.000000000    1.665055173   -1.916561415
   3  O       8.00    0.000000000    0.044389800    1.112169601

 Bond lengths in Bohr (Angstrom)

 1-2  1.988056342  1-3  2.268302365
     ( 1.052034110)     ( 1.200333919)

 Bond angles

  2-1-3  107.43427257

 NUCLEAR CHARGE:                   16
 NUMBER OF PRIMITIVE AOS:         203
 NUMBER OF SYMMETRY AOS:          173
 NUMBER OF CONTRACTIONS:          171   ( 114A'  +  57A"  )
 NUMBER OF CORE ORBITALS:           2   (   2A'  +   0A"  )
 NUMBER OF VALENCE ORBITALS:        9   (   7A'  +   2A"  )


 NUCLEAR REPULSION ENERGY   30.53800658


 Eigenvalues of metric

         1 0.103E-02 0.243E-02 0.329E-02 0.632E-02 0.985E-02 0.136E-01 0.144E-01 0.229E-01
         2 0.364E-01 0.520E-01 0.697E-01 0.939E-01 0.131E+00 0.134E+00 0.140E+00 0.142E+00


 Contracted 2-electron integrals neglected if value below      1.0D-22

       46205779. INTEGRALS WRITTEN OUT IN   11284 BLOCKS ON RECORD 1290 OF FILE 1


 NUMBER OF SORTED TWO-ELECTRON INTEGRALS:   55360566.     BUFFER LENGTH:  32768
 NUMBER OF SEGMENTS:   4  SEGMENT LENGTH:   15997996      RECORD LENGTH: 524288

 Memory used in sort:      16.56 MW

 SORT1 READ    46205779. AND WROTE    46643891. INTEGRALS IN    135 RECORDS. CPU TIME:     1.16 SEC, REAL TIME:     1.49 SEC
 SORT2 READ    46643891. AND WROTE    55360566. INTEGRALS IN      4 RECORDS. CPU TIME:     0.86 SEC, REAL TIME:     1.06 SEC

 FILE SIZES:   FILE 1:   760.2 MBYTE,  FILE 4:   566.3 MBYTE,   TOTAL:   1326.5 MBYTE

 OPERATOR DM      FOR CENTER  0  COORDINATES:    0.000000    0.000000    0.000000


 **********************************************************************************************************************************
 DATASETS  * FILE   NREC   LENGTH (MB)   RECORD NAMES
              1      19      421.66       500      610      700      900      950      970     1000      129      960     1100   
                                          VAR    BASINP    GEOM    SYMINP    ZMAT    AOBASIS   BASIS     P2S    ABASIS      S 
                                         1400     1410     1200     1210     1080     1600     1650     1300     1700   
                                           T        V       H0       H01     AOSYM     SMH    MOLCAS    ERIS     OPER   

 PROGRAMS   *        TOTAL       INT
 CPU TIMES  *         5.61      5.52
 REAL TIME  *         7.19 SEC
 DISK USED  *         1.33 GB      
 **********************************************************************************************************************************


 PROGRAM * RHF-SCF (CLOSED SHELL)       Authors: W. Meyer, H.-J. Werner


 NUMBER OF ELECTRONS:       8+    8-
 CONVERGENCE THRESHOLDS:    1.00E-10 (Density)    1.00E-13 (Energy)
 MAX. NUMBER OF ITERATIONS:      500
 INTERPOLATION TYPE:            DIIS
 INTERPOLATION STEPS:              2 (START)      1 (STEP)
 LEVEL SHIFTS:                  0.00 (CLOSED)  0.00 (OPEN) 



 Orbital guess generated from atomic densities. Full valence occupancy:    9   2

 Molecular orbital dump at record        2100.2

 Initial occupancy:   7   1

 ITERATION    DDIFF          GRAD             ENERGY        2-EL.EN.            DIPOLE MOMENTS         DIIS   ORB.
    1      0.000D+00      0.000D+00      -129.79122956    154.366580    0.00000    0.55957   -0.98744    0    start
    2      0.000D+00      0.872D-02      -129.81837623    155.551839    0.00000    0.59292   -0.19683    1    diag
    3      0.360D-02      0.652D-02      -129.83997718    155.656996    0.00000    0.53972   -0.56948    2    diag
    4      0.139D-02      0.103D-02      -129.84074244    155.388400    0.00000    0.54838   -0.50868    3    diag
    5      0.327D-03      0.334D-03      -129.84086024    155.475576    0.00000    0.55433   -0.51118    4    diag
    6      0.152D-03      0.980D-04      -129.84087943    155.459572    0.00000    0.55492   -0.50719    5    diag
    7      0.604D-04      0.487D-04      -129.84088497    155.462191    0.00000    0.55627   -0.50478    6    diag
    8      0.407D-04      0.163D-04      -129.84088553    155.461394    0.00000    0.55633   -0.50392    7    diag
    9      0.136D-04      0.301D-05      -129.84088555    155.461288    0.00000    0.55628   -0.50375    8    diag
   10      0.271D-05      0.693D-06      -129.84088555    155.461275    0.00000    0.55624   -0.50372    9    orth
   11      0.834D-06      0.139D-06      -129.84088555    155.461271    0.00000    0.55624   -0.50372    9    diag
   12      0.201D-06      0.287D-07      -129.84088555    155.461270    0.00000    0.55623   -0.50372    9    diag
   13      0.492D-07      0.751D-08      -129.84088555    155.461270    0.00000    0.55623   -0.50372    9    diag
   14      0.112D-07      0.135D-08      -129.84088555    155.461270    0.00000    0.55623   -0.50372    9    diag
   15      0.151D-08      0.374D-09      -129.84088555    155.461270    0.00000    0.55623   -0.50372    9    diag
   16      0.334D-09      0.116D-09      -129.84088555    155.461270    0.00000    0.55623   -0.50372    9    diag
   17      0.886D-10      0.339D-10      -129.84088555    155.461270    0.00000    0.55623   -0.50372    9    diag
   18      0.292D-10      0.110D-10      -129.84088555    155.461270    0.00000    0.55623   -0.50372    9    diag
   19      0.108D-10      0.269D-11      -129.84088555    155.461270    0.00000    0.55623   -0.50372    9    fixocc
   20      0.254D-11      0.787D-12      -129.84088555    155.461270    0.00000    0.55623   -0.50372    9    orth
   21      0.308D-12      0.568D-12      -129.84088555    155.461270    0.00000    0.55623   -0.50372    0    orth

 Final occupancy:   7   1

 !RHF STATE 1.1 Energy               -129.840885554199
 Nuclear energy                        30.53800658
 One-electron energy                 -238.10952718
 Two-electron energy                   77.73063504
 Virial quotient                       -1.00137845
 !RHF STATE 1.1 Dipole moment           0.00000000     0.55623356    -0.50371726
 Dipole moment /Debye                   0.00000000     1.41371209    -1.28023772

 Orbital energies:

         1.1          2.1          3.1          4.1          5.1          6.1          7.1          8.1          9.1
    -20.650388   -15.709467    -1.534759    -0.990689    -0.747624    -0.666299    -0.426919     0.039906     0.193244

         1.2          2.2          3.2
     -0.597983     0.081951     0.239713

 HOMO      7.1    -0.426919 =     -11.6171eV
 LUMO      8.1     0.039906 =       1.0859eV
 LUMO-HOMO         0.466825 =      12.7029eV


 **********************************************************************************************************************************
 DATASETS  * FILE   NREC   LENGTH (MB)   RECORD NAMES
              1      19      421.66       500      610      700      900      950      970     1000      129      960     1100   
                                          VAR    BASINP    GEOM    SYMINP    ZMAT    AOBASIS   BASIS     P2S    ABASIS      S 
                                         1400     1410     1200     1210     1080     1600     1650     1300     1700   
                                           T        V       H0       H01     AOSYM     SMH    MOLCAS    ERIS     OPER   

              2       4        3.13       700     1000      520     2100   
                                         GEOM     BASIS   MCVARS     RHF  

 PROGRAMS   *        TOTAL        HF       INT
 CPU TIMES  *        12.44      6.83      5.52
 REAL TIME  *        15.21 SEC
 DISK USED  *         1.33 GB      
 **********************************************************************************************************************************


 PROGRAM * CCSD (Closed-shell coupled cluster)     Authors: C. Hampel, H.-J. Werner, 1991, M. Deegan, P.J. Knowles, 1992


 Convergence thresholds:  THRVAR = 1.00D-08  THRDEN = 1.00D-12

 CCSD(T)     terms to be evaluated (factor= 1.000)


 Number of core orbitals:           2 (   2   0 )
 Number of closed-shell orbitals:   6 (   5   1 )
 Number of external orbitals:     163 ( 107  56 )

 Molecular orbitals read from record     2100.2  Type=RHF/CANONICAL (state 1.1)

 Number of N-1 electron functions:               6
 Number of N-2 electron functions:              21
 Number of singly external CSFs:               591
 Number of doubly external CSFs:            250014
 Total number of CSFs:                      250606

 Length of J-op  integral file:               0.00 MB
 Length of K-op  integral file:               1.15 MB
 Length of 3-ext integral record:             0.00 MB

 Memory could be reduced to 19.93 Mwords without degradation in triples

 Integral transformation finished. Total CPU:   1.03 sec, npass=  1  Memory used:   5.10 MW

 Reference energy:                   -129.84088555

 MP2 singlet pair energy:              -0.28610695
 MP2 triplet pair energy:              -0.16667983
 MP2 correlation energy:               -0.45278678
 MP2 total energy:                   -130.29367234

 SCS-MP2 correlation energy:           -0.44704024   (PS=  1.200000  PT=  0.333333)
 SCS-MP2 total energy:               -130.28792579

 ITER.      SQ.NORM     CORR.ENERGY   TOTAL ENERGY   ENERGY CHANGE        DEN1      VAR(S)    VAR(P)  DIIS     TIME  TIME/IT
   1      1.11796759    -0.45520384  -130.29608939    -0.00241706     0.01399937  0.31D-02  0.30D-02  1  1     1.99     1.00
   2      1.12828478    -0.45518796  -130.29607351     0.00001588    -0.01230755  0.11D-03  0.48D-03  2  2     3.00     1.02
   3      1.13467909    -0.45554824  -130.29643380    -0.00036028    -0.00331700  0.42D-04  0.55D-04  3  3     3.98     1.03
   4      1.13744664    -0.45557984  -130.29646539    -0.00003160    -0.00091861  0.41D-05  0.92D-05  4  4     4.96     1.03
   5      1.13846623    -0.45561038  -130.29649593    -0.00003054    -0.00020912  0.13D-05  0.17D-05  5  5     5.94     1.03
   6      1.13884423    -0.45559559  -130.29648115     0.00001478    -0.00006274  0.12D-06  0.41D-06  6  6     6.93     1.04
   7      1.13891569    -0.45559701  -130.29648256    -0.00000142     0.00000801  0.17D-07  0.88D-07  6  1     7.93     1.04
   8      1.13894936    -0.45559665  -130.29648221     0.00000035    -0.00000438  0.47D-08  0.13D-07  6  2     8.91     1.04
   9      1.13895451    -0.45559655  -130.29648211     0.00000010     0.00000083  0.20D-08  0.15D-08  6  3     9.88     1.04
  10      1.13895486    -0.45559687  -130.29648242    -0.00000031    -0.00000019  0.45D-09  0.23D-09  6  4    10.87     1.04
  11      1.13895340    -0.45559700  -130.29648255    -0.00000013     0.00000033  0.11D-09  0.23D-10  6  5    11.84     1.04
  12      1.13895231    -0.45559713  -130.29648269    -0.00000014     0.00000044  0.14D-10  0.67D-11  6  6    12.82     1.04
  13      1.13895170    -0.45559715  -130.29648271    -0.00000002     0.00000012  0.54D-11  0.12D-11  6  1    13.83     1.04
  14      1.13895123    -0.45559718  -130.29648273    -0.00000003     0.00000011  0.52D-12  0.39D-12  6  3    14.78     1.04
  15      1.13895108    -0.45559718  -130.29648273     0.00000000     0.00000001  0.13D-12  0.27D-13  6  2    15.76     1.04
  16      1.13895104    -0.45559718  -130.29648273    -0.00000000     0.00000001  0.30D-13  0.67D-14  6  4    16.74     1.04
  17      1.13895102    -0.45559718  -130.29648273    -0.00000000     0.00000001  0.36D-14  0.11D-14  6  5    17.74     1.05
  18      1.13895102    -0.45559718  -130.29648273     0.00000000     0.00000000  0.39D-15  0.29D-15  6  6    18.71     1.05
  19      1.13895102    -0.45559718  -130.29648273     0.00000000    -0.00000000  0.51D-16  0.34D-16  6  1    19.69     1.05
  20      1.13895102    -0.45559718  -130.29648273     0.00000000    -0.00000000  0.26D-17  0.77D-17  6  3    20.66     1.05
  21      1.13895102    -0.45559718  -130.29648273     0.00000000    -0.00000000  0.44D-18  0.16D-17  6  4    21.65     1.05
  22      1.13895102    -0.45559718  -130.29648273     0.00000000    -0.00000000  0.13D-19  0.56D-18  6  2    22.64     1.05
  23      1.13895102    -0.45559718  -130.29648273    -0.00000000     0.00000000  0.34D-19  0.12D-18  6  5    23.63     1.05
  24      1.13895102    -0.45559718  -130.29648273    -0.00000000     0.00000000  0.40D-20  0.11D-19  6  1    24.60     1.05
  25      1.13895102    -0.45559718  -130.29648273     0.00000000    -0.00000000  0.17D-20  0.72D-21  6  6    25.58     1.05

 Norm of t1 vector:      0.07579671      S-energy:     0.00000000      T1 diagnostic:  0.01547194
                                                                       D1 diagnostic:  0.04194660

 Doubles amplitudes (print threshold =  0.500E-01):

         I         J         SYM. A    SYM. B    A         B      T(IJ, AB)

         6         6         2         2         1         1     -0.13322777


 Total CPU time for triples:     10.80 sec


 RESULTS
 =======

  Reference energy                   -129.840885554199
  CCSD singlet pair energy             -0.312723024763
  CCSD triplet pair energy             -0.142874153954
  CCSD correlation energy              -0.455597178717

  Triples (T) contribution             -0.020958736935
  Total correlation energy             -0.476555915652

  CCSD total energy                  -130.296482732916
  CCSD[T] energy                     -130.318500030297
  CCSD-T energy                      -130.317037143900
 !CCSD(T) total energy               -130.317441469851

 Timing summary (sec):

 STEP                 CPU(USER)    SYS     CPU(TOT)    WALL
 Transformation          1.04      0.11      1.15      1.15
 CCSD iterations        24.54      1.63     26.17     26.17
 Triples                10.80      0.26     11.06     11.07

 Program statistics:

 Available memory in ccsd:               994999756
 Min. memory needed in ccsd:                887758
 Max. memory used in ccsd:                 1088212
 Max. memory used in cckext:               1535578 (25 integral passes)



 **********************************************************************************************************************************
 DATASETS  * FILE   NREC   LENGTH (MB)   RECORD NAMES
              1      20      479.61       500      610      700      900      950      970     1000      129      960     1100   
                                          VAR    BASINP    GEOM    SYMINP    ZMAT    AOBASIS   BASIS     P2S    ABASIS      S 
                                         1400     1410     1200     1210     1080     1600     1650     1300     1700     1380   
                                           T        V       H0       H01     AOSYM     SMH    MOLCAS    ERIS     OPER     JKOP   

              2       4        3.13       700     1000      520     2100   
                                         GEOM     BASIS   MCVARS     RHF  

 PROGRAMS   *        TOTAL   CCSD(T)        HF       INT
 CPU TIMES  *        48.86     36.42      6.83      5.52
 REAL TIME  *        53.64 SEC
 DISK USED  *         1.33 GB      
 **********************************************************************************************************************************

 CCSD(T)/USERDEF energy=   -130.317441469851

        CCSD(T)         HF-SCF  
   -130.31744147   -129.84088555
 **********************************************************************************************************************************
 Molpro calculation terminated
 Variable memory released
