
 Primary working directories    : /tmp/r2666/235328.maple
 Secondary working directories  : /tmp/r2666/235328.maple
 Wavefunction directory         : /ddn/home4/r2666/wfu/
 Main file repository           : /tmp/r2666/235328.maple/

 SHA1      : d5ffa45e93fdbca01ffc919aa182cfdae0147319
 NAME      : 2015.1.35
 ARCHNAME  : linux/x86_64
 FC        : /opt/intel/composer_xe_2015.1.133/bin/intel64/ifort
 BLASLIB   : -Wl,-_start-group /opt/intel/mkl/lib/intel64/libmkl_intel_ilp64.a /opt/intel/mkl/lib/intel64/libmkl_intel_thread.a /opt/intel/mkl/lib/intel64/libmkl_core.a -Wl,-_end-group
 id        : olemiss

 Nodes     nprocs
 cn031        1

 Using customized tuning parameters: mindgm=1; mindgv=20; mindgc=4; mindgr=1; noblas=0; minvec=7
 default implementation of scratch files=df  

 ***,hno CCSD(T)/TZ-F12 QFF
 memory, 995, m;
 gthresh,energy=1.d-12,zero=1.d-22,oneint=1.d-22,twoint=1.d-22;
 gthresh,optgrad=1.d-8,optstep=1.d-8;
 nocompress;
 geomtyp=xyz
 bohr
 geometry={
 3
         54        54
 N        0.0000000000       -0.1693339810       -1.1542913293
 H        0.0000000000        1.6663355770       -1.9176295855
 O        0.0000000000        0.0447661940        1.1213313238
 }
 
 basis={
 default=aug-cc-pvtz
 s,C,8236.0,1235.0,280.8, 79.27,25.59, 8.997,3.319
 s,C,0.9059,0.3643,0.1285000
 p,C,56.0,18.71,4.133,0.2827,0.3827,0.1209
 d,C,30.0,10.0,3.3,1.097,0.318
 f,C,7.0,2.3,0.7610
 s,N,11420.0,1712.0,389.3,110.0,35.57,12.54,4.644
 s,N,1.293,0.5118,0.1787
 p,N,79.89,26.63,5.948,1.742,0.555,0.1725
 d,N,45.0,15.0,5.0,1.654,0.469
 f,N,9.9,3.3,1.093
 s,O,15330.0,2299.0,522.4,147.3,47.55,16.76,6.207
 s,O,1.752,0.6882,0.2384
 p,O,103.5,34.46,7.749,2.28,0.7156,0.214
 d,O,63.0,21.0,7.0,2.314,0.645
 f,O,12.9,4.3,1.428
 s,mg,164900.0,24710.0,5628.0,1596.0,521.0;
 s,mg,188.0,73.01,29.90,12.54,4.306,1.826;
 s,mg,0.7417,0.0761,0.145,0.033,0.0129;
 p,mg,950.70,316.90,74.86,23.72,8.669,3.363;
 p,mg,1.310,0.4911,0.2364,0.08733,0.03237,0.00745;
 d,mg,1.601,0.686,0.126,0.294,0.0468;
 f,mg,1.372,0.588,0.094,0.252;
 }
   {hf,maxit=500;accu,20;}
 {ccsd(t),nocheck,maxit=250;orbital,IGNORE_ERROR;}

 Variables initialized (889), CPU time= 0.00 sec
 Commands  initialized (702), CPU time= 0.01 sec, 572 directives.
 Default parameters read. Elapsed time= 0.06 sec

 Checking input...
 Passed
1


                                         ***  PROGRAM SYSTEM MOLPRO  ***
                                       Copyright, TTI GmbH Stuttgart, 2015
                                    Version 2015.1 linked Jul  9 2018 13:16:40


 **********************************************************************************************************************************
 LABEL *   hno CCSD(T)/TZ-F12 QFF                                                        
  64 bit serial version                                                                  DATE: 08-Feb-20          TIME: 17:57:32  
 **********************************************************************************************************************************

 SHA1:             d5ffa45e93fdbca01ffc919aa182cfdae0147319
 **********************************************************************************************************************************

 THRESHOLDS:

 ZERO    =  1.00D-22  ONEINT  =  1.00D-22  TWOINT  =  1.00D-22  PREFAC  =  1.00D-14  LOCALI  =  1.00D-09  EORDER  =  1.00D-04
 ENERGY  =  1.00D-12  ETEST   =  0.00D+00  EDENS   =  0.00D+00  THRDEDEF=  1.00D-06  GRADIENT=  1.00D-02  STEP    =  1.00D-03
 ORBITAL =  1.00D-05  CIVEC   =  1.00D-05  COEFF   =  1.00D-04  PRINTCI =  5.00D-02  PUNCHCI =  9.90D+01  OPTGRAD =  3.00D-04
 OPTENERG=  1.00D-06  OPTSTEP =  3.00D-04  THRGRAD =  1.00D-10  COMPRESS=  1.00D-11  VARMIN  =  1.00D-07  VARMAX  =  1.00D-03
 THRDOUB =  0.00D+00  THRDIV  =  1.00D-05  THRRED  =  1.00D-07  THRPSP  =  1.00D+00  THRDC   =  1.00D-10  THRCS   =  1.00D-10
 THRNRM  =  1.00D-08  THREQ   =  0.00D+00  THRDE   =  1.00D+00  THRREF  =  1.00D-05  SPARFAC =  1.00D+00  THRDLP  =  1.00D-07
 THRDIA  =  1.00D-10  THRDLS  =  1.00D-07  THRGPS  =  0.00D+00  THRKEX  =  0.00D+00  THRDIS  =  2.00D-01  THRVAR  =  1.00D-10
 THRLOC  =  1.00D-06  THRGAP  =  1.00D-06  THRLOCT = -1.00D+00  THRGAPT = -1.00D+00  THRORB  =  1.00D-06  THRMLTP =  0.00D+00
 THRCPQCI=  1.00D-10  KEXTA   =  0.00D+00  THRCOARS=  0.00D+00  SYMTOL  =  1.00D-06  GRADTOL =  1.00D-06  THROVL  =  1.00D-08
 THRORTH =  1.00D-08  GRID    =  1.00D-06  GRIDMAX =  1.00D-03  DTMAX   =  0.00D+00  THROCCDE=  1.00D-01  THROCCDE=  1.00D-01



 THRESHOLDS:

 ZERO    =  1.00D-22  ONEINT  =  1.00D-22  TWOINT  =  1.00D-22  PREFAC  =  1.00D-14  LOCALI  =  1.00D-09  EORDER  =  1.00D-04
 ENERGY  =  1.00D-12  ETEST   =  0.00D+00  EDENS   =  0.00D+00  THRDEDEF=  1.00D-06  GRADIENT=  1.00D-02  STEP    =  1.00D-03
 ORBITAL =  1.00D-05  CIVEC   =  1.00D-05  COEFF   =  1.00D-04  PRINTCI =  5.00D-02  PUNCHCI =  9.90D+01  OPTGRAD =  1.00D-08
 OPTENERG=  1.00D-06  OPTSTEP =  1.00D-08  THRGRAD =  1.00D-10  COMPRESS=  1.00D-11  VARMIN  =  1.00D-07  VARMAX  =  1.00D-03
 THRDOUB =  0.00D+00  THRDIV  =  1.00D-05  THRRED  =  1.00D-07  THRPSP  =  1.00D+00  THRDC   =  1.00D-10  THRCS   =  1.00D-10
 THRNRM  =  1.00D-08  THREQ   =  0.00D+00  THRDE   =  1.00D+00  THRREF  =  1.00D-05  SPARFAC =  1.00D+00  THRDLP  =  1.00D-07
 THRDIA  =  1.00D-10  THRDLS  =  1.00D-07  THRGPS  =  0.00D+00  THRKEX  =  0.00D+00  THRDIS  =  2.00D-01  THRVAR  =  1.00D-10
 THRLOC  =  1.00D-06  THRGAP  =  1.00D-06  THRLOCT = -1.00D+00  THRGAPT = -1.00D+00  THRORB  =  1.00D-06  THRMLTP =  0.00D+00
 THRCPQCI=  1.00D-10  KEXTA   =  0.00D+00  THRCOARS=  0.00D+00  SYMTOL  =  1.00D-06  GRADTOL =  1.00D-06  THROVL  =  1.00D-08
 THRORTH =  1.00D-08  GRID    =  1.00D-06  GRIDMAX =  1.00D-03  DTMAX   =  0.00D+00  THROCCDE=  1.00D-01  THROCCDE=  1.00D-01



 Input parameters for SORTINT:

 COMPRESS =    0.000000
 C_FINAL  =    1.000000
 DEBUG    =   -1.000000
 C_SORT1  =    0.000000
 C_SEWARD =    0.000000
 THRESH   =    0.000000
 IO       =  molpro                                                          
 SPRI     =    0.000000
 SETTING GEOMTYP        =    XYZ
 ZUNIT=BOHR
 

 Variable memory set to  995000000 words,  buffer space   230000 words

 SETTING BASIS          =    USERDEF


 Recomputing integrals since basis changed


 Using spherical harmonics

 Library entry H      S aug-cc-pVTZ          selected for orbital group  2
 Library entry H      P aug-cc-pVTZ          selected for orbital group  2
 Library entry H      D aug-cc-pVTZ          selected for orbital group  2


 PROGRAM * SEWARD (Integral evaluation for generally contracted gaussian basis sets)     Author: Roland Lindh, 1990

 Geometry written to block  1 of record 700


 Point group  Cs  



 ATOMIC COORDINATES

 NR  ATOM    CHARGE       X              Y              Z

   1  N       7.00    0.000000000   -0.169333981   -1.154291329
   2  H       1.00    0.000000000    1.666335577   -1.917629586
   3  O       8.00    0.000000000    0.044766194    1.121331324

 Bond lengths in Bohr (Angstrom)

 1-2  1.988056342  1-3  2.285672187
     ( 1.052034110)     ( 1.209525633)

 Bond angles

  2-1-3  107.20451345

 NUCLEAR CHARGE:                   16
 NUMBER OF PRIMITIVE AOS:         203
 NUMBER OF SYMMETRY AOS:          173
 NUMBER OF CONTRACTIONS:          171   ( 114A'  +  57A"  )
 NUMBER OF CORE ORBITALS:           2   (   2A'  +   0A"  )
 NUMBER OF VALENCE ORBITALS:        9   (   7A'  +   2A"  )


 NUCLEAR REPULSION ENERGY   30.34400278


 Eigenvalues of metric

         1 0.105E-02 0.251E-02 0.333E-02 0.636E-02 0.986E-02 0.137E-01 0.145E-01 0.230E-01
         2 0.365E-01 0.534E-01 0.703E-01 0.940E-01 0.131E+00 0.134E+00 0.140E+00 0.142E+00


 Contracted 2-electron integrals neglected if value below      1.0D-22

       46146835. INTEGRALS WRITTEN OUT IN   11270 BLOCKS ON RECORD 1290 OF FILE 1


 NUMBER OF SORTED TWO-ELECTRON INTEGRALS:   55360566.     BUFFER LENGTH:  32768
 NUMBER OF SEGMENTS:   4  SEGMENT LENGTH:   15997996      RECORD LENGTH: 524288

 Memory used in sort:      16.56 MW

 SORT1 READ    46146835. AND WROTE    46584285. INTEGRALS IN    135 RECORDS. CPU TIME:     1.63 SEC, REAL TIME:     2.10 SEC
 SORT2 READ    46584285. AND WROTE    55360566. INTEGRALS IN      4 RECORDS. CPU TIME:     1.02 SEC, REAL TIME:     1.41 SEC

 FILE SIZES:   FILE 1:   759.3 MBYTE,  FILE 4:   566.3 MBYTE,   TOTAL:   1325.6 MBYTE

 OPERATOR DM      FOR CENTER  0  COORDINATES:    0.000000    0.000000    0.000000


 **********************************************************************************************************************************
 DATASETS  * FILE   NREC   LENGTH (MB)   RECORD NAMES
              1      19      421.26       500      610      700      900      950      970     1000      129      960     1100   
                                          VAR    BASINP    GEOM    SYMINP    ZMAT    AOBASIS   BASIS     P2S    ABASIS      S 
                                         1400     1410     1200     1210     1080     1600     1650     1300     1700   
                                           T        V       H0       H01     AOSYM     SMH    MOLCAS    ERIS     OPER   

 PROGRAMS   *        TOTAL       INT
 CPU TIMES  *         7.49      7.39
 REAL TIME  *         9.66 SEC
 DISK USED  *         1.33 GB      
 **********************************************************************************************************************************


 PROGRAM * RHF-SCF (CLOSED SHELL)       Authors: W. Meyer, H.-J. Werner


 NUMBER OF ELECTRONS:       8+    8-
 CONVERGENCE THRESHOLDS:    1.00E-10 (Density)    1.00E-13 (Energy)
 MAX. NUMBER OF ITERATIONS:      500
 INTERPOLATION TYPE:            DIIS
 INTERPOLATION STEPS:              2 (START)      1 (STEP)
 LEVEL SHIFTS:                  0.00 (CLOSED)  0.00 (OPEN) 



 Orbital guess generated from atomic densities. Full valence occupancy:    9   2

 Molecular orbital dump at record        2100.2

 Initial occupancy:   7   1

 ITERATION    DDIFF          GRAD             ENERGY        2-EL.EN.            DIPOLE MOMENTS         DIIS   ORB.
    1      0.000D+00      0.000D+00      -129.78868246    154.020993    0.00000    0.56170   -1.01639    0    start
    2      0.000D+00      0.881D-02      -129.81556541    155.187637    0.00000    0.59904   -0.19132    1    diag
    3      0.365D-02      0.672D-02      -129.83869159    155.312845    0.00000    0.54326   -0.58207    2    diag
    4      0.143D-02      0.104D-02      -129.83947568    155.037586    0.00000    0.55181   -0.51971    3    diag
    5      0.331D-03      0.339D-03      -129.83959700    155.125496    0.00000    0.55774   -0.52202    4    diag
    6      0.154D-03      0.995D-04      -129.83961685    155.109357    0.00000    0.55829   -0.51786    5    diag
    7      0.608D-04      0.500D-04      -129.83962273    155.111882    0.00000    0.55961   -0.51531    6    diag
    8      0.413D-04      0.172D-04      -129.83962338    155.111040    0.00000    0.55966   -0.51439    7    diag
    9      0.144D-04      0.320D-05      -129.83962340    155.110927    0.00000    0.55961   -0.51421    8    diag
   10      0.294D-05      0.720D-06      -129.83962340    155.110914    0.00000    0.55958   -0.51418    9    orth
   11      0.864D-06      0.143D-06      -129.83962340    155.110910    0.00000    0.55957   -0.51418    9    diag
   12      0.205D-06      0.300D-07      -129.83962340    155.110909    0.00000    0.55957   -0.51417    9    diag
   13      0.505D-07      0.797D-08      -129.83962340    155.110909    0.00000    0.55957   -0.51417    9    diag
   14      0.116D-07      0.140D-08      -129.83962340    155.110909    0.00000    0.55957   -0.51417    9    diag
   15      0.146D-08      0.375D-09      -129.83962340    155.110909    0.00000    0.55957   -0.51417    9    diag
   16      0.327D-09      0.110D-09      -129.83962340    155.110909    0.00000    0.55957   -0.51417    9    diag
   17      0.758D-10      0.306D-10      -129.83962340    155.110909    0.00000    0.55957   -0.51417    9    diag
   18      0.234D-10      0.102D-10      -129.83962340    155.110909    0.00000    0.55957   -0.51417    0    orth

 Final occupancy:   7   1

 !RHF STATE 1.1 Energy               -129.839623403817
 Nuclear energy                        30.34400278
 One-electron energy                 -237.73908050
 Two-electron energy                   77.55545432
 Virial quotient                       -1.00165123
 !RHF STATE 1.1 Dipole moment           0.00000000     0.55956532    -0.51417387
 Dipole moment /Debye                   0.00000000     1.42218003    -1.30681403

 Orbital energies:

         1.1          2.1          3.1          4.1          5.1          6.1          7.1          8.1          9.1
    -20.651193   -15.711056    -1.527287    -0.992676    -0.744785    -0.663602    -0.429880     0.039785     0.192797

         1.2          2.2          3.2
     -0.593608     0.078775     0.239390

 HOMO      7.1    -0.429880 =     -11.6976eV
 LUMO      8.1     0.039785 =       1.0826eV
 LUMO-HOMO         0.469665 =      12.7802eV


 **********************************************************************************************************************************
 DATASETS  * FILE   NREC   LENGTH (MB)   RECORD NAMES
              1      19      421.26       500      610      700      900      950      970     1000      129      960     1100   
                                          VAR    BASINP    GEOM    SYMINP    ZMAT    AOBASIS   BASIS     P2S    ABASIS      S 
                                         1400     1410     1200     1210     1080     1600     1650     1300     1700   
                                           T        V       H0       H01     AOSYM     SMH    MOLCAS    ERIS     OPER   

              2       4        3.13       700     1000      520     2100   
                                         GEOM     BASIS   MCVARS     RHF  

 PROGRAMS   *        TOTAL        HF       INT
 CPU TIMES  *        13.91      6.42      7.39
 REAL TIME  *        18.16 SEC
 DISK USED  *         1.33 GB      
 **********************************************************************************************************************************


 PROGRAM * CCSD (Closed-shell coupled cluster)     Authors: C. Hampel, H.-J. Werner, 1991, M. Deegan, P.J. Knowles, 1992


 Convergence thresholds:  THRVAR = 1.00D-08  THRDEN = 1.00D-12

 CCSD(T)     terms to be evaluated (factor= 1.000)


 Number of core orbitals:           2 (   2   0 )
 Number of closed-shell orbitals:   6 (   5   1 )
 Number of external orbitals:     163 ( 107  56 )

 Molecular orbitals read from record     2100.2  Type=RHF/CANONICAL (state 1.1)

 Number of N-1 electron functions:               6
 Number of N-2 electron functions:              21
 Number of singly external CSFs:               591
 Number of doubly external CSFs:            250014
 Total number of CSFs:                      250606

 Length of J-op  integral file:               0.00 MB
 Length of K-op  integral file:               1.15 MB
 Length of 3-ext integral record:             0.00 MB

 Memory could be reduced to 19.93 Mwords without degradation in triples

 Integral transformation finished. Total CPU:   1.16 sec, npass=  1  Memory used:   5.10 MW

 Reference energy:                   -129.83962340

 MP2 singlet pair energy:              -0.28703251
 MP2 triplet pair energy:              -0.16729578
 MP2 correlation energy:               -0.45432829
 MP2 total energy:                   -130.29395170

 SCS-MP2 correlation energy:           -0.44853417   (PS=  1.200000  PT=  0.333333)
 SCS-MP2 total energy:               -130.28815757

 ITER.      SQ.NORM     CORR.ENERGY   TOTAL ENERGY   ENERGY CHANGE        DEN1      VAR(S)    VAR(P)  DIIS     TIME  TIME/IT
   1      1.11894429    -0.45640167  -130.29602507    -0.00207338     0.01473200  0.32D-02  0.31D-02  1  1     2.20     1.14
   2      1.12948483    -0.45631083  -130.29593424     0.00009084    -0.01253642  0.12D-03  0.50D-03  2  2     3.27     1.17
   3      1.13605501    -0.45668280  -130.29630621    -0.00037197    -0.00337496  0.44D-04  0.58D-04  3  3     4.36     1.17
   4      1.13892553    -0.45671554  -130.29633894    -0.00003274    -0.00094602  0.44D-05  0.96D-05  4  4     5.51     1.21
   5      1.13999970    -0.45674780  -130.29637121    -0.00003227    -0.00022039  0.13D-05  0.17D-05  5  5     6.71     1.24
   6      1.14039199    -0.45673208  -130.29635549     0.00001572    -0.00006535  0.12D-06  0.42D-06  6  6     7.94     1.25
   7      1.14046290    -0.45673359  -130.29635699    -0.00000151     0.00000862  0.17D-07  0.91D-07  6  1     9.16     1.27
   8      1.14049711    -0.45673313  -130.29635653     0.00000046    -0.00000463  0.47D-08  0.14D-07  6  2    10.32     1.28
   9      1.14050219    -0.45673302  -130.29635642     0.00000011     0.00000101  0.21D-08  0.16D-08  6  3    11.50     1.28
  10      1.14050265    -0.45673334  -130.29635674    -0.00000032    -0.00000027  0.47D-09  0.25D-09  6  4    12.65     1.28
  11      1.14050118    -0.45673347  -130.29635687    -0.00000013     0.00000034  0.11D-09  0.25D-10  6  5    13.81     1.29
  12      1.14050006    -0.45673362  -130.29635702    -0.00000014     0.00000046  0.15D-10  0.71D-11  6  6    14.86     1.28
  13      1.14049943    -0.45673363  -130.29635704    -0.00000002     0.00000012  0.55D-11  0.13D-11  6  1    15.90     1.27
  14      1.14049893    -0.45673366  -130.29635706    -0.00000003     0.00000011  0.52D-12  0.41D-12  6  3    16.93     1.26
  15      1.14049878    -0.45673366  -130.29635706     0.00000000     0.00000001  0.13D-12  0.29D-13  6  2    17.99     1.25
  16      1.14049873    -0.45673366  -130.29635707    -0.00000000     0.00000001  0.31D-13  0.71D-14  6  4    19.04     1.25
  17      1.14049871    -0.45673366  -130.29635707    -0.00000000     0.00000001  0.40D-14  0.11D-14  6  5    20.10     1.24
  18      1.14049871    -0.45673366  -130.29635707     0.00000000     0.00000000  0.44D-15  0.31D-15  6  6    21.18     1.24
  19      1.14049872    -0.45673366  -130.29635707     0.00000000    -0.00000000  0.59D-16  0.40D-16  6  1    22.26     1.24
  20      1.14049872    -0.45673366  -130.29635707     0.00000000    -0.00000000  0.30D-17  0.98D-17  6  3    23.31     1.24
  21      1.14049872    -0.45673366  -130.29635707     0.00000000    -0.00000000  0.49D-18  0.21D-17  6  4    24.38     1.23
  22      1.14049872    -0.45673366  -130.29635707     0.00000000    -0.00000000  0.17D-19  0.74D-18  6  2    25.45     1.23
  23      1.14049872    -0.45673366  -130.29635707    -0.00000000     0.00000000  0.29D-19  0.13D-18  6  4    26.54     1.23
  24      1.14049872    -0.45673366  -130.29635707     0.00000000    -0.00000000  0.32D-20  0.61D-20  6  5    27.63     1.23
  25      1.14049872    -0.45673366  -130.29635707    -0.00000000     0.00000000  0.33D-21  0.52D-21  6  6    28.68     1.23
  26      1.14049872    -0.45673366  -130.29635707     0.00000000    -0.00000000  0.14D-21  0.59D-22  6  1    29.79     1.23
  27      1.14049872    -0.45673366  -130.29635707    -0.00000000    -0.00000000  0.52D-22  0.16D-22  6  3    30.91     1.23

 Norm of t1 vector:      0.07714784      S-energy:     0.00000000      T1 diagnostic:  0.01574774
                                                                       D1 diagnostic:  0.04309627

 Doubles amplitudes (print threshold =  0.500E-01):

         I         J         SYM. A    SYM. B    A         B      T(IJ, AB)

         6         6         2         2         1         1     -0.13603640


 Total CPU time for triples:     14.06 sec


 RESULTS
 =======

  Reference energy                   -129.839623403817
  CCSD singlet pair energy             -0.313716610782
  CCSD triplet pair energy             -0.143017052146
  CCSD correlation energy              -0.456733662927

  Triples (T) contribution             -0.021236946901
  Total correlation energy             -0.477970609828

  CCSD total energy                  -130.296357066743
  CCSD[T] energy                     -130.318690917365
  CCSD-T energy                      -130.317179693514
 !CCSD(T) total energy               -130.317594013644

 Timing summary (sec):

 STEP                 CPU(USER)    SYS     CPU(TOT)    WALL
 Transformation          1.17      0.25      1.42      1.42
 CCSD iterations        29.74      3.45     33.19     33.22
 Triples                14.06      0.38     14.44     14.44

 Program statistics:

 Available memory in ccsd:               994999756
 Min. memory needed in ccsd:                887758
 Max. memory used in ccsd:                 1088212
 Max. memory used in cckext:               1535578 (27 integral passes)



 **********************************************************************************************************************************
 DATASETS  * FILE   NREC   LENGTH (MB)   RECORD NAMES
              1      20      479.22       500      610      700      900      950      970     1000      129      960     1100   
                                          VAR    BASINP    GEOM    SYMINP    ZMAT    AOBASIS   BASIS     P2S    ABASIS      S 
                                         1400     1410     1200     1210     1080     1600     1650     1300     1700     1380   
                                           T        V       H0       H01     AOSYM     SMH    MOLCAS    ERIS     OPER     JKOP   

              2       4        3.13       700     1000      520     2100   
                                         GEOM     BASIS   MCVARS     RHF  

 PROGRAMS   *        TOTAL   CCSD(T)        HF       INT
 CPU TIMES  *        58.92     45.00      6.42      7.39
 REAL TIME  *        67.29 SEC
 DISK USED  *         1.33 GB      
 **********************************************************************************************************************************

 CCSD(T)/USERDEF energy=   -130.317594013644

        CCSD(T)         HF-SCF  
   -130.31759401   -129.83962340
 **********************************************************************************************************************************
 Molpro calculation terminated
 Variable memory released
