
 Primary working directories    : /tmp/r2666/235312.maple
 Secondary working directories  : /tmp/r2666/235312.maple
 Wavefunction directory         : /ddn/home4/r2666/wfu/
 Main file repository           : /tmp/r2666/235312.maple/

 SHA1      : d5ffa45e93fdbca01ffc919aa182cfdae0147319
 NAME      : 2015.1.35
 ARCHNAME  : linux/x86_64
 FC        : /opt/intel/composer_xe_2015.1.133/bin/intel64/ifort
 BLASLIB   : -Wl,-_start-group /opt/intel/mkl/lib/intel64/libmkl_intel_ilp64.a /opt/intel/mkl/lib/intel64/libmkl_intel_thread.a /opt/intel/mkl/lib/intel64/libmkl_core.a -Wl,-_end-group
 id        : olemiss

 Nodes     nprocs
 cn091        1

 Using customized tuning parameters: mindgm=1; mindgv=20; mindgc=4; mindgr=1; noblas=0; minvec=7
 default implementation of scratch files=df  

 ***,hno CCSD(T)/TZ-F12 QFF
 memory, 995, m;
 gthresh,energy=1.d-12,zero=1.d-22,oneint=1.d-22,twoint=1.d-22;
 gthresh,optgrad=1.d-8,optstep=1.d-8;
 nocompress;
 geomtyp=xyz
 bohr
 geometry={
 3
         38        38
 N        0.0000000000       -0.1517488246       -1.1462805234
 H        0.0000000000        1.6629400587       -1.9348188772
 O        0.0000000000        0.0305765559        1.1305098097
 }
 
 basis={
 default=aug-cc-pvtz
 s,C,8236.0,1235.0,280.8, 79.27,25.59, 8.997,3.319
 s,C,0.9059,0.3643,0.1285000
 p,C,56.0,18.71,4.133,0.2827,0.3827,0.1209
 d,C,30.0,10.0,3.3,1.097,0.318
 f,C,7.0,2.3,0.7610
 s,N,11420.0,1712.0,389.3,110.0,35.57,12.54,4.644
 s,N,1.293,0.5118,0.1787
 p,N,79.89,26.63,5.948,1.742,0.555,0.1725
 d,N,45.0,15.0,5.0,1.654,0.469
 f,N,9.9,3.3,1.093
 s,O,15330.0,2299.0,522.4,147.3,47.55,16.76,6.207
 s,O,1.752,0.6882,0.2384
 p,O,103.5,34.46,7.749,2.28,0.7156,0.214
 d,O,63.0,21.0,7.0,2.314,0.645
 f,O,12.9,4.3,1.428
 s,mg,164900.0,24710.0,5628.0,1596.0,521.0;
 s,mg,188.0,73.01,29.90,12.54,4.306,1.826;
 s,mg,0.7417,0.0761,0.145,0.033,0.0129;
 p,mg,950.70,316.90,74.86,23.72,8.669,3.363;
 p,mg,1.310,0.4911,0.2364,0.08733,0.03237,0.00745;
 d,mg,1.601,0.686,0.126,0.294,0.0468;
 f,mg,1.372,0.588,0.094,0.252;
 }
   {hf,maxit=500;accu,20;}
 {ccsd(t),nocheck,maxit=250;orbital,IGNORE_ERROR;}

 Variables initialized (889), CPU time= 0.01 sec
 Commands  initialized (702), CPU time= 0.02 sec, 572 directives.
 Default parameters read. Elapsed time= 0.04 sec

 Checking input...
 Passed
1


                                         ***  PROGRAM SYSTEM MOLPRO  ***
                                       Copyright, TTI GmbH Stuttgart, 2015
                                    Version 2015.1 linked Jul  9 2018 13:16:40


 **********************************************************************************************************************************
 LABEL *   hno CCSD(T)/TZ-F12 QFF                                                        
  64 bit serial version                                                                  DATE: 08-Feb-20          TIME: 17:57:30  
 **********************************************************************************************************************************

 SHA1:             d5ffa45e93fdbca01ffc919aa182cfdae0147319
 **********************************************************************************************************************************

 THRESHOLDS:

 ZERO    =  1.00D-22  ONEINT  =  1.00D-22  TWOINT  =  1.00D-22  PREFAC  =  1.00D-14  LOCALI  =  1.00D-09  EORDER  =  1.00D-04
 ENERGY  =  1.00D-12  ETEST   =  0.00D+00  EDENS   =  0.00D+00  THRDEDEF=  1.00D-06  GRADIENT=  1.00D-02  STEP    =  1.00D-03
 ORBITAL =  1.00D-05  CIVEC   =  1.00D-05  COEFF   =  1.00D-04  PRINTCI =  5.00D-02  PUNCHCI =  9.90D+01  OPTGRAD =  3.00D-04
 OPTENERG=  1.00D-06  OPTSTEP =  3.00D-04  THRGRAD =  1.00D-10  COMPRESS=  1.00D-11  VARMIN  =  1.00D-07  VARMAX  =  1.00D-03
 THRDOUB =  0.00D+00  THRDIV  =  1.00D-05  THRRED  =  1.00D-07  THRPSP  =  1.00D+00  THRDC   =  1.00D-10  THRCS   =  1.00D-10
 THRNRM  =  1.00D-08  THREQ   =  0.00D+00  THRDE   =  1.00D+00  THRREF  =  1.00D-05  SPARFAC =  1.00D+00  THRDLP  =  1.00D-07
 THRDIA  =  1.00D-10  THRDLS  =  1.00D-07  THRGPS  =  0.00D+00  THRKEX  =  0.00D+00  THRDIS  =  2.00D-01  THRVAR  =  1.00D-10
 THRLOC  =  1.00D-06  THRGAP  =  1.00D-06  THRLOCT = -1.00D+00  THRGAPT = -1.00D+00  THRORB  =  1.00D-06  THRMLTP =  0.00D+00
 THRCPQCI=  1.00D-10  KEXTA   =  0.00D+00  THRCOARS=  0.00D+00  SYMTOL  =  1.00D-06  GRADTOL =  1.00D-06  THROVL  =  1.00D-08
 THRORTH =  1.00D-08  GRID    =  1.00D-06  GRIDMAX =  1.00D-03  DTMAX   =  0.00D+00  THROCCDE=  1.00D-01  THROCCDE=  1.00D-01



 THRESHOLDS:

 ZERO    =  1.00D-22  ONEINT  =  1.00D-22  TWOINT  =  1.00D-22  PREFAC  =  1.00D-14  LOCALI  =  1.00D-09  EORDER  =  1.00D-04
 ENERGY  =  1.00D-12  ETEST   =  0.00D+00  EDENS   =  0.00D+00  THRDEDEF=  1.00D-06  GRADIENT=  1.00D-02  STEP    =  1.00D-03
 ORBITAL =  1.00D-05  CIVEC   =  1.00D-05  COEFF   =  1.00D-04  PRINTCI =  5.00D-02  PUNCHCI =  9.90D+01  OPTGRAD =  1.00D-08
 OPTENERG=  1.00D-06  OPTSTEP =  1.00D-08  THRGRAD =  1.00D-10  COMPRESS=  1.00D-11  VARMIN  =  1.00D-07  VARMAX  =  1.00D-03
 THRDOUB =  0.00D+00  THRDIV  =  1.00D-05  THRRED  =  1.00D-07  THRPSP  =  1.00D+00  THRDC   =  1.00D-10  THRCS   =  1.00D-10
 THRNRM  =  1.00D-08  THREQ   =  0.00D+00  THRDE   =  1.00D+00  THRREF  =  1.00D-05  SPARFAC =  1.00D+00  THRDLP  =  1.00D-07
 THRDIA  =  1.00D-10  THRDLS  =  1.00D-07  THRGPS  =  0.00D+00  THRKEX  =  0.00D+00  THRDIS  =  2.00D-01  THRVAR  =  1.00D-10
 THRLOC  =  1.00D-06  THRGAP  =  1.00D-06  THRLOCT = -1.00D+00  THRGAPT = -1.00D+00  THRORB  =  1.00D-06  THRMLTP =  0.00D+00
 THRCPQCI=  1.00D-10  KEXTA   =  0.00D+00  THRCOARS=  0.00D+00  SYMTOL  =  1.00D-06  GRADTOL =  1.00D-06  THROVL  =  1.00D-08
 THRORTH =  1.00D-08  GRID    =  1.00D-06  GRIDMAX =  1.00D-03  DTMAX   =  0.00D+00  THROCCDE=  1.00D-01  THROCCDE=  1.00D-01



 Input parameters for SORTINT:

 COMPRESS =    0.000000
 C_FINAL  =    1.000000
 DEBUG    =   -1.000000
 C_SORT1  =    0.000000
 C_SEWARD =    0.000000
 THRESH   =    0.000000
 IO       =  molpro                                                          
 SPRI     =    0.000000
 SETTING GEOMTYP        =    XYZ
 ZUNIT=BOHR
 

 Variable memory set to  995000000 words,  buffer space   230000 words

 SETTING BASIS          =    USERDEF


 Recomputing integrals since basis changed


 Using spherical harmonics

 Library entry H      S aug-cc-pVTZ          selected for orbital group  2
 Library entry H      P aug-cc-pVTZ          selected for orbital group  2
 Library entry H      D aug-cc-pVTZ          selected for orbital group  2


 PROGRAM * SEWARD (Integral evaluation for generally contracted gaussian basis sets)     Author: Roland Lindh, 1990

 Geometry written to block  1 of record 700


 Point group  Cs  



 ATOMIC COORDINATES

 NR  ATOM    CHARGE       X              Y              Z

   1  N       7.00    0.000000000   -0.151748825   -1.146280523
   2  H       1.00    0.000000000    1.662940059   -1.934818877
   3  O       8.00    0.000000000    0.030576556    1.130509810

 Bond lengths in Bohr (Angstrom)

 1-2  1.978607712  1-3  2.284078975
     ( 1.047034111)     ( 1.208682542)

 Bond angles

  2-1-3  108.90795847

 NUCLEAR CHARGE:                   16
 NUMBER OF PRIMITIVE AOS:         203
 NUMBER OF SYMMETRY AOS:          173
 NUMBER OF CONTRACTIONS:          171   ( 114A'  +  57A"  )
 NUMBER OF CORE ORBITALS:           2   (   2A'  +   0A"  )
 NUMBER OF VALENCE ORBITALS:        9   (   7A'  +   2A"  )


 NUCLEAR REPULSION ENERGY   30.35895020


 Eigenvalues of metric

         1 0.103E-02 0.249E-02 0.332E-02 0.633E-02 0.968E-02 0.136E-01 0.144E-01 0.229E-01
         2 0.357E-01 0.532E-01 0.693E-01 0.942E-01 0.131E+00 0.134E+00 0.140E+00 0.142E+00


 Contracted 2-electron integrals neglected if value below      1.0D-22

       46145380. INTEGRALS WRITTEN OUT IN   11269 BLOCKS ON RECORD 1290 OF FILE 1


 NUMBER OF SORTED TWO-ELECTRON INTEGRALS:   55360566.     BUFFER LENGTH:  32768
 NUMBER OF SEGMENTS:   4  SEGMENT LENGTH:   15997996      RECORD LENGTH: 524288

 Memory used in sort:      16.56 MW

 SORT1 READ    46145380. AND WROTE    46582817. INTEGRALS IN    135 RECORDS. CPU TIME:     0.78 SEC, REAL TIME:     1.07 SEC
 SORT2 READ    46582817. AND WROTE    55360566. INTEGRALS IN      4 RECORDS. CPU TIME:     0.65 SEC, REAL TIME:     0.86 SEC

 FILE SIZES:   FILE 1:   759.3 MBYTE,  FILE 4:   566.3 MBYTE,   TOTAL:   1325.5 MBYTE

 OPERATOR DM      FOR CENTER  0  COORDINATES:    0.000000    0.000000    0.000000


 **********************************************************************************************************************************
 DATASETS  * FILE   NREC   LENGTH (MB)   RECORD NAMES
              1      19      421.25       500      610      700      900      950      970     1000      129      960     1100   
                                          VAR    BASINP    GEOM    SYMINP    ZMAT    AOBASIS   BASIS     P2S    ABASIS      S 
                                         1400     1410     1200     1210     1080     1600     1650     1300     1700   
                                           T        V       H0       H01     AOSYM     SMH    MOLCAS    ERIS     OPER   

 PROGRAMS   *        TOTAL       INT
 CPU TIMES  *         4.26      4.15
 REAL TIME  *         5.65 SEC
 DISK USED  *         1.33 GB      
 **********************************************************************************************************************************


 PROGRAM * RHF-SCF (CLOSED SHELL)       Authors: W. Meyer, H.-J. Werner


 NUMBER OF ELECTRONS:       8+    8-
 CONVERGENCE THRESHOLDS:    1.00E-10 (Density)    1.00E-13 (Energy)
 MAX. NUMBER OF ITERATIONS:      500
 INTERPOLATION TYPE:            DIIS
 INTERPOLATION STEPS:              2 (START)      1 (STEP)
 LEVEL SHIFTS:                  0.00 (CLOSED)  0.00 (OPEN) 



 Orbital guess generated from atomic densities. Full valence occupancy:    9   2

 Molecular orbital dump at record        2100.2

 Initial occupancy:   7   1

 ITERATION    DDIFF          GRAD             ENERGY        2-EL.EN.            DIPOLE MOMENTS         DIIS   ORB.
    1      0.000D+00      0.000D+00      -129.78949490    154.043953    0.00000    0.57949   -1.01700    0    start
    2      0.000D+00      0.877D-02      -129.81637381    155.214447    0.00000    0.59828   -0.20093    1    diag
    3      0.366D-02      0.665D-02      -129.83897854    155.337424    0.00000    0.55153   -0.58803    2    diag
    4      0.141D-02      0.104D-02      -129.83976447    155.062716    0.00000    0.55930   -0.52531    3    diag
    5      0.333D-03      0.336D-03      -129.83988393    155.150630    0.00000    0.56531   -0.52773    4    diag
    6      0.153D-03      0.982D-04      -129.83990333    155.134613    0.00000    0.56589   -0.52361    5    diag
    7      0.606D-04      0.494D-04      -129.83990907    155.137113    0.00000    0.56721   -0.52110    6    diag
    8      0.412D-04      0.170D-04      -129.83990969    155.136293    0.00000    0.56726   -0.52019    7    diag
    9      0.143D-04      0.316D-05      -129.83990972    155.136180    0.00000    0.56721   -0.52000    8    diag
   10      0.291D-05      0.724D-06      -129.83990972    155.136167    0.00000    0.56717   -0.51998    9    orth
   11      0.872D-06      0.143D-06      -129.83990972    155.136163    0.00000    0.56716   -0.51997    9    diag
   12      0.205D-06      0.296D-07      -129.83990972    155.136162    0.00000    0.56716   -0.51997    9    diag
   13      0.494D-07      0.783D-08      -129.83990972    155.136162    0.00000    0.56716   -0.51997    9    diag
   14      0.114D-07      0.138D-08      -129.83990972    155.136162    0.00000    0.56716   -0.51997    9    diag
   15      0.144D-08      0.368D-09      -129.83990972    155.136162    0.00000    0.56716   -0.51997    9    diag
   16      0.322D-09      0.107D-09      -129.83990972    155.136162    0.00000    0.56716   -0.51997    9    diag
   17      0.703D-10      0.286D-10      -129.83990972    155.136162    0.00000    0.56716   -0.51997    9    diag
   18      0.215D-10      0.938D-11      -129.83990972    155.136162    0.00000    0.56716   -0.51997    9    diag
   19      0.867D-11      0.224D-11      -129.83990972    155.136162    0.00000    0.56716   -0.51997    0    orth

 Final occupancy:   7   1

 !RHF STATE 1.1 Energy               -129.839909718228
 Nuclear energy                        30.35895020
 One-electron energy                 -237.76694073
 Two-electron energy                   77.56808082
 Virial quotient                       -1.00161516
 !RHF STATE 1.1 Dipole moment           0.00000000     0.56716212    -0.51997185
 Dipole moment /Debye                   0.00000000     1.44148790    -1.32155007

 Orbital energies:

         1.1          2.1          3.1          4.1          5.1          6.1          7.1          8.1          9.1
    -20.651422   -15.709914    -1.527143    -0.994794    -0.745494    -0.664159    -0.428764     0.039650     0.193151

         1.2          2.2          3.2
     -0.593699     0.078655     0.239625

 HOMO      7.1    -0.428764 =     -11.6673eV
 LUMO      8.1     0.039650 =       1.0789eV
 LUMO-HOMO         0.468415 =      12.7462eV


 **********************************************************************************************************************************
 DATASETS  * FILE   NREC   LENGTH (MB)   RECORD NAMES
              1      19      421.25       500      610      700      900      950      970     1000      129      960     1100   
                                          VAR    BASINP    GEOM    SYMINP    ZMAT    AOBASIS   BASIS     P2S    ABASIS      S 
                                         1400     1410     1200     1210     1080     1600     1650     1300     1700   
                                           T        V       H0       H01     AOSYM     SMH    MOLCAS    ERIS     OPER   

              2       4        3.13       700     1000      520     2100   
                                         GEOM     BASIS   MCVARS     RHF  

 PROGRAMS   *        TOTAL        HF       INT
 CPU TIMES  *         9.20      4.95      4.15
 REAL TIME  *        11.51 SEC
 DISK USED  *         1.33 GB      
 **********************************************************************************************************************************


 PROGRAM * CCSD (Closed-shell coupled cluster)     Authors: C. Hampel, H.-J. Werner, 1991, M. Deegan, P.J. Knowles, 1992


 Convergence thresholds:  THRVAR = 1.00D-08  THRDEN = 1.00D-12

 CCSD(T)     terms to be evaluated (factor= 1.000)


 Number of core orbitals:           2 (   2   0 )
 Number of closed-shell orbitals:   6 (   5   1 )
 Number of external orbitals:     163 ( 107  56 )

 Molecular orbitals read from record     2100.2  Type=RHF/CANONICAL (state 1.1)

 Number of N-1 electron functions:               6
 Number of N-2 electron functions:              21
 Number of singly external CSFs:               591
 Number of doubly external CSFs:            250014
 Total number of CSFs:                      250606

 Length of J-op  integral file:               0.00 MB
 Length of K-op  integral file:               1.15 MB
 Length of 3-ext integral record:             0.00 MB

 Memory could be reduced to 19.93 Mwords without degradation in triples

 Integral transformation finished. Total CPU:   0.72 sec, npass=  1  Memory used:   5.10 MW

 Reference energy:                   -129.83990972

 MP2 singlet pair energy:              -0.28683060
 MP2 triplet pair energy:              -0.16717009
 MP2 correlation energy:               -0.45400069
 MP2 total energy:                   -130.29391041

 SCS-MP2 correlation energy:           -0.44821367   (PS=  1.200000  PT=  0.333333)
 SCS-MP2 total energy:               -130.28812338

 ITER.      SQ.NORM     CORR.ENERGY   TOTAL ENERGY   ENERGY CHANGE        DEN1      VAR(S)    VAR(P)  DIIS     TIME  TIME/IT
   1      1.11872632    -0.45612080  -130.29603052    -0.00212011     0.01463907  0.32D-02  0.31D-02  1  1     1.36     0.70
   2      1.12924217    -0.45603426  -130.29594397     0.00008654    -0.01250617  0.12D-03  0.50D-03  2  2     2.03     0.71
   3      1.13579896    -0.45640602  -130.29631574    -0.00037176    -0.00336191  0.44D-04  0.58D-04  3  3     2.67     0.71
   4      1.13867362    -0.45643837  -130.29634808    -0.00003234    -0.00094555  0.44D-05  0.98D-05  4  4     3.31     0.71
   5      1.13975679    -0.45647061  -130.29638033    -0.00003224    -0.00022098  0.13D-05  0.18D-05  5  5     3.93     0.71
   6      1.14015587    -0.45645484  -130.29636455     0.00001577    -0.00006605  0.12D-06  0.44D-06  6  6     4.56     0.71
   7      1.14022925    -0.45645643  -130.29636615    -0.00000159     0.00000857  0.16D-07  0.95D-07  6  1     5.21     0.72
   8      1.14026410    -0.45645603  -130.29636575     0.00000040    -0.00000466  0.51D-08  0.15D-07  6  2     5.83     0.72
   9      1.14026949    -0.45645591  -130.29636563     0.00000012     0.00000094  0.22D-08  0.17D-08  6  3     6.48     0.72
  10      1.14026986    -0.45645625  -130.29636596    -0.00000033    -0.00000023  0.51D-09  0.26D-09  6  4     7.13     0.72
  11      1.14026832    -0.45645639  -130.29636610    -0.00000014     0.00000034  0.12D-09  0.26D-10  6  5     7.77     0.72
  12      1.14026715    -0.45645654  -130.29636625    -0.00000015     0.00000048  0.16D-10  0.76D-11  6  6     8.42     0.72
  13      1.14026650    -0.45645655  -130.29636627    -0.00000002     0.00000012  0.60D-11  0.14D-11  6  1     9.06     0.72
  14      1.14026598    -0.45645658  -130.29636630    -0.00000003     0.00000012  0.55D-12  0.45D-12  6  3     9.74     0.72
  15      1.14026582    -0.45645658  -130.29636630     0.00000000     0.00000001  0.14D-12  0.32D-13  6  2    10.39     0.72
  16      1.14026577    -0.45645658  -130.29636630    -0.00000000     0.00000001  0.32D-13  0.75D-14  6  4    11.06     0.72
  17      1.14026575    -0.45645659  -130.29636630    -0.00000000     0.00000001  0.41D-14  0.12D-14  6  5    11.68     0.72
  18      1.14026575    -0.45645659  -130.29636630     0.00000000     0.00000000  0.46D-15  0.32D-15  6  6    12.35     0.72
  19      1.14026575    -0.45645659  -130.29636630     0.00000000    -0.00000000  0.62D-16  0.40D-16  6  1    12.99     0.72
  20      1.14026575    -0.45645659  -130.29636630     0.00000000    -0.00000000  0.32D-17  0.92D-17  6  3    13.65     0.72
  21      1.14026575    -0.45645659  -130.29636630     0.00000000    -0.00000000  0.51D-18  0.19D-17  6  4    14.28     0.72
  22      1.14026576    -0.45645659  -130.29636630     0.00000000    -0.00000000  0.19D-19  0.69D-18  6  2    14.93     0.72
  23      1.14026575    -0.45645659  -130.29636630    -0.00000000     0.00000000  0.55D-19  0.14D-18  6  5    15.58     0.72
  24      1.14026575    -0.45645659  -130.29636630    -0.00000000     0.00000000  0.49D-20  0.14D-19  6  1    16.22     0.72
  25      1.14026575    -0.45645659  -130.29636630     0.00000000    -0.00000000  0.22D-20  0.94D-21  6  6    16.92     0.72

 Norm of t1 vector:      0.07728239      S-energy:     0.00000000      T1 diagnostic:  0.01577520
                                                                       D1 diagnostic:  0.04313297

 Doubles amplitudes (print threshold =  0.500E-01):

         I         J         SYM. A    SYM. B    A         B      T(IJ, AB)

         6         6         2         2         1         1     -0.13558083


 Total CPU time for triples:      8.51 sec


 RESULTS
 =======

  Reference energy                   -129.839909718229
  CCSD singlet pair energy             -0.313483207387
  CCSD triplet pair energy             -0.142973378140
  CCSD correlation energy              -0.456456585526

  Triples (T) contribution             -0.021193490519
  Total correlation energy             -0.477650076045

  CCSD total energy                  -130.296366303755
  CCSD[T] energy                     -130.318656920295
  CCSD-T energy                      -130.317146106075
 !CCSD(T) total energy               -130.317559794274

 Timing summary (sec):

 STEP                 CPU(USER)    SYS     CPU(TOT)    WALL
 Transformation          0.73      0.15      0.88      0.89
 CCSD iterations        16.19      1.86     18.05     18.04
 Triples                 8.51      0.19      8.70      8.71

 Program statistics:

 Available memory in ccsd:               994999756
 Min. memory needed in ccsd:                887758
 Max. memory used in ccsd:                 1088212
 Max. memory used in cckext:               1535578 (25 integral passes)



 **********************************************************************************************************************************
 DATASETS  * FILE   NREC   LENGTH (MB)   RECORD NAMES
              1      20      479.20       500      610      700      900      950      970     1000      129      960     1100   
                                          VAR    BASINP    GEOM    SYMINP    ZMAT    AOBASIS   BASIS     P2S    ABASIS      S 
                                         1400     1410     1200     1210     1080     1600     1650     1300     1700     1380   
                                           T        V       H0       H01     AOSYM     SMH    MOLCAS    ERIS     OPER     JKOP   

              2       4        3.13       700     1000      520     2100   
                                         GEOM     BASIS   MCVARS     RHF  

 PROGRAMS   *        TOTAL   CCSD(T)        HF       INT
 CPU TIMES  *        34.65     25.44      4.95      4.15
 REAL TIME  *        39.18 SEC
 DISK USED  *         1.33 GB      
 **********************************************************************************************************************************

 CCSD(T)/USERDEF energy=   -130.317559794274

        CCSD(T)         HF-SCF  
   -130.31755979   -129.83990972
 **********************************************************************************************************************************
 Molpro calculation terminated
 Variable memory released
