
 Primary working directories    : /tmp/r2666/235333.maple
 Secondary working directories  : /tmp/r2666/235333.maple
 Wavefunction directory         : /ddn/home4/r2666/wfu/
 Main file repository           : /tmp/r2666/235333.maple/

 SHA1      : d5ffa45e93fdbca01ffc919aa182cfdae0147319
 NAME      : 2015.1.35
 ARCHNAME  : linux/x86_64
 FC        : /opt/intel/composer_xe_2015.1.133/bin/intel64/ifort
 BLASLIB   : -Wl,-_start-group /opt/intel/mkl/lib/intel64/libmkl_intel_ilp64.a /opt/intel/mkl/lib/intel64/libmkl_intel_thread.a /opt/intel/mkl/lib/intel64/libmkl_core.a -Wl,-_end-group
 id        : olemiss

 Nodes     nprocs
 cn092        1

 Using customized tuning parameters: mindgm=1; mindgv=20; mindgc=4; mindgr=1; noblas=0; minvec=7
 default implementation of scratch files=df  

 ***,hno CCSD(T)/TZ-F12 QFF
 memory, 995, m;
 gthresh,energy=1.d-12,zero=1.d-22,oneint=1.d-22,twoint=1.d-22;
 gthresh,optgrad=1.d-8,optstep=1.d-8;
 nocompress;
 geomtyp=xyz
 bohr
 geometry={
 3
         59        59
 N        0.0000000000       -0.1652658087       -1.1509924157
 H        0.0000000000        1.6666038081       -1.9234053404
 O        0.0000000000        0.0404297907        1.1238081651
 }
 
 basis={
 default=aug-cc-pvtz
 s,C,8236.0,1235.0,280.8, 79.27,25.59, 8.997,3.319
 s,C,0.9059,0.3643,0.1285000
 p,C,56.0,18.71,4.133,0.2827,0.3827,0.1209
 d,C,30.0,10.0,3.3,1.097,0.318
 f,C,7.0,2.3,0.7610
 s,N,11420.0,1712.0,389.3,110.0,35.57,12.54,4.644
 s,N,1.293,0.5118,0.1787
 p,N,79.89,26.63,5.948,1.742,0.555,0.1725
 d,N,45.0,15.0,5.0,1.654,0.469
 f,N,9.9,3.3,1.093
 s,O,15330.0,2299.0,522.4,147.3,47.55,16.76,6.207
 s,O,1.752,0.6882,0.2384
 p,O,103.5,34.46,7.749,2.28,0.7156,0.214
 d,O,63.0,21.0,7.0,2.314,0.645
 f,O,12.9,4.3,1.428
 s,mg,164900.0,24710.0,5628.0,1596.0,521.0;
 s,mg,188.0,73.01,29.90,12.54,4.306,1.826;
 s,mg,0.7417,0.0761,0.145,0.033,0.0129;
 p,mg,950.70,316.90,74.86,23.72,8.669,3.363;
 p,mg,1.310,0.4911,0.2364,0.08733,0.03237,0.00745;
 d,mg,1.601,0.686,0.126,0.294,0.0468;
 f,mg,1.372,0.588,0.094,0.252;
 }
   {hf,maxit=500;accu,20;}
 {ccsd(t),nocheck,maxit=250;orbital,IGNORE_ERROR;}

 Variables initialized (889), CPU time= 0.01 sec
 Commands  initialized (702), CPU time= 0.01 sec, 572 directives.
 Default parameters read. Elapsed time= 0.04 sec

 Checking input...
 Passed
1


                                         ***  PROGRAM SYSTEM MOLPRO  ***
                                       Copyright, TTI GmbH Stuttgart, 2015
                                    Version 2015.1 linked Jul  9 2018 13:16:40


 **********************************************************************************************************************************
 LABEL *   hno CCSD(T)/TZ-F12 QFF                                                        
  64 bit serial version                                                                  DATE: 08-Feb-20          TIME: 17:58:10  
 **********************************************************************************************************************************

 SHA1:             d5ffa45e93fdbca01ffc919aa182cfdae0147319
 **********************************************************************************************************************************

 THRESHOLDS:

 ZERO    =  1.00D-22  ONEINT  =  1.00D-22  TWOINT  =  1.00D-22  PREFAC  =  1.00D-14  LOCALI  =  1.00D-09  EORDER  =  1.00D-04
 ENERGY  =  1.00D-12  ETEST   =  0.00D+00  EDENS   =  0.00D+00  THRDEDEF=  1.00D-06  GRADIENT=  1.00D-02  STEP    =  1.00D-03
 ORBITAL =  1.00D-05  CIVEC   =  1.00D-05  COEFF   =  1.00D-04  PRINTCI =  5.00D-02  PUNCHCI =  9.90D+01  OPTGRAD =  3.00D-04
 OPTENERG=  1.00D-06  OPTSTEP =  3.00D-04  THRGRAD =  1.00D-10  COMPRESS=  1.00D-11  VARMIN  =  1.00D-07  VARMAX  =  1.00D-03
 THRDOUB =  0.00D+00  THRDIV  =  1.00D-05  THRRED  =  1.00D-07  THRPSP  =  1.00D+00  THRDC   =  1.00D-10  THRCS   =  1.00D-10
 THRNRM  =  1.00D-08  THREQ   =  0.00D+00  THRDE   =  1.00D+00  THRREF  =  1.00D-05  SPARFAC =  1.00D+00  THRDLP  =  1.00D-07
 THRDIA  =  1.00D-10  THRDLS  =  1.00D-07  THRGPS  =  0.00D+00  THRKEX  =  0.00D+00  THRDIS  =  2.00D-01  THRVAR  =  1.00D-10
 THRLOC  =  1.00D-06  THRGAP  =  1.00D-06  THRLOCT = -1.00D+00  THRGAPT = -1.00D+00  THRORB  =  1.00D-06  THRMLTP =  0.00D+00
 THRCPQCI=  1.00D-10  KEXTA   =  0.00D+00  THRCOARS=  0.00D+00  SYMTOL  =  1.00D-06  GRADTOL =  1.00D-06  THROVL  =  1.00D-08
 THRORTH =  1.00D-08  GRID    =  1.00D-06  GRIDMAX =  1.00D-03  DTMAX   =  0.00D+00  THROCCDE=  1.00D-01  THROCCDE=  1.00D-01



 THRESHOLDS:

 ZERO    =  1.00D-22  ONEINT  =  1.00D-22  TWOINT  =  1.00D-22  PREFAC  =  1.00D-14  LOCALI  =  1.00D-09  EORDER  =  1.00D-04
 ENERGY  =  1.00D-12  ETEST   =  0.00D+00  EDENS   =  0.00D+00  THRDEDEF=  1.00D-06  GRADIENT=  1.00D-02  STEP    =  1.00D-03
 ORBITAL =  1.00D-05  CIVEC   =  1.00D-05  COEFF   =  1.00D-04  PRINTCI =  5.00D-02  PUNCHCI =  9.90D+01  OPTGRAD =  1.00D-08
 OPTENERG=  1.00D-06  OPTSTEP =  1.00D-08  THRGRAD =  1.00D-10  COMPRESS=  1.00D-11  VARMIN  =  1.00D-07  VARMAX  =  1.00D-03
 THRDOUB =  0.00D+00  THRDIV  =  1.00D-05  THRRED  =  1.00D-07  THRPSP  =  1.00D+00  THRDC   =  1.00D-10  THRCS   =  1.00D-10
 THRNRM  =  1.00D-08  THREQ   =  0.00D+00  THRDE   =  1.00D+00  THRREF  =  1.00D-05  SPARFAC =  1.00D+00  THRDLP  =  1.00D-07
 THRDIA  =  1.00D-10  THRDLS  =  1.00D-07  THRGPS  =  0.00D+00  THRKEX  =  0.00D+00  THRDIS  =  2.00D-01  THRVAR  =  1.00D-10
 THRLOC  =  1.00D-06  THRGAP  =  1.00D-06  THRLOCT = -1.00D+00  THRGAPT = -1.00D+00  THRORB  =  1.00D-06  THRMLTP =  0.00D+00
 THRCPQCI=  1.00D-10  KEXTA   =  0.00D+00  THRCOARS=  0.00D+00  SYMTOL  =  1.00D-06  GRADTOL =  1.00D-06  THROVL  =  1.00D-08
 THRORTH =  1.00D-08  GRID    =  1.00D-06  GRIDMAX =  1.00D-03  DTMAX   =  0.00D+00  THROCCDE=  1.00D-01  THROCCDE=  1.00D-01



 Input parameters for SORTINT:

 COMPRESS =    0.000000
 C_FINAL  =    1.000000
 DEBUG    =   -1.000000
 C_SORT1  =    0.000000
 C_SEWARD =    0.000000
 THRESH   =    0.000000
 IO       =  molpro                                                          
 SPRI     =    0.000000
 SETTING GEOMTYP        =    XYZ
 ZUNIT=BOHR
 

 Variable memory set to  995000000 words,  buffer space   230000 words

 SETTING BASIS          =    USERDEF


 Recomputing integrals since basis changed


 Using spherical harmonics

 Library entry H      S aug-cc-pVTZ          selected for orbital group  2
 Library entry H      P aug-cc-pVTZ          selected for orbital group  2
 Library entry H      D aug-cc-pVTZ          selected for orbital group  2


 PROGRAM * SEWARD (Integral evaluation for generally contracted gaussian basis sets)     Author: Roland Lindh, 1990

 Geometry written to block  1 of record 700


 Point group  Cs  



 ATOMIC COORDINATES

 NR  ATOM    CHARGE       X              Y              Z

   1  N       7.00    0.000000000   -0.165265809   -1.150992416
   2  H       1.00    0.000000000    1.666603808   -1.923405340
   3  O       8.00    0.000000000    0.040429791    1.123808165

 Bond lengths in Bohr (Angstrom)

 1-2  1.988056342  1-3  2.284081514
     ( 1.052034110)     ( 1.208683885)

 Bond angles

  2-1-3  107.69601831

 NUCLEAR CHARGE:                   16
 NUMBER OF PRIMITIVE AOS:         203
 NUMBER OF SYMMETRY AOS:          173
 NUMBER OF CONTRACTIONS:          171   ( 114A'  +  57A"  )
 NUMBER OF CORE ORBITALS:           2   (   2A'  +   0A"  )
 NUMBER OF VALENCE ORBITALS:        9   (   7A'  +   2A"  )


 NUCLEAR REPULSION ENERGY   30.35471185


 Eigenvalues of metric

         1 0.104E-02 0.250E-02 0.333E-02 0.636E-02 0.985E-02 0.137E-01 0.145E-01 0.230E-01
         2 0.364E-01 0.533E-01 0.701E-01 0.941E-01 0.131E+00 0.134E+00 0.140E+00 0.142E+00


 Contracted 2-electron integrals neglected if value below      1.0D-22

       46149394. INTEGRALS WRITTEN OUT IN   11270 BLOCKS ON RECORD 1290 OF FILE 1


 NUMBER OF SORTED TWO-ELECTRON INTEGRALS:   55360566.     BUFFER LENGTH:  32768
 NUMBER OF SEGMENTS:   4  SEGMENT LENGTH:   15997996      RECORD LENGTH: 524288

 Memory used in sort:      16.56 MW

 SORT1 READ    46149394. AND WROTE    46586871. INTEGRALS IN    135 RECORDS. CPU TIME:     0.76 SEC, REAL TIME:     1.05 SEC
 SORT2 READ    46586871. AND WROTE    55360566. INTEGRALS IN      4 RECORDS. CPU TIME:     0.65 SEC, REAL TIME:     0.85 SEC

 FILE SIZES:   FILE 1:   759.3 MBYTE,  FILE 4:   566.3 MBYTE,   TOTAL:   1325.6 MBYTE

 OPERATOR DM      FOR CENTER  0  COORDINATES:    0.000000    0.000000    0.000000


 **********************************************************************************************************************************
 DATASETS  * FILE   NREC   LENGTH (MB)   RECORD NAMES
              1      19      421.28       500      610      700      900      950      970     1000      129      960     1100   
                                          VAR    BASINP    GEOM    SYMINP    ZMAT    AOBASIS   BASIS     P2S    ABASIS      S 
                                         1400     1410     1200     1210     1080     1600     1650     1300     1700   
                                           T        V       H0       H01     AOSYM     SMH    MOLCAS    ERIS     OPER   

 PROGRAMS   *        TOTAL       INT
 CPU TIMES  *         4.16      4.07
 REAL TIME  *         5.75 SEC
 DISK USED  *         1.33 GB      
 **********************************************************************************************************************************


 PROGRAM * RHF-SCF (CLOSED SHELL)       Authors: W. Meyer, H.-J. Werner


 NUMBER OF ELECTRONS:       8+    8-
 CONVERGENCE THRESHOLDS:    1.00E-10 (Density)    1.00E-13 (Energy)
 MAX. NUMBER OF ITERATIONS:      500
 INTERPOLATION TYPE:            DIIS
 INTERPOLATION STEPS:              2 (START)      1 (STEP)
 LEVEL SHIFTS:                  0.00 (CLOSED)  0.00 (OPEN) 



 Orbital guess generated from atomic densities. Full valence occupancy:    9   2

 Molecular orbital dump at record        2100.2

 Initial occupancy:   7   1

 ITERATION    DDIFF          GRAD             ENERGY        2-EL.EN.            DIPOLE MOMENTS         DIIS   ORB.
    1      0.000D+00      0.000D+00      -129.78900440    154.037899    0.00000    0.56562   -1.01485    0    start
    2      0.000D+00      0.880D-02      -129.81590414    155.208523    0.00000    0.59827   -0.19382    1    diag
    3      0.365D-02      0.670D-02      -129.83884446    155.331415    0.00000    0.54485   -0.58278    2    diag
    4      0.142D-02      0.104D-02      -129.83962811    155.056546    0.00000    0.55318   -0.52042    3    diag
    5      0.331D-03      0.338D-03      -129.83974896    155.144523    0.00000    0.55916   -0.52278    4    diag
    6      0.153D-03      0.992D-04      -129.83976870    155.128409    0.00000    0.55971   -0.51864    5    diag
    7      0.608D-04      0.498D-04      -129.83977454    155.130941    0.00000    0.56104   -0.51611    6    diag
    8      0.413D-04      0.171D-04      -129.83977517    155.130107    0.00000    0.56109   -0.51520    7    diag
    9      0.143D-04      0.318D-05      -129.83977520    155.129994    0.00000    0.56104   -0.51501    8    diag
   10      0.292D-05      0.721D-06      -129.83977520    155.129981    0.00000    0.56101   -0.51499    9    orth
   11      0.864D-06      0.143D-06      -129.83977520    155.129977    0.00000    0.56100   -0.51498    9    diag
   12      0.205D-06      0.299D-07      -129.83977520    155.129976    0.00000    0.56100   -0.51498    9    diag
   13      0.502D-07      0.792D-08      -129.83977520    155.129976    0.00000    0.56100   -0.51498    9    diag
   14      0.115D-07      0.139D-08      -129.83977520    155.129976    0.00000    0.56100   -0.51498    9    diag
   15      0.147D-08      0.374D-09      -129.83977520    155.129976    0.00000    0.56100   -0.51498    9    diag
   16      0.327D-09      0.110D-09      -129.83977520    155.129976    0.00000    0.56100   -0.51498    9    diag
   17      0.758D-10      0.305D-10      -129.83977520    155.129976    0.00000    0.56100   -0.51498    0    orth

 Final occupancy:   7   1

 !RHF STATE 1.1 Energy               -129.839775198477
 Nuclear energy                        30.35471185
 One-electron energy                 -237.75947487
 Two-electron energy                   77.56498782
 Virial quotient                       -1.00164077
 !RHF STATE 1.1 Dipole moment           0.00000000     0.56099686    -0.51498058
 Dipole moment /Debye                   0.00000000     1.42581840    -1.30886434

 Orbital energies:

         1.1          2.1          3.1          4.1          5.1          6.1          7.1          8.1          9.1
    -20.651233   -15.710824    -1.527716    -0.992783    -0.745010    -0.663938    -0.429307     0.039747     0.192810

         1.2          2.2          3.2
     -0.593939     0.078953     0.239463

 HOMO      7.1    -0.429307 =     -11.6820eV
 LUMO      8.1     0.039747 =       1.0816eV
 LUMO-HOMO         0.469054 =      12.7636eV


 **********************************************************************************************************************************
 DATASETS  * FILE   NREC   LENGTH (MB)   RECORD NAMES
              1      19      421.28       500      610      700      900      950      970     1000      129      960     1100   
                                          VAR    BASINP    GEOM    SYMINP    ZMAT    AOBASIS   BASIS     P2S    ABASIS      S 
                                         1400     1410     1200     1210     1080     1600     1650     1300     1700   
                                           T        V       H0       H01     AOSYM     SMH    MOLCAS    ERIS     OPER   

              2       4        3.13       700     1000      520     2100   
                                         GEOM     BASIS   MCVARS     RHF  

 PROGRAMS   *        TOTAL        HF       INT
 CPU TIMES  *         8.51      4.35      4.07
 REAL TIME  *        10.99 SEC
 DISK USED  *         1.33 GB      
 **********************************************************************************************************************************


 PROGRAM * CCSD (Closed-shell coupled cluster)     Authors: C. Hampel, H.-J. Werner, 1991, M. Deegan, P.J. Knowles, 1992


 Convergence thresholds:  THRVAR = 1.00D-08  THRDEN = 1.00D-12

 CCSD(T)     terms to be evaluated (factor= 1.000)


 Number of core orbitals:           2 (   2   0 )
 Number of closed-shell orbitals:   6 (   5   1 )
 Number of external orbitals:     163 ( 107  56 )

 Molecular orbitals read from record     2100.2  Type=RHF/CANONICAL (state 1.1)

 Number of N-1 electron functions:               6
 Number of N-2 electron functions:              21
 Number of singly external CSFs:               591
 Number of doubly external CSFs:            250014
 Total number of CSFs:                      250606

 Length of J-op  integral file:               0.00 MB
 Length of K-op  integral file:               1.15 MB
 Length of 3-ext integral record:             0.00 MB

 Memory could be reduced to 19.93 Mwords without degradation in triples

 Integral transformation finished. Total CPU:   0.69 sec, npass=  1  Memory used:   5.10 MW

 Reference energy:                   -129.83977520

 MP2 singlet pair energy:              -0.28694532
 MP2 triplet pair energy:              -0.16723698
 MP2 correlation energy:               -0.45418230
 MP2 total energy:                   -130.29395750

 SCS-MP2 correlation energy:           -0.44839295   (PS=  1.200000  PT=  0.333333)
 SCS-MP2 total energy:               -130.28816815

 ITER.      SQ.NORM     CORR.ENERGY   TOTAL ENERGY   ENERGY CHANGE        DEN1      VAR(S)    VAR(P)  DIIS     TIME  TIME/IT
   1      1.11886496    -0.45628867  -130.29606386    -0.00210637     0.01467255  0.32D-02  0.31D-02  1  1     1.31     0.67
   2      1.12939265    -0.45620322  -130.29597842     0.00008545    -0.01252035  0.12D-03  0.50D-03  2  2     1.93     0.68
   3      1.13595582    -0.45657526  -130.29635045    -0.00037204    -0.00337057  0.44D-04  0.57D-04  3  3     2.52     0.69
   4      1.13882350    -0.45660762  -130.29638282    -0.00003237    -0.00094517  0.44D-05  0.96D-05  4  4     3.16     0.69
   5      1.13989858    -0.45663988  -130.29641508    -0.00003225    -0.00022015  0.13D-05  0.17D-05  5  5     3.79     0.69
   6      1.14029252    -0.45662418  -130.29639937     0.00001570    -0.00006549  0.12D-06  0.42D-06  6  6     4.40     0.69
   7      1.14036436    -0.45662568  -130.29640088    -0.00000150     0.00000855  0.17D-07  0.92D-07  6  1     5.03     0.69
   8      1.14039880    -0.45662523  -130.29640043     0.00000044    -0.00000463  0.48D-08  0.14D-07  6  2     5.65     0.69
   9      1.14040404    -0.45662512  -130.29640032     0.00000011     0.00000097  0.21D-08  0.16D-08  6  3     6.28     0.69
  10      1.14040447    -0.45662544  -130.29640064    -0.00000032    -0.00000025  0.48D-09  0.25D-09  6  4     6.91     0.69
  11      1.14040297    -0.45662558  -130.29640078    -0.00000014     0.00000034  0.12D-09  0.25D-10  6  5     7.53     0.69
  12      1.14040184    -0.45662573  -130.29640092    -0.00000015     0.00000046  0.15D-10  0.73D-11  6  6     8.15     0.69
  13      1.14040120    -0.45662574  -130.29640094    -0.00000002     0.00000012  0.57D-11  0.13D-11  6  1     8.74     0.70
  14      1.14040070    -0.45662577  -130.29640097    -0.00000003     0.00000011  0.53D-12  0.42D-12  6  3     9.39     0.70
  15      1.14040054    -0.45662577  -130.29640097     0.00000000     0.00000001  0.13D-12  0.30D-13  6  2     9.99     0.70
  16      1.14040049    -0.45662577  -130.29640097    -0.00000000     0.00000001  0.31D-13  0.73D-14  6  4    10.63     0.70
  17      1.14040047    -0.45662577  -130.29640097    -0.00000000     0.00000001  0.40D-14  0.12D-14  6  5    11.26     0.70
  18      1.14040047    -0.45662577  -130.29640097     0.00000000     0.00000000  0.44D-15  0.32D-15  6  6    11.88     0.70
  19      1.14040048    -0.45662577  -130.29640097     0.00000000    -0.00000000  0.60D-16  0.40D-16  6  1    12.52     0.70
  20      1.14040048    -0.45662577  -130.29640097     0.00000000    -0.00000000  0.30D-17  0.95D-17  6  3    13.12     0.70
  21      1.14040048    -0.45662577  -130.29640097     0.00000000    -0.00000000  0.49D-18  0.20D-17  6  4    13.69     0.70
  22      1.14040048    -0.45662577  -130.29640097     0.00000000    -0.00000000  0.16D-19  0.72D-18  6  2    14.33     0.70
  23      1.14040048    -0.45662577  -130.29640097    -0.00000000     0.00000000  0.29D-19  0.13D-18  6  4    14.96     0.70
  24      1.14040048    -0.45662577  -130.29640097     0.00000000    -0.00000000  0.31D-20  0.61D-20  6  5    15.61     0.70
  25      1.14040048    -0.45662577  -130.29640097    -0.00000000     0.00000000  0.34D-21  0.51D-21  6  6    16.22     0.70
  26      1.14040048    -0.45662577  -130.29640097     0.00000000    -0.00000000  0.14D-21  0.58D-22  6  1    16.83     0.70
  27      1.14040048    -0.45662577  -130.29640097     0.00000000    -0.00000000  0.53D-22  0.16D-22  6  3    17.43     0.70

 Norm of t1 vector:      0.07716303      S-energy:     0.00000000      T1 diagnostic:  0.01575084
                                                                       D1 diagnostic:  0.04303252

 Doubles amplitudes (print threshold =  0.500E-01):

         I         J         SYM. A    SYM. B    A         B      T(IJ, AB)

         6         6         2         2         1         1     -0.13571194


 Total CPU time for triples:      8.13 sec


 RESULTS
 =======

  Reference energy                   -129.839775198477
  CCSD singlet pair energy             -0.313624716363
  CCSD triplet pair energy             -0.143001056990
  CCSD correlation energy              -0.456625773347

  Triples (T) contribution             -0.021215338062
  Total correlation energy             -0.477841111410

  CCSD total energy                  -130.296400971825
  CCSD[T] energy                     -130.318712201598
  CCSD-T energy                      -130.317202245554
 !CCSD(T) total energy               -130.317616309887

 Timing summary (sec):

 STEP                 CPU(USER)    SYS     CPU(TOT)    WALL
 Transformation          0.70      0.13      0.83      0.82
 CCSD iterations        16.73      2.10     18.83     18.86
 Triples                 8.13      0.25      8.38      8.37

 Program statistics:

 Available memory in ccsd:               994999756
 Min. memory needed in ccsd:                887758
 Max. memory used in ccsd:                 1088212
 Max. memory used in cckext:               1535578 (27 integral passes)



 **********************************************************************************************************************************
 DATASETS  * FILE   NREC   LENGTH (MB)   RECORD NAMES
              1      20      479.23       500      610      700      900      950      970     1000      129      960     1100   
                                          VAR    BASINP    GEOM    SYMINP    ZMAT    AOBASIS   BASIS     P2S    ABASIS      S 
                                         1400     1410     1200     1210     1080     1600     1650     1300     1700     1380   
                                           T        V       H0       H01     AOSYM     SMH    MOLCAS    ERIS     OPER     JKOP   

              2       4        3.13       700     1000      520     2100   
                                         GEOM     BASIS   MCVARS     RHF  

 PROGRAMS   *        TOTAL   CCSD(T)        HF       INT
 CPU TIMES  *        34.11     25.59      4.35      4.07
 REAL TIME  *        39.94 SEC
 DISK USED  *         1.33 GB      
 **********************************************************************************************************************************

 CCSD(T)/USERDEF energy=   -130.317616309887

        CCSD(T)         HF-SCF  
   -130.31761631   -129.83977520
 **********************************************************************************************************************************
 Molpro calculation terminated
 Variable memory released
