
 Primary working directories    : /tmp/r2666/235369.maple
 Secondary working directories  : /tmp/r2666/235369.maple
 Wavefunction directory         : /ddn/home4/r2666/wfu/
 Main file repository           : /tmp/r2666/235369.maple/

 SHA1      : d5ffa45e93fdbca01ffc919aa182cfdae0147319
 NAME      : 2015.1.35
 ARCHNAME  : linux/x86_64
 FC        : /opt/intel/composer_xe_2015.1.133/bin/intel64/ifort
 BLASLIB   : -Wl,-_start-group /opt/intel/mkl/lib/intel64/libmkl_intel_ilp64.a /opt/intel/mkl/lib/intel64/libmkl_intel_thread.a /opt/intel/mkl/lib/intel64/libmkl_core.a -Wl,-_end-group
 id        : olemiss

 Nodes     nprocs
 cn096        1

 Using customized tuning parameters: mindgm=1; mindgv=20; mindgc=4; mindgr=1; noblas=0; minvec=7
 default implementation of scratch files=df  

 ***,hno CCSD(T)/TZ-F12 QFF
 memory, 995, m;
 gthresh,energy=1.d-12,zero=1.d-22,oneint=1.d-22,twoint=1.d-22;
 gthresh,optgrad=1.d-8,optstep=1.d-8;
 nocompress;
 geomtyp=xyz
 bohr
 geometry={
 3
         95        95
 N        0.0000000000       -0.1576548748       -1.1287734975
 H        0.0000000000        1.6693049358       -1.9363897205
 O        0.0000000000        0.0301177290        1.1145736270
 }
 
 basis={
 default=aug-cc-pvtz
 s,C,8236.0,1235.0,280.8, 79.27,25.59, 8.997,3.319
 s,C,0.9059,0.3643,0.1285000
 p,C,56.0,18.71,4.133,0.2827,0.3827,0.1209
 d,C,30.0,10.0,3.3,1.097,0.318
 f,C,7.0,2.3,0.7610
 s,N,11420.0,1712.0,389.3,110.0,35.57,12.54,4.644
 s,N,1.293,0.5118,0.1787
 p,N,79.89,26.63,5.948,1.742,0.555,0.1725
 d,N,45.0,15.0,5.0,1.654,0.469
 f,N,9.9,3.3,1.093
 s,O,15330.0,2299.0,522.4,147.3,47.55,16.76,6.207
 s,O,1.752,0.6882,0.2384
 p,O,103.5,34.46,7.749,2.28,0.7156,0.214
 d,O,63.0,21.0,7.0,2.314,0.645
 f,O,12.9,4.3,1.428
 s,mg,164900.0,24710.0,5628.0,1596.0,521.0;
 s,mg,188.0,73.01,29.90,12.54,4.306,1.826;
 s,mg,0.7417,0.0761,0.145,0.033,0.0129;
 p,mg,950.70,316.90,74.86,23.72,8.669,3.363;
 p,mg,1.310,0.4911,0.2364,0.08733,0.03237,0.00745;
 d,mg,1.601,0.686,0.126,0.294,0.0468;
 f,mg,1.372,0.588,0.094,0.252;
 }
   {hf,maxit=500;accu,20;}
 {ccsd(t),nocheck,maxit=250;orbital,IGNORE_ERROR;}

 Variables initialized (889), CPU time= 0.00 sec
 Commands  initialized (702), CPU time= 0.02 sec, 572 directives.
 Default parameters read. Elapsed time= 0.05 sec

 Checking input...
 Passed
1


                                         ***  PROGRAM SYSTEM MOLPRO  ***
                                       Copyright, TTI GmbH Stuttgart, 2015
                                    Version 2015.1 linked Jul  9 2018 13:16:40


 **********************************************************************************************************************************
 LABEL *   hno CCSD(T)/TZ-F12 QFF                                                        
  64 bit serial version                                                                  DATE: 08-Feb-20          TIME: 17:58:21  
 **********************************************************************************************************************************

 SHA1:             d5ffa45e93fdbca01ffc919aa182cfdae0147319
 **********************************************************************************************************************************

 THRESHOLDS:

 ZERO    =  1.00D-22  ONEINT  =  1.00D-22  TWOINT  =  1.00D-22  PREFAC  =  1.00D-14  LOCALI  =  1.00D-09  EORDER  =  1.00D-04
 ENERGY  =  1.00D-12  ETEST   =  0.00D+00  EDENS   =  0.00D+00  THRDEDEF=  1.00D-06  GRADIENT=  1.00D-02  STEP    =  1.00D-03
 ORBITAL =  1.00D-05  CIVEC   =  1.00D-05  COEFF   =  1.00D-04  PRINTCI =  5.00D-02  PUNCHCI =  9.90D+01  OPTGRAD =  3.00D-04
 OPTENERG=  1.00D-06  OPTSTEP =  3.00D-04  THRGRAD =  1.00D-10  COMPRESS=  1.00D-11  VARMIN  =  1.00D-07  VARMAX  =  1.00D-03
 THRDOUB =  0.00D+00  THRDIV  =  1.00D-05  THRRED  =  1.00D-07  THRPSP  =  1.00D+00  THRDC   =  1.00D-10  THRCS   =  1.00D-10
 THRNRM  =  1.00D-08  THREQ   =  0.00D+00  THRDE   =  1.00D+00  THRREF  =  1.00D-05  SPARFAC =  1.00D+00  THRDLP  =  1.00D-07
 THRDIA  =  1.00D-10  THRDLS  =  1.00D-07  THRGPS  =  0.00D+00  THRKEX  =  0.00D+00  THRDIS  =  2.00D-01  THRVAR  =  1.00D-10
 THRLOC  =  1.00D-06  THRGAP  =  1.00D-06  THRLOCT = -1.00D+00  THRGAPT = -1.00D+00  THRORB  =  1.00D-06  THRMLTP =  0.00D+00
 THRCPQCI=  1.00D-10  KEXTA   =  0.00D+00  THRCOARS=  0.00D+00  SYMTOL  =  1.00D-06  GRADTOL =  1.00D-06  THROVL  =  1.00D-08
 THRORTH =  1.00D-08  GRID    =  1.00D-06  GRIDMAX =  1.00D-03  DTMAX   =  0.00D+00  THROCCDE=  1.00D-01  THROCCDE=  1.00D-01



 THRESHOLDS:

 ZERO    =  1.00D-22  ONEINT  =  1.00D-22  TWOINT  =  1.00D-22  PREFAC  =  1.00D-14  LOCALI  =  1.00D-09  EORDER  =  1.00D-04
 ENERGY  =  1.00D-12  ETEST   =  0.00D+00  EDENS   =  0.00D+00  THRDEDEF=  1.00D-06  GRADIENT=  1.00D-02  STEP    =  1.00D-03
 ORBITAL =  1.00D-05  CIVEC   =  1.00D-05  COEFF   =  1.00D-04  PRINTCI =  5.00D-02  PUNCHCI =  9.90D+01  OPTGRAD =  1.00D-08
 OPTENERG=  1.00D-06  OPTSTEP =  1.00D-08  THRGRAD =  1.00D-10  COMPRESS=  1.00D-11  VARMIN  =  1.00D-07  VARMAX  =  1.00D-03
 THRDOUB =  0.00D+00  THRDIV  =  1.00D-05  THRRED  =  1.00D-07  THRPSP  =  1.00D+00  THRDC   =  1.00D-10  THRCS   =  1.00D-10
 THRNRM  =  1.00D-08  THREQ   =  0.00D+00  THRDE   =  1.00D+00  THRREF  =  1.00D-05  SPARFAC =  1.00D+00  THRDLP  =  1.00D-07
 THRDIA  =  1.00D-10  THRDLS  =  1.00D-07  THRGPS  =  0.00D+00  THRKEX  =  0.00D+00  THRDIS  =  2.00D-01  THRVAR  =  1.00D-10
 THRLOC  =  1.00D-06  THRGAP  =  1.00D-06  THRLOCT = -1.00D+00  THRGAPT = -1.00D+00  THRORB  =  1.00D-06  THRMLTP =  0.00D+00
 THRCPQCI=  1.00D-10  KEXTA   =  0.00D+00  THRCOARS=  0.00D+00  SYMTOL  =  1.00D-06  GRADTOL =  1.00D-06  THROVL  =  1.00D-08
 THRORTH =  1.00D-08  GRID    =  1.00D-06  GRIDMAX =  1.00D-03  DTMAX   =  0.00D+00  THROCCDE=  1.00D-01  THROCCDE=  1.00D-01



 Input parameters for SORTINT:

 COMPRESS =    0.000000
 C_FINAL  =    1.000000
 DEBUG    =   -1.000000
 C_SORT1  =    0.000000
 C_SEWARD =    0.000000
 THRESH   =    0.000000
 IO       =  molpro                                                          
 SPRI     =    0.000000
 SETTING GEOMTYP        =    XYZ
 ZUNIT=BOHR
 

 Variable memory set to  995000000 words,  buffer space   230000 words

 SETTING BASIS          =    USERDEF


 Recomputing integrals since basis changed


 Using spherical harmonics

 Library entry H      S aug-cc-pVTZ          selected for orbital group  2
 Library entry H      P aug-cc-pVTZ          selected for orbital group  2
 Library entry H      D aug-cc-pVTZ          selected for orbital group  2


 PROGRAM * SEWARD (Integral evaluation for generally contracted gaussian basis sets)     Author: Roland Lindh, 1990

 Geometry written to block  1 of record 700


 Point group  Cs  



 ATOMIC COORDINATES

 NR  ATOM    CHARGE       X              Y              Z

   1  N       7.00    0.000000000   -0.157654875   -1.128773497
   2  H       1.00    0.000000000    1.669304936   -1.936389721
   3  O       8.00    0.000000000    0.030117729    1.114573627

 Bond lengths in Bohr (Angstrom)

 1-2  1.997504972  1-3  2.251191878
     ( 1.057034110)     ( 1.191279439)

 Bond angles

  2-1-3  109.06343437

 NUCLEAR CHARGE:                   16
 NUMBER OF PRIMITIVE AOS:         203
 NUMBER OF SYMMETRY AOS:          173
 NUMBER OF CONTRACTIONS:          171   ( 114A'  +  57A"  )
 NUMBER OF CORE ORBITALS:           2   (   2A'  +   0A"  )
 NUMBER OF VALENCE ORBITALS:        9   (   7A'  +   2A"  )


 NUCLEAR REPULSION ENERGY   30.68993570


 Eigenvalues of metric

         1 0.102E-02 0.235E-02 0.328E-02 0.631E-02 0.100E-01 0.136E-01 0.143E-01 0.229E-01
         2 0.367E-01 0.506E-01 0.691E-01 0.940E-01 0.130E+00 0.134E+00 0.140E+00 0.142E+00


 Contracted 2-electron integrals neglected if value below      1.0D-22

       46293621. INTEGRALS WRITTEN OUT IN   11305 BLOCKS ON RECORD 1290 OF FILE 1


 NUMBER OF SORTED TWO-ELECTRON INTEGRALS:   55360566.     BUFFER LENGTH:  32768
 NUMBER OF SEGMENTS:   4  SEGMENT LENGTH:   15997996      RECORD LENGTH: 524288

 Memory used in sort:      16.56 MW

 SORT1 READ    46293621. AND WROTE    46732513. INTEGRALS IN    136 RECORDS. CPU TIME:     0.91 SEC, REAL TIME:     1.24 SEC
 SORT2 READ    46732513. AND WROTE    55360566. INTEGRALS IN      4 RECORDS. CPU TIME:     0.69 SEC, REAL TIME:     0.94 SEC

 FILE SIZES:   FILE 1:   761.6 MBYTE,  FILE 4:   570.5 MBYTE,   TOTAL:   1332.1 MBYTE

 OPERATOR DM      FOR CENTER  0  COORDINATES:    0.000000    0.000000    0.000000


 **********************************************************************************************************************************
 DATASETS  * FILE   NREC   LENGTH (MB)   RECORD NAMES
              1      19      422.20       500      610      700      900      950      970     1000      129      960     1100   
                                          VAR    BASINP    GEOM    SYMINP    ZMAT    AOBASIS   BASIS     P2S    ABASIS      S 
                                         1400     1410     1200     1210     1080     1600     1650     1300     1700   
                                           T        V       H0       H01     AOSYM     SMH    MOLCAS    ERIS     OPER   

 PROGRAMS   *        TOTAL       INT
 CPU TIMES  *         4.98      4.88
 REAL TIME  *         6.66 SEC
 DISK USED  *         1.33 GB      
 **********************************************************************************************************************************


 PROGRAM * RHF-SCF (CLOSED SHELL)       Authors: W. Meyer, H.-J. Werner


 NUMBER OF ELECTRONS:       8+    8-
 CONVERGENCE THRESHOLDS:    1.00E-10 (Density)    1.00E-13 (Energy)
 MAX. NUMBER OF ITERATIONS:      500
 INTERPOLATION TYPE:            DIIS
 INTERPOLATION STEPS:              2 (START)      1 (STEP)
 LEVEL SHIFTS:                  0.00 (CLOSED)  0.00 (OPEN) 



 Orbital guess generated from atomic densities. Full valence occupancy:    9   2

 Molecular orbital dump at record        2100.2

 Initial occupancy:   7   1

 ITERATION    DDIFF          GRAD             ENERGY        2-EL.EN.            DIPOLE MOMENTS         DIIS   ORB.
    1      0.000D+00      0.000D+00      -129.79324596    154.626059    0.00000    0.56544   -0.96245    0    start
    2      0.000D+00      0.863D-02      -129.82054623    155.840682    0.00000    0.58551   -0.20467    1    diag
    3      0.355D-02      0.633D-02      -129.84083029    155.923681    0.00000    0.53949   -0.56137    2    diag
    4      0.135D-02      0.102D-02      -129.84158107    155.660511    0.00000    0.54753   -0.50174    3    diag
    5      0.325D-03      0.329D-03      -129.84169589    155.747763    0.00000    0.55370   -0.50458    4    diag
    6      0.151D-03      0.965D-04      -129.84171454    155.731857    0.00000    0.55437   -0.50075    5    diag
    7      0.602D-04      0.476D-04      -129.84171977    155.734593    0.00000    0.55577   -0.49849    6    diag
    8      0.403D-04      0.155D-04      -129.84172027    155.733844    0.00000    0.55584   -0.49769    7    diag
    9      0.129D-04      0.286D-05      -129.84172029    155.733742    0.00000    0.55579   -0.49753    8    diag
   10      0.250D-05      0.679D-06      -129.84172029    155.733728    0.00000    0.55576   -0.49751    9    orth
   11      0.806D-06      0.138D-06      -129.84172029    155.733723    0.00000    0.55575   -0.49750    9    diag
   12      0.198D-06      0.279D-07      -129.84172029    155.733722    0.00000    0.55575   -0.49750    9    diag
   13      0.480D-07      0.722D-08      -129.84172029    155.733722    0.00000    0.55575   -0.49750    9    diag
   14      0.110D-07      0.133D-08      -129.84172029    155.733722    0.00000    0.55575   -0.49750    9    diag
   15      0.157D-08      0.379D-09      -129.84172029    155.733722    0.00000    0.55575   -0.49750    9    diag
   16      0.344D-09      0.120D-09      -129.84172029    155.733722    0.00000    0.55575   -0.49750    9    diag
   17      0.970D-10      0.353D-10      -129.84172029    155.733722    0.00000    0.55575   -0.49750    9    diag
   18      0.326D-10      0.110D-10      -129.84172029    155.733722    0.00000    0.55575   -0.49750    9    diag
   19      0.112D-10      0.275D-11      -129.84172029    155.733722    0.00000    0.55575   -0.49750    0    orth

 Final occupancy:   7   1

 !RHF STATE 1.1 Energy               -129.841720286883
 Nuclear energy                        30.68993570
 One-electron energy                 -238.39851694
 Two-electron energy                   77.86686096
 Virial quotient                       -1.00119786
 !RHF STATE 1.1 Dipole moment           0.00000000     0.55574545    -0.49749947
 Dipole moment /Debye                   0.00000000     1.41247153    -1.26443471

 Orbital energies:

         1.1          2.1          3.1          4.1          5.1          6.1          7.1          8.1          9.1
    -20.650069   -15.708331    -1.541509    -0.988356    -0.749813    -0.669328    -0.422699     0.039861     0.193187

         1.2          2.2          3.2
     -0.602293     0.084747     0.240184

 HOMO      7.1    -0.422699 =     -11.5022eV
 LUMO      8.1     0.039861 =       1.0847eV
 LUMO-HOMO         0.462559 =      12.5869eV


 **********************************************************************************************************************************
 DATASETS  * FILE   NREC   LENGTH (MB)   RECORD NAMES
              1      19      422.20       500      610      700      900      950      970     1000      129      960     1100   
                                          VAR    BASINP    GEOM    SYMINP    ZMAT    AOBASIS   BASIS     P2S    ABASIS      S 
                                         1400     1410     1200     1210     1080     1600     1650     1300     1700   
                                           T        V       H0       H01     AOSYM     SMH    MOLCAS    ERIS     OPER   

              2       4        3.13       700     1000      520     2100   
                                         GEOM     BASIS   MCVARS     RHF  

 PROGRAMS   *        TOTAL        HF       INT
 CPU TIMES  *        11.01      6.03      4.88
 REAL TIME  *        13.95 SEC
 DISK USED  *         1.33 GB      
 **********************************************************************************************************************************


 PROGRAM * CCSD (Closed-shell coupled cluster)     Authors: C. Hampel, H.-J. Werner, 1991, M. Deegan, P.J. Knowles, 1992


 Convergence thresholds:  THRVAR = 1.00D-08  THRDEN = 1.00D-12

 CCSD(T)     terms to be evaluated (factor= 1.000)


 Number of core orbitals:           2 (   2   0 )
 Number of closed-shell orbitals:   6 (   5   1 )
 Number of external orbitals:     163 ( 107  56 )

 Molecular orbitals read from record     2100.2  Type=RHF/CANONICAL (state 1.1)

 Number of N-1 electron functions:               6
 Number of N-2 electron functions:              21
 Number of singly external CSFs:               591
 Number of doubly external CSFs:            250014
 Total number of CSFs:                      250606

 Length of J-op  integral file:               0.00 MB
 Length of K-op  integral file:               1.15 MB
 Length of 3-ext integral record:             0.00 MB

 Memory could be reduced to 19.93 Mwords without degradation in triples

 Integral transformation finished. Total CPU:   0.90 sec, npass=  1  Memory used:   5.10 MW

 Reference energy:                   -129.84172029

 MP2 singlet pair energy:              -0.28532488
 MP2 triplet pair energy:              -0.16615842
 MP2 correlation energy:               -0.45148330
 MP2 total energy:                   -130.29320359

 SCS-MP2 correlation energy:           -0.44577731   (PS=  1.200000  PT=  0.333333)
 SCS-MP2 total energy:               -130.28749760

 ITER.      SQ.NORM     CORR.ENERGY   TOTAL ENERGY   ENERGY CHANGE        DEN1      VAR(S)    VAR(P)  DIIS     TIME  TIME/IT
   1      1.11722473    -0.45421489  -130.29593517    -0.00273159     0.01339106  0.30D-02  0.29D-02  1  1     1.72     0.88
   2      1.12738672    -0.45426025  -130.29598054    -0.00004536    -0.01213375  0.11D-03  0.48D-03  2  2     2.56     0.90
   3      1.13367230    -0.45461621  -130.29633649    -0.00035595    -0.00327471  0.42D-04  0.54D-04  3  3     3.37     0.90
   4      1.13637432    -0.45464537  -130.29636566    -0.00002917    -0.00090177  0.41D-05  0.91D-05  4  4     4.22     0.90
   5      1.13737062    -0.45467523  -130.29639551    -0.00002986    -0.00020262  0.13D-05  0.17D-05  5  5     5.03     0.90
   6      1.13774833    -0.45466103  -130.29638131     0.00001420    -0.00006201  0.13D-06  0.42D-06  6  6     5.83     0.91
   7      1.13782435    -0.45466228  -130.29638257    -0.00000126     0.00000731  0.19D-07  0.88D-07  6  1     6.62     0.91
   8      1.13785870    -0.45466203  -130.29638232     0.00000026    -0.00000428  0.50D-08  0.13D-07  6  2     7.42     0.91
   9      1.13786453    -0.45466190  -130.29638219     0.00000013     0.00000057  0.21D-08  0.14D-08  6  3     8.26     0.91
  10      1.13786472    -0.45466223  -130.29638251    -0.00000033    -0.00000009  0.46D-09  0.22D-09  6  4     9.05     0.91
  11      1.13786321    -0.45466236  -130.29638264    -0.00000013     0.00000034  0.11D-09  0.23D-10  6  5     9.88     0.91
  12      1.13786208    -0.45466249  -130.29638278    -0.00000014     0.00000045  0.15D-10  0.69D-11  6  6    10.64     0.91
  13      1.13786146    -0.45466251  -130.29638280    -0.00000002     0.00000012  0.59D-11  0.12D-11  6  1    11.47     0.91
  14      1.13786096    -0.45466254  -130.29638283    -0.00000003     0.00000011  0.56D-12  0.40D-12  6  3    12.31     0.91
  15      1.13786082    -0.45466254  -130.29638283    -0.00000000     0.00000001  0.13D-12  0.27D-13  6  2    13.12     0.91
  16      1.13786078    -0.45466254  -130.29638283    -0.00000000     0.00000001  0.31D-13  0.71D-14  6  4    13.96     0.91
  17      1.13786076    -0.45466254  -130.29638283    -0.00000000     0.00000001  0.34D-14  0.11D-14  6  5    14.78     0.91
  18      1.13786076    -0.45466254  -130.29638283     0.00000000    -0.00000000  0.37D-15  0.29D-15  6  6    15.61     0.91
  19      1.13786076    -0.45466254  -130.29638283     0.00000000    -0.00000000  0.49D-16  0.30D-16  6  1    16.46     0.91
  20      1.13786077    -0.45466254  -130.29638283     0.00000000    -0.00000000  0.28D-17  0.63D-17  6  3    17.25     0.91
  21      1.13786077    -0.45466254  -130.29638283     0.00000000    -0.00000000  0.45D-18  0.12D-17  6  4    18.07     0.91
  22      1.13786077    -0.45466254  -130.29638283     0.00000000    -0.00000000  0.21D-19  0.41D-18  6  2    18.88     0.91
  23      1.13786077    -0.45466254  -130.29638283    -0.00000000     0.00000000  0.22D-19  0.98D-19  6  5    19.74     0.91
  24      1.13786077    -0.45466254  -130.29638283    -0.00000000     0.00000000  0.40D-20  0.93D-20  6  1    20.54     0.91
  25      1.13786077    -0.45466254  -130.29638283     0.00000000    -0.00000000  0.14D-20  0.60D-21  6  6    21.35     0.91

 Norm of t1 vector:      0.07520212      S-energy:     0.00000000      T1 diagnostic:  0.01535057
                                                                       D1 diagnostic:  0.04097273

 Doubles amplitudes (print threshold =  0.500E-01):

         I         J         SYM. A    SYM. B    A         B      T(IJ, AB)

         6         6         2         2         1         1     -0.13018756


 Total CPU time for triples:      9.50 sec


 RESULTS
 =======

  Reference energy                   -129.841720286883
  CCSD singlet pair energy             -0.311904401866
  CCSD triplet pair energy             -0.142758138750
  CCSD correlation energy              -0.454662540615

  Triples (T) contribution             -0.020738988915
  Total correlation energy             -0.475401529530

  CCSD total energy                  -130.296382827498
  CCSD[T] energy                     -130.318157296901
  CCSD-T energy                      -130.316723133233
 !CCSD(T) total energy               -130.317121816413

 Timing summary (sec):

 STEP                 CPU(USER)    SYS     CPU(TOT)    WALL
 Transformation          0.91      0.18      1.09      1.09
 CCSD iterations        20.44      2.40     22.84     22.86
 Triples                 9.50      0.27      9.77      9.77

 Program statistics:

 Available memory in ccsd:               994999756
 Min. memory needed in ccsd:                887758
 Max. memory used in ccsd:                 1088212
 Max. memory used in cckext:               1535578 (25 integral passes)



 **********************************************************************************************************************************
 DATASETS  * FILE   NREC   LENGTH (MB)   RECORD NAMES
              1      20      480.16       500      610      700      900      950      970     1000      129      960     1100   
                                          VAR    BASINP    GEOM    SYMINP    ZMAT    AOBASIS   BASIS     P2S    ABASIS      S 
                                         1400     1410     1200     1210     1080     1600     1650     1300     1700     1380   
                                           T        V       H0       H01     AOSYM     SMH    MOLCAS    ERIS     OPER     JKOP   

              2       4        3.13       700     1000      520     2100   
                                         GEOM     BASIS   MCVARS     RHF  

 PROGRAMS   *        TOTAL   CCSD(T)        HF       INT
 CPU TIMES  *        41.91     30.89      6.03      4.88
 REAL TIME  *        47.73 SEC
 DISK USED  *         1.33 GB      
 **********************************************************************************************************************************

 CCSD(T)/USERDEF energy=   -130.317121816413

        CCSD(T)         HF-SCF  
   -130.31712182   -129.84172029
 **********************************************************************************************************************************
 Molpro calculation terminated
 Variable memory released
