
 Primary working directories    : /tmp/r2666/235327.maple
 Secondary working directories  : /tmp/r2666/235327.maple
 Wavefunction directory         : /ddn/home4/r2666/wfu/
 Main file repository           : /tmp/r2666/235327.maple/

 SHA1      : d5ffa45e93fdbca01ffc919aa182cfdae0147319
 NAME      : 2015.1.35
 ARCHNAME  : linux/x86_64
 FC        : /opt/intel/composer_xe_2015.1.133/bin/intel64/ifort
 BLASLIB   : -Wl,-_start-group /opt/intel/mkl/lib/intel64/libmkl_intel_ilp64.a /opt/intel/mkl/lib/intel64/libmkl_intel_thread.a /opt/intel/mkl/lib/intel64/libmkl_core.a -Wl,-_end-group
 id        : olemiss

 Nodes     nprocs
 cn096        1

 Using customized tuning parameters: mindgm=1; mindgv=20; mindgc=4; mindgr=1; noblas=0; minvec=7
 default implementation of scratch files=df  

 ***,hno CCSD(T)/TZ-F12 QFF
 memory, 995, m;
 gthresh,energy=1.d-12,zero=1.d-22,oneint=1.d-22,twoint=1.d-22;
 gthresh,optgrad=1.d-8,optstep=1.d-8;
 nocompress;
 geomtyp=xyz
 bohr
 geometry={
 3
         53        53
 N        0.0000000000       -0.1664707171       -1.1485934319
 H        0.0000000000        1.6658295209       -1.9199842907
 O        0.0000000000        0.0424089861        1.1179881317
 }
 
 basis={
 default=aug-cc-pvtz
 s,C,8236.0,1235.0,280.8, 79.27,25.59, 8.997,3.319
 s,C,0.9059,0.3643,0.1285000
 p,C,56.0,18.71,4.133,0.2827,0.3827,0.1209
 d,C,30.0,10.0,3.3,1.097,0.318
 f,C,7.0,2.3,0.7610
 s,N,11420.0,1712.0,389.3,110.0,35.57,12.54,4.644
 s,N,1.293,0.5118,0.1787
 p,N,79.89,26.63,5.948,1.742,0.555,0.1725
 d,N,45.0,15.0,5.0,1.654,0.469
 f,N,9.9,3.3,1.093
 s,O,15330.0,2299.0,522.4,147.3,47.55,16.76,6.207
 s,O,1.752,0.6882,0.2384
 p,O,103.5,34.46,7.749,2.28,0.7156,0.214
 d,O,63.0,21.0,7.0,2.314,0.645
 f,O,12.9,4.3,1.428
 s,mg,164900.0,24710.0,5628.0,1596.0,521.0;
 s,mg,188.0,73.01,29.90,12.54,4.306,1.826;
 s,mg,0.7417,0.0761,0.145,0.033,0.0129;
 p,mg,950.70,316.90,74.86,23.72,8.669,3.363;
 p,mg,1.310,0.4911,0.2364,0.08733,0.03237,0.00745;
 d,mg,1.601,0.686,0.126,0.294,0.0468;
 f,mg,1.372,0.588,0.094,0.252;
 }
   {hf,maxit=500;accu,20;}
 {ccsd(t),nocheck,maxit=250;orbital,IGNORE_ERROR;}

 Variables initialized (889), CPU time= 0.01 sec
 Commands  initialized (702), CPU time= 0.00 sec, 572 directives.
 Default parameters read. Elapsed time= 0.07 sec

 Checking input...
 Passed
1


                                         ***  PROGRAM SYSTEM MOLPRO  ***
                                       Copyright, TTI GmbH Stuttgart, 2015
                                    Version 2015.1 linked Jul  9 2018 13:16:40


 **********************************************************************************************************************************
 LABEL *   hno CCSD(T)/TZ-F12 QFF                                                        
  64 bit serial version                                                                  DATE: 08-Feb-20          TIME: 17:57:32  
 **********************************************************************************************************************************

 SHA1:             d5ffa45e93fdbca01ffc919aa182cfdae0147319
 **********************************************************************************************************************************

 THRESHOLDS:

 ZERO    =  1.00D-22  ONEINT  =  1.00D-22  TWOINT  =  1.00D-22  PREFAC  =  1.00D-14  LOCALI  =  1.00D-09  EORDER  =  1.00D-04
 ENERGY  =  1.00D-12  ETEST   =  0.00D+00  EDENS   =  0.00D+00  THRDEDEF=  1.00D-06  GRADIENT=  1.00D-02  STEP    =  1.00D-03
 ORBITAL =  1.00D-05  CIVEC   =  1.00D-05  COEFF   =  1.00D-04  PRINTCI =  5.00D-02  PUNCHCI =  9.90D+01  OPTGRAD =  3.00D-04
 OPTENERG=  1.00D-06  OPTSTEP =  3.00D-04  THRGRAD =  1.00D-10  COMPRESS=  1.00D-11  VARMIN  =  1.00D-07  VARMAX  =  1.00D-03
 THRDOUB =  0.00D+00  THRDIV  =  1.00D-05  THRRED  =  1.00D-07  THRPSP  =  1.00D+00  THRDC   =  1.00D-10  THRCS   =  1.00D-10
 THRNRM  =  1.00D-08  THREQ   =  0.00D+00  THRDE   =  1.00D+00  THRREF  =  1.00D-05  SPARFAC =  1.00D+00  THRDLP  =  1.00D-07
 THRDIA  =  1.00D-10  THRDLS  =  1.00D-07  THRGPS  =  0.00D+00  THRKEX  =  0.00D+00  THRDIS  =  2.00D-01  THRVAR  =  1.00D-10
 THRLOC  =  1.00D-06  THRGAP  =  1.00D-06  THRLOCT = -1.00D+00  THRGAPT = -1.00D+00  THRORB  =  1.00D-06  THRMLTP =  0.00D+00
 THRCPQCI=  1.00D-10  KEXTA   =  0.00D+00  THRCOARS=  0.00D+00  SYMTOL  =  1.00D-06  GRADTOL =  1.00D-06  THROVL  =  1.00D-08
 THRORTH =  1.00D-08  GRID    =  1.00D-06  GRIDMAX =  1.00D-03  DTMAX   =  0.00D+00  THROCCDE=  1.00D-01  THROCCDE=  1.00D-01



 THRESHOLDS:

 ZERO    =  1.00D-22  ONEINT  =  1.00D-22  TWOINT  =  1.00D-22  PREFAC  =  1.00D-14  LOCALI  =  1.00D-09  EORDER  =  1.00D-04
 ENERGY  =  1.00D-12  ETEST   =  0.00D+00  EDENS   =  0.00D+00  THRDEDEF=  1.00D-06  GRADIENT=  1.00D-02  STEP    =  1.00D-03
 ORBITAL =  1.00D-05  CIVEC   =  1.00D-05  COEFF   =  1.00D-04  PRINTCI =  5.00D-02  PUNCHCI =  9.90D+01  OPTGRAD =  1.00D-08
 OPTENERG=  1.00D-06  OPTSTEP =  1.00D-08  THRGRAD =  1.00D-10  COMPRESS=  1.00D-11  VARMIN  =  1.00D-07  VARMAX  =  1.00D-03
 THRDOUB =  0.00D+00  THRDIV  =  1.00D-05  THRRED  =  1.00D-07  THRPSP  =  1.00D+00  THRDC   =  1.00D-10  THRCS   =  1.00D-10
 THRNRM  =  1.00D-08  THREQ   =  0.00D+00  THRDE   =  1.00D+00  THRREF  =  1.00D-05  SPARFAC =  1.00D+00  THRDLP  =  1.00D-07
 THRDIA  =  1.00D-10  THRDLS  =  1.00D-07  THRGPS  =  0.00D+00  THRKEX  =  0.00D+00  THRDIS  =  2.00D-01  THRVAR  =  1.00D-10
 THRLOC  =  1.00D-06  THRGAP  =  1.00D-06  THRLOCT = -1.00D+00  THRGAPT = -1.00D+00  THRORB  =  1.00D-06  THRMLTP =  0.00D+00
 THRCPQCI=  1.00D-10  KEXTA   =  0.00D+00  THRCOARS=  0.00D+00  SYMTOL  =  1.00D-06  GRADTOL =  1.00D-06  THROVL  =  1.00D-08
 THRORTH =  1.00D-08  GRID    =  1.00D-06  GRIDMAX =  1.00D-03  DTMAX   =  0.00D+00  THROCCDE=  1.00D-01  THROCCDE=  1.00D-01



 Input parameters for SORTINT:

 COMPRESS =    0.000000
 C_FINAL  =    1.000000
 DEBUG    =   -1.000000
 C_SORT1  =    0.000000
 C_SEWARD =    0.000000
 THRESH   =    0.000000
 IO       =  molpro                                                          
 SPRI     =    0.000000
 SETTING GEOMTYP        =    XYZ
 ZUNIT=BOHR
 

 Variable memory set to  995000000 words,  buffer space   230000 words

 SETTING BASIS          =    USERDEF


 Recomputing integrals since basis changed


 Using spherical harmonics

 Library entry H      S aug-cc-pVTZ          selected for orbital group  2
 Library entry H      P aug-cc-pVTZ          selected for orbital group  2
 Library entry H      D aug-cc-pVTZ          selected for orbital group  2


 PROGRAM * SEWARD (Integral evaluation for generally contracted gaussian basis sets)     Author: Roland Lindh, 1990

 Geometry written to block  1 of record 700


 Point group  Cs  



 ATOMIC COORDINATES

 NR  ATOM    CHARGE       X              Y              Z

   1  N       7.00    0.000000000   -0.166470717   -1.148593432
   2  H       1.00    0.000000000    1.665829521   -1.919984291
   3  O       8.00    0.000000000    0.042408986    1.117988132

 Bond lengths in Bohr (Angstrom)

 1-2  1.988056342  1-3  2.276186002
     ( 1.052034110)     ( 1.204505760)

 Bond angles

  2-1-3  107.56559906

 NUCLEAR CHARGE:                   16
 NUMBER OF PRIMITIVE AOS:         203
 NUMBER OF SYMMETRY AOS:          173
 NUMBER OF CONTRACTIONS:          171   ( 114A'  +  57A"  )
 NUMBER OF CORE ORBITALS:           2   (   2A'  +   0A"  )
 NUMBER OF VALENCE ORBITALS:        9   (   7A'  +   2A"  )


 NUCLEAR REPULSION ENERGY   30.44611034


 Eigenvalues of metric

         1 0.104E-02 0.246E-02 0.331E-02 0.634E-02 0.985E-02 0.137E-01 0.145E-01 0.230E-01
         2 0.364E-01 0.527E-01 0.699E-01 0.940E-01 0.131E+00 0.134E+00 0.140E+00 0.142E+00


 Contracted 2-electron integrals neglected if value below      1.0D-22

       46176782. INTEGRALS WRITTEN OUT IN   11277 BLOCKS ON RECORD 1290 OF FILE 1


 NUMBER OF SORTED TWO-ELECTRON INTEGRALS:   55360566.     BUFFER LENGTH:  32768
 NUMBER OF SEGMENTS:   4  SEGMENT LENGTH:   15997996      RECORD LENGTH: 524288

 Memory used in sort:      16.56 MW

 SORT1 READ    46176782. AND WROTE    46614527. INTEGRALS IN    135 RECORDS. CPU TIME:     0.88 SEC, REAL TIME:     1.24 SEC
 SORT2 READ    46614527. AND WROTE    55360566. INTEGRALS IN      4 RECORDS. CPU TIME:     0.72 SEC, REAL TIME:     0.96 SEC

 FILE SIZES:   FILE 1:   759.8 MBYTE,  FILE 4:   566.3 MBYTE,   TOTAL:   1326.0 MBYTE

 OPERATOR DM      FOR CENTER  0  COORDINATES:    0.000000    0.000000    0.000000


 **********************************************************************************************************************************
 DATASETS  * FILE   NREC   LENGTH (MB)   RECORD NAMES
              1      19      421.46       500      610      700      900      950      970     1000      129      960     1100   
                                          VAR    BASINP    GEOM    SYMINP    ZMAT    AOBASIS   BASIS     P2S    ABASIS      S 
                                         1400     1410     1200     1210     1080     1600     1650     1300     1700   
                                           T        V       H0       H01     AOSYM     SMH    MOLCAS    ERIS     OPER   

 PROGRAMS   *        TOTAL       INT
 CPU TIMES  *         4.92      4.83
 REAL TIME  *         6.81 SEC
 DISK USED  *         1.33 GB      
 **********************************************************************************************************************************


 PROGRAM * RHF-SCF (CLOSED SHELL)       Authors: W. Meyer, H.-J. Werner


 NUMBER OF ELECTRONS:       8+    8-
 CONVERGENCE THRESHOLDS:    1.00E-10 (Density)    1.00E-13 (Energy)
 MAX. NUMBER OF ITERATIONS:      500
 INTERPOLATION TYPE:            DIIS
 INTERPOLATION STEPS:              2 (START)      1 (STEP)
 LEVEL SHIFTS:                  0.00 (CLOSED)  0.00 (OPEN) 



 Orbital guess generated from atomic densities. Full valence occupancy:    9   2

 Molecular orbital dump at record        2100.2

 Initial occupancy:   7   1

 ITERATION    DDIFF          GRAD             ENERGY        2-EL.EN.            DIPOLE MOMENTS         DIIS   ORB.
    1      0.000D+00      0.000D+00      -129.79015004    154.201768    0.00000    0.56260   -1.00111    0    start
    2      0.000D+00      0.876D-02      -129.81718081    155.379923    0.00000    0.59562   -0.19544    1    diag
    3      0.363D-02      0.661D-02      -129.83944012    155.493874    0.00000    0.54230   -0.57615    2    diag
    4      0.140D-02      0.103D-02      -129.84021463    155.222128    0.00000    0.55079   -0.51457    3    diag
    5      0.329D-03      0.336D-03      -129.84033396    155.309703    0.00000    0.55676   -0.51700    4    diag
    6      0.153D-03      0.986D-04      -129.84035343    155.293644    0.00000    0.55733   -0.51294    5    diag
    7      0.606D-04      0.493D-04      -129.84035912    155.296219    0.00000    0.55867   -0.51047    6    diag
    8      0.410D-04      0.167D-04      -129.84035971    155.295404    0.00000    0.55873   -0.50958    7    diag
    9      0.139D-04      0.309D-05      -129.84035974    155.295295    0.00000    0.55868   -0.50940    8    diag
   10      0.282D-05      0.707D-06      -129.84035974    155.295281    0.00000    0.55864   -0.50938    9    orth
   11      0.849D-06      0.141D-06      -129.84035974    155.295277    0.00000    0.55863   -0.50937    9    diag
   12      0.203D-06      0.293D-07      -129.84035974    155.295277    0.00000    0.55863   -0.50937    9    diag
   13      0.497D-07      0.770D-08      -129.84035974    155.295276    0.00000    0.55863   -0.50937    9    diag
   14      0.113D-07      0.137D-08      -129.84035974    155.295276    0.00000    0.55863   -0.50937    9    diag
   15      0.149D-08      0.373D-09      -129.84035974    155.295276    0.00000    0.55863   -0.50937    9    diag
   16      0.330D-09      0.112D-09      -129.84035974    155.295276    0.00000    0.55863   -0.50937    9    diag
   17      0.823D-10      0.323D-10      -129.84035974    155.295276    0.00000    0.55863   -0.50937    9    diag
   18      0.266D-10      0.107D-10      -129.84035974    155.295276    0.00000    0.55863   -0.50937    0    orth

 Final occupancy:   7   1

 !RHF STATE 1.1 Energy               -129.840359736556
 Nuclear energy                        30.44611034
 One-electron energy                 -237.93410824
 Two-electron energy                   77.64763816
 Virial quotient                       -1.00151091
 !RHF STATE 1.1 Dipole moment           0.00000000     0.55863071    -0.50936991
 Dipole moment /Debye                   0.00000000     1.41980463    -1.29460437

 Orbital energies:

         1.1          2.1          3.1          4.1          5.1          6.1          7.1          8.1          9.1
    -20.650811   -15.710145    -1.531225    -0.991736    -0.746311    -0.665118    -0.428118     0.039826     0.193028

         1.2          2.2          3.2
     -0.595953     0.080450     0.239587

 HOMO      7.1    -0.428118 =     -11.6497eV
 LUMO      8.1     0.039826 =       1.0837eV
 LUMO-HOMO         0.467944 =      12.7334eV


 **********************************************************************************************************************************
 DATASETS  * FILE   NREC   LENGTH (MB)   RECORD NAMES
              1      19      421.46       500      610      700      900      950      970     1000      129      960     1100   
                                          VAR    BASINP    GEOM    SYMINP    ZMAT    AOBASIS   BASIS     P2S    ABASIS      S 
                                         1400     1410     1200     1210     1080     1600     1650     1300     1700   
                                           T        V       H0       H01     AOSYM     SMH    MOLCAS    ERIS     OPER   

              2       4        3.13       700     1000      520     2100   
                                         GEOM     BASIS   MCVARS     RHF  

 PROGRAMS   *        TOTAL        HF       INT
 CPU TIMES  *        10.70      5.78      4.83
 REAL TIME  *        13.73 SEC
 DISK USED  *         1.33 GB      
 **********************************************************************************************************************************


 PROGRAM * CCSD (Closed-shell coupled cluster)     Authors: C. Hampel, H.-J. Werner, 1991, M. Deegan, P.J. Knowles, 1992


 Convergence thresholds:  THRVAR = 1.00D-08  THRDEN = 1.00D-12

 CCSD(T)     terms to be evaluated (factor= 1.000)


 Number of core orbitals:           2 (   2   0 )
 Number of closed-shell orbitals:   6 (   5   1 )
 Number of external orbitals:     163 ( 107  56 )

 Molecular orbitals read from record     2100.2  Type=RHF/CANONICAL (state 1.1)

 Number of N-1 electron functions:               6
 Number of N-2 electron functions:              21
 Number of singly external CSFs:               591
 Number of doubly external CSFs:            250014
 Total number of CSFs:                      250606

 Length of J-op  integral file:               0.00 MB
 Length of K-op  integral file:               1.15 MB
 Length of 3-ext integral record:             0.00 MB

 Memory could be reduced to 19.93 Mwords without degradation in triples

 Integral transformation finished. Total CPU:   0.91 sec, npass=  1  Memory used:   5.10 MW

 Reference energy:                   -129.84035974

 MP2 singlet pair energy:              -0.28652427
 MP2 triplet pair energy:              -0.16695689
 MP2 correlation energy:               -0.45348116
 MP2 total energy:                   -130.29384090

 SCS-MP2 correlation energy:           -0.44771341   (PS=  1.200000  PT=  0.333333)
 SCS-MP2 total energy:               -130.28807315

 ITER.      SQ.NORM     CORR.ENERGY   TOTAL ENERGY   ENERGY CHANGE        DEN1      VAR(S)    VAR(P)  DIIS     TIME  TIME/IT
   1      1.11841460    -0.45574390  -130.29610363    -0.00226274     0.01433331  0.31D-02  0.30D-02  1  1     1.73     0.87
   2      1.12883614    -0.45569372  -130.29605346     0.00005018    -0.01241309  0.12D-03  0.49D-03  2  2     2.54     0.89
   3      1.13531412    -0.45605981  -130.29641955    -0.00036609    -0.00334368  0.43D-04  0.56D-04  3  3     3.36     0.89
   4      1.13813113    -0.45609179  -130.29645153    -0.00003198    -0.00093177  0.42D-05  0.94D-05  4  4     4.20     0.90
   5      1.13917789    -0.45612317  -130.29648290    -0.00003137    -0.00021454  0.13D-05  0.17D-05  5  5     5.04     0.90
   6      1.13956366    -0.45610793  -130.29646767     0.00001524    -0.00006409  0.12D-06  0.42D-06  6  6     5.87     0.90
   7      1.13963529    -0.45610939  -130.29646913    -0.00000146     0.00000828  0.17D-07  0.90D-07  6  1     6.67     0.91
   8      1.13966935    -0.45610899  -130.29646873     0.00000040    -0.00000451  0.48D-08  0.14D-07  6  2     7.46     0.91
   9      1.13967454    -0.45610889  -130.29646862     0.00000011     0.00000090  0.20D-08  0.15D-08  6  3     8.30     0.91
  10      1.13967492    -0.45610920  -130.29646894    -0.00000032    -0.00000022  0.46D-09  0.24D-09  6  4     9.10     0.91
  11      1.13967345    -0.45610934  -130.29646907    -0.00000013     0.00000033  0.11D-09  0.24D-10  6  5     9.92     0.91
  12      1.13967234    -0.45610948  -130.29646921    -0.00000014     0.00000045  0.15D-10  0.70D-11  6  6    10.76     0.91
  13      1.13967171    -0.45610950  -130.29646923    -0.00000002     0.00000012  0.55D-11  0.13D-11  6  1    11.60     0.91
  14      1.13967122    -0.45610952  -130.29646926    -0.00000003     0.00000011  0.52D-12  0.41D-12  6  3    12.40     0.91
  15      1.13967108    -0.45610952  -130.29646926     0.00000000     0.00000001  0.13D-12  0.28D-13  6  2    13.23     0.91
  16      1.13967103    -0.45610952  -130.29646926    -0.00000000     0.00000001  0.31D-13  0.70D-14  6  4    14.06     0.91
  17      1.13967101    -0.45610952  -130.29646926    -0.00000000     0.00000001  0.38D-14  0.11D-14  6  5    14.84     0.91
  18      1.13967101    -0.45610952  -130.29646926     0.00000000     0.00000000  0.41D-15  0.30D-15  6  6    15.67     0.91
  19      1.13967101    -0.45610952  -130.29646926     0.00000000    -0.00000000  0.55D-16  0.37D-16  6  1    16.51     0.91
  20      1.13967101    -0.45610952  -130.29646926     0.00000000    -0.00000000  0.28D-17  0.85D-17  6  3    17.33     0.91
  21      1.13967101    -0.45610952  -130.29646926     0.00000000    -0.00000000  0.47D-18  0.18D-17  6  4    18.15     0.91
  22      1.13967101    -0.45610952  -130.29646926     0.00000000    -0.00000000  0.14D-19  0.63D-18  6  2    18.98     0.91
  23      1.13967101    -0.45610952  -130.29646926    -0.00000000     0.00000000  0.42D-19  0.13D-18  6  5    19.80     0.91
  24      1.13967101    -0.45610952  -130.29646926    -0.00000000     0.00000000  0.42D-20  0.12D-19  6  1    20.63     0.91
  25      1.13967101    -0.45610952  -130.29646926     0.00000000    -0.00000000  0.19D-20  0.81D-21  6  6    21.46     0.91

 Norm of t1 vector:      0.07647312      S-energy:     0.00000000      T1 diagnostic:  0.01561001
                                                                       D1 diagnostic:  0.04248542

 Doubles amplitudes (print threshold =  0.500E-01):

         I         J         SYM. A    SYM. B    A         B      T(IJ, AB)

         6         6         2         2         1         1     -0.13446856


 Total CPU time for triples:      9.28 sec


 RESULTS
 =======

  Reference energy                   -129.840359736556
  CCSD singlet pair energy             -0.313172118672
  CCSD triplet pair energy             -0.142937404884
  CCSD correlation energy              -0.456109523555

  Triples (T) contribution             -0.021086303321
  Total correlation energy             -0.477195826875

  CCSD total energy                  -130.296469260111
  CCSD[T] energy                     -130.318632574562
  CCSD-T energy                      -130.317146381831
 !CCSD(T) total energy               -130.317555563432

 Timing summary (sec):

 STEP                 CPU(USER)    SYS     CPU(TOT)    WALL
 Transformation          0.93      0.15      1.08      1.08
 CCSD iterations        20.54      2.23     22.77     22.76
 Triples                 9.28      0.27      9.55      9.56

 Program statistics:

 Available memory in ccsd:               994999756
 Min. memory needed in ccsd:                887758
 Max. memory used in ccsd:                 1088212
 Max. memory used in cckext:               1535578 (25 integral passes)



 **********************************************************************************************************************************
 DATASETS  * FILE   NREC   LENGTH (MB)   RECORD NAMES
              1      20      479.42       500      610      700      900      950      970     1000      129      960     1100   
                                          VAR    BASINP    GEOM    SYMINP    ZMAT    AOBASIS   BASIS     P2S    ABASIS      S 
                                         1400     1410     1200     1210     1080     1600     1650     1300     1700     1380   
                                           T        V       H0       H01     AOSYM     SMH    MOLCAS    ERIS     OPER     JKOP   

              2       4        3.13       700     1000      520     2100   
                                         GEOM     BASIS   MCVARS     RHF  

 PROGRAMS   *        TOTAL   CCSD(T)        HF       INT
 CPU TIMES  *        41.48     30.77      5.78      4.83
 REAL TIME  *        47.18 SEC
 DISK USED  *         1.33 GB      
 **********************************************************************************************************************************

 CCSD(T)/USERDEF energy=   -130.317555563432

        CCSD(T)         HF-SCF  
   -130.31755556   -129.84035974
 **********************************************************************************************************************************
 Molpro calculation terminated
 Variable memory released
