
 Primary working directories    : /tmp/r2666/235357.maple
 Secondary working directories  : /tmp/r2666/235357.maple
 Wavefunction directory         : /ddn/home4/r2666/wfu/
 Main file repository           : /tmp/r2666/235357.maple/

 SHA1      : d5ffa45e93fdbca01ffc919aa182cfdae0147319
 NAME      : 2015.1.35
 ARCHNAME  : linux/x86_64
 FC        : /opt/intel/composer_xe_2015.1.133/bin/intel64/ifort
 BLASLIB   : -Wl,-_start-group /opt/intel/mkl/lib/intel64/libmkl_intel_ilp64.a /opt/intel/mkl/lib/intel64/libmkl_intel_thread.a /opt/intel/mkl/lib/intel64/libmkl_core.a -Wl,-_end-group
 id        : olemiss

 Nodes     nprocs
 cn043        1

 Using customized tuning parameters: mindgm=1; mindgv=20; mindgc=4; mindgr=1; noblas=0; minvec=7
 default implementation of scratch files=df  

 ***,hno CCSD(T)/TZ-F12 QFF
 memory, 995, m;
 gthresh,energy=1.d-12,zero=1.d-22,oneint=1.d-22,twoint=1.d-22;
 gthresh,optgrad=1.d-8,optstep=1.d-8;
 nocompress;
 geomtyp=xyz
 bohr
 geometry={
 3
         83        83
 N        0.0000000000       -0.1575577763       -1.1549269869
 H        0.0000000000        1.6691664896       -1.9394309548
 O        0.0000000000        0.0301590766        1.1437683507
 }
 
 basis={
 default=aug-cc-pvtz
 s,C,8236.0,1235.0,280.8, 79.27,25.59, 8.997,3.319
 s,C,0.9059,0.3643,0.1285000
 p,C,56.0,18.71,4.133,0.2827,0.3827,0.1209
 d,C,30.0,10.0,3.3,1.097,0.318
 f,C,7.0,2.3,0.7610
 s,N,11420.0,1712.0,389.3,110.0,35.57,12.54,4.644
 s,N,1.293,0.5118,0.1787
 p,N,79.89,26.63,5.948,1.742,0.555,0.1725
 d,N,45.0,15.0,5.0,1.654,0.469
 f,N,9.9,3.3,1.093
 s,O,15330.0,2299.0,522.4,147.3,47.55,16.76,6.207
 s,O,1.752,0.6882,0.2384
 p,O,103.5,34.46,7.749,2.28,0.7156,0.214
 d,O,63.0,21.0,7.0,2.314,0.645
 f,O,12.9,4.3,1.428
 s,mg,164900.0,24710.0,5628.0,1596.0,521.0;
 s,mg,188.0,73.01,29.90,12.54,4.306,1.826;
 s,mg,0.7417,0.0761,0.145,0.033,0.0129;
 p,mg,950.70,316.90,74.86,23.72,8.669,3.363;
 p,mg,1.310,0.4911,0.2364,0.08733,0.03237,0.00745;
 d,mg,1.601,0.686,0.126,0.294,0.0468;
 f,mg,1.372,0.588,0.094,0.252;
 }
   {hf,maxit=500;accu,20;}
 {ccsd(t),nocheck,maxit=250;orbital,IGNORE_ERROR;}

 Variables initialized (889), CPU time= 0.00 sec
 Commands  initialized (702), CPU time= 0.01 sec, 572 directives.
 Default parameters read. Elapsed time= 0.05 sec

 Checking input...
 Passed
1


                                         ***  PROGRAM SYSTEM MOLPRO  ***
                                       Copyright, TTI GmbH Stuttgart, 2015
                                    Version 2015.1 linked Jul  9 2018 13:16:40


 **********************************************************************************************************************************
 LABEL *   hno CCSD(T)/TZ-F12 QFF                                                        
  64 bit serial version                                                                  DATE: 08-Feb-20          TIME: 17:58:17  
 **********************************************************************************************************************************

 SHA1:             d5ffa45e93fdbca01ffc919aa182cfdae0147319
 **********************************************************************************************************************************

 THRESHOLDS:

 ZERO    =  1.00D-22  ONEINT  =  1.00D-22  TWOINT  =  1.00D-22  PREFAC  =  1.00D-14  LOCALI  =  1.00D-09  EORDER  =  1.00D-04
 ENERGY  =  1.00D-12  ETEST   =  0.00D+00  EDENS   =  0.00D+00  THRDEDEF=  1.00D-06  GRADIENT=  1.00D-02  STEP    =  1.00D-03
 ORBITAL =  1.00D-05  CIVEC   =  1.00D-05  COEFF   =  1.00D-04  PRINTCI =  5.00D-02  PUNCHCI =  9.90D+01  OPTGRAD =  3.00D-04
 OPTENERG=  1.00D-06  OPTSTEP =  3.00D-04  THRGRAD =  1.00D-10  COMPRESS=  1.00D-11  VARMIN  =  1.00D-07  VARMAX  =  1.00D-03
 THRDOUB =  0.00D+00  THRDIV  =  1.00D-05  THRRED  =  1.00D-07  THRPSP  =  1.00D+00  THRDC   =  1.00D-10  THRCS   =  1.00D-10
 THRNRM  =  1.00D-08  THREQ   =  0.00D+00  THRDE   =  1.00D+00  THRREF  =  1.00D-05  SPARFAC =  1.00D+00  THRDLP  =  1.00D-07
 THRDIA  =  1.00D-10  THRDLS  =  1.00D-07  THRGPS  =  0.00D+00  THRKEX  =  0.00D+00  THRDIS  =  2.00D-01  THRVAR  =  1.00D-10
 THRLOC  =  1.00D-06  THRGAP  =  1.00D-06  THRLOCT = -1.00D+00  THRGAPT = -1.00D+00  THRORB  =  1.00D-06  THRMLTP =  0.00D+00
 THRCPQCI=  1.00D-10  KEXTA   =  0.00D+00  THRCOARS=  0.00D+00  SYMTOL  =  1.00D-06  GRADTOL =  1.00D-06  THROVL  =  1.00D-08
 THRORTH =  1.00D-08  GRID    =  1.00D-06  GRIDMAX =  1.00D-03  DTMAX   =  0.00D+00  THROCCDE=  1.00D-01  THROCCDE=  1.00D-01



 THRESHOLDS:

 ZERO    =  1.00D-22  ONEINT  =  1.00D-22  TWOINT  =  1.00D-22  PREFAC  =  1.00D-14  LOCALI  =  1.00D-09  EORDER  =  1.00D-04
 ENERGY  =  1.00D-12  ETEST   =  0.00D+00  EDENS   =  0.00D+00  THRDEDEF=  1.00D-06  GRADIENT=  1.00D-02  STEP    =  1.00D-03
 ORBITAL =  1.00D-05  CIVEC   =  1.00D-05  COEFF   =  1.00D-04  PRINTCI =  5.00D-02  PUNCHCI =  9.90D+01  OPTGRAD =  1.00D-08
 OPTENERG=  1.00D-06  OPTSTEP =  1.00D-08  THRGRAD =  1.00D-10  COMPRESS=  1.00D-11  VARMIN  =  1.00D-07  VARMAX  =  1.00D-03
 THRDOUB =  0.00D+00  THRDIV  =  1.00D-05  THRRED  =  1.00D-07  THRPSP  =  1.00D+00  THRDC   =  1.00D-10  THRCS   =  1.00D-10
 THRNRM  =  1.00D-08  THREQ   =  0.00D+00  THRDE   =  1.00D+00  THRREF  =  1.00D-05  SPARFAC =  1.00D+00  THRDLP  =  1.00D-07
 THRDIA  =  1.00D-10  THRDLS  =  1.00D-07  THRGPS  =  0.00D+00  THRKEX  =  0.00D+00  THRDIS  =  2.00D-01  THRVAR  =  1.00D-10
 THRLOC  =  1.00D-06  THRGAP  =  1.00D-06  THRLOCT = -1.00D+00  THRGAPT = -1.00D+00  THRORB  =  1.00D-06  THRMLTP =  0.00D+00
 THRCPQCI=  1.00D-10  KEXTA   =  0.00D+00  THRCOARS=  0.00D+00  SYMTOL  =  1.00D-06  GRADTOL =  1.00D-06  THROVL  =  1.00D-08
 THRORTH =  1.00D-08  GRID    =  1.00D-06  GRIDMAX =  1.00D-03  DTMAX   =  0.00D+00  THROCCDE=  1.00D-01  THROCCDE=  1.00D-01



 Input parameters for SORTINT:

 COMPRESS =    0.000000
 C_FINAL  =    1.000000
 DEBUG    =   -1.000000
 C_SORT1  =    0.000000
 C_SEWARD =    0.000000
 THRESH   =    0.000000
 IO       =  molpro                                                          
 SPRI     =    0.000000
 SETTING GEOMTYP        =    XYZ
 ZUNIT=BOHR
 

 Variable memory set to  995000000 words,  buffer space   230000 words

 SETTING BASIS          =    USERDEF


 Recomputing integrals since basis changed


 Using spherical harmonics

 Library entry H      S aug-cc-pVTZ          selected for orbital group  2
 Library entry H      P aug-cc-pVTZ          selected for orbital group  2
 Library entry H      D aug-cc-pVTZ          selected for orbital group  2


 PROGRAM * SEWARD (Integral evaluation for generally contracted gaussian basis sets)     Author: Roland Lindh, 1990

 Geometry written to block  1 of record 700


 Point group  Cs  



 ATOMIC COORDINATES

 NR  ATOM    CHARGE       X              Y              Z

   1  N       7.00    0.000000000   -0.157557776   -1.154926987
   2  H       1.00    0.000000000    1.669166490   -1.939430955
   3  O       8.00    0.000000000    0.030159077    1.143768351

 Bond lengths in Bohr (Angstrom)

 1-2  1.988056342  1-3  2.306347301
     ( 1.052034110)     ( 1.220466432)

 Bond angles

  2-1-3  108.57301225

 NUCLEAR CHARGE:                   16
 NUMBER OF PRIMITIVE AOS:         203
 NUMBER OF SYMMETRY AOS:          173
 NUMBER OF CONTRACTIONS:          171   ( 114A'  +  57A"  )
 NUMBER OF CORE ORBITALS:           2   (   2A'  +   0A"  )
 NUMBER OF VALENCE ORBITALS:        9   (   7A'  +   2A"  )


 NUCLEAR REPULSION ENERGY   30.09294651


 Eigenvalues of metric

         1 0.106E-02 0.260E-02 0.339E-02 0.643E-02 0.985E-02 0.137E-01 0.146E-01 0.233E-01
         2 0.364E-01 0.549E-01 0.705E-01 0.943E-01 0.132E+00 0.134E+00 0.140E+00 0.142E+00


 Contracted 2-electron integrals neglected if value below      1.0D-22

       46077864. INTEGRALS WRITTEN OUT IN   11253 BLOCKS ON RECORD 1290 OF FILE 1


 NUMBER OF SORTED TWO-ELECTRON INTEGRALS:   55360566.     BUFFER LENGTH:  32768
 NUMBER OF SEGMENTS:   4  SEGMENT LENGTH:   15997996      RECORD LENGTH: 524288

 Memory used in sort:      16.56 MW

 SORT1 READ    46077864. AND WROTE    46514580. INTEGRALS IN    135 RECORDS. CPU TIME:     1.31 SEC, REAL TIME:     1.63 SEC
 SORT2 READ    46514580. AND WROTE    55360566. INTEGRALS IN      4 RECORDS. CPU TIME:     0.72 SEC, REAL TIME:     1.04 SEC

 FILE SIZES:   FILE 1:   758.2 MBYTE,  FILE 4:   566.3 MBYTE,   TOTAL:   1324.5 MBYTE

 OPERATOR DM      FOR CENTER  0  COORDINATES:    0.000000    0.000000    0.000000


 **********************************************************************************************************************************
 DATASETS  * FILE   NREC   LENGTH (MB)   RECORD NAMES
              1      19      420.79       500      610      700      900      950      970     1000      129      960     1100   
                                          VAR    BASINP    GEOM    SYMINP    ZMAT    AOBASIS   BASIS     P2S    ABASIS      S 
                                         1400     1410     1200     1210     1080     1600     1650     1300     1700   
                                           T        V       H0       H01     AOSYM     SMH    MOLCAS    ERIS     OPER   

 PROGRAMS   *        TOTAL       INT
 CPU TIMES  *         5.68      5.57
 REAL TIME  *         7.35 SEC
 DISK USED  *         1.32 GB      
 **********************************************************************************************************************************


 PROGRAM * RHF-SCF (CLOSED SHELL)       Authors: W. Meyer, H.-J. Werner


 NUMBER OF ELECTRONS:       8+    8-
 CONVERGENCE THRESHOLDS:    1.00E-10 (Density)    1.00E-13 (Energy)
 MAX. NUMBER OF ITERATIONS:      500
 INTERPOLATION TYPE:            DIIS
 INTERPOLATION STEPS:              2 (START)      1 (STEP)
 LEVEL SHIFTS:                  0.00 (CLOSED)  0.00 (OPEN) 



 Orbital guess generated from atomic densities. Full valence occupancy:    9   2

 Molecular orbital dump at record        2100.2

 Initial occupancy:   7   1

 ITERATION    DDIFF          GRAD             ENERGY        2-EL.EN.            DIPOLE MOMENTS         DIIS   ORB.
    1      0.000D+00      0.000D+00      -129.78546152    153.566762    0.00000    0.57866   -1.05502    0    start
    2      0.000D+00      0.891D-02      -129.81189654    154.716262    0.00000    0.60522   -0.19015    1    diag
    3      0.371D-02      0.696D-02      -129.83683068    154.864574    0.00000    0.55399   -0.60318    2    diag
    4      0.147D-02      0.105D-02      -129.83764073    154.580856    0.00000    0.56160   -0.53853    3    diag
    5      0.336D-03      0.343D-03      -129.83776554    154.670127    0.00000    0.56766   -0.54076    4    diag
    6      0.155D-03      0.101D-03      -129.83778596    154.653876    0.00000    0.56817   -0.53641    5    diag
    7      0.612D-04      0.511D-04      -129.83779218    154.656285    0.00000    0.56947   -0.53373    6    diag
    8      0.420D-04      0.182D-04      -129.83779293    154.655401    0.00000    0.56952   -0.53272    7    diag
    9      0.155D-04      0.345D-05      -129.83779296    154.655276    0.00000    0.56947   -0.53252    8    diag
   10      0.324D-05      0.766D-06      -129.83779297    154.655261    0.00000    0.56943   -0.53249    9    orth
   11      0.909D-06      0.151D-06      -129.83779297    154.655257    0.00000    0.56942   -0.53249    9    diag
   12      0.211D-06      0.322D-07      -129.83779297    154.655256    0.00000    0.56942   -0.53249    9    diag
   13      0.519D-07      0.879D-08      -129.83779297    154.655256    0.00000    0.56942   -0.53249    9    diag
   14      0.122D-07      0.154D-08      -129.83779297    154.655256    0.00000    0.56942   -0.53249    9    diag
   15      0.142D-08      0.407D-09      -129.83779297    154.655256    0.00000    0.56942   -0.53249    9    diag
   16      0.345D-09      0.117D-09      -129.83779297    154.655256    0.00000    0.56942   -0.53249    9    diag
   17      0.642D-10      0.306D-10      -129.83779297    154.655256    0.00000    0.56942   -0.53249    9    diag
   18      0.180D-10      0.985D-11      -129.83779297    154.655256    0.00000    0.56942   -0.53249    9    diag
   19      0.636D-11      0.219D-11      -129.83779297    154.655256    0.00000    0.56942   -0.53249    9    fixocc
   20      0.153D-11      0.615D-12      -129.83779297    154.655256    0.00000    0.56942   -0.53249    9    orth
   21      0.183D-12      0.578D-12      -129.83779297    154.655256    0.00000    0.56942   -0.53249    9    diag
   22      0.709D-13      0.381D-12      -129.83779297    154.655256    0.00000    0.56942   -0.53249    0    orth

 Final occupancy:   7   1

 !RHF STATE 1.1 Energy               -129.837792966196
 Nuclear energy                        30.09294651
 One-electron energy                 -237.25836730
 Two-electron energy                   77.32762782
 Virial quotient                       -1.00200654
 !RHF STATE 1.1 Dipole moment           0.00000000     0.56941734    -0.53248912
 Dipole moment /Debye                   0.00000000     1.44721971    -1.35336369

 Orbital energies:

         1.1          2.1          3.1          4.1          5.1          6.1          7.1          8.1          9.1
    -20.652525   -15.712638    -1.517719    -0.996042    -0.741394    -0.660701    -0.432241     0.039471     0.192129

         1.2          2.2          3.2
     -0.588295     0.074650     0.239166

 HOMO      7.1    -0.432241 =     -11.7619eV
 LUMO      8.1     0.039471 =       1.0741eV
 LUMO-HOMO         0.471712 =      12.8359eV


 **********************************************************************************************************************************
 DATASETS  * FILE   NREC   LENGTH (MB)   RECORD NAMES
              1      19      420.79       500      610      700      900      950      970     1000      129      960     1100   
                                          VAR    BASINP    GEOM    SYMINP    ZMAT    AOBASIS   BASIS     P2S    ABASIS      S 
                                         1400     1410     1200     1210     1080     1600     1650     1300     1700   
                                           T        V       H0       H01     AOSYM     SMH    MOLCAS    ERIS     OPER   

              2       4        3.13       700     1000      520     2100   
                                         GEOM     BASIS   MCVARS     RHF  

 PROGRAMS   *        TOTAL        HF       INT
 CPU TIMES  *        11.96      6.28      5.57
 REAL TIME  *        15.40 SEC
 DISK USED  *         1.32 GB      
 **********************************************************************************************************************************


 PROGRAM * CCSD (Closed-shell coupled cluster)     Authors: C. Hampel, H.-J. Werner, 1991, M. Deegan, P.J. Knowles, 1992


 Convergence thresholds:  THRVAR = 1.00D-08  THRDEN = 1.00D-12

 CCSD(T)     terms to be evaluated (factor= 1.000)


 Number of core orbitals:           2 (   2   0 )
 Number of closed-shell orbitals:   6 (   5   1 )
 Number of external orbitals:     163 ( 107  56 )

 Molecular orbitals read from record     2100.2  Type=RHF/CANONICAL (state 1.1)

 Number of N-1 electron functions:               6
 Number of N-2 electron functions:              21
 Number of singly external CSFs:               591
 Number of doubly external CSFs:            250014
 Total number of CSFs:                      250606

 Length of J-op  integral file:               0.00 MB
 Length of K-op  integral file:               1.15 MB
 Length of 3-ext integral record:             0.00 MB

 Memory could be reduced to 19.93 Mwords without degradation in triples

 Integral transformation finished. Total CPU:   0.92 sec, npass=  1  Memory used:   5.10 MW

 Reference energy:                   -129.83779297

 MP2 singlet pair energy:              -0.28814805
 MP2 triplet pair energy:              -0.16803925
 MP2 correlation energy:               -0.45618729
 MP2 total energy:                   -130.29398026

 SCS-MP2 correlation energy:           -0.45033541   (PS=  1.200000  PT=  0.333333)
 SCS-MP2 total energy:               -130.28812838

 ITER.      SQ.NORM     CORR.ENERGY   TOTAL ENERGY   ENERGY CHANGE        DEN1      VAR(S)    VAR(P)  DIIS     TIME  TIME/IT
   1      1.12016181    -0.45784471  -130.29563768    -0.00165742     0.01566445  0.34D-02  0.32D-02  1  1     1.73     0.87
   2      1.13100695    -0.45765293  -130.29544589     0.00019179    -0.01283715  0.13D-03  0.52D-03  2  2     2.55     0.90
   3      1.13782888    -0.45804382  -130.29583679    -0.00039090    -0.00344852  0.48D-04  0.61D-04  3  3     3.38     0.90
   4      1.14085385    -0.45807708  -130.29587005    -0.00003326    -0.00098617  0.49D-05  0.10D-04  4  4     4.20     0.91
   5      1.14202250    -0.45811222  -130.29590519    -0.00003514    -0.00023809  0.14D-05  0.18D-05  5  5     5.06     0.91
   6      1.14244518    -0.45809505  -130.29588801     0.00001717    -0.00007017  0.13D-06  0.44D-06  6  6     5.91     0.91
   7      1.14251893    -0.45809669  -130.29588965    -0.00000164     0.00000933  0.17D-07  0.98D-07  6  1     6.75     0.92
   8      1.14255482    -0.45809611  -130.29588908     0.00000057    -0.00000503  0.49D-08  0.16D-07  6  2     7.56     0.92
   9      1.14256034    -0.45809597  -130.29588893     0.00000015     0.00000117  0.23D-08  0.19D-08  6  3     8.38     0.92
  10      1.14256089    -0.45809631  -130.29588927    -0.00000034    -0.00000032  0.54D-09  0.30D-09  6  4     9.22     0.92
  11      1.14255932    -0.45809645  -130.29588942    -0.00000015     0.00000036  0.13D-09  0.30D-10  6  5    10.06     0.92
  12      1.14255810    -0.45809662  -130.29588958    -0.00000016     0.00000050  0.17D-10  0.84D-11  6  6    10.92     0.92
  13      1.14255740    -0.45809664  -130.29588960    -0.00000002     0.00000013  0.63D-11  0.15D-11  6  1    11.73     0.92
  14      1.14255685    -0.45809667  -130.29588963    -0.00000003     0.00000013  0.56D-12  0.49D-12  6  3    12.56     0.92
  15      1.14255668    -0.45809667  -130.29588963     0.00000000     0.00000001  0.15D-12  0.35D-13  6  2    13.39     0.92
  16      1.14255662    -0.45809667  -130.29588964    -0.00000000     0.00000001  0.34D-13  0.83D-14  6  4    14.21     0.92
  17      1.14255659    -0.45809667  -130.29588964    -0.00000000     0.00000001  0.47D-14  0.13D-14  6  5    15.02     0.92
  18      1.14255659    -0.45809667  -130.29588964     0.00000000     0.00000000  0.55D-15  0.36D-15  6  6    15.84     0.92
  19      1.14255660    -0.45809667  -130.29588964     0.00000000    -0.00000000  0.76D-16  0.51D-16  6  1    16.65     0.92
  20      1.14255660    -0.45809667  -130.29588964     0.00000000    -0.00000000  0.39D-17  0.13D-16  6  3    17.47     0.92
  21      1.14255660    -0.45809667  -130.29588964     0.00000000    -0.00000000  0.61D-18  0.27D-17  6  4    18.26     0.92
  22      1.14255660    -0.45809667  -130.29588964     0.00000000    -0.00000000  0.39D-19  0.97D-18  6  2    19.12     0.92
  23      1.14255660    -0.45809667  -130.29588964    -0.00000000     0.00000000  0.85D-19  0.19D-18  6  5    19.93     0.92
  24      1.14255660    -0.45809667  -130.29588964    -0.00000000     0.00000000  0.52D-20  0.18D-19  6  1    20.76     0.92
  25      1.14255660    -0.45809667  -130.29588964     0.00000000    -0.00000000  0.26D-20  0.13D-20  6  6    21.59     0.92

 Norm of t1 vector:      0.07933864      S-energy:     0.00000000      T1 diagnostic:  0.01619493
                                                                       D1 diagnostic:  0.04467046

 Doubles amplitudes (print threshold =  0.500E-01):

         I         J         SYM. A    SYM. B    A         B      T(IJ, AB)

         6         6         2         2         1         1     -0.13915034


 Total CPU time for triples:      9.22 sec


 RESULTS
 =======

  Reference energy                   -129.837792966197
  CCSD singlet pair energy             -0.314917086920
  CCSD triplet pair energy             -0.143179583297
  CCSD correlation energy              -0.458096670217

  Triples (T) contribution             -0.021590903828
  Total correlation energy             -0.479687574045

  CCSD total energy                  -130.295889636414
  CCSD[T] energy                     -130.318634873136
  CCSD-T energy                      -130.317051917012
 !CCSD(T) total energy               -130.317480540242

 Timing summary (sec):

 STEP                 CPU(USER)    SYS     CPU(TOT)    WALL
 Transformation          0.93      0.14      1.07      1.06
 CCSD iterations        20.67      2.46     23.13     23.14
 Triples                 9.22      0.29      9.51      9.52

 Program statistics:

 Available memory in ccsd:               994999756
 Min. memory needed in ccsd:                887758
 Max. memory used in ccsd:                 1088212
 Max. memory used in cckext:               1535578 (25 integral passes)



 **********************************************************************************************************************************
 DATASETS  * FILE   NREC   LENGTH (MB)   RECORD NAMES
              1      20      478.74       500      610      700      900      950      970     1000      129      960     1100   
                                          VAR    BASINP    GEOM    SYMINP    ZMAT    AOBASIS   BASIS     P2S    ABASIS      S 
                                         1400     1410     1200     1210     1080     1600     1650     1300     1700     1380   
                                           T        V       H0       H01     AOSYM     SMH    MOLCAS    ERIS     OPER     JKOP   

              2       4        3.13       700     1000      520     2100   
                                         GEOM     BASIS   MCVARS     RHF  

 PROGRAMS   *        TOTAL   CCSD(T)        HF       INT
 CPU TIMES  *        42.81     30.84      6.28      5.57
 REAL TIME  *        49.15 SEC
 DISK USED  *         1.32 GB      
 **********************************************************************************************************************************

 CCSD(T)/USERDEF energy=   -130.317480540242

        CCSD(T)         HF-SCF  
   -130.31748054   -129.83779297
 **********************************************************************************************************************************
 Molpro calculation terminated
 Variable memory released
