
 Primary working directories    : /tmp/r2666/235353.maple
 Secondary working directories  : /tmp/r2666/235353.maple
 Wavefunction directory         : /ddn/home4/r2666/wfu/
 Main file repository           : /tmp/r2666/235353.maple/

 SHA1      : d5ffa45e93fdbca01ffc919aa182cfdae0147319
 NAME      : 2015.1.35
 ARCHNAME  : linux/x86_64
 FC        : /opt/intel/composer_xe_2015.1.133/bin/intel64/ifort
 BLASLIB   : -Wl,-_start-group /opt/intel/mkl/lib/intel64/libmkl_intel_ilp64.a /opt/intel/mkl/lib/intel64/libmkl_intel_thread.a /opt/intel/mkl/lib/intel64/libmkl_core.a -Wl,-_end-group
 id        : olemiss

 Nodes     nprocs
 cn035        1

 Using customized tuning parameters: mindgm=1; mindgv=20; mindgc=4; mindgr=1; noblas=0; minvec=7
 default implementation of scratch files=df  

 ***,hno CCSD(T)/TZ-F12 QFF
 memory, 995, m;
 gthresh,energy=1.d-12,zero=1.d-22,oneint=1.d-22,twoint=1.d-22;
 gthresh,optgrad=1.d-8,optstep=1.d-8;
 nocompress;
 geomtyp=xyz
 bohr
 geometry={
 3
         79        79
 N        0.0000000000       -0.1587603528       -1.1525155113
 H        0.0000000000        1.6683945186       -1.9360160507
 O        0.0000000000        0.0321336241        1.1379419710
 }
 
 basis={
 default=aug-cc-pvtz
 s,C,8236.0,1235.0,280.8, 79.27,25.59, 8.997,3.319
 s,C,0.9059,0.3643,0.1285000
 p,C,56.0,18.71,4.133,0.2827,0.3827,0.1209
 d,C,30.0,10.0,3.3,1.097,0.318
 f,C,7.0,2.3,0.7610
 s,N,11420.0,1712.0,389.3,110.0,35.57,12.54,4.644
 s,N,1.293,0.5118,0.1787
 p,N,79.89,26.63,5.948,1.742,0.555,0.1725
 d,N,45.0,15.0,5.0,1.654,0.469
 f,N,9.9,3.3,1.093
 s,O,15330.0,2299.0,522.4,147.3,47.55,16.76,6.207
 s,O,1.752,0.6882,0.2384
 p,O,103.5,34.46,7.749,2.28,0.7156,0.214
 d,O,63.0,21.0,7.0,2.314,0.645
 f,O,12.9,4.3,1.428
 s,mg,164900.0,24710.0,5628.0,1596.0,521.0;
 s,mg,188.0,73.01,29.90,12.54,4.306,1.826;
 s,mg,0.7417,0.0761,0.145,0.033,0.0129;
 p,mg,950.70,316.90,74.86,23.72,8.669,3.363;
 p,mg,1.310,0.4911,0.2364,0.08733,0.03237,0.00745;
 d,mg,1.601,0.686,0.126,0.294,0.0468;
 f,mg,1.372,0.588,0.094,0.252;
 }
   {hf,maxit=500;accu,20;}
 {ccsd(t),nocheck,maxit=250;orbital,IGNORE_ERROR;}

 Variables initialized (889), CPU time= 0.00 sec
 Commands  initialized (702), CPU time= 0.01 sec, 572 directives.
 Default parameters read. Elapsed time= 0.05 sec

 Checking input...
 Passed
1


                                         ***  PROGRAM SYSTEM MOLPRO  ***
                                       Copyright, TTI GmbH Stuttgart, 2015
                                    Version 2015.1 linked Jul  9 2018 13:16:40


 **********************************************************************************************************************************
 LABEL *   hno CCSD(T)/TZ-F12 QFF                                                        
  64 bit serial version                                                                  DATE: 08-Feb-20          TIME: 17:58:16  
 **********************************************************************************************************************************

 SHA1:             d5ffa45e93fdbca01ffc919aa182cfdae0147319
 **********************************************************************************************************************************

 THRESHOLDS:

 ZERO    =  1.00D-22  ONEINT  =  1.00D-22  TWOINT  =  1.00D-22  PREFAC  =  1.00D-14  LOCALI  =  1.00D-09  EORDER  =  1.00D-04
 ENERGY  =  1.00D-12  ETEST   =  0.00D+00  EDENS   =  0.00D+00  THRDEDEF=  1.00D-06  GRADIENT=  1.00D-02  STEP    =  1.00D-03
 ORBITAL =  1.00D-05  CIVEC   =  1.00D-05  COEFF   =  1.00D-04  PRINTCI =  5.00D-02  PUNCHCI =  9.90D+01  OPTGRAD =  3.00D-04
 OPTENERG=  1.00D-06  OPTSTEP =  3.00D-04  THRGRAD =  1.00D-10  COMPRESS=  1.00D-11  VARMIN  =  1.00D-07  VARMAX  =  1.00D-03
 THRDOUB =  0.00D+00  THRDIV  =  1.00D-05  THRRED  =  1.00D-07  THRPSP  =  1.00D+00  THRDC   =  1.00D-10  THRCS   =  1.00D-10
 THRNRM  =  1.00D-08  THREQ   =  0.00D+00  THRDE   =  1.00D+00  THRREF  =  1.00D-05  SPARFAC =  1.00D+00  THRDLP  =  1.00D-07
 THRDIA  =  1.00D-10  THRDLS  =  1.00D-07  THRGPS  =  0.00D+00  THRKEX  =  0.00D+00  THRDIS  =  2.00D-01  THRVAR  =  1.00D-10
 THRLOC  =  1.00D-06  THRGAP  =  1.00D-06  THRLOCT = -1.00D+00  THRGAPT = -1.00D+00  THRORB  =  1.00D-06  THRMLTP =  0.00D+00
 THRCPQCI=  1.00D-10  KEXTA   =  0.00D+00  THRCOARS=  0.00D+00  SYMTOL  =  1.00D-06  GRADTOL =  1.00D-06  THROVL  =  1.00D-08
 THRORTH =  1.00D-08  GRID    =  1.00D-06  GRIDMAX =  1.00D-03  DTMAX   =  0.00D+00  THROCCDE=  1.00D-01  THROCCDE=  1.00D-01



 THRESHOLDS:

 ZERO    =  1.00D-22  ONEINT  =  1.00D-22  TWOINT  =  1.00D-22  PREFAC  =  1.00D-14  LOCALI  =  1.00D-09  EORDER  =  1.00D-04
 ENERGY  =  1.00D-12  ETEST   =  0.00D+00  EDENS   =  0.00D+00  THRDEDEF=  1.00D-06  GRADIENT=  1.00D-02  STEP    =  1.00D-03
 ORBITAL =  1.00D-05  CIVEC   =  1.00D-05  COEFF   =  1.00D-04  PRINTCI =  5.00D-02  PUNCHCI =  9.90D+01  OPTGRAD =  1.00D-08
 OPTENERG=  1.00D-06  OPTSTEP =  1.00D-08  THRGRAD =  1.00D-10  COMPRESS=  1.00D-11  VARMIN  =  1.00D-07  VARMAX  =  1.00D-03
 THRDOUB =  0.00D+00  THRDIV  =  1.00D-05  THRRED  =  1.00D-07  THRPSP  =  1.00D+00  THRDC   =  1.00D-10  THRCS   =  1.00D-10
 THRNRM  =  1.00D-08  THREQ   =  0.00D+00  THRDE   =  1.00D+00  THRREF  =  1.00D-05  SPARFAC =  1.00D+00  THRDLP  =  1.00D-07
 THRDIA  =  1.00D-10  THRDLS  =  1.00D-07  THRGPS  =  0.00D+00  THRKEX  =  0.00D+00  THRDIS  =  2.00D-01  THRVAR  =  1.00D-10
 THRLOC  =  1.00D-06  THRGAP  =  1.00D-06  THRLOCT = -1.00D+00  THRGAPT = -1.00D+00  THRORB  =  1.00D-06  THRMLTP =  0.00D+00
 THRCPQCI=  1.00D-10  KEXTA   =  0.00D+00  THRCOARS=  0.00D+00  SYMTOL  =  1.00D-06  GRADTOL =  1.00D-06  THROVL  =  1.00D-08
 THRORTH =  1.00D-08  GRID    =  1.00D-06  GRIDMAX =  1.00D-03  DTMAX   =  0.00D+00  THROCCDE=  1.00D-01  THROCCDE=  1.00D-01



 Input parameters for SORTINT:

 COMPRESS =    0.000000
 C_FINAL  =    1.000000
 DEBUG    =   -1.000000
 C_SORT1  =    0.000000
 C_SEWARD =    0.000000
 THRESH   =    0.000000
 IO       =  molpro                                                          
 SPRI     =    0.000000
 SETTING GEOMTYP        =    XYZ
 ZUNIT=BOHR
 

 Variable memory set to  995000000 words,  buffer space   230000 words

 SETTING BASIS          =    USERDEF


 Recomputing integrals since basis changed


 Using spherical harmonics

 Library entry H      S aug-cc-pVTZ          selected for orbital group  2
 Library entry H      P aug-cc-pVTZ          selected for orbital group  2
 Library entry H      D aug-cc-pVTZ          selected for orbital group  2


 PROGRAM * SEWARD (Integral evaluation for generally contracted gaussian basis sets)     Author: Roland Lindh, 1990

 Geometry written to block  1 of record 700


 Point group  Cs  



 ATOMIC COORDINATES

 NR  ATOM    CHARGE       X              Y              Z

   1  N       7.00    0.000000000   -0.158760353   -1.152515511
   2  H       1.00    0.000000000    1.668394519   -1.936016051
   3  O       8.00    0.000000000    0.032133624    1.137941971

 Bond lengths in Bohr (Angstrom)

 1-2  1.988056342  1-3  2.298398570
     ( 1.052034110)     ( 1.216260145)

 Bond angles

  2-1-3  108.44589032

 NUCLEAR CHARGE:                   16
 NUMBER OF PRIMITIVE AOS:         203
 NUMBER OF SYMMETRY AOS:          173
 NUMBER OF CONTRACTIONS:          171   ( 114A'  +  57A"  )
 NUMBER OF CORE ORBITALS:           2   (   2A'  +   0A"  )
 NUMBER OF VALENCE ORBITALS:        9   (   7A'  +   2A"  )


 NUCLEAR REPULSION ENERGY   30.18313522


 Eigenvalues of metric

         1 0.105E-02 0.256E-02 0.337E-02 0.640E-02 0.985E-02 0.137E-01 0.145E-01 0.232E-01
         2 0.364E-01 0.543E-01 0.703E-01 0.943E-01 0.131E+00 0.134E+00 0.140E+00 0.142E+00


 Contracted 2-electron integrals neglected if value below      1.0D-22

       46104554. INTEGRALS WRITTEN OUT IN   11259 BLOCKS ON RECORD 1290 OF FILE 1


 NUMBER OF SORTED TWO-ELECTRON INTEGRALS:   55360566.     BUFFER LENGTH:  32768
 NUMBER OF SEGMENTS:   4  SEGMENT LENGTH:   15997996      RECORD LENGTH: 524288

 Memory used in sort:      16.56 MW

 SORT1 READ    46104554. AND WROTE    46541540. INTEGRALS IN    135 RECORDS. CPU TIME:     1.28 SEC, REAL TIME:     1.62 SEC
 SORT2 READ    46541540. AND WROTE    55360566. INTEGRALS IN      4 RECORDS. CPU TIME:     0.76 SEC, REAL TIME:     1.00 SEC

 FILE SIZES:   FILE 1:   758.6 MBYTE,  FILE 4:   566.3 MBYTE,   TOTAL:   1324.9 MBYTE

 OPERATOR DM      FOR CENTER  0  COORDINATES:    0.000000    0.000000    0.000000


 **********************************************************************************************************************************
 DATASETS  * FILE   NREC   LENGTH (MB)   RECORD NAMES
              1      19      420.97       500      610      700      900      950      970     1000      129      960     1100   
                                          VAR    BASINP    GEOM    SYMINP    ZMAT    AOBASIS   BASIS     P2S    ABASIS      S 
                                         1400     1410     1200     1210     1080     1600     1650     1300     1700   
                                           T        V       H0       H01     AOSYM     SMH    MOLCAS    ERIS     OPER   

 PROGRAMS   *        TOTAL       INT
 CPU TIMES  *         5.65      5.56
 REAL TIME  *         7.32 SEC
 DISK USED  *         1.33 GB      
 **********************************************************************************************************************************


 PROGRAM * RHF-SCF (CLOSED SHELL)       Authors: W. Meyer, H.-J. Werner


 NUMBER OF ELECTRONS:       8+    8-
 CONVERGENCE THRESHOLDS:    1.00E-10 (Density)    1.00E-13 (Energy)
 MAX. NUMBER OF ITERATIONS:      500
 INTERPOLATION TYPE:            DIIS
 INTERPOLATION STEPS:              2 (START)      1 (STEP)
 LEVEL SHIFTS:                  0.00 (CLOSED)  0.00 (OPEN) 



 Orbital guess generated from atomic densities. Full valence occupancy:    9   2

 Molecular orbital dump at record        2100.2

 Initial occupancy:   7   1

 ITERATION    DDIFF          GRAD             ENERGY        2-EL.EN.            DIPOLE MOMENTS         DIIS   ORB.
    1      0.000D+00      0.000D+00      -129.78680252    153.728263    0.00000    0.57564   -1.04108    0    start
    2      0.000D+00      0.886D-02      -129.81341422    154.886525    0.00000    0.60270   -0.19245    1    diag
    3      0.369D-02      0.686D-02      -129.83759865    155.025468    0.00000    0.55150   -0.59668    2    diag
    4      0.145D-02      0.105D-02      -129.83839990    154.744793    0.00000    0.55928   -0.53279    3    diag
    5      0.335D-03      0.341D-03      -129.83852325    154.833652    0.00000    0.56533   -0.53507    4    diag
    6      0.154D-03      0.100D-03      -129.83854342    154.817453    0.00000    0.56586   -0.53080    5    diag
    7      0.611D-04      0.506D-04      -129.83854950    154.819906    0.00000    0.56717   -0.52817    6    diag
    8      0.417D-04      0.178D-04      -129.83855020    154.819042    0.00000    0.56722   -0.52720    7    diag
    9      0.151D-04      0.335D-05      -129.83855023    154.818921    0.00000    0.56717   -0.52700    8    diag
   10      0.312D-05      0.751D-06      -129.83855024    154.818906    0.00000    0.56713   -0.52698    9    orth
   11      0.894D-06      0.148D-06      -129.83855024    154.818902    0.00000    0.56712   -0.52697    9    diag
   12      0.209D-06      0.313D-07      -129.83855024    154.818901    0.00000    0.56712   -0.52697    9    diag
   13      0.512D-07      0.844D-08      -129.83855024    154.818901    0.00000    0.56712   -0.52697    9    diag
   14      0.120D-07      0.148D-08      -129.83855024    154.818901    0.00000    0.56712   -0.52697    9    diag
   15      0.143D-08      0.389D-09      -129.83855024    154.818901    0.00000    0.56712   -0.52697    9    diag
   16      0.333D-09      0.111D-09      -129.83855024    154.818901    0.00000    0.56712   -0.52697    9    diag
   17      0.656D-10      0.288D-10      -129.83855024    154.818901    0.00000    0.56712   -0.52697    9    diag
   18      0.187D-10      0.920D-11      -129.83855024    154.818901    0.00000    0.56712   -0.52697    9    diag
   19      0.687D-11      0.198D-11      -129.83855024    154.818901    0.00000    0.56712   -0.52697    0    orth

 Final occupancy:   7   1

 !RHF STATE 1.1 Energy               -129.838550235814
 Nuclear energy                        30.18313522
 One-electron energy                 -237.43113597
 Two-electron energy                   77.40945051
 Virial quotient                       -1.00188374
 !RHF STATE 1.1 Dipole moment           0.00000000     0.56712042    -0.52697069
 Dipole moment /Debye                   0.00000000     1.44138192    -1.33933817

 Orbital energies:

         1.1          2.1          3.1          4.1          5.1          6.1          7.1          8.1          9.1
    -20.652110   -15.711956    -1.521163    -0.994992    -0.742662    -0.661888    -0.431080     0.039550     0.192359

         1.2          2.2          3.2
     -0.590267     0.076136     0.239289

 HOMO      7.1    -0.431080 =     -11.7303eV
 LUMO      8.1     0.039550 =       1.0762eV
 LUMO-HOMO         0.470629 =      12.8065eV


 **********************************************************************************************************************************
 DATASETS  * FILE   NREC   LENGTH (MB)   RECORD NAMES
              1      19      420.97       500      610      700      900      950      970     1000      129      960     1100   
                                          VAR    BASINP    GEOM    SYMINP    ZMAT    AOBASIS   BASIS     P2S    ABASIS      S 
                                         1400     1410     1200     1210     1080     1600     1650     1300     1700   
                                           T        V       H0       H01     AOSYM     SMH    MOLCAS    ERIS     OPER   

              2       4        3.13       700     1000      520     2100   
                                         GEOM     BASIS   MCVARS     RHF  

 PROGRAMS   *        TOTAL        HF       INT
 CPU TIMES  *        11.23      5.58      5.56
 REAL TIME  *        14.33 SEC
 DISK USED  *         1.33 GB      
 **********************************************************************************************************************************


 PROGRAM * CCSD (Closed-shell coupled cluster)     Authors: C. Hampel, H.-J. Werner, 1991, M. Deegan, P.J. Knowles, 1992


 Convergence thresholds:  THRVAR = 1.00D-08  THRDEN = 1.00D-12

 CCSD(T)     terms to be evaluated (factor= 1.000)


 Number of core orbitals:           2 (   2   0 )
 Number of closed-shell orbitals:   6 (   5   1 )
 Number of external orbitals:     163 ( 107  56 )

 Molecular orbitals read from record     2100.2  Type=RHF/CANONICAL (state 1.1)

 Number of N-1 electron functions:               6
 Number of N-2 electron functions:              21
 Number of singly external CSFs:               591
 Number of doubly external CSFs:            250014
 Total number of CSFs:                      250606

 Length of J-op  integral file:               0.00 MB
 Length of K-op  integral file:               1.15 MB
 Length of 3-ext integral record:             0.00 MB

 Memory could be reduced to 19.93 Mwords without degradation in triples

 Integral transformation finished. Total CPU:   0.87 sec, npass=  1  Memory used:   5.10 MW

 Reference energy:                   -129.83855024

 MP2 singlet pair energy:              -0.28771543
 MP2 triplet pair energy:              -0.16775017
 MP2 correlation energy:               -0.45546560
 MP2 total energy:                   -130.29401584

 SCS-MP2 correlation energy:           -0.44963640   (PS=  1.200000  PT=  0.333333)
 SCS-MP2 total energy:               -130.28818664

 ITER.      SQ.NORM     CORR.ENERGY   TOTAL ENERGY   ENERGY CHANGE        DEN1      VAR(S)    VAR(P)  DIIS     TIME  TIME/IT
   1      1.11970084    -0.45728525  -130.29583549    -0.00181965     0.01530946  0.33D-02  0.32D-02  1  1     1.68     0.87
   2      1.13043425    -0.45713166  -130.29568189     0.00015359    -0.01272465  0.12D-03  0.51D-03  2  2     2.50     0.89
   3      1.13716621    -0.45751617  -130.29606640    -0.00038451    -0.00342091  0.46D-04  0.60D-04  3  3     3.33     0.89
   4      1.14013665    -0.45754900  -130.29609923    -0.00003283    -0.00097200  0.47D-05  0.10D-04  4  4     4.16     0.90
   5      1.14127321    -0.45758313  -130.29613336    -0.00003413    -0.00023183  0.14D-05  0.18D-05  5  5     4.97     0.90
   6      1.14168647    -0.45756647  -130.29611670     0.00001666    -0.00006860  0.12D-06  0.43D-06  6  6     5.78     0.90
   7      1.14175985    -0.45756806  -130.29611829    -0.00000159     0.00000904  0.17D-07  0.96D-07  6  1     6.62     0.90
   8      1.14179533    -0.45756753  -130.29611777     0.00000052    -0.00000490  0.49D-08  0.16D-07  6  2     7.45     0.90
   9      1.14180081    -0.45756740  -130.29611763     0.00000014     0.00000109  0.22D-08  0.18D-08  6  3     8.25     0.90
  10      1.14180130    -0.45756773  -130.29611797    -0.00000034    -0.00000029  0.52D-09  0.28D-09  6  4     9.10     0.90
  11      1.14179975    -0.45756788  -130.29611811    -0.00000014     0.00000035  0.13D-09  0.28D-10  6  5     9.90     0.90
  12      1.14179855    -0.45756804  -130.29611827    -0.00000016     0.00000049  0.16D-10  0.80D-11  6  6    10.71     0.91
  13      1.14179787    -0.45756806  -130.29611829    -0.00000002     0.00000013  0.61D-11  0.15D-11  6  1    11.52     0.91
  14      1.14179734    -0.45756808  -130.29611832    -0.00000003     0.00000012  0.55D-12  0.47D-12  6  3    12.34     0.91
  15      1.14179717    -0.45756808  -130.29611832     0.00000000     0.00000001  0.14D-12  0.34D-13  6  2    13.14     0.91
  16      1.14179712    -0.45756809  -130.29611832    -0.00000000     0.00000001  0.34D-13  0.80D-14  6  4    13.96     0.91
  17      1.14179709    -0.45756809  -130.29611832    -0.00000000     0.00000001  0.45D-14  0.13D-14  6  5    14.77     0.91
  18      1.14179709    -0.45756809  -130.29611832     0.00000000     0.00000000  0.51D-15  0.35D-15  6  6    15.59     0.91
  19      1.14179710    -0.45756809  -130.29611832     0.00000000    -0.00000000  0.70D-16  0.47D-16  6  1    16.39     0.91
  20      1.14179710    -0.45756809  -130.29611832     0.00000000    -0.00000000  0.36D-17  0.11D-16  6  3    17.22     0.91
  21      1.14179710    -0.45756809  -130.29611832     0.00000000    -0.00000000  0.57D-18  0.25D-17  6  4    18.03     0.91
  22      1.14179710    -0.45756809  -130.29611832     0.00000000    -0.00000000  0.27D-19  0.87D-18  6  2    18.83     0.91
  23      1.14179710    -0.45756809  -130.29611832    -0.00000000     0.00000000  0.71D-19  0.17D-18  6  5    19.61     0.91
  24      1.14179710    -0.45756809  -130.29611832    -0.00000000     0.00000000  0.50D-20  0.16D-19  6  1    20.42     0.91
  25      1.14179710    -0.45756809  -130.29611832     0.00000000    -0.00000000  0.24D-20  0.11D-20  6  6    21.22     0.91

 Norm of t1 vector:      0.07860586      S-energy:     0.00000000      T1 diagnostic:  0.01604535
                                                                       D1 diagnostic:  0.04409556

 Doubles amplitudes (print threshold =  0.500E-01):

         I         J         SYM. A    SYM. B    A         B      T(IJ, AB)

         6         6         2         2         1         1     -0.13789514


 Total CPU time for triples:      6.91 sec


 RESULTS
 =======

  Reference energy                   -129.838550235814
  CCSD singlet pair energy             -0.314453292950
  CCSD triplet pair energy             -0.143114794432
  CCSD correlation energy              -0.457568087381

  Triples (T) contribution             -0.021457357258
  Total correlation energy             -0.479025444640

  CCSD total energy                  -130.296118323196
  CCSD[T] energy                     -130.318709777162
  CCSD-T energy                      -130.317152007488
 !CCSD(T) total energy               -130.317575680454

 Timing summary (sec):

 STEP                 CPU(USER)    SYS     CPU(TOT)    WALL
 Transformation          0.88      0.16      1.04      1.04
 CCSD iterations        20.35      2.35     22.70     22.71
 Triples                 6.91      0.22      7.13      7.14

 Program statistics:

 Available memory in ccsd:               994999756
 Min. memory needed in ccsd:                887758
 Max. memory used in ccsd:                 1088212
 Max. memory used in cckext:               1535578 (25 integral passes)



 **********************************************************************************************************************************
 DATASETS  * FILE   NREC   LENGTH (MB)   RECORD NAMES
              1      20      478.92       500      610      700      900      950      970     1000      129      960     1100   
                                          VAR    BASINP    GEOM    SYMINP    ZMAT    AOBASIS   BASIS     P2S    ABASIS      S 
                                         1400     1410     1200     1210     1080     1600     1650     1300     1700     1380   
                                           T        V       H0       H01     AOSYM     SMH    MOLCAS    ERIS     OPER     JKOP   

              2       4        3.13       700     1000      520     2100   
                                         GEOM     BASIS   MCVARS     RHF  

 PROGRAMS   *        TOTAL   CCSD(T)        HF       INT
 CPU TIMES  *        39.40     28.16      5.58      5.56
 REAL TIME  *        45.26 SEC
 DISK USED  *         1.33 GB      
 **********************************************************************************************************************************

 CCSD(T)/USERDEF energy=   -130.317575680454

        CCSD(T)         HF-SCF  
   -130.31757568   -129.83855024
 **********************************************************************************************************************************
 Molpro calculation terminated
 Variable memory released
