
 Primary working directories    : /tmp/r2666/235280.maple
 Secondary working directories  : /tmp/r2666/235280.maple
 Wavefunction directory         : /ddn/home4/r2666/wfu/
 Main file repository           : /tmp/r2666/235280.maple/

 SHA1      : d5ffa45e93fdbca01ffc919aa182cfdae0147319
 NAME      : 2015.1.35
 ARCHNAME  : linux/x86_64
 FC        : /opt/intel/composer_xe_2015.1.133/bin/intel64/ifort
 BLASLIB   : -Wl,-_start-group /opt/intel/mkl/lib/intel64/libmkl_intel_ilp64.a /opt/intel/mkl/lib/intel64/libmkl_intel_thread.a /opt/intel/mkl/lib/intel64/libmkl_core.a -Wl,-_end-group
 id        : olemiss

 Nodes     nprocs
 cn039        1

 Using customized tuning parameters: mindgm=1; mindgv=20; mindgc=4; mindgr=1; noblas=0; minvec=7
 default implementation of scratch files=df  

 ***,hno CCSD(T)/TZ-F12 QFF
 memory, 995, m;
 gthresh,energy=1.d-12,zero=1.d-22,oneint=1.d-22,twoint=1.d-22;
 gthresh,optgrad=1.d-8,optstep=1.d-8;
 nocompress;
 geomtyp=xyz
 bohr
 geometry={
 3
          6         6
 N        0.0000000000       -0.1481315833       -1.1588287955
 H        0.0000000000        1.6549776766       -1.9264628579
 O        0.0000000000        0.0349216967        1.1347020623
 }
 
 basis={
 default=aug-cc-pvtz
 s,C,8236.0,1235.0,280.8, 79.27,25.59, 8.997,3.319
 s,C,0.9059,0.3643,0.1285000
 p,C,56.0,18.71,4.133,0.2827,0.3827,0.1209
 d,C,30.0,10.0,3.3,1.097,0.318
 f,C,7.0,2.3,0.7610
 s,N,11420.0,1712.0,389.3,110.0,35.57,12.54,4.644
 s,N,1.293,0.5118,0.1787
 p,N,79.89,26.63,5.948,1.742,0.555,0.1725
 d,N,45.0,15.0,5.0,1.654,0.469
 f,N,9.9,3.3,1.093
 s,O,15330.0,2299.0,522.4,147.3,47.55,16.76,6.207
 s,O,1.752,0.6882,0.2384
 p,O,103.5,34.46,7.749,2.28,0.7156,0.214
 d,O,63.0,21.0,7.0,2.314,0.645
 f,O,12.9,4.3,1.428
 s,mg,164900.0,24710.0,5628.0,1596.0,521.0;
 s,mg,188.0,73.01,29.90,12.54,4.306,1.826;
 s,mg,0.7417,0.0761,0.145,0.033,0.0129;
 p,mg,950.70,316.90,74.86,23.72,8.669,3.363;
 p,mg,1.310,0.4911,0.2364,0.08733,0.03237,0.00745;
 d,mg,1.601,0.686,0.126,0.294,0.0468;
 f,mg,1.372,0.588,0.094,0.252;
 }
   {hf,maxit=500;accu,20;}
 {ccsd(t),nocheck,maxit=250;orbital,IGNORE_ERROR;}

 Variables initialized (889), CPU time= 0.00 sec
 Commands  initialized (702), CPU time= 0.01 sec, 572 directives.
 Default parameters read. Elapsed time= 0.05 sec

 Checking input...
 Passed
1


                                         ***  PROGRAM SYSTEM MOLPRO  ***
                                       Copyright, TTI GmbH Stuttgart, 2015
                                    Version 2015.1 linked Jul  9 2018 13:16:40


 **********************************************************************************************************************************
 LABEL *   hno CCSD(T)/TZ-F12 QFF                                                        
  64 bit serial version                                                                  DATE: 08-Feb-20          TIME: 17:57:27  
 **********************************************************************************************************************************

 SHA1:             d5ffa45e93fdbca01ffc919aa182cfdae0147319
 **********************************************************************************************************************************

 THRESHOLDS:

 ZERO    =  1.00D-22  ONEINT  =  1.00D-22  TWOINT  =  1.00D-22  PREFAC  =  1.00D-14  LOCALI  =  1.00D-09  EORDER  =  1.00D-04
 ENERGY  =  1.00D-12  ETEST   =  0.00D+00  EDENS   =  0.00D+00  THRDEDEF=  1.00D-06  GRADIENT=  1.00D-02  STEP    =  1.00D-03
 ORBITAL =  1.00D-05  CIVEC   =  1.00D-05  COEFF   =  1.00D-04  PRINTCI =  5.00D-02  PUNCHCI =  9.90D+01  OPTGRAD =  3.00D-04
 OPTENERG=  1.00D-06  OPTSTEP =  3.00D-04  THRGRAD =  1.00D-10  COMPRESS=  1.00D-11  VARMIN  =  1.00D-07  VARMAX  =  1.00D-03
 THRDOUB =  0.00D+00  THRDIV  =  1.00D-05  THRRED  =  1.00D-07  THRPSP  =  1.00D+00  THRDC   =  1.00D-10  THRCS   =  1.00D-10
 THRNRM  =  1.00D-08  THREQ   =  0.00D+00  THRDE   =  1.00D+00  THRREF  =  1.00D-05  SPARFAC =  1.00D+00  THRDLP  =  1.00D-07
 THRDIA  =  1.00D-10  THRDLS  =  1.00D-07  THRGPS  =  0.00D+00  THRKEX  =  0.00D+00  THRDIS  =  2.00D-01  THRVAR  =  1.00D-10
 THRLOC  =  1.00D-06  THRGAP  =  1.00D-06  THRLOCT = -1.00D+00  THRGAPT = -1.00D+00  THRORB  =  1.00D-06  THRMLTP =  0.00D+00
 THRCPQCI=  1.00D-10  KEXTA   =  0.00D+00  THRCOARS=  0.00D+00  SYMTOL  =  1.00D-06  GRADTOL =  1.00D-06  THROVL  =  1.00D-08
 THRORTH =  1.00D-08  GRID    =  1.00D-06  GRIDMAX =  1.00D-03  DTMAX   =  0.00D+00  THROCCDE=  1.00D-01  THROCCDE=  1.00D-01



 THRESHOLDS:

 ZERO    =  1.00D-22  ONEINT  =  1.00D-22  TWOINT  =  1.00D-22  PREFAC  =  1.00D-14  LOCALI  =  1.00D-09  EORDER  =  1.00D-04
 ENERGY  =  1.00D-12  ETEST   =  0.00D+00  EDENS   =  0.00D+00  THRDEDEF=  1.00D-06  GRADIENT=  1.00D-02  STEP    =  1.00D-03
 ORBITAL =  1.00D-05  CIVEC   =  1.00D-05  COEFF   =  1.00D-04  PRINTCI =  5.00D-02  PUNCHCI =  9.90D+01  OPTGRAD =  1.00D-08
 OPTENERG=  1.00D-06  OPTSTEP =  1.00D-08  THRGRAD =  1.00D-10  COMPRESS=  1.00D-11  VARMIN  =  1.00D-07  VARMAX  =  1.00D-03
 THRDOUB =  0.00D+00  THRDIV  =  1.00D-05  THRRED  =  1.00D-07  THRPSP  =  1.00D+00  THRDC   =  1.00D-10  THRCS   =  1.00D-10
 THRNRM  =  1.00D-08  THREQ   =  0.00D+00  THRDE   =  1.00D+00  THRREF  =  1.00D-05  SPARFAC =  1.00D+00  THRDLP  =  1.00D-07
 THRDIA  =  1.00D-10  THRDLS  =  1.00D-07  THRGPS  =  0.00D+00  THRKEX  =  0.00D+00  THRDIS  =  2.00D-01  THRVAR  =  1.00D-10
 THRLOC  =  1.00D-06  THRGAP  =  1.00D-06  THRLOCT = -1.00D+00  THRGAPT = -1.00D+00  THRORB  =  1.00D-06  THRMLTP =  0.00D+00
 THRCPQCI=  1.00D-10  KEXTA   =  0.00D+00  THRCOARS=  0.00D+00  SYMTOL  =  1.00D-06  GRADTOL =  1.00D-06  THROVL  =  1.00D-08
 THRORTH =  1.00D-08  GRID    =  1.00D-06  GRIDMAX =  1.00D-03  DTMAX   =  0.00D+00  THROCCDE=  1.00D-01  THROCCDE=  1.00D-01



 Input parameters for SORTINT:

 COMPRESS =    0.000000
 C_FINAL  =    1.000000
 DEBUG    =   -1.000000
 C_SORT1  =    0.000000
 C_SEWARD =    0.000000
 THRESH   =    0.000000
 IO       =  molpro                                                          
 SPRI     =    0.000000
 SETTING GEOMTYP        =    XYZ
 ZUNIT=BOHR
 

 Variable memory set to  995000000 words,  buffer space   230000 words

 SETTING BASIS          =    USERDEF


 Recomputing integrals since basis changed


 Using spherical harmonics

 Library entry H      S aug-cc-pVTZ          selected for orbital group  2
 Library entry H      P aug-cc-pVTZ          selected for orbital group  2
 Library entry H      D aug-cc-pVTZ          selected for orbital group  2


 PROGRAM * SEWARD (Integral evaluation for generally contracted gaussian basis sets)     Author: Roland Lindh, 1990

 Geometry written to block  1 of record 700


 Point group  Cs  



 ATOMIC COORDINATES

 NR  ATOM    CHARGE       X              Y              Z

   1  N       7.00    0.000000000   -0.148131583   -1.158828796
   2  H       1.00    0.000000000    1.654977677   -1.926462858
   3  O       8.00    0.000000000    0.034921697    1.134702062

 Bond lengths in Bohr (Angstrom)

 1-2  1.959710452  1-3  2.300824265
     ( 1.037034111)     ( 1.217543767)

 Bond angles

  2-1-3  108.49754411

 NUCLEAR CHARGE:                   16
 NUMBER OF PRIMITIVE AOS:         203
 NUMBER OF SYMMETRY AOS:          173
 NUMBER OF CONTRACTIONS:          171   ( 114A'  +  57A"  )
 NUMBER OF CORE ORBITALS:           2   (   2A'  +   0A"  )
 NUMBER OF VALENCE ORBITALS:        9   (   7A'  +   2A"  )


 NUCLEAR REPULSION ENERGY   30.22091209


 Eigenvalues of metric

         1 0.103E-02 0.256E-02 0.332E-02 0.630E-02 0.936E-02 0.136E-01 0.145E-01 0.226E-01
         2 0.346E-01 0.543E-01 0.694E-01 0.942E-01 0.131E+00 0.134E+00 0.139E+00 0.142E+00


 Contracted 2-electron integrals neglected if value below      1.0D-22

       46097012. INTEGRALS WRITTEN OUT IN   11257 BLOCKS ON RECORD 1290 OF FILE 1


 NUMBER OF SORTED TWO-ELECTRON INTEGRALS:   55360566.     BUFFER LENGTH:  32768
 NUMBER OF SEGMENTS:   4  SEGMENT LENGTH:   15997996      RECORD LENGTH: 524288

 Memory used in sort:      16.56 MW

 SORT1 READ    46097012. AND WROTE    46533942. INTEGRALS IN    135 RECORDS. CPU TIME:     1.65 SEC, REAL TIME:     2.03 SEC
 SORT2 READ    46533942. AND WROTE    55360566. INTEGRALS IN      4 RECORDS. CPU TIME:     0.91 SEC, REAL TIME:     1.23 SEC

 FILE SIZES:   FILE 1:   758.5 MBYTE,  FILE 4:   566.3 MBYTE,   TOTAL:   1324.7 MBYTE

 OPERATOR DM      FOR CENTER  0  COORDINATES:    0.000000    0.000000    0.000000


 **********************************************************************************************************************************
 DATASETS  * FILE   NREC   LENGTH (MB)   RECORD NAMES
              1      19      420.91       500      610      700      900      950      970     1000      129      960     1100   
                                          VAR    BASINP    GEOM    SYMINP    ZMAT    AOBASIS   BASIS     P2S    ABASIS      S 
                                         1400     1410     1200     1210     1080     1600     1650     1300     1700   
                                           T        V       H0       H01     AOSYM     SMH    MOLCAS    ERIS     OPER   

 PROGRAMS   *        TOTAL       INT
 CPU TIMES  *         7.07      6.96
 REAL TIME  *         8.87 SEC
 DISK USED  *         1.33 GB      
 **********************************************************************************************************************************


 PROGRAM * RHF-SCF (CLOSED SHELL)       Authors: W. Meyer, H.-J. Werner


 NUMBER OF ELECTRONS:       8+    8-
 CONVERGENCE THRESHOLDS:    1.00E-10 (Density)    1.00E-13 (Energy)
 MAX. NUMBER OF ITERATIONS:      500
 INTERPOLATION TYPE:            DIIS
 INTERPOLATION STEPS:              2 (START)      1 (STEP)
 LEVEL SHIFTS:                  0.00 (CLOSED)  0.00 (OPEN) 



 Orbital guess generated from atomic densities. Full valence occupancy:    9   2

 Molecular orbital dump at record        2100.2

 Initial occupancy:   7   1

 ITERATION    DDIFF          GRAD             ENERGY        2-EL.EN.            DIPOLE MOMENTS         DIIS   ORB.
    1      0.000D+00      0.000D+00      -129.78755364    153.804299    0.00000    0.58600   -1.04242    0    start
    2      0.000D+00      0.881D-02      -129.81414639    154.944604    0.00000    0.60451   -0.19790    1    diag
    3      0.372D-02      0.679D-02      -129.83782011    155.089808    0.00000    0.55723   -0.59985    2    diag
    4      0.144D-02      0.105D-02      -129.83862192    154.810182    0.00000    0.56504   -0.53566    3    diag
    5      0.337D-03      0.339D-03      -129.83874285    154.897971    0.00000    0.57088   -0.53785    4    diag
    6      0.154D-03      0.987D-04      -129.83876242    154.881973    0.00000    0.57141   -0.53360    5    diag
    7      0.606D-04      0.501D-04      -129.83876838    154.884333    0.00000    0.57267   -0.53096    6    diag
    8      0.416D-04      0.176D-04      -129.83876908    154.883476    0.00000    0.57272   -0.52998    7    diag
    9      0.151D-04      0.330D-05      -129.83876911    154.883359    0.00000    0.57267   -0.52979    8    diag
   10      0.312D-05      0.738D-06      -129.83876911    154.883347    0.00000    0.57263   -0.52977    9    orth
   11      0.901D-06      0.145D-06      -129.83876911    154.883343    0.00000    0.57262   -0.52976    9    diag
   12      0.208D-06      0.307D-07      -129.83876911    154.883343    0.00000    0.57262   -0.52976    9    diag
   13      0.501D-07      0.829D-08      -129.83876911    154.883342    0.00000    0.57262   -0.52976    9    diag
   14      0.115D-07      0.146D-08      -129.83876911    154.883342    0.00000    0.57262   -0.52976    9    diag
   15      0.135D-08      0.386D-09      -129.83876911    154.883342    0.00000    0.57262   -0.52976    9    diag
   16      0.330D-09      0.111D-09      -129.83876911    154.883342    0.00000    0.57262   -0.52976    9    diag
   17      0.610D-10      0.287D-10      -129.83876911    154.883342    0.00000    0.57262   -0.52976    9    diag
   18      0.168D-10      0.912D-11      -129.83876911    154.883342    0.00000    0.57262   -0.52976    9    diag
   19      0.587D-11      0.210D-11      -129.83876911    154.883342    0.00000    0.57262   -0.52976    9    fixocc
   20      0.133D-11      0.838D-12      -129.83876911    154.883342    0.00000    0.57262   -0.52976    9    orth
   21      0.168D-12      0.390D-12      -129.83876911    154.883342    0.00000    0.57262   -0.52976    9    diag
   22      0.131D-12      0.468D-12      -129.83876911    154.883342    0.00000    0.57262   -0.52976    0    orth

 Final occupancy:   7   1

 !RHF STATE 1.1 Energy               -129.838769111326
 Nuclear energy                        30.22091209
 One-electron energy                 -237.50135231
 Two-electron energy                   77.44167111
 Virial quotient                       -1.00173929
 !RHF STATE 1.1 Dipole moment           0.00000000     0.57262184    -0.52976087
 Dipole moment /Debye                   0.00000000     1.45536421    -1.34642963

 Orbital energies:

         1.1          2.1          3.1          4.1          5.1          6.1          7.1          8.1          9.1
    -20.652002   -15.710158    -1.520333    -0.999210    -0.743952    -0.661559    -0.432316     0.039619     0.193629

         1.2          2.2          3.2
     -0.589474     0.075626     0.239381

 HOMO      7.1    -0.432316 =     -11.7639eV
 LUMO      8.1     0.039619 =       1.0781eV
 LUMO-HOMO         0.471935 =      12.8420eV


 **********************************************************************************************************************************
 DATASETS  * FILE   NREC   LENGTH (MB)   RECORD NAMES
              1      19      420.91       500      610      700      900      950      970     1000      129      960     1100   
                                          VAR    BASINP    GEOM    SYMINP    ZMAT    AOBASIS   BASIS     P2S    ABASIS      S 
                                         1400     1410     1200     1210     1080     1600     1650     1300     1700   
                                           T        V       H0       H01     AOSYM     SMH    MOLCAS    ERIS     OPER   

              2       4        3.13       700     1000      520     2100   
                                         GEOM     BASIS   MCVARS     RHF  

 PROGRAMS   *        TOTAL        HF       INT
 CPU TIMES  *        15.22      8.14      6.96
 REAL TIME  *        19.13 SEC
 DISK USED  *         1.33 GB      
 **********************************************************************************************************************************


 PROGRAM * CCSD (Closed-shell coupled cluster)     Authors: C. Hampel, H.-J. Werner, 1991, M. Deegan, P.J. Knowles, 1992


 Convergence thresholds:  THRVAR = 1.00D-08  THRDEN = 1.00D-12

 CCSD(T)     terms to be evaluated (factor= 1.000)


 Number of core orbitals:           2 (   2   0 )
 Number of closed-shell orbitals:   6 (   5   1 )
 Number of external orbitals:     163 ( 107  56 )

 Molecular orbitals read from record     2100.2  Type=RHF/CANONICAL (state 1.1)

 Number of N-1 electron functions:               6
 Number of N-2 electron functions:              21
 Number of singly external CSFs:               591
 Number of doubly external CSFs:            250014
 Total number of CSFs:                      250606

 Length of J-op  integral file:               0.00 MB
 Length of K-op  integral file:               1.15 MB
 Length of 3-ext integral record:             0.00 MB

 Memory could be reduced to 19.93 Mwords without degradation in triples

 Integral transformation finished. Total CPU:   1.14 sec, npass=  1  Memory used:   5.10 MW

 Reference energy:                   -129.83876911

 MP2 singlet pair energy:              -0.28751457
 MP2 triplet pair energy:              -0.16764334
 MP2 correlation energy:               -0.45515791
 MP2 total energy:                   -130.29392702

 SCS-MP2 correlation energy:           -0.44932890   (PS=  1.200000  PT=  0.333333)
 SCS-MP2 total energy:               -130.28809801

 ITER.      SQ.NORM     CORR.ENERGY   TOTAL ENERGY   ENERGY CHANGE        DEN1      VAR(S)    VAR(P)  DIIS     TIME  TIME/IT
   1      1.11934749    -0.45696391  -130.29573302    -0.00180600     0.01524796  0.33D-02  0.32D-02  1  1     2.13     1.07
   2      1.13002016    -0.45680886  -130.29557797     0.00015505    -0.01267696  0.12D-03  0.50D-03  2  2     3.17     1.12
   3      1.13668961    -0.45718532  -130.29595443    -0.00037646    -0.00339647  0.45D-04  0.60D-04  3  3     4.20     1.12
   4      1.13964518    -0.45722009  -130.29598920    -0.00003477    -0.00096436  0.45D-05  0.10D-04  4  4     5.24     1.13
   5      1.14076739    -0.45725324  -130.29602235    -0.00003315    -0.00022958  0.13D-05  0.18D-05  5  5     6.26     1.13
   6      1.14117492    -0.45723673  -130.29600584     0.00001651    -0.00006776  0.11D-06  0.44D-06  6  6     7.32     1.14
   7      1.14124591    -0.45723856  -130.29600767    -0.00000183     0.00000928  0.14D-07  0.99D-07  6  1     8.35     1.13
   8      1.14128066    -0.45723808  -130.29600720     0.00000047    -0.00000482  0.51D-08  0.15D-07  6  2     9.44     1.14
   9      1.14128546    -0.45723799  -130.29600711     0.00000009     0.00000121  0.23D-08  0.18D-08  6  3    10.44     1.14
  10      1.14128595    -0.45723832  -130.29600743    -0.00000033    -0.00000034  0.53D-09  0.28D-09  6  4    11.49     1.14
  11      1.14128443    -0.45723846  -130.29600757    -0.00000014     0.00000035  0.13D-09  0.28D-10  6  5    12.49     1.14
  12      1.14128328    -0.45723862  -130.29600773    -0.00000015     0.00000047  0.15D-10  0.77D-11  6  6    13.53     1.14
  13      1.14128262    -0.45723864  -130.29600775    -0.00000002     0.00000012  0.56D-11  0.14D-11  6  1    14.55     1.14
  14      1.14128211    -0.45723866  -130.29600778    -0.00000003     0.00000012  0.51D-12  0.45D-12  6  3    15.57     1.14
  15      1.14128195    -0.45723866  -130.29600777     0.00000000     0.00000001  0.13D-12  0.33D-13  6  2    16.59     1.14
  16      1.14128190    -0.45723867  -130.29600778    -0.00000000     0.00000001  0.30D-13  0.76D-14  6  4    17.61     1.14
  17      1.14128187    -0.45723867  -130.29600778    -0.00000000     0.00000001  0.43D-14  0.12D-14  6  5    18.62     1.14
  18      1.14128187    -0.45723867  -130.29600778    -0.00000000     0.00000000  0.51D-15  0.33D-15  6  6    19.69     1.14
  19      1.14128187    -0.45723867  -130.29600778     0.00000000    -0.00000000  0.69D-16  0.47D-16  6  1    20.65     1.14
  20      1.14128187    -0.45723867  -130.29600778     0.00000000    -0.00000000  0.33D-17  0.11D-16  6  3    21.73     1.15
  21      1.14128188    -0.45723867  -130.29600778     0.00000000    -0.00000000  0.57D-18  0.25D-17  6  4    22.76     1.14
  22      1.14128188    -0.45723867  -130.29600778     0.00000000    -0.00000000  0.57D-19  0.89D-18  6  2    23.81     1.15
  23      1.14128188    -0.45723867  -130.29600778    -0.00000000     0.00000000  0.88D-19  0.17D-18  6  5    24.86     1.15
  24      1.14128188    -0.45723867  -130.29600778    -0.00000000     0.00000000  0.50D-20  0.16D-19  6  1    25.84     1.15
  25      1.14128188    -0.45723867  -130.29600778     0.00000000    -0.00000000  0.26D-20  0.11D-20  6  6    26.89     1.15

 Norm of t1 vector:      0.07811572      S-energy:     0.00000000      T1 diagnostic:  0.01594530
                                                                       D1 diagnostic:  0.04422358

 Doubles amplitudes (print threshold =  0.500E-01):

         I         J         SYM. A    SYM. B    A         B      T(IJ, AB)

         6         6         2         2         1         1     -0.13842624


 Total CPU time for triples:      9.36 sec


 RESULTS
 =======

  Reference energy                   -129.838769111326
  CCSD singlet pair energy             -0.314171678682
  CCSD triplet pair energy             -0.143066987868
  CCSD correlation energy              -0.457238666549

  Triples (T) contribution             -0.021400598892
  Total correlation energy             -0.478639265442

  CCSD total energy                  -130.296007777876
  CCSD[T] energy                     -130.318532564144
  CCSD-T energy                      -130.316989161229
 !CCSD(T) total energy               -130.317408376768

 Timing summary (sec):

 STEP                 CPU(USER)    SYS     CPU(TOT)    WALL
 Transformation          1.15      0.17      1.32      1.33
 CCSD iterations        25.75      2.91     28.66     28.66
 Triples                 9.36      0.30      9.66      9.67

 Program statistics:

 Available memory in ccsd:               994999756
 Min. memory needed in ccsd:                887758
 Max. memory used in ccsd:                 1088212
 Max. memory used in cckext:               1535578 (25 integral passes)



 **********************************************************************************************************************************
 DATASETS  * FILE   NREC   LENGTH (MB)   RECORD NAMES
              1      20      478.87       500      610      700      900      950      970     1000      129      960     1100   
                                          VAR    BASINP    GEOM    SYMINP    ZMAT    AOBASIS   BASIS     P2S    ABASIS      S 
                                         1400     1410     1200     1210     1080     1600     1650     1300     1700     1380   
                                           T        V       H0       H01     AOSYM     SMH    MOLCAS    ERIS     OPER     JKOP   

              2       4        3.13       700     1000      520     2100   
                                         GEOM     BASIS   MCVARS     RHF  

 PROGRAMS   *        TOTAL   CCSD(T)        HF       INT
 CPU TIMES  *        51.50     36.28      8.14      6.96
 REAL TIME  *        58.82 SEC
 DISK USED  *         1.33 GB      
 **********************************************************************************************************************************

 CCSD(T)/USERDEF energy=   -130.317408376768

        CCSD(T)         HF-SCF  
   -130.31740838   -129.83876911
 **********************************************************************************************************************************
 Molpro calculation terminated
 Variable memory released
