
 Primary working directories    : /tmp/r2666/235351.maple
 Secondary working directories  : /tmp/r2666/235351.maple
 Wavefunction directory         : /ddn/home4/r2666/wfu/
 Main file repository           : /tmp/r2666/235351.maple/

 SHA1      : d5ffa45e93fdbca01ffc919aa182cfdae0147319
 NAME      : 2015.1.35
 ARCHNAME  : linux/x86_64
 FC        : /opt/intel/composer_xe_2015.1.133/bin/intel64/ifort
 BLASLIB   : -Wl,-_start-group /opt/intel/mkl/lib/intel64/libmkl_intel_ilp64.a /opt/intel/mkl/lib/intel64/libmkl_intel_thread.a /opt/intel/mkl/lib/intel64/libmkl_core.a -Wl,-_end-group
 id        : olemiss

 Nodes     nprocs
 cn033        1

 Using customized tuning parameters: mindgm=1; mindgv=20; mindgc=4; mindgr=1; noblas=0; minvec=7
 default implementation of scratch files=df  

 ***,hno CCSD(T)/TZ-F12 QFF
 memory, 995, m;
 gthresh,energy=1.d-12,zero=1.d-22,oneint=1.d-22,twoint=1.d-22;
 gthresh,optgrad=1.d-8,optstep=1.d-8;
 nocompress;
 geomtyp=xyz
 bohr
 geometry={
 3
         77        77
 N        0.0000000000       -0.1528958786       -1.1411499723
 H        0.0000000000        1.6672799187       -1.9407299159
 O        0.0000000000        0.0273837499        1.1312902972
 }
 
 basis={
 default=aug-cc-pvtz
 s,C,8236.0,1235.0,280.8, 79.27,25.59, 8.997,3.319
 s,C,0.9059,0.3643,0.1285000
 p,C,56.0,18.71,4.133,0.2827,0.3827,0.1209
 d,C,30.0,10.0,3.3,1.097,0.318
 f,C,7.0,2.3,0.7610
 s,N,11420.0,1712.0,389.3,110.0,35.57,12.54,4.644
 s,N,1.293,0.5118,0.1787
 p,N,79.89,26.63,5.948,1.742,0.555,0.1725
 d,N,45.0,15.0,5.0,1.654,0.469
 f,N,9.9,3.3,1.093
 s,O,15330.0,2299.0,522.4,147.3,47.55,16.76,6.207
 s,O,1.752,0.6882,0.2384
 p,O,103.5,34.46,7.749,2.28,0.7156,0.214
 d,O,63.0,21.0,7.0,2.314,0.645
 f,O,12.9,4.3,1.428
 s,mg,164900.0,24710.0,5628.0,1596.0,521.0;
 s,mg,188.0,73.01,29.90,12.54,4.306,1.826;
 s,mg,0.7417,0.0761,0.145,0.033,0.0129;
 p,mg,950.70,316.90,74.86,23.72,8.669,3.363;
 p,mg,1.310,0.4911,0.2364,0.08733,0.03237,0.00745;
 d,mg,1.601,0.686,0.126,0.294,0.0468;
 f,mg,1.372,0.588,0.094,0.252;
 }
   {hf,maxit=500;accu,20;}
 {ccsd(t),nocheck,maxit=250;orbital,IGNORE_ERROR;}

 Variables initialized (889), CPU time= 0.01 sec
 Commands  initialized (702), CPU time= 0.00 sec, 572 directives.
 Default parameters read. Elapsed time= 0.05 sec

 Checking input...
 Passed
1


                                         ***  PROGRAM SYSTEM MOLPRO  ***
                                       Copyright, TTI GmbH Stuttgart, 2015
                                    Version 2015.1 linked Jul  9 2018 13:16:40


 **********************************************************************************************************************************
 LABEL *   hno CCSD(T)/TZ-F12 QFF                                                        
  64 bit serial version                                                                  DATE: 08-Feb-20          TIME: 17:58:16  
 **********************************************************************************************************************************

 SHA1:             d5ffa45e93fdbca01ffc919aa182cfdae0147319
 **********************************************************************************************************************************

 THRESHOLDS:

 ZERO    =  1.00D-22  ONEINT  =  1.00D-22  TWOINT  =  1.00D-22  PREFAC  =  1.00D-14  LOCALI  =  1.00D-09  EORDER  =  1.00D-04
 ENERGY  =  1.00D-12  ETEST   =  0.00D+00  EDENS   =  0.00D+00  THRDEDEF=  1.00D-06  GRADIENT=  1.00D-02  STEP    =  1.00D-03
 ORBITAL =  1.00D-05  CIVEC   =  1.00D-05  COEFF   =  1.00D-04  PRINTCI =  5.00D-02  PUNCHCI =  9.90D+01  OPTGRAD =  3.00D-04
 OPTENERG=  1.00D-06  OPTSTEP =  3.00D-04  THRGRAD =  1.00D-10  COMPRESS=  1.00D-11  VARMIN  =  1.00D-07  VARMAX  =  1.00D-03
 THRDOUB =  0.00D+00  THRDIV  =  1.00D-05  THRRED  =  1.00D-07  THRPSP  =  1.00D+00  THRDC   =  1.00D-10  THRCS   =  1.00D-10
 THRNRM  =  1.00D-08  THREQ   =  0.00D+00  THRDE   =  1.00D+00  THRREF  =  1.00D-05  SPARFAC =  1.00D+00  THRDLP  =  1.00D-07
 THRDIA  =  1.00D-10  THRDLS  =  1.00D-07  THRGPS  =  0.00D+00  THRKEX  =  0.00D+00  THRDIS  =  2.00D-01  THRVAR  =  1.00D-10
 THRLOC  =  1.00D-06  THRGAP  =  1.00D-06  THRLOCT = -1.00D+00  THRGAPT = -1.00D+00  THRORB  =  1.00D-06  THRMLTP =  0.00D+00
 THRCPQCI=  1.00D-10  KEXTA   =  0.00D+00  THRCOARS=  0.00D+00  SYMTOL  =  1.00D-06  GRADTOL =  1.00D-06  THROVL  =  1.00D-08
 THRORTH =  1.00D-08  GRID    =  1.00D-06  GRIDMAX =  1.00D-03  DTMAX   =  0.00D+00  THROCCDE=  1.00D-01  THROCCDE=  1.00D-01



 THRESHOLDS:

 ZERO    =  1.00D-22  ONEINT  =  1.00D-22  TWOINT  =  1.00D-22  PREFAC  =  1.00D-14  LOCALI  =  1.00D-09  EORDER  =  1.00D-04
 ENERGY  =  1.00D-12  ETEST   =  0.00D+00  EDENS   =  0.00D+00  THRDEDEF=  1.00D-06  GRADIENT=  1.00D-02  STEP    =  1.00D-03
 ORBITAL =  1.00D-05  CIVEC   =  1.00D-05  COEFF   =  1.00D-04  PRINTCI =  5.00D-02  PUNCHCI =  9.90D+01  OPTGRAD =  1.00D-08
 OPTENERG=  1.00D-06  OPTSTEP =  1.00D-08  THRGRAD =  1.00D-10  COMPRESS=  1.00D-11  VARMIN  =  1.00D-07  VARMAX  =  1.00D-03
 THRDOUB =  0.00D+00  THRDIV  =  1.00D-05  THRRED  =  1.00D-07  THRPSP  =  1.00D+00  THRDC   =  1.00D-10  THRCS   =  1.00D-10
 THRNRM  =  1.00D-08  THREQ   =  0.00D+00  THRDE   =  1.00D+00  THRREF  =  1.00D-05  SPARFAC =  1.00D+00  THRDLP  =  1.00D-07
 THRDIA  =  1.00D-10  THRDLS  =  1.00D-07  THRGPS  =  0.00D+00  THRKEX  =  0.00D+00  THRDIS  =  2.00D-01  THRVAR  =  1.00D-10
 THRLOC  =  1.00D-06  THRGAP  =  1.00D-06  THRLOCT = -1.00D+00  THRGAPT = -1.00D+00  THRORB  =  1.00D-06  THRMLTP =  0.00D+00
 THRCPQCI=  1.00D-10  KEXTA   =  0.00D+00  THRCOARS=  0.00D+00  SYMTOL  =  1.00D-06  GRADTOL =  1.00D-06  THROVL  =  1.00D-08
 THRORTH =  1.00D-08  GRID    =  1.00D-06  GRIDMAX =  1.00D-03  DTMAX   =  0.00D+00  THROCCDE=  1.00D-01  THROCCDE=  1.00D-01



 Input parameters for SORTINT:

 COMPRESS =    0.000000
 C_FINAL  =    1.000000
 DEBUG    =   -1.000000
 C_SORT1  =    0.000000
 C_SEWARD =    0.000000
 THRESH   =    0.000000
 IO       =  molpro                                                          
 SPRI     =    0.000000
 SETTING GEOMTYP        =    XYZ
 ZUNIT=BOHR
 

 Variable memory set to  995000000 words,  buffer space   230000 words

 SETTING BASIS          =    USERDEF


 Recomputing integrals since basis changed


 Using spherical harmonics

 Library entry H      S aug-cc-pVTZ          selected for orbital group  2
 Library entry H      P aug-cc-pVTZ          selected for orbital group  2
 Library entry H      D aug-cc-pVTZ          selected for orbital group  2


 PROGRAM * SEWARD (Integral evaluation for generally contracted gaussian basis sets)     Author: Roland Lindh, 1990

 Geometry written to block  1 of record 700


 Point group  Cs  



 ATOMIC COORDINATES

 NR  ATOM    CHARGE       X              Y              Z

   1  N       7.00    0.000000000   -0.152895879   -1.141149972
   2  H       1.00    0.000000000    1.667279919   -1.940729916
   3  O       8.00    0.000000000    0.027383750    1.131290297

 Bond lengths in Bohr (Angstrom)

 1-2  1.988056342  1-3  2.279580120
     ( 1.052034110)     ( 1.206301850)

 Bond angles

  2-1-3  109.17932058

 NUCLEAR CHARGE:                   16
 NUMBER OF PRIMITIVE AOS:         203
 NUMBER OF SYMMETRY AOS:          173
 NUMBER OF CONTRACTIONS:          171   ( 114A'  +  57A"  )
 NUMBER OF CORE ORBITALS:           2   (   2A'  +   0A"  )
 NUMBER OF VALENCE ORBITALS:        9   (   7A'  +   2A"  )


 NUCLEAR REPULSION ENERGY   30.38427209


 Eigenvalues of metric

         1 0.104E-02 0.247E-02 0.333E-02 0.635E-02 0.984E-02 0.137E-01 0.144E-01 0.230E-01
         2 0.363E-01 0.529E-01 0.694E-01 0.942E-01 0.131E+00 0.134E+00 0.140E+00 0.142E+00


 Contracted 2-electron integrals neglected if value below      1.0D-22

       46159911. INTEGRALS WRITTEN OUT IN   11273 BLOCKS ON RECORD 1290 OF FILE 1


 NUMBER OF SORTED TWO-ELECTRON INTEGRALS:   55360566.     BUFFER LENGTH:  32768
 NUMBER OF SEGMENTS:   4  SEGMENT LENGTH:   15997996      RECORD LENGTH: 524288

 Memory used in sort:      16.56 MW

 SORT1 READ    46159911. AND WROTE    46597413. INTEGRALS IN    135 RECORDS. CPU TIME:     1.25 SEC, REAL TIME:     1.62 SEC
 SORT2 READ    46597413. AND WROTE    55360566. INTEGRALS IN      4 RECORDS. CPU TIME:     0.71 SEC, REAL TIME:     1.02 SEC

 FILE SIZES:   FILE 1:   759.5 MBYTE,  FILE 4:   566.3 MBYTE,   TOTAL:   1325.8 MBYTE

 OPERATOR DM      FOR CENTER  0  COORDINATES:    0.000000    0.000000    0.000000


 **********************************************************************************************************************************
 DATASETS  * FILE   NREC   LENGTH (MB)   RECORD NAMES
              1      19      421.34       500      610      700      900      950      970     1000      129      960     1100   
                                          VAR    BASINP    GEOM    SYMINP    ZMAT    AOBASIS   BASIS     P2S    ABASIS      S 
                                         1400     1410     1200     1210     1080     1600     1650     1300     1700   
                                           T        V       H0       H01     AOSYM     SMH    MOLCAS    ERIS     OPER   

 PROGRAMS   *        TOTAL       INT
 CPU TIMES  *         5.50      5.40
 REAL TIME  *         7.16 SEC
 DISK USED  *         1.33 GB      
 **********************************************************************************************************************************


 PROGRAM * RHF-SCF (CLOSED SHELL)       Authors: W. Meyer, H.-J. Werner


 NUMBER OF ELECTRONS:       8+    8-
 CONVERGENCE THRESHOLDS:    1.00E-10 (Density)    1.00E-13 (Energy)
 MAX. NUMBER OF ITERATIONS:      500
 INTERPOLATION TYPE:            DIIS
 INTERPOLATION STEPS:              2 (START)      1 (STEP)
 LEVEL SHIFTS:                  0.00 (CLOSED)  0.00 (OPEN) 



 Orbital guess generated from atomic densities. Full valence occupancy:    9   2

 Molecular orbital dump at record        2100.2

 Initial occupancy:   7   1

 ITERATION    DDIFF          GRAD             ENERGY        2-EL.EN.            DIPOLE MOMENTS         DIIS   ORB.
    1      0.000D+00      0.000D+00      -129.78978307    154.084384    0.00000    0.57747   -1.01063    0    start
    2      0.000D+00      0.876D-02      -129.81672307    155.266423    0.00000    0.59613   -0.20125    1    diag
    3      0.364D-02      0.662D-02      -129.83913430    155.382642    0.00000    0.54968   -0.58510    2    diag
    4      0.141D-02      0.104D-02      -129.83991684    155.108876    0.00000    0.55733   -0.52272    3    diag
    5      0.331D-03      0.335D-03      -129.84003629    155.197062    0.00000    0.56344   -0.52524    4    diag
    6      0.153D-03      0.983D-04      -129.84005572    155.181014    0.00000    0.56404   -0.52115    5    diag
    7      0.607D-04      0.492D-04      -129.84006141    155.183566    0.00000    0.56538   -0.51867    6    diag
    8      0.411D-04      0.168D-04      -129.84006202    155.182755    0.00000    0.56543   -0.51778    7    diag
    9      0.141D-04      0.314D-05      -129.84006204    155.182642    0.00000    0.56538   -0.51760    8    diag
   10      0.285D-05      0.723D-06      -129.84006205    155.182628    0.00000    0.56535   -0.51757    9    orth
   11      0.863D-06      0.144D-06      -129.84006205    155.182624    0.00000    0.56534   -0.51757    9    diag
   12      0.204D-06      0.295D-07      -129.84006205    155.182623    0.00000    0.56534   -0.51756    9    diag
   13      0.494D-07      0.778D-08      -129.84006205    155.182623    0.00000    0.56534   -0.51756    9    diag
   14      0.114D-07      0.138D-08      -129.84006205    155.182623    0.00000    0.56534   -0.51756    9    diag
   15      0.148D-08      0.371D-09      -129.84006205    155.182623    0.00000    0.56534   -0.51756    9    diag
   16      0.327D-09      0.109D-09      -129.84006205    155.182623    0.00000    0.56534   -0.51756    9    diag
   17      0.752D-10      0.301D-10      -129.84006205    155.182623    0.00000    0.56534   -0.51756    9    diag
   18      0.241D-10      0.101D-10      -129.84006205    155.182623    0.00000    0.56534   -0.51756    9    diag
   19      0.983D-11      0.243D-11      -129.84006205    155.182623    0.00000    0.56534   -0.51756    0    orth

 Final occupancy:   7   1

 !RHF STATE 1.1 Energy               -129.840062045785
 Nuclear energy                        30.38427209
 One-electron energy                 -237.81564541
 Two-electron energy                   77.59131127
 Virial quotient                       -1.00161119
 !RHF STATE 1.1 Dipole moment           0.00000000     0.56533624    -0.51756428
 Dipole moment /Debye                   0.00000000     1.43684729    -1.31543101

 Orbital energies:

         1.1          2.1          3.1          4.1          5.1          6.1          7.1          8.1          9.1
    -20.651362   -15.710133    -1.528904    -0.993130    -0.745660    -0.664900    -0.427551     0.039631     0.192801

         1.2          2.2          3.2
     -0.594871     0.079434     0.239693

 HOMO      7.1    -0.427551 =     -11.6343eV
 LUMO      8.1     0.039631 =       1.0784eV
 LUMO-HOMO         0.467182 =      12.7127eV


 **********************************************************************************************************************************
 DATASETS  * FILE   NREC   LENGTH (MB)   RECORD NAMES
              1      19      421.34       500      610      700      900      950      970     1000      129      960     1100   
                                          VAR    BASINP    GEOM    SYMINP    ZMAT    AOBASIS   BASIS     P2S    ABASIS      S 
                                         1400     1410     1200     1210     1080     1600     1650     1300     1700   
                                           T        V       H0       H01     AOSYM     SMH    MOLCAS    ERIS     OPER   

              2       4        3.13       700     1000      520     2100   
                                         GEOM     BASIS   MCVARS     RHF  

 PROGRAMS   *        TOTAL        HF       INT
 CPU TIMES  *        10.95      5.45      5.40
 REAL TIME  *        14.09 SEC
 DISK USED  *         1.33 GB      
 **********************************************************************************************************************************


 PROGRAM * CCSD (Closed-shell coupled cluster)     Authors: C. Hampel, H.-J. Werner, 1991, M. Deegan, P.J. Knowles, 1992


 Convergence thresholds:  THRVAR = 1.00D-08  THRDEN = 1.00D-12

 CCSD(T)     terms to be evaluated (factor= 1.000)


 Number of core orbitals:           2 (   2   0 )
 Number of closed-shell orbitals:   6 (   5   1 )
 Number of external orbitals:     163 ( 107  56 )

 Molecular orbitals read from record     2100.2  Type=RHF/CANONICAL (state 1.1)

 Number of N-1 electron functions:               6
 Number of N-2 electron functions:              21
 Number of singly external CSFs:               591
 Number of doubly external CSFs:            250014
 Total number of CSFs:                      250606

 Length of J-op  integral file:               0.00 MB
 Length of K-op  integral file:               1.15 MB
 Length of 3-ext integral record:             0.00 MB

 Memory could be reduced to 19.93 Mwords without degradation in triples

 Integral transformation finished. Total CPU:   0.86 sec, npass=  1  Memory used:   5.10 MW

 Reference energy:                   -129.84006205

 MP2 singlet pair energy:              -0.28670302
 MP2 triplet pair energy:              -0.16707733
 MP2 correlation energy:               -0.45378034
 MP2 total energy:                   -130.29384239

 SCS-MP2 correlation energy:           -0.44800285   (PS=  1.200000  PT=  0.333333)
 SCS-MP2 total energy:               -130.28806489

 ITER.      SQ.NORM     CORR.ENERGY   TOTAL ENERGY   ENERGY CHANGE        DEN1      VAR(S)    VAR(P)  DIIS     TIME  TIME/IT
   1      1.11864601    -0.45597756  -130.29603961    -0.00219722     0.01451005  0.32D-02  0.31D-02  1  1     1.67     0.85
   2      1.12913968    -0.45590673  -130.29596877     0.00007083    -0.01247664  0.12D-03  0.50D-03  2  2     2.48     0.88
   3      1.13568550    -0.45627934  -130.29634138    -0.00037261    -0.00335842  0.44D-04  0.57D-04  3  3     3.30     0.89
   4      1.13854714    -0.45631066  -130.29637271    -0.00003132    -0.00094327  0.44D-05  0.97D-05  4  4     4.11     0.89
   5      1.13962678    -0.45634294  -130.29640498    -0.00003228    -0.00021978  0.13D-05  0.18D-05  5  5     4.90     0.89
   6      1.14002644    -0.45632728  -130.29638933     0.00001565    -0.00006599  0.12D-06  0.44D-06  6  6     5.69     0.89
   7      1.14010131    -0.45632878  -130.29639082    -0.00000149     0.00000835  0.17D-07  0.95D-07  6  1     6.51     0.90
   8      1.14013648    -0.45632839  -130.29639043     0.00000039    -0.00000465  0.51D-08  0.15D-07  6  2     7.28     0.90
   9      1.14014219    -0.45632825  -130.29639030     0.00000013     0.00000085  0.22D-08  0.17D-08  6  3     8.08     0.90
  10      1.14014252    -0.45632859  -130.29639064    -0.00000034    -0.00000019  0.51D-09  0.26D-09  6  4     8.91     0.90
  11      1.14014097    -0.45632873  -130.29639078    -0.00000014     0.00000035  0.12D-09  0.26D-10  6  5     9.76     0.90
  12      1.14013979    -0.45632888  -130.29639093    -0.00000015     0.00000048  0.16D-10  0.77D-11  6  6    10.58     0.90
  13      1.14013912    -0.45632890  -130.29639095    -0.00000002     0.00000013  0.62D-11  0.14D-11  6  1    11.40     0.90
  14      1.14013860    -0.45632893  -130.29639098    -0.00000003     0.00000012  0.57D-12  0.45D-12  6  3    12.19     0.90
  15      1.14013844    -0.45632893  -130.29639098    -0.00000000     0.00000001  0.14D-12  0.32D-13  6  2    12.99     0.90
  16      1.14013839    -0.45632893  -130.29639098    -0.00000000     0.00000001  0.33D-13  0.77D-14  6  4    13.81     0.90
  17      1.14013837    -0.45632893  -130.29639098    -0.00000000     0.00000001  0.41D-14  0.12D-14  6  5    14.62     0.90
  18      1.14013837    -0.45632893  -130.29639098     0.00000000     0.00000000  0.46D-15  0.32D-15  6  6    15.43     0.90
  19      1.14013837    -0.45632893  -130.29639098     0.00000000    -0.00000000  0.61D-16  0.39D-16  6  1    16.23     0.90
  20      1.14013837    -0.45632893  -130.29639098     0.00000000    -0.00000000  0.33D-17  0.88D-17  6  3    17.07     0.90
  21      1.14013837    -0.45632893  -130.29639098     0.00000000    -0.00000000  0.52D-18  0.18D-17  6  4    17.86     0.90
  22      1.14013837    -0.45632893  -130.29639098     0.00000000    -0.00000000  0.16D-19  0.64D-18  6  2    18.64     0.90
  23      1.14013837    -0.45632893  -130.29639098    -0.00000000     0.00000000  0.47D-19  0.14D-18  6  5    19.42     0.90
  24      1.14013837    -0.45632893  -130.29639098    -0.00000000     0.00000000  0.49D-20  0.13D-19  6  1    20.24     0.90
  25      1.14013837    -0.45632893  -130.29639098     0.00000000    -0.00000000  0.20D-20  0.90D-21  6  6    21.06     0.90

 Norm of t1 vector:      0.07724171      S-energy:     0.00000000      T1 diagnostic:  0.01576690
                                                                       D1 diagnostic:  0.04286530

 Doubles amplitudes (print threshold =  0.500E-01):

         I         J         SYM. A    SYM. B    A         B      T(IJ, AB)

         6         6         2         2         1         1     -0.13476932


 Total CPU time for triples:      8.34 sec


 RESULTS
 =======

  Reference energy                   -129.840062045785
  CCSD singlet pair energy             -0.313368868984
  CCSD triplet pair energy             -0.142960064773
  CCSD correlation energy              -0.456328933756

  Triples (T) contribution             -0.021156553347
  Total correlation energy             -0.477485487103

  CCSD total energy                  -130.296390979541
  CCSD[T] energy                     -130.318641182235
  CCSD-T energy                      -130.317134091883
 !CCSD(T) total energy               -130.317547532888

 Timing summary (sec):

 STEP                 CPU(USER)    SYS     CPU(TOT)    WALL
 Transformation          0.87      0.16      1.03      1.05
 CCSD iterations        20.19      2.34     22.53     22.54
 Triples                 8.34      0.26      8.60      8.60

 Program statistics:

 Available memory in ccsd:               994999756
 Min. memory needed in ccsd:                887758
 Max. memory used in ccsd:                 1088212
 Max. memory used in cckext:               1535578 (25 integral passes)



 **********************************************************************************************************************************
 DATASETS  * FILE   NREC   LENGTH (MB)   RECORD NAMES
              1      20      479.30       500      610      700      900      950      970     1000      129      960     1100   
                                          VAR    BASINP    GEOM    SYMINP    ZMAT    AOBASIS   BASIS     P2S    ABASIS      S 
                                         1400     1410     1200     1210     1080     1600     1650     1300     1700     1380   
                                           T        V       H0       H01     AOSYM     SMH    MOLCAS    ERIS     OPER     JKOP   

              2       4        3.13       700     1000      520     2100   
                                         GEOM     BASIS   MCVARS     RHF  

 PROGRAMS   *        TOTAL   CCSD(T)        HF       INT
 CPU TIMES  *        40.38     29.43      5.45      5.40
 REAL TIME  *        46.44 SEC
 DISK USED  *         1.33 GB      
 **********************************************************************************************************************************

 CCSD(T)/USERDEF energy=   -130.317547532888

        CCSD(T)         HF-SCF  
   -130.31754753   -129.84006205
 **********************************************************************************************************************************
 Molpro calculation terminated
 Variable memory released
