
 Primary working directories    : /tmp/r2666/235317.maple
 Secondary working directories  : /tmp/r2666/235317.maple
 Wavefunction directory         : /ddn/home4/r2666/wfu/
 Main file repository           : /tmp/r2666/235317.maple/

 SHA1      : d5ffa45e93fdbca01ffc919aa182cfdae0147319
 NAME      : 2015.1.35
 ARCHNAME  : linux/x86_64
 FC        : /opt/intel/composer_xe_2015.1.133/bin/intel64/ifort
 BLASLIB   : -Wl,-_start-group /opt/intel/mkl/lib/intel64/libmkl_intel_ilp64.a /opt/intel/mkl/lib/intel64/libmkl_intel_thread.a /opt/intel/mkl/lib/intel64/libmkl_core.a -Wl,-_end-group
 id        : olemiss

 Nodes     nprocs
 cn030        1

 Using customized tuning parameters: mindgm=1; mindgv=20; mindgc=4; mindgr=1; noblas=0; minvec=7
 default implementation of scratch files=df  

 ***,hno CCSD(T)/TZ-F12 QFF
 memory, 995, m;
 gthresh,energy=1.d-12,zero=1.d-22,oneint=1.d-22,twoint=1.d-22;
 gthresh,optgrad=1.d-8,optstep=1.d-8;
 nocompress;
 geomtyp=xyz
 bohr
 geometry={
 3
         43        43
 N        0.0000000000       -0.1534578448       -1.1543542905
 H        0.0000000000        1.6642598664       -1.9358853525
 O        0.0000000000        0.0309657684        1.1396500519
 }
 
 basis={
 default=aug-cc-pvtz
 s,C,8236.0,1235.0,280.8, 79.27,25.59, 8.997,3.319
 s,C,0.9059,0.3643,0.1285000
 p,C,56.0,18.71,4.133,0.2827,0.3827,0.1209
 d,C,30.0,10.0,3.3,1.097,0.318
 f,C,7.0,2.3,0.7610
 s,N,11420.0,1712.0,389.3,110.0,35.57,12.54,4.644
 s,N,1.293,0.5118,0.1787
 p,N,79.89,26.63,5.948,1.742,0.555,0.1725
 d,N,45.0,15.0,5.0,1.654,0.469
 f,N,9.9,3.3,1.093
 s,O,15330.0,2299.0,522.4,147.3,47.55,16.76,6.207
 s,O,1.752,0.6882,0.2384
 p,O,103.5,34.46,7.749,2.28,0.7156,0.214
 d,O,63.0,21.0,7.0,2.314,0.645
 f,O,12.9,4.3,1.428
 s,mg,164900.0,24710.0,5628.0,1596.0,521.0;
 s,mg,188.0,73.01,29.90,12.54,4.306,1.826;
 s,mg,0.7417,0.0761,0.145,0.033,0.0129;
 p,mg,950.70,316.90,74.86,23.72,8.669,3.363;
 p,mg,1.310,0.4911,0.2364,0.08733,0.03237,0.00745;
 d,mg,1.601,0.686,0.126,0.294,0.0468;
 f,mg,1.372,0.588,0.094,0.252;
 }
   {hf,maxit=500;accu,20;}
 {ccsd(t),nocheck,maxit=250;orbital,IGNORE_ERROR;}

 Variables initialized (889), CPU time= 0.00 sec
 Commands  initialized (702), CPU time= 0.01 sec, 572 directives.
 Default parameters read. Elapsed time= 0.05 sec

 Checking input...
 Passed
1


                                         ***  PROGRAM SYSTEM MOLPRO  ***
                                       Copyright, TTI GmbH Stuttgart, 2015
                                    Version 2015.1 linked Jul  9 2018 13:16:40


 **********************************************************************************************************************************
 LABEL *   hno CCSD(T)/TZ-F12 QFF                                                        
  64 bit serial version                                                                  DATE: 08-Feb-20          TIME: 17:57:31  
 **********************************************************************************************************************************

 SHA1:             d5ffa45e93fdbca01ffc919aa182cfdae0147319
 **********************************************************************************************************************************

 THRESHOLDS:

 ZERO    =  1.00D-22  ONEINT  =  1.00D-22  TWOINT  =  1.00D-22  PREFAC  =  1.00D-14  LOCALI  =  1.00D-09  EORDER  =  1.00D-04
 ENERGY  =  1.00D-12  ETEST   =  0.00D+00  EDENS   =  0.00D+00  THRDEDEF=  1.00D-06  GRADIENT=  1.00D-02  STEP    =  1.00D-03
 ORBITAL =  1.00D-05  CIVEC   =  1.00D-05  COEFF   =  1.00D-04  PRINTCI =  5.00D-02  PUNCHCI =  9.90D+01  OPTGRAD =  3.00D-04
 OPTENERG=  1.00D-06  OPTSTEP =  3.00D-04  THRGRAD =  1.00D-10  COMPRESS=  1.00D-11  VARMIN  =  1.00D-07  VARMAX  =  1.00D-03
 THRDOUB =  0.00D+00  THRDIV  =  1.00D-05  THRRED  =  1.00D-07  THRPSP  =  1.00D+00  THRDC   =  1.00D-10  THRCS   =  1.00D-10
 THRNRM  =  1.00D-08  THREQ   =  0.00D+00  THRDE   =  1.00D+00  THRREF  =  1.00D-05  SPARFAC =  1.00D+00  THRDLP  =  1.00D-07
 THRDIA  =  1.00D-10  THRDLS  =  1.00D-07  THRGPS  =  0.00D+00  THRKEX  =  0.00D+00  THRDIS  =  2.00D-01  THRVAR  =  1.00D-10
 THRLOC  =  1.00D-06  THRGAP  =  1.00D-06  THRLOCT = -1.00D+00  THRGAPT = -1.00D+00  THRORB  =  1.00D-06  THRMLTP =  0.00D+00
 THRCPQCI=  1.00D-10  KEXTA   =  0.00D+00  THRCOARS=  0.00D+00  SYMTOL  =  1.00D-06  GRADTOL =  1.00D-06  THROVL  =  1.00D-08
 THRORTH =  1.00D-08  GRID    =  1.00D-06  GRIDMAX =  1.00D-03  DTMAX   =  0.00D+00  THROCCDE=  1.00D-01  THROCCDE=  1.00D-01



 THRESHOLDS:

 ZERO    =  1.00D-22  ONEINT  =  1.00D-22  TWOINT  =  1.00D-22  PREFAC  =  1.00D-14  LOCALI  =  1.00D-09  EORDER  =  1.00D-04
 ENERGY  =  1.00D-12  ETEST   =  0.00D+00  EDENS   =  0.00D+00  THRDEDEF=  1.00D-06  GRADIENT=  1.00D-02  STEP    =  1.00D-03
 ORBITAL =  1.00D-05  CIVEC   =  1.00D-05  COEFF   =  1.00D-04  PRINTCI =  5.00D-02  PUNCHCI =  9.90D+01  OPTGRAD =  1.00D-08
 OPTENERG=  1.00D-06  OPTSTEP =  1.00D-08  THRGRAD =  1.00D-10  COMPRESS=  1.00D-11  VARMIN  =  1.00D-07  VARMAX  =  1.00D-03
 THRDOUB =  0.00D+00  THRDIV  =  1.00D-05  THRRED  =  1.00D-07  THRPSP  =  1.00D+00  THRDC   =  1.00D-10  THRCS   =  1.00D-10
 THRNRM  =  1.00D-08  THREQ   =  0.00D+00  THRDE   =  1.00D+00  THRREF  =  1.00D-05  SPARFAC =  1.00D+00  THRDLP  =  1.00D-07
 THRDIA  =  1.00D-10  THRDLS  =  1.00D-07  THRGPS  =  0.00D+00  THRKEX  =  0.00D+00  THRDIS  =  2.00D-01  THRVAR  =  1.00D-10
 THRLOC  =  1.00D-06  THRGAP  =  1.00D-06  THRLOCT = -1.00D+00  THRGAPT = -1.00D+00  THRORB  =  1.00D-06  THRMLTP =  0.00D+00
 THRCPQCI=  1.00D-10  KEXTA   =  0.00D+00  THRCOARS=  0.00D+00  SYMTOL  =  1.00D-06  GRADTOL =  1.00D-06  THROVL  =  1.00D-08
 THRORTH =  1.00D-08  GRID    =  1.00D-06  GRIDMAX =  1.00D-03  DTMAX   =  0.00D+00  THROCCDE=  1.00D-01  THROCCDE=  1.00D-01



 Input parameters for SORTINT:

 COMPRESS =    0.000000
 C_FINAL  =    1.000000
 DEBUG    =   -1.000000
 C_SORT1  =    0.000000
 C_SEWARD =    0.000000
 THRESH   =    0.000000
 IO       =  molpro                                                          
 SPRI     =    0.000000
 SETTING GEOMTYP        =    XYZ
 ZUNIT=BOHR
 

 Variable memory set to  995000000 words,  buffer space   230000 words

 SETTING BASIS          =    USERDEF


 Recomputing integrals since basis changed


 Using spherical harmonics

 Library entry H      S aug-cc-pVTZ          selected for orbital group  2
 Library entry H      P aug-cc-pVTZ          selected for orbital group  2
 Library entry H      D aug-cc-pVTZ          selected for orbital group  2


 PROGRAM * SEWARD (Integral evaluation for generally contracted gaussian basis sets)     Author: Roland Lindh, 1990

 Geometry written to block  1 of record 700


 Point group  Cs  



 ATOMIC COORDINATES

 NR  ATOM    CHARGE       X              Y              Z

   1  N       7.00    0.000000000   -0.153457845   -1.154354290
   2  H       1.00    0.000000000    1.664259866   -1.935885352
   3  O       8.00    0.000000000    0.030965768    1.139650052

 Bond lengths in Bohr (Angstrom)

 1-2  1.978607712  1-3  2.301405656
     ( 1.047034111)     ( 1.217851426)

 Bond angles

  2-1-3  108.66903832

 NUCLEAR CHARGE:                   16
 NUMBER OF PRIMITIVE AOS:         203
 NUMBER OF SYMMETRY AOS:          173
 NUMBER OF CONTRACTIONS:          171   ( 114A'  +  57A"  )
 NUMBER OF CORE ORBITALS:           2   (   2A'  +   0A"  )
 NUMBER OF VALENCE ORBITALS:        9   (   7A'  +   2A"  )


 NUCLEAR REPULSION ENERGY   30.16811375


 Eigenvalues of metric

         1 0.105E-02 0.257E-02 0.336E-02 0.638E-02 0.968E-02 0.137E-01 0.145E-01 0.230E-01
         2 0.358E-01 0.545E-01 0.700E-01 0.943E-01 0.131E+00 0.134E+00 0.140E+00 0.142E+00


 Contracted 2-electron integrals neglected if value below      1.0D-22

       46095079. INTEGRALS WRITTEN OUT IN   11257 BLOCKS ON RECORD 1290 OF FILE 1


 NUMBER OF SORTED TWO-ELECTRON INTEGRALS:   55360566.     BUFFER LENGTH:  32768
 NUMBER OF SEGMENTS:   4  SEGMENT LENGTH:   15997996      RECORD LENGTH: 524288

 Memory used in sort:      16.56 MW

 SORT1 READ    46095079. AND WROTE    46531993. INTEGRALS IN    135 RECORDS. CPU TIME:     1.31 SEC, REAL TIME:     1.65 SEC
 SORT2 READ    46531993. AND WROTE    55360566. INTEGRALS IN      4 RECORDS. CPU TIME:     0.80 SEC, REAL TIME:     1.06 SEC

 FILE SIZES:   FILE 1:   758.5 MBYTE,  FILE 4:   566.3 MBYTE,   TOTAL:   1324.7 MBYTE

 OPERATOR DM      FOR CENTER  0  COORDINATES:    0.000000    0.000000    0.000000


 **********************************************************************************************************************************
 DATASETS  * FILE   NREC   LENGTH (MB)   RECORD NAMES
              1      19      420.90       500      610      700      900      950      970     1000      129      960     1100   
                                          VAR    BASINP    GEOM    SYMINP    ZMAT    AOBASIS   BASIS     P2S    ABASIS      S 
                                         1400     1410     1200     1210     1080     1600     1650     1300     1700   
                                           T        V       H0       H01     AOSYM     SMH    MOLCAS    ERIS     OPER   

 PROGRAMS   *        TOTAL       INT
 CPU TIMES  *         5.80      5.72
 REAL TIME  *         7.44 SEC
 DISK USED  *         1.33 GB      
 **********************************************************************************************************************************


 PROGRAM * RHF-SCF (CLOSED SHELL)       Authors: W. Meyer, H.-J. Werner


 NUMBER OF ELECTRONS:       8+    8-
 CONVERGENCE THRESHOLDS:    1.00E-10 (Density)    1.00E-13 (Energy)
 MAX. NUMBER OF ITERATIONS:      500
 INTERPOLATION TYPE:            DIIS
 INTERPOLATION STEPS:              2 (START)      1 (STEP)
 LEVEL SHIFTS:                  0.00 (CLOSED)  0.00 (OPEN) 



 Orbital guess generated from atomic densities. Full valence occupancy:    9   2

 Molecular orbital dump at record        2100.2

 Initial occupancy:   7   1

 ITERATION    DDIFF          GRAD             ENERGY        2-EL.EN.            DIPOLE MOMENTS         DIIS   ORB.
    1      0.000D+00      0.000D+00      -129.78671952    153.703707    0.00000    0.58152   -1.04588    0    start
    2      0.000D+00      0.886D-02      -129.81327633    154.854206    0.00000    0.60395   -0.19438    1    diag
    3      0.371D-02      0.686D-02      -129.83748132    154.997725    0.00000    0.55484   -0.60025    2    diag
    4      0.145D-02      0.105D-02      -129.83828558    154.716490    0.00000    0.56250   -0.53600    3    diag
    5      0.336D-03      0.341D-03      -129.83840845    154.805150    0.00000    0.56850   -0.53824    4    diag
    6      0.154D-03      0.996D-04      -129.83842846    154.789009    0.00000    0.56902   -0.53396    5    diag
    7      0.610D-04      0.505D-04      -129.83843454    154.791418    0.00000    0.57032   -0.53132    6    diag
    8      0.417D-04      0.178D-04      -129.83843525    154.790552    0.00000    0.57037   -0.53034    7    diag
    9      0.152D-04      0.336D-05      -129.83843528    154.790431    0.00000    0.57031   -0.53014    8    diag
   10      0.315D-05      0.752D-06      -129.83843528    154.790417    0.00000    0.57028   -0.53011    9    orth
   11      0.901D-06      0.148D-06      -129.83843528    154.790413    0.00000    0.57027   -0.53011    9    diag
   12      0.209D-06      0.314D-07      -129.83843528    154.790412    0.00000    0.57027   -0.53011    9    diag
   13      0.509D-07      0.848D-08      -129.83843528    154.790412    0.00000    0.57027   -0.53011    9    diag
   14      0.119D-07      0.149D-08      -129.83843528    154.790412    0.00000    0.57027   -0.53011    9    diag
   15      0.140D-08      0.393D-09      -129.83843528    154.790412    0.00000    0.57027   -0.53011    9    diag
   16      0.335D-09      0.112D-09      -129.83843528    154.790412    0.00000    0.57027   -0.53011    9    diag
   17      0.631D-10      0.291D-10      -129.83843528    154.790412    0.00000    0.57027   -0.53011    9    diag
   18      0.176D-10      0.929D-11      -129.83843528    154.790412    0.00000    0.57027   -0.53011    9    diag
   19      0.622D-11      0.201D-11      -129.83843528    154.790412    0.00000    0.57027   -0.53011    9    fixocc
   20      0.139D-11      0.337D-12      -129.83843528    154.790412    0.00000    0.57027   -0.53011    0    orth

 Final occupancy:   7   1

 !RHF STATE 1.1 Energy               -129.838435280777
 Nuclear energy                        30.16811375
 One-electron energy                 -237.40175492
 Two-electron energy                   77.39520589
 Virial quotient                       -1.00187556
 !RHF STATE 1.1 Dipole moment           0.00000000     0.57026536    -0.53010632
 Dipole moment /Debye                   0.00000000     1.44937503    -1.34730763

 Orbital energies:

         1.1          2.1          3.1          4.1          5.1          6.1          7.1          8.1          9.1
    -20.652223   -15.711512    -1.519835    -0.996770    -0.742736    -0.661473    -0.431693     0.039533     0.192707

         1.2          2.2          3.2
     -0.589428     0.075518     0.239302

 HOMO      7.1    -0.431693 =     -11.7470eV
 LUMO      8.1     0.039533 =       1.0758eV
 LUMO-HOMO         0.471226 =      12.8227eV


 **********************************************************************************************************************************
 DATASETS  * FILE   NREC   LENGTH (MB)   RECORD NAMES
              1      19      420.90       500      610      700      900      950      970     1000      129      960     1100   
                                          VAR    BASINP    GEOM    SYMINP    ZMAT    AOBASIS   BASIS     P2S    ABASIS      S 
                                         1400     1410     1200     1210     1080     1600     1650     1300     1700   
                                           T        V       H0       H01     AOSYM     SMH    MOLCAS    ERIS     OPER   

              2       4        3.13       700     1000      520     2100   
                                         GEOM     BASIS   MCVARS     RHF  

 PROGRAMS   *        TOTAL        HF       INT
 CPU TIMES  *        11.71      5.91      5.72
 REAL TIME  *        14.83 SEC
 DISK USED  *         1.33 GB      
 **********************************************************************************************************************************


 PROGRAM * CCSD (Closed-shell coupled cluster)     Authors: C. Hampel, H.-J. Werner, 1991, M. Deegan, P.J. Knowles, 1992


 Convergence thresholds:  THRVAR = 1.00D-08  THRDEN = 1.00D-12

 CCSD(T)     terms to be evaluated (factor= 1.000)


 Number of core orbitals:           2 (   2   0 )
 Number of closed-shell orbitals:   6 (   5   1 )
 Number of external orbitals:     163 ( 107  56 )

 Molecular orbitals read from record     2100.2  Type=RHF/CANONICAL (state 1.1)

 Number of N-1 electron functions:               6
 Number of N-2 electron functions:              21
 Number of singly external CSFs:               591
 Number of doubly external CSFs:            250014
 Total number of CSFs:                      250606

 Length of J-op  integral file:               0.00 MB
 Length of K-op  integral file:               1.15 MB
 Length of 3-ext integral record:             0.00 MB

 Memory could be reduced to 19.93 Mwords without degradation in triples

 Integral transformation finished. Total CPU:   0.91 sec, npass=  1  Memory used:   5.10 MW

 Reference energy:                   -129.83843528

 MP2 singlet pair energy:              -0.28776632
 MP2 triplet pair energy:              -0.16779326
 MP2 correlation energy:               -0.45555958
 MP2 total energy:                   -130.29399486

 SCS-MP2 correlation energy:           -0.44972428   (PS=  1.200000  PT=  0.333333)
 SCS-MP2 total energy:               -130.28815956

 ITER.      SQ.NORM     CORR.ENERGY   TOTAL ENERGY   ENERGY CHANGE        DEN1      VAR(S)    VAR(P)  DIIS     TIME  TIME/IT
   1      1.11971259    -0.45733045  -130.29576573    -0.00177087     0.01538908  0.33D-02  0.32D-02  1  1     1.72     0.88
   2      1.13045884    -0.45716537  -130.29560065     0.00016508    -0.01274121  0.13D-03  0.51D-03  2  2     2.52     0.90
   3      1.13719756    -0.45754933  -130.29598461    -0.00038395    -0.00342060  0.46D-04  0.60D-04  3  3     3.34     0.91
   4      1.14018023    -0.45758284  -130.29601812    -0.00003351    -0.00097389  0.47D-05  0.10D-04  4  4     4.18     0.92
   5      1.14132291    -0.45761697  -130.29605225    -0.00003413    -0.00023307  0.14D-05  0.18D-05  5  5     5.02     0.92
   6      1.14173790    -0.45760020  -130.29603548     0.00001678    -0.00006889  0.12D-06  0.44D-06  6  6     5.86     0.92
   7      1.14181089    -0.45760188  -130.29603716    -0.00000169     0.00000920  0.16D-07  0.98D-07  6  1     6.68     0.93
   8      1.14184633    -0.45760137  -130.29603665     0.00000052    -0.00000492  0.50D-08  0.16D-07  6  2     7.54     0.93
   9      1.14185165    -0.45760124  -130.29603652     0.00000013     0.00000114  0.23D-08  0.18D-08  6  3     8.36     0.93
  10      1.14185214    -0.45760158  -130.29603686    -0.00000034    -0.00000031  0.53D-09  0.29D-09  6  4     9.22     0.93
  11      1.14185058    -0.45760172  -130.29603700    -0.00000015     0.00000035  0.13D-09  0.29D-10  6  5    10.06     0.93
  12      1.14184939    -0.45760188  -130.29603716    -0.00000016     0.00000049  0.16D-10  0.81D-11  6  6    10.89     0.93
  13      1.14184871    -0.45760190  -130.29603718    -0.00000002     0.00000013  0.60D-11  0.15D-11  6  1    11.73     0.93
  14      1.14184817    -0.45760193  -130.29603721    -0.00000003     0.00000012  0.55D-12  0.48D-12  6  3    12.58     0.93
  15      1.14184801    -0.45760193  -130.29603721     0.00000000     0.00000001  0.14D-12  0.34D-13  6  2    13.47     0.93
  16      1.14184795    -0.45760193  -130.29603721    -0.00000000     0.00000001  0.33D-13  0.80D-14  6  4    14.33     0.93
  17      1.14184793    -0.45760193  -130.29603721    -0.00000000     0.00000001  0.45D-14  0.12D-14  6  5    15.18     0.93
  18      1.14184793    -0.45760193  -130.29603721     0.00000000     0.00000000  0.53D-15  0.35D-15  6  6    16.02     0.93
  19      1.14184793    -0.45760193  -130.29603721     0.00000000    -0.00000000  0.72D-16  0.48D-16  6  1    16.86     0.93
  20      1.14184793    -0.45760193  -130.29603721     0.00000000    -0.00000000  0.36D-17  0.12D-16  6  3    17.71     0.93
  21      1.14184793    -0.45760193  -130.29603721     0.00000000    -0.00000000  0.58D-18  0.25D-17  6  4    18.55     0.93
  22      1.14184793    -0.45760193  -130.29603721     0.00000000    -0.00000000  0.38D-19  0.90D-18  6  2    19.39     0.93
  23      1.14184793    -0.45760193  -130.29603721    -0.00000000     0.00000000  0.81D-19  0.18D-18  6  5    20.26     0.93
  24      1.14184793    -0.45760193  -130.29603721    -0.00000000     0.00000000  0.52D-20  0.17D-19  6  1    21.11     0.93
  25      1.14184793    -0.45760193  -130.29603721     0.00000000    -0.00000000  0.25D-20  0.12D-20  6  6    21.95     0.93

 Norm of t1 vector:      0.07869154      S-energy:     0.00000000      T1 diagnostic:  0.01606284
                                                                       D1 diagnostic:  0.04431403

 Doubles amplitudes (print threshold =  0.500E-01):

         I         J         SYM. A    SYM. B    A         B      T(IJ, AB)

         6         6         2         2         1         1     -0.13839459


 Total CPU time for triples:      9.20 sec


 RESULTS
 =======

  Reference energy                   -129.838435280777
  CCSD singlet pair energy             -0.314486185970
  CCSD triplet pair energy             -0.143115746664
  CCSD correlation energy              -0.457601932634

  Triples (T) contribution             -0.021476387518
  Total correlation energy             -0.479078320152

  CCSD total energy                  -130.296037213411
  CCSD[T] energy                     -130.318650809517
  CCSD-T energy                      -130.317089854250
 !CCSD(T) total energy               -130.317513600929

 Timing summary (sec):

 STEP                 CPU(USER)    SYS     CPU(TOT)    WALL
 Transformation          0.92      0.17      1.09      1.08
 CCSD iterations        21.04      2.33     23.37     23.38
 Triples                 9.20      0.27      9.47      9.47

 Program statistics:

 Available memory in ccsd:               994999756
 Min. memory needed in ccsd:                887758
 Max. memory used in ccsd:                 1088212
 Max. memory used in cckext:               1535578 (25 integral passes)



 **********************************************************************************************************************************
 DATASETS  * FILE   NREC   LENGTH (MB)   RECORD NAMES
              1      20      478.85       500      610      700      900      950      970     1000      129      960     1100   
                                          VAR    BASINP    GEOM    SYMINP    ZMAT    AOBASIS   BASIS     P2S    ABASIS      S 
                                         1400     1410     1200     1210     1080     1600     1650     1300     1700     1380   
                                           T        V       H0       H01     AOSYM     SMH    MOLCAS    ERIS     OPER     JKOP   

              2       4        3.13       700     1000      520     2100   
                                         GEOM     BASIS   MCVARS     RHF  

 PROGRAMS   *        TOTAL   CCSD(T)        HF       INT
 CPU TIMES  *        42.89     31.17      5.91      5.72
 REAL TIME  *        48.80 SEC
 DISK USED  *         1.33 GB      
 **********************************************************************************************************************************

 CCSD(T)/USERDEF energy=   -130.317513600929

        CCSD(T)         HF-SCF  
   -130.31751360   -129.83843528
 **********************************************************************************************************************************
 Molpro calculation terminated
 Variable memory released
