
 Primary working directories    : /tmp/r2666/235343.maple
 Secondary working directories  : /tmp/r2666/235343.maple
 Wavefunction directory         : /ddn/home4/r2666/wfu/
 Main file repository           : /tmp/r2666/235343.maple/

 SHA1      : d5ffa45e93fdbca01ffc919aa182cfdae0147319
 NAME      : 2015.1.35
 ARCHNAME  : linux/x86_64
 FC        : /opt/intel/composer_xe_2015.1.133/bin/intel64/ifort
 BLASLIB   : -Wl,-_start-group /opt/intel/mkl/lib/intel64/libmkl_intel_ilp64.a /opt/intel/mkl/lib/intel64/libmkl_intel_thread.a /opt/intel/mkl/lib/intel64/libmkl_core.a -Wl,-_end-group
 id        : olemiss

 Nodes     nprocs
 cn091        1

 Using customized tuning parameters: mindgm=1; mindgv=20; mindgc=4; mindgr=1; noblas=0; minvec=7
 default implementation of scratch files=df  

 ***,hno CCSD(T)/TZ-F12 QFF
 memory, 995, m;
 gthresh,energy=1.d-12,zero=1.d-22,oneint=1.d-22,twoint=1.d-22;
 gthresh,optgrad=1.d-8,optstep=1.d-8;
 nocompress;
 geomtyp=xyz
 bohr
 geometry={
 3
         69        69
 N        0.0000000000       -0.1726111757       -1.1705125915
 H        0.0000000000        1.6688580597       -1.9197515882
 O        0.0000000000        0.0455209060        1.1396745887
 }
 
 basis={
 default=aug-cc-pvtz
 s,C,8236.0,1235.0,280.8, 79.27,25.59, 8.997,3.319
 s,C,0.9059,0.3643,0.1285000
 p,C,56.0,18.71,4.133,0.2827,0.3827,0.1209
 d,C,30.0,10.0,3.3,1.097,0.318
 f,C,7.0,2.3,0.7610
 s,N,11420.0,1712.0,389.3,110.0,35.57,12.54,4.644
 s,N,1.293,0.5118,0.1787
 p,N,79.89,26.63,5.948,1.742,0.555,0.1725
 d,N,45.0,15.0,5.0,1.654,0.469
 f,N,9.9,3.3,1.093
 s,O,15330.0,2299.0,522.4,147.3,47.55,16.76,6.207
 s,O,1.752,0.6882,0.2384
 p,O,103.5,34.46,7.749,2.28,0.7156,0.214
 d,O,63.0,21.0,7.0,2.314,0.645
 f,O,12.9,4.3,1.428
 s,mg,164900.0,24710.0,5628.0,1596.0,521.0;
 s,mg,188.0,73.01,29.90,12.54,4.306,1.826;
 s,mg,0.7417,0.0761,0.145,0.033,0.0129;
 p,mg,950.70,316.90,74.86,23.72,8.669,3.363;
 p,mg,1.310,0.4911,0.2364,0.08733,0.03237,0.00745;
 d,mg,1.601,0.686,0.126,0.294,0.0468;
 f,mg,1.372,0.588,0.094,0.252;
 }
   {hf,maxit=500;accu,20;}
 {ccsd(t),nocheck,maxit=250;orbital,IGNORE_ERROR;}

 Variables initialized (889), CPU time= 0.00 sec
 Commands  initialized (702), CPU time= 0.01 sec, 572 directives.
 Default parameters read. Elapsed time= 0.06 sec

 Checking input...
 Passed
1


                                         ***  PROGRAM SYSTEM MOLPRO  ***
                                       Copyright, TTI GmbH Stuttgart, 2015
                                    Version 2015.1 linked Jul  9 2018 13:16:40


 **********************************************************************************************************************************
 LABEL *   hno CCSD(T)/TZ-F12 QFF                                                        
  64 bit serial version                                                                  DATE: 08-Feb-20          TIME: 17:58:12  
 **********************************************************************************************************************************

 SHA1:             d5ffa45e93fdbca01ffc919aa182cfdae0147319
 **********************************************************************************************************************************

 THRESHOLDS:

 ZERO    =  1.00D-22  ONEINT  =  1.00D-22  TWOINT  =  1.00D-22  PREFAC  =  1.00D-14  LOCALI  =  1.00D-09  EORDER  =  1.00D-04
 ENERGY  =  1.00D-12  ETEST   =  0.00D+00  EDENS   =  0.00D+00  THRDEDEF=  1.00D-06  GRADIENT=  1.00D-02  STEP    =  1.00D-03
 ORBITAL =  1.00D-05  CIVEC   =  1.00D-05  COEFF   =  1.00D-04  PRINTCI =  5.00D-02  PUNCHCI =  9.90D+01  OPTGRAD =  3.00D-04
 OPTENERG=  1.00D-06  OPTSTEP =  3.00D-04  THRGRAD =  1.00D-10  COMPRESS=  1.00D-11  VARMIN  =  1.00D-07  VARMAX  =  1.00D-03
 THRDOUB =  0.00D+00  THRDIV  =  1.00D-05  THRRED  =  1.00D-07  THRPSP  =  1.00D+00  THRDC   =  1.00D-10  THRCS   =  1.00D-10
 THRNRM  =  1.00D-08  THREQ   =  0.00D+00  THRDE   =  1.00D+00  THRREF  =  1.00D-05  SPARFAC =  1.00D+00  THRDLP  =  1.00D-07
 THRDIA  =  1.00D-10  THRDLS  =  1.00D-07  THRGPS  =  0.00D+00  THRKEX  =  0.00D+00  THRDIS  =  2.00D-01  THRVAR  =  1.00D-10
 THRLOC  =  1.00D-06  THRGAP  =  1.00D-06  THRLOCT = -1.00D+00  THRGAPT = -1.00D+00  THRORB  =  1.00D-06  THRMLTP =  0.00D+00
 THRCPQCI=  1.00D-10  KEXTA   =  0.00D+00  THRCOARS=  0.00D+00  SYMTOL  =  1.00D-06  GRADTOL =  1.00D-06  THROVL  =  1.00D-08
 THRORTH =  1.00D-08  GRID    =  1.00D-06  GRIDMAX =  1.00D-03  DTMAX   =  0.00D+00  THROCCDE=  1.00D-01  THROCCDE=  1.00D-01



 THRESHOLDS:

 ZERO    =  1.00D-22  ONEINT  =  1.00D-22  TWOINT  =  1.00D-22  PREFAC  =  1.00D-14  LOCALI  =  1.00D-09  EORDER  =  1.00D-04
 ENERGY  =  1.00D-12  ETEST   =  0.00D+00  EDENS   =  0.00D+00  THRDEDEF=  1.00D-06  GRADIENT=  1.00D-02  STEP    =  1.00D-03
 ORBITAL =  1.00D-05  CIVEC   =  1.00D-05  COEFF   =  1.00D-04  PRINTCI =  5.00D-02  PUNCHCI =  9.90D+01  OPTGRAD =  1.00D-08
 OPTENERG=  1.00D-06  OPTSTEP =  1.00D-08  THRGRAD =  1.00D-10  COMPRESS=  1.00D-11  VARMIN  =  1.00D-07  VARMAX  =  1.00D-03
 THRDOUB =  0.00D+00  THRDIV  =  1.00D-05  THRRED  =  1.00D-07  THRPSP  =  1.00D+00  THRDC   =  1.00D-10  THRCS   =  1.00D-10
 THRNRM  =  1.00D-08  THREQ   =  0.00D+00  THRDE   =  1.00D+00  THRREF  =  1.00D-05  SPARFAC =  1.00D+00  THRDLP  =  1.00D-07
 THRDIA  =  1.00D-10  THRDLS  =  1.00D-07  THRGPS  =  0.00D+00  THRKEX  =  0.00D+00  THRDIS  =  2.00D-01  THRVAR  =  1.00D-10
 THRLOC  =  1.00D-06  THRGAP  =  1.00D-06  THRLOCT = -1.00D+00  THRGAPT = -1.00D+00  THRORB  =  1.00D-06  THRMLTP =  0.00D+00
 THRCPQCI=  1.00D-10  KEXTA   =  0.00D+00  THRCOARS=  0.00D+00  SYMTOL  =  1.00D-06  GRADTOL =  1.00D-06  THROVL  =  1.00D-08
 THRORTH =  1.00D-08  GRID    =  1.00D-06  GRIDMAX =  1.00D-03  DTMAX   =  0.00D+00  THROCCDE=  1.00D-01  THROCCDE=  1.00D-01



 Input parameters for SORTINT:

 COMPRESS =    0.000000
 C_FINAL  =    1.000000
 DEBUG    =   -1.000000
 C_SORT1  =    0.000000
 C_SEWARD =    0.000000
 THRESH   =    0.000000
 IO       =  molpro                                                          
 SPRI     =    0.000000
 SETTING GEOMTYP        =    XYZ
 ZUNIT=BOHR
 

 Variable memory set to  995000000 words,  buffer space   230000 words

 SETTING BASIS          =    USERDEF


 Recomputing integrals since basis changed


 Using spherical harmonics

 Library entry H      S aug-cc-pVTZ          selected for orbital group  2
 Library entry H      P aug-cc-pVTZ          selected for orbital group  2
 Library entry H      D aug-cc-pVTZ          selected for orbital group  2


 PROGRAM * SEWARD (Integral evaluation for generally contracted gaussian basis sets)     Author: Roland Lindh, 1990

 Geometry written to block  1 of record 700


 Point group  Cs  



 ATOMIC COORDINATES

 NR  ATOM    CHARGE       X              Y              Z

   1  N       7.00    0.000000000   -0.172611176   -1.170512592
   2  H       1.00    0.000000000    1.668858060   -1.919751588
   3  O       8.00    0.000000000    0.045520906    1.139674589

 Bond lengths in Bohr (Angstrom)

 1-2  1.988056342  1-3  2.320462543
     ( 1.052034110)     ( 1.227935896)

 Bond angles

  2-1-3  106.74596399

 NUCLEAR CHARGE:                   16
 NUMBER OF PRIMITIVE AOS:         203
 NUMBER OF SYMMETRY AOS:          173
 NUMBER OF CONTRACTIONS:          171   ( 114A'  +  57A"  )
 NUMBER OF CORE ORBITALS:           2   (   2A'  +   0A"  )
 NUMBER OF VALENCE ORBITALS:        9   (   7A'  +   2A"  )


 NUCLEAR REPULSION ENERGY   29.96399885


 Eigenvalues of metric

         1 0.108E-02 0.268E-02 0.341E-02 0.646E-02 0.987E-02 0.137E-01 0.147E-01 0.234E-01
         2 0.366E-01 0.560E-01 0.717E-01 0.943E-01 0.132E+00 0.134E+00 0.141E+00 0.142E+00


 Contracted 2-electron integrals neglected if value below      1.0D-22

       46039905. INTEGRALS WRITTEN OUT IN   11243 BLOCKS ON RECORD 1290 OF FILE 1


 NUMBER OF SORTED TWO-ELECTRON INTEGRALS:   55360566.     BUFFER LENGTH:  32768
 NUMBER OF SEGMENTS:   4  SEGMENT LENGTH:   15997996      RECORD LENGTH: 524288

 Memory used in sort:      16.56 MW

 SORT1 READ    46039905. AND WROTE    46476388. INTEGRALS IN    135 RECORDS. CPU TIME:     0.81 SEC, REAL TIME:     1.06 SEC
 SORT2 READ    46476388. AND WROTE    55360566. INTEGRALS IN      4 RECORDS. CPU TIME:     0.62 SEC, REAL TIME:     0.86 SEC

 FILE SIZES:   FILE 1:   757.6 MBYTE,  FILE 4:   566.3 MBYTE,   TOTAL:   1323.8 MBYTE

 OPERATOR DM      FOR CENTER  0  COORDINATES:    0.000000    0.000000    0.000000


 **********************************************************************************************************************************
 DATASETS  * FILE   NREC   LENGTH (MB)   RECORD NAMES
              1      19      420.53       500      610      700      900      950      970     1000      129      960     1100   
                                          VAR    BASINP    GEOM    SYMINP    ZMAT    AOBASIS   BASIS     P2S    ABASIS      S 
                                         1400     1410     1200     1210     1080     1600     1650     1300     1700   
                                           T        V       H0       H01     AOSYM     SMH    MOLCAS    ERIS     OPER   

 PROGRAMS   *        TOTAL       INT
 CPU TIMES  *         4.30      4.21
 REAL TIME  *         5.72 SEC
 DISK USED  *         1.32 GB      
 **********************************************************************************************************************************


 PROGRAM * RHF-SCF (CLOSED SHELL)       Authors: W. Meyer, H.-J. Werner


 NUMBER OF ELECTRONS:       8+    8-
 CONVERGENCE THRESHOLDS:    1.00E-10 (Density)    1.00E-13 (Energy)
 MAX. NUMBER OF ITERATIONS:      500
 INTERPOLATION TYPE:            DIIS
 INTERPOLATION STEPS:              2 (START)      1 (STEP)
 LEVEL SHIFTS:                  0.00 (CLOSED)  0.00 (OPEN) 



 Orbital guess generated from atomic densities. Full valence occupancy:    9   2

 Molecular orbital dump at record        2100.2

 Initial occupancy:   7   1

 ITERATION    DDIFF          GRAD             ENERGY        2-EL.EN.            DIPOLE MOMENTS         DIIS   ORB.
    1      0.000D+00      0.000D+00      -129.78277701    153.344728    0.00000    0.56518   -1.07493    0    start
    2      0.000D+00      0.900D-02      -129.80888848    154.468285    0.00000    0.61090   -0.17671    1    diag
    3      0.375D-02      0.717D-02      -129.83541950    154.635394    0.00000    0.54974   -0.60633    2    diag
    4      0.151D-02      0.106D-02      -129.83623905    154.347343    0.00000    0.55807   -0.54100    3    diag
    5      0.337D-03      0.348D-03      -129.83636726    154.436750    0.00000    0.56397   -0.54296    4    diag
    6      0.156D-03      0.102D-03      -129.83638840    154.420343    0.00000    0.56441   -0.53847    5    diag
    7      0.615D-04      0.523D-04      -129.83639500    154.422680    0.00000    0.56569   -0.53566    6    diag
    8      0.425D-04      0.190D-04      -129.83639584    154.421740    0.00000    0.56573   -0.53459    7    diag
    9      0.164D-04      0.360D-05      -129.83639588    154.421609    0.00000    0.56568   -0.53437    8    diag
   10      0.346D-05      0.777D-06      -129.83639588    154.421596    0.00000    0.56564   -0.53435    9    orth
   11      0.922D-06      0.153D-06      -129.83639588    154.421592    0.00000    0.56563   -0.53434    9    diag
   12      0.215D-06      0.339D-07      -129.83639588    154.421591    0.00000    0.56563   -0.53434    9    diag
   13      0.538D-07      0.945D-08      -129.83639588    154.421591    0.00000    0.56563   -0.53434    9    diag
   14      0.127D-07      0.166D-08      -129.83639588    154.421591    0.00000    0.56563   -0.53434    9    diag
   15      0.139D-08      0.439D-09      -129.83639588    154.421591    0.00000    0.56563   -0.53434    9    diag
   16      0.366D-09      0.128D-09      -129.83639588    154.421591    0.00000    0.56563   -0.53434    9    diag
   17      0.689D-10      0.353D-10      -129.83639588    154.421591    0.00000    0.56563   -0.53434    0    orth

 Final occupancy:   7   1

 !RHF STATE 1.1 Energy               -129.836395878236
 Nuclear energy                        29.96399885
 One-electron energy                 -237.01119019
 Two-electron energy                   77.21079546
 Virial quotient                       -1.00216119
 !RHF STATE 1.1 Dipole moment           0.00000000     0.56563150    -0.53434227
 Dipole moment /Debye                   0.00000000     1.43759771    -1.35807362

 Orbital energies:

         1.1          2.1          3.1          4.1          5.1          6.1          7.1          8.1          9.1
    -20.652796   -15.714244    -1.512760    -0.996679    -0.739234    -0.658310    -0.435647     0.039551     0.191945

         1.2          2.2          3.2
     -0.585128     0.072483     0.238801

 HOMO      7.1    -0.435647 =     -11.8546eV
 LUMO      8.1     0.039551 =       1.0762eV
 LUMO-HOMO         0.475198 =      12.9308eV


 **********************************************************************************************************************************
 DATASETS  * FILE   NREC   LENGTH (MB)   RECORD NAMES
              1      19      420.53       500      610      700      900      950      970     1000      129      960     1100   
                                          VAR    BASINP    GEOM    SYMINP    ZMAT    AOBASIS   BASIS     P2S    ABASIS      S 
                                         1400     1410     1200     1210     1080     1600     1650     1300     1700   
                                           T        V       H0       H01     AOSYM     SMH    MOLCAS    ERIS     OPER   

              2       4        3.13       700     1000      520     2100   
                                         GEOM     BASIS   MCVARS     RHF  

 PROGRAMS   *        TOTAL        HF       INT
 CPU TIMES  *         8.73      4.44      4.21
 REAL TIME  *        11.02 SEC
 DISK USED  *         1.32 GB      
 **********************************************************************************************************************************


 PROGRAM * CCSD (Closed-shell coupled cluster)     Authors: C. Hampel, H.-J. Werner, 1991, M. Deegan, P.J. Knowles, 1992


 Convergence thresholds:  THRVAR = 1.00D-08  THRDEN = 1.00D-12

 CCSD(T)     terms to be evaluated (factor= 1.000)


 Number of core orbitals:           2 (   2   0 )
 Number of closed-shell orbitals:   6 (   5   1 )
 Number of external orbitals:     163 ( 107  56 )

 Molecular orbitals read from record     2100.2  Type=RHF/CANONICAL (state 1.1)

 Number of N-1 electron functions:               6
 Number of N-2 electron functions:              21
 Number of singly external CSFs:               591
 Number of doubly external CSFs:            250014
 Total number of CSFs:                      250606

 Length of J-op  integral file:               0.00 MB
 Length of K-op  integral file:               1.15 MB
 Length of 3-ext integral record:             0.00 MB

 Memory could be reduced to 19.93 Mwords without degradation in triples

 Integral transformation finished. Total CPU:   0.69 sec, npass=  1  Memory used:   5.10 MW

 Reference energy:                   -129.83639588

 MP2 singlet pair energy:              -0.28893290
 MP2 triplet pair energy:              -0.16857208
 MP2 correlation energy:               -0.45750498
 MP2 total energy:                   -130.29390086

 SCS-MP2 correlation energy:           -0.45160878   (PS=  1.200000  PT=  0.333333)
 SCS-MP2 total energy:               -130.28800465

 ITER.      SQ.NORM     CORR.ENERGY   TOTAL ENERGY   ENERGY CHANGE        DEN1      VAR(S)    VAR(P)  DIIS     TIME  TIME/IT
   1      1.12093871    -0.45885919  -130.29525507    -0.00135421     0.01627538  0.34D-02  0.33D-02  1  1     1.31     0.67
   2      1.13195055    -0.45860359  -130.29499947     0.00025560    -0.01301861  0.13D-03  0.52D-03  2  2     1.95     0.68
   3      1.13889164    -0.45900052  -130.29539640    -0.00039694    -0.00349325  0.48D-04  0.63D-04  3  3     2.57     0.69
   4      1.14198416    -0.45903569  -130.29543157    -0.00003517    -0.00100400  0.50D-05  0.11D-04  4  4     3.23     0.70
   5      1.14318363    -0.45907202  -130.29546790    -0.00003633    -0.00024577  0.14D-05  0.18D-05  5  5     3.85     0.70
   6      1.14361018    -0.45905423  -130.29545010     0.00001780    -0.00007138  0.13D-06  0.42D-06  6  6     4.48     0.70
   7      1.14368077    -0.45905592  -130.29545180    -0.00000169     0.00000987  0.16D-07  0.96D-07  6  1     5.11     0.70
   8      1.14371615    -0.45905521  -130.29545109     0.00000070    -0.00000516  0.45D-08  0.16D-07  6  2     5.77     0.71
   9      1.14372102    -0.45905509  -130.29545096     0.00000013     0.00000145  0.22D-08  0.19D-08  6  3     6.41     0.71
  10      1.14372175    -0.45905541  -130.29545129    -0.00000032    -0.00000045  0.52D-09  0.30D-09  6  4     7.06     0.71
  11      1.14372022    -0.45905555  -130.29545143    -0.00000015     0.00000036  0.13D-09  0.30D-10  6  5     7.71     0.71
  12      1.14371904    -0.45905571  -130.29545159    -0.00000016     0.00000048  0.16D-10  0.80D-11  6  6     8.33     0.71
  13      1.14371837    -0.45905573  -130.29545161    -0.00000002     0.00000012  0.56D-11  0.14D-11  6  1     8.95     0.71
  14      1.14371784    -0.45905576  -130.29545164    -0.00000003     0.00000012  0.50D-12  0.47D-12  6  3     9.58     0.71
  15      1.14371768    -0.45905576  -130.29545164     0.00000000     0.00000001  0.14D-12  0.35D-13  6  2    10.22     0.71
  16      1.14371762    -0.45905576  -130.29545164    -0.00000000     0.00000001  0.32D-13  0.81D-14  6  4    10.85     0.71
  17      1.14371759    -0.45905576  -130.29545164    -0.00000000     0.00000001  0.48D-14  0.13D-14  6  5    11.48     0.71
  18      1.14371759    -0.45905577  -130.29545164    -0.00000000     0.00000000  0.57D-15  0.38D-15  6  6    12.09     0.71
  19      1.14371759    -0.45905576  -130.29545164     0.00000000    -0.00000000  0.81D-16  0.60D-16  6  1    12.75     0.71
  20      1.14371759    -0.45905576  -130.29545164     0.00000000    -0.00000000  0.38D-17  0.16D-16  6  3    13.38     0.71
  21      1.14371759    -0.45905576  -130.29545164     0.00000000    -0.00000000  0.64D-18  0.35D-17  6  4    14.05     0.71
  22      1.14371759    -0.45905576  -130.29545164     0.00000000    -0.00000000  0.85D-19  0.12D-17  6  2    14.70     0.71
  23      1.14371759    -0.45905576  -130.29545164    -0.00000000     0.00000000  0.11D-18  0.22D-18  6  5    15.34     0.71
  24      1.14371759    -0.45905576  -130.29545164    -0.00000000     0.00000000  0.47D-20  0.20D-19  6  1    15.99     0.71
  25      1.14371759    -0.45905576  -130.29545164     0.00000000    -0.00000000  0.26D-20  0.14D-20  6  6    16.63     0.71

 Norm of t1 vector:      0.08003386      S-energy:     0.00000000      T1 diagnostic:  0.01633684
                                                                       D1 diagnostic:  0.04549563

 Doubles amplitudes (print threshold =  0.500E-01):

         I         J         SYM. A    SYM. B    A         B      T(IJ, AB)

         6         6         2         2         1         1     -0.14165175


 Total CPU time for triples:      8.35 sec


 RESULTS
 =======

  Reference energy                   -129.836395878236
  CCSD singlet pair energy             -0.315746108690
  CCSD triplet pair energy             -0.143309655943
  CCSD correlation energy              -0.459055764622

  Triples (T) contribution             -0.021813471001
  Total correlation energy             -0.480869235623

  CCSD total energy                  -130.295451642857
  CCSD[T] energy                     -130.318444638960
  CCSD-T energy                      -130.316830482718
 !CCSD(T) total energy               -130.317265113858

 Timing summary (sec):

 STEP                 CPU(USER)    SYS     CPU(TOT)    WALL
 Transformation          0.71      0.13      0.84      0.83
 CCSD iterations        15.93      1.88     17.81     17.81
 Triples                 8.35      0.26      8.61      8.62

 Program statistics:

 Available memory in ccsd:               994999756
 Min. memory needed in ccsd:                887758
 Max. memory used in ccsd:                 1088212
 Max. memory used in cckext:               1535578 (25 integral passes)



 **********************************************************************************************************************************
 DATASETS  * FILE   NREC   LENGTH (MB)   RECORD NAMES
              1      20      478.49       500      610      700      900      950      970     1000      129      960     1100   
                                          VAR    BASINP    GEOM    SYMINP    ZMAT    AOBASIS   BASIS     P2S    ABASIS      S 
                                         1400     1410     1200     1210     1080     1600     1650     1300     1700     1380   
                                           T        V       H0       H01     AOSYM     SMH    MOLCAS    ERIS     OPER     JKOP   

              2       4        3.13       700     1000      520     2100   
                                         GEOM     BASIS   MCVARS     RHF  

 PROGRAMS   *        TOTAL   CCSD(T)        HF       INT
 CPU TIMES  *        33.74     25.01      4.44      4.21
 REAL TIME  *        38.31 SEC
 DISK USED  *         1.32 GB      
 **********************************************************************************************************************************

 CCSD(T)/USERDEF energy=   -130.317265113858

        CCSD(T)         HF-SCF  
   -130.31726511   -129.83639588
 **********************************************************************************************************************************
 Molpro calculation terminated
 Variable memory released
