
 Primary working directories    : /tmp/r2666/235307.maple
 Secondary working directories  : /tmp/r2666/235307.maple
 Wavefunction directory         : /ddn/home4/r2666/wfu/
 Main file repository           : /tmp/r2666/235307.maple/

 SHA1      : d5ffa45e93fdbca01ffc919aa182cfdae0147319
 NAME      : 2015.1.35
 ARCHNAME  : linux/x86_64
 FC        : /opt/intel/composer_xe_2015.1.133/bin/intel64/ifort
 BLASLIB   : -Wl,-_start-group /opt/intel/mkl/lib/intel64/libmkl_intel_ilp64.a /opt/intel/mkl/lib/intel64/libmkl_intel_thread.a /opt/intel/mkl/lib/intel64/libmkl_core.a -Wl,-_end-group
 id        : olemiss

 Nodes     nprocs
 cn034        1

 Using customized tuning parameters: mindgm=1; mindgv=20; mindgc=4; mindgr=1; noblas=0; minvec=7
 default implementation of scratch files=df  

 ***,hno CCSD(T)/TZ-F12 QFF
 memory, 995, m;
 gthresh,energy=1.d-12,zero=1.d-22,oneint=1.d-22,twoint=1.d-22;
 gthresh,optgrad=1.d-8,optstep=1.d-8;
 nocompress;
 geomtyp=xyz
 bohr
 geometry={
 3
         33        33
 N        0.0000000000       -0.1558622251       -1.1495296874
 H        0.0000000000        1.6627159214       -1.9290564691
 O        0.0000000000        0.0349140938        1.1279965655
 }
 
 basis={
 default=aug-cc-pvtz
 s,C,8236.0,1235.0,280.8, 79.27,25.59, 8.997,3.319
 s,C,0.9059,0.3643,0.1285000
 p,C,56.0,18.71,4.133,0.2827,0.3827,0.1209
 d,C,30.0,10.0,3.3,1.097,0.318
 f,C,7.0,2.3,0.7610
 s,N,11420.0,1712.0,389.3,110.0,35.57,12.54,4.644
 s,N,1.293,0.5118,0.1787
 p,N,79.89,26.63,5.948,1.742,0.555,0.1725
 d,N,45.0,15.0,5.0,1.654,0.469
 f,N,9.9,3.3,1.093
 s,O,15330.0,2299.0,522.4,147.3,47.55,16.76,6.207
 s,O,1.752,0.6882,0.2384
 p,O,103.5,34.46,7.749,2.28,0.7156,0.214
 d,O,63.0,21.0,7.0,2.314,0.645
 f,O,12.9,4.3,1.428
 s,mg,164900.0,24710.0,5628.0,1596.0,521.0;
 s,mg,188.0,73.01,29.90,12.54,4.306,1.826;
 s,mg,0.7417,0.0761,0.145,0.033,0.0129;
 p,mg,950.70,316.90,74.86,23.72,8.669,3.363;
 p,mg,1.310,0.4911,0.2364,0.08733,0.03237,0.00745;
 d,mg,1.601,0.686,0.126,0.294,0.0468;
 f,mg,1.372,0.588,0.094,0.252;
 }
   {hf,maxit=500;accu,20;}
 {ccsd(t),nocheck,maxit=250;orbital,IGNORE_ERROR;}

 Variables initialized (889), CPU time= 0.00 sec
 Commands  initialized (702), CPU time= 0.01 sec, 572 directives.
 Default parameters read. Elapsed time= 0.05 sec

 Checking input...
 Passed
1


                                         ***  PROGRAM SYSTEM MOLPRO  ***
                                       Copyright, TTI GmbH Stuttgart, 2015
                                    Version 2015.1 linked Jul  9 2018 13:16:40


 **********************************************************************************************************************************
 LABEL *   hno CCSD(T)/TZ-F12 QFF                                                        
  64 bit serial version                                                                  DATE: 08-Feb-20          TIME: 17:57:29  
 **********************************************************************************************************************************

 SHA1:             d5ffa45e93fdbca01ffc919aa182cfdae0147319
 **********************************************************************************************************************************

 THRESHOLDS:

 ZERO    =  1.00D-22  ONEINT  =  1.00D-22  TWOINT  =  1.00D-22  PREFAC  =  1.00D-14  LOCALI  =  1.00D-09  EORDER  =  1.00D-04
 ENERGY  =  1.00D-12  ETEST   =  0.00D+00  EDENS   =  0.00D+00  THRDEDEF=  1.00D-06  GRADIENT=  1.00D-02  STEP    =  1.00D-03
 ORBITAL =  1.00D-05  CIVEC   =  1.00D-05  COEFF   =  1.00D-04  PRINTCI =  5.00D-02  PUNCHCI =  9.90D+01  OPTGRAD =  3.00D-04
 OPTENERG=  1.00D-06  OPTSTEP =  3.00D-04  THRGRAD =  1.00D-10  COMPRESS=  1.00D-11  VARMIN  =  1.00D-07  VARMAX  =  1.00D-03
 THRDOUB =  0.00D+00  THRDIV  =  1.00D-05  THRRED  =  1.00D-07  THRPSP  =  1.00D+00  THRDC   =  1.00D-10  THRCS   =  1.00D-10
 THRNRM  =  1.00D-08  THREQ   =  0.00D+00  THRDE   =  1.00D+00  THRREF  =  1.00D-05  SPARFAC =  1.00D+00  THRDLP  =  1.00D-07
 THRDIA  =  1.00D-10  THRDLS  =  1.00D-07  THRGPS  =  0.00D+00  THRKEX  =  0.00D+00  THRDIS  =  2.00D-01  THRVAR  =  1.00D-10
 THRLOC  =  1.00D-06  THRGAP  =  1.00D-06  THRLOCT = -1.00D+00  THRGAPT = -1.00D+00  THRORB  =  1.00D-06  THRMLTP =  0.00D+00
 THRCPQCI=  1.00D-10  KEXTA   =  0.00D+00  THRCOARS=  0.00D+00  SYMTOL  =  1.00D-06  GRADTOL =  1.00D-06  THROVL  =  1.00D-08
 THRORTH =  1.00D-08  GRID    =  1.00D-06  GRIDMAX =  1.00D-03  DTMAX   =  0.00D+00  THROCCDE=  1.00D-01  THROCCDE=  1.00D-01



 THRESHOLDS:

 ZERO    =  1.00D-22  ONEINT  =  1.00D-22  TWOINT  =  1.00D-22  PREFAC  =  1.00D-14  LOCALI  =  1.00D-09  EORDER  =  1.00D-04
 ENERGY  =  1.00D-12  ETEST   =  0.00D+00  EDENS   =  0.00D+00  THRDEDEF=  1.00D-06  GRADIENT=  1.00D-02  STEP    =  1.00D-03
 ORBITAL =  1.00D-05  CIVEC   =  1.00D-05  COEFF   =  1.00D-04  PRINTCI =  5.00D-02  PUNCHCI =  9.90D+01  OPTGRAD =  1.00D-08
 OPTENERG=  1.00D-06  OPTSTEP =  1.00D-08  THRGRAD =  1.00D-10  COMPRESS=  1.00D-11  VARMIN  =  1.00D-07  VARMAX  =  1.00D-03
 THRDOUB =  0.00D+00  THRDIV  =  1.00D-05  THRRED  =  1.00D-07  THRPSP  =  1.00D+00  THRDC   =  1.00D-10  THRCS   =  1.00D-10
 THRNRM  =  1.00D-08  THREQ   =  0.00D+00  THRDE   =  1.00D+00  THRREF  =  1.00D-05  SPARFAC =  1.00D+00  THRDLP  =  1.00D-07
 THRDIA  =  1.00D-10  THRDLS  =  1.00D-07  THRGPS  =  0.00D+00  THRKEX  =  0.00D+00  THRDIS  =  2.00D-01  THRVAR  =  1.00D-10
 THRLOC  =  1.00D-06  THRGAP  =  1.00D-06  THRLOCT = -1.00D+00  THRGAPT = -1.00D+00  THRORB  =  1.00D-06  THRMLTP =  0.00D+00
 THRCPQCI=  1.00D-10  KEXTA   =  0.00D+00  THRCOARS=  0.00D+00  SYMTOL  =  1.00D-06  GRADTOL =  1.00D-06  THROVL  =  1.00D-08
 THRORTH =  1.00D-08  GRID    =  1.00D-06  GRIDMAX =  1.00D-03  DTMAX   =  0.00D+00  THROCCDE=  1.00D-01  THROCCDE=  1.00D-01



 Input parameters for SORTINT:

 COMPRESS =    0.000000
 C_FINAL  =    1.000000
 DEBUG    =   -1.000000
 C_SORT1  =    0.000000
 C_SEWARD =    0.000000
 THRESH   =    0.000000
 IO       =  molpro                                                          
 SPRI     =    0.000000
 SETTING GEOMTYP        =    XYZ
 ZUNIT=BOHR
 

 Variable memory set to  995000000 words,  buffer space   230000 words

 SETTING BASIS          =    USERDEF


 Recomputing integrals since basis changed


 Using spherical harmonics

 Library entry H      S aug-cc-pVTZ          selected for orbital group  2
 Library entry H      P aug-cc-pVTZ          selected for orbital group  2
 Library entry H      D aug-cc-pVTZ          selected for orbital group  2


 PROGRAM * SEWARD (Integral evaluation for generally contracted gaussian basis sets)     Author: Roland Lindh, 1990

 Geometry written to block  1 of record 700


 Point group  Cs  



 ATOMIC COORDINATES

 NR  ATOM    CHARGE       X              Y              Z

   1  N       7.00    0.000000000   -0.155862225   -1.149529687
   2  H       1.00    0.000000000    1.662715921   -1.929056469
   3  O       8.00    0.000000000    0.034914094    1.127996565

 Bond lengths in Bohr (Angstrom)

 1-2  1.978607712  1-3  2.285502447
     ( 1.047034111)     ( 1.209435811)

 Bond angles

  2-1-3  108.41402801

 NUCLEAR CHARGE:                   16
 NUMBER OF PRIMITIVE AOS:         203
 NUMBER OF SYMMETRY AOS:          173
 NUMBER OF CONTRACTIONS:          171   ( 114A'  +  57A"  )
 NUMBER OF CORE ORBITALS:           2   (   2A'  +   0A"  )
 NUMBER OF VALENCE ORBITALS:        9   (   7A'  +   2A"  )


 NUCLEAR REPULSION ENERGY   30.34996442


 Eigenvalues of metric

         1 0.103E-02 0.250E-02 0.332E-02 0.633E-02 0.968E-02 0.136E-01 0.145E-01 0.229E-01
         2 0.358E-01 0.533E-01 0.695E-01 0.941E-01 0.131E+00 0.134E+00 0.140E+00 0.142E+00


 Contracted 2-electron integrals neglected if value below      1.0D-22

       46143749. INTEGRALS WRITTEN OUT IN   11269 BLOCKS ON RECORD 1290 OF FILE 1


 NUMBER OF SORTED TWO-ELECTRON INTEGRALS:   55360566.     BUFFER LENGTH:  32768
 NUMBER OF SEGMENTS:   4  SEGMENT LENGTH:   15997996      RECORD LENGTH: 524288

 Memory used in sort:      16.56 MW

 SORT1 READ    46143749. AND WROTE    46581175. INTEGRALS IN    135 RECORDS. CPU TIME:     1.33 SEC, REAL TIME:     1.65 SEC
 SORT2 READ    46581175. AND WROTE    55360566. INTEGRALS IN      4 RECORDS. CPU TIME:     0.76 SEC, REAL TIME:     1.03 SEC

 FILE SIZES:   FILE 1:   759.3 MBYTE,  FILE 4:   566.3 MBYTE,   TOTAL:   1325.5 MBYTE

 OPERATOR DM      FOR CENTER  0  COORDINATES:    0.000000    0.000000    0.000000


 **********************************************************************************************************************************
 DATASETS  * FILE   NREC   LENGTH (MB)   RECORD NAMES
              1      19      421.24       500      610      700      900      950      970     1000      129      960     1100   
                                          VAR    BASINP    GEOM    SYMINP    ZMAT    AOBASIS   BASIS     P2S    ABASIS      S 
                                         1400     1410     1200     1210     1080     1600     1650     1300     1700   
                                           T        V       H0       H01     AOSYM     SMH    MOLCAS    ERIS     OPER   

 PROGRAMS   *        TOTAL       INT
 CPU TIMES  *         5.73      5.65
 REAL TIME  *         7.40 SEC
 DISK USED  *         1.33 GB      
 **********************************************************************************************************************************


 PROGRAM * RHF-SCF (CLOSED SHELL)       Authors: W. Meyer, H.-J. Werner


 NUMBER OF ELECTRONS:       8+    8-
 CONVERGENCE THRESHOLDS:    1.00E-10 (Density)    1.00E-13 (Energy)
 MAX. NUMBER OF ITERATIONS:      500
 INTERPOLATION TYPE:            DIIS
 INTERPOLATION STEPS:              2 (START)      1 (STEP)
 LEVEL SHIFTS:                  0.00 (CLOSED)  0.00 (OPEN) 



 Orbital guess generated from atomic densities. Full valence occupancy:    9   2

 Molecular orbital dump at record        2100.2

 Initial occupancy:   7   1

 ITERATION    DDIFF          GRAD             ENERGY        2-EL.EN.            DIPOLE MOMENTS         DIIS   ORB.
    1      0.000D+00      0.000D+00      -129.78925861    154.029911    0.00000    0.57551   -1.01826    0    start
    2      0.000D+00      0.878D-02      -129.81612450    155.196702    0.00000    0.59893   -0.19846    1    diag
    3      0.366D-02      0.667D-02      -129.83889842    155.321834    0.00000    0.54988   -0.58720    2    diag
    4      0.142D-02      0.104D-02      -129.83968464    155.046780    0.00000    0.55787   -0.52449    3    diag
    5      0.333D-03      0.337D-03      -129.83980457    155.134623    0.00000    0.56384   -0.52686    4    diag
    6      0.153D-03      0.985D-04      -129.83982408    155.118586    0.00000    0.56441   -0.52273    5    diag
    7      0.606D-04      0.496D-04      -129.83982986    155.121080    0.00000    0.56572   -0.52020    6    diag
    8      0.412D-04      0.170D-04      -129.83983049    155.120252    0.00000    0.56577   -0.51927    7    diag
    9      0.144D-04      0.318D-05      -129.83983051    155.120140    0.00000    0.56572   -0.51909    8    diag
   10      0.293D-05      0.723D-06      -129.83983052    155.120126    0.00000    0.56569   -0.51906    9    orth
   11      0.871D-06      0.143D-06      -129.83983052    155.120122    0.00000    0.56568   -0.51906    9    diag
   12      0.205D-06      0.297D-07      -129.83983052    155.120122    0.00000    0.56568   -0.51906    9    diag
   13      0.496D-07      0.787D-08      -129.83983052    155.120121    0.00000    0.56568   -0.51906    9    diag
   14      0.114D-07      0.138D-08      -129.83983052    155.120121    0.00000    0.56568   -0.51906    9    diag
   15      0.143D-08      0.369D-09      -129.83983052    155.120121    0.00000    0.56568   -0.51906    9    diag
   16      0.322D-09      0.107D-09      -129.83983052    155.120121    0.00000    0.56568   -0.51906    9    diag
   17      0.704D-10      0.287D-10      -129.83983052    155.120121    0.00000    0.56568   -0.51906    9    diag
   18      0.214D-10      0.944D-11      -129.83983052    155.120121    0.00000    0.56568   -0.51906    0    orth

 Final occupancy:   7   1

 !RHF STATE 1.1 Energy               -129.839830516224
 Nuclear energy                        30.34996442
 One-electron energy                 -237.74985559
 Two-electron energy                   77.56006065
 Virial quotient                       -1.00162385
 !RHF STATE 1.1 Dipole moment           0.00000000     0.56567623    -0.51905956
 Dipole moment /Debye                   0.00000000     1.43771140    -1.31923140

 Orbital energies:

         1.1          2.1          3.1          4.1          5.1          6.1          7.1          8.1          9.1
    -20.651378   -15.710139    -1.526786    -0.994667    -0.745289    -0.663854    -0.429345     0.039690     0.193164

         1.2          2.2          3.2
     -0.593410     0.078508     0.239551

 HOMO      7.1    -0.429345 =     -11.6831eV
 LUMO      8.1     0.039690 =       1.0800eV
 LUMO-HOMO         0.469035 =      12.7631eV


 **********************************************************************************************************************************
 DATASETS  * FILE   NREC   LENGTH (MB)   RECORD NAMES
              1      19      421.24       500      610      700      900      950      970     1000      129      960     1100   
                                          VAR    BASINP    GEOM    SYMINP    ZMAT    AOBASIS   BASIS     P2S    ABASIS      S 
                                         1400     1410     1200     1210     1080     1600     1650     1300     1700   
                                           T        V       H0       H01     AOSYM     SMH    MOLCAS    ERIS     OPER   

              2       4        3.13       700     1000      520     2100   
                                         GEOM     BASIS   MCVARS     RHF  

 PROGRAMS   *        TOTAL        HF       INT
 CPU TIMES  *        11.12      5.39      5.65
 REAL TIME  *        14.10 SEC
 DISK USED  *         1.33 GB      
 **********************************************************************************************************************************


 PROGRAM * CCSD (Closed-shell coupled cluster)     Authors: C. Hampel, H.-J. Werner, 1991, M. Deegan, P.J. Knowles, 1992


 Convergence thresholds:  THRVAR = 1.00D-08  THRDEN = 1.00D-12

 CCSD(T)     terms to be evaluated (factor= 1.000)


 Number of core orbitals:           2 (   2   0 )
 Number of closed-shell orbitals:   6 (   5   1 )
 Number of external orbitals:     163 ( 107  56 )

 Molecular orbitals read from record     2100.2  Type=RHF/CANONICAL (state 1.1)

 Number of N-1 electron functions:               6
 Number of N-2 electron functions:              21
 Number of singly external CSFs:               591
 Number of doubly external CSFs:            250014
 Total number of CSFs:                      250606

 Length of J-op  integral file:               0.00 MB
 Length of K-op  integral file:               1.15 MB
 Length of 3-ext integral record:             0.00 MB

 Memory could be reduced to 19.93 Mwords without degradation in triples

 Integral transformation finished. Total CPU:   0.90 sec, npass=  1  Memory used:   5.10 MW

 Reference energy:                   -129.83983052

 MP2 singlet pair energy:              -0.28690736
 MP2 triplet pair energy:              -0.16722078
 MP2 correlation energy:               -0.45412814
 MP2 total energy:                   -130.29395866

 SCS-MP2 correlation energy:           -0.44833732   (PS=  1.200000  PT=  0.333333)
 SCS-MP2 total energy:               -130.28816783

 ITER.      SQ.NORM     CORR.ENERGY   TOTAL ENERGY   ENERGY CHANGE        DEN1      VAR(S)    VAR(P)  DIIS     TIME  TIME/IT
   1      1.11879508    -0.45621926  -130.29604977    -0.00209112     0.01469055  0.32D-02  0.31D-02  1  1     1.71     0.88
   2      1.12932139    -0.45612804  -130.29595856     0.00009122    -0.01251989  0.12D-03  0.50D-03  2  2     2.51     0.90
   3      1.13588321    -0.45649955  -130.29633007    -0.00037151    -0.00336569  0.44D-04  0.58D-04  3  3     3.32     0.90
   4      1.13875941    -0.45653222  -130.29636274    -0.00003267    -0.00094607  0.44D-05  0.97D-05  4  4     4.14     0.91
   5      1.13984086    -0.45656445  -130.29639496    -0.00003223    -0.00022106  0.13D-05  0.18D-05  5  5     4.97     0.91
   6      1.14023797    -0.45654866  -130.29637918     0.00001579    -0.00006588  0.12D-06  0.43D-06  6  6     5.81     0.91
   7      1.14031034    -0.45655025  -130.29638077    -0.00000159     0.00000863  0.16D-07  0.94D-07  6  1     6.65     0.92
   8      1.14034494    -0.45654983  -130.29638035     0.00000042    -0.00000465  0.50D-08  0.15D-07  6  2     7.48     0.92
   9      1.14035017    -0.45654973  -130.29638024     0.00000011     0.00000098  0.22D-08  0.17D-08  6  3     8.32     0.92
  10      1.14035057    -0.45655005  -130.29638057    -0.00000033    -0.00000025  0.50D-09  0.26D-09  6  4     9.13     0.92
  11      1.14034905    -0.45655019  -130.29638071    -0.00000014     0.00000034  0.12D-09  0.26D-10  6  5     9.96     0.92
  12      1.14034790    -0.45655034  -130.29638086    -0.00000015     0.00000047  0.15D-10  0.75D-11  6  6    10.78     0.92
  13      1.14034725    -0.45655036  -130.29638088    -0.00000002     0.00000012  0.58D-11  0.14D-11  6  1    11.61     0.92
  14      1.14034674    -0.45655039  -130.29638090    -0.00000003     0.00000012  0.54D-12  0.44D-12  6  3    12.45     0.92
  15      1.14034658    -0.45655039  -130.29638090     0.00000000     0.00000001  0.13D-12  0.31D-13  6  2    13.28     0.92
  16      1.14034653    -0.45655039  -130.29638090    -0.00000000     0.00000001  0.32D-13  0.74D-14  6  4    14.11     0.92
  17      1.14034651    -0.45655039  -130.29638091    -0.00000000     0.00000001  0.41D-14  0.12D-14  6  5    14.95     0.92
  18      1.14034651    -0.45655039  -130.29638091     0.00000000     0.00000000  0.46D-15  0.32D-15  6  6    15.81     0.92
  19      1.14034651    -0.45655039  -130.29638091     0.00000000    -0.00000000  0.61D-16  0.40D-16  6  1    16.62     0.92
  20      1.14034652    -0.45655039  -130.29638091     0.00000000    -0.00000000  0.31D-17  0.95D-17  6  3    17.46     0.92
  21      1.14034652    -0.45655039  -130.29638091     0.00000000    -0.00000000  0.51D-18  0.20D-17  6  4    18.30     0.92
  22      1.14034652    -0.45655039  -130.29638091     0.00000000    -0.00000000  0.20D-19  0.71D-18  6  2    19.14     0.93
  23      1.14034652    -0.45655039  -130.29638091    -0.00000000     0.00000000  0.31D-19  0.13D-18  6  4    20.02     0.93
  24      1.14034652    -0.45655039  -130.29638091     0.00000000    -0.00000000  0.32D-20  0.62D-20  6  5    20.87     0.93
  25      1.14034652    -0.45655039  -130.29638091    -0.00000000     0.00000000  0.39D-21  0.52D-21  6  6    21.73     0.93
  26      1.14034652    -0.45655039  -130.29638091     0.00000000    -0.00000000  0.15D-21  0.60D-22  6  1    22.59     0.93
  27      1.14034652    -0.45655039  -130.29638091     0.00000000    -0.00000000  0.60D-22  0.17D-22  6  3    23.41     0.93

 Norm of t1 vector:      0.07725245      S-energy:     0.00000000      T1 diagnostic:  0.01576909
                                                                       D1 diagnostic:  0.04318301

 Doubles amplitudes (print threshold =  0.500E-01):

         I         J         SYM. A    SYM. B    A         B      T(IJ, AB)

         6         6         2         2         1         1     -0.13588195


 Total CPU time for triples:      7.88 sec


 RESULTS
 =======

  Reference energy                   -129.839830516224
  CCSD singlet pair energy             -0.313563925678
  CCSD triplet pair energy             -0.142986463570
  CCSD correlation energy              -0.456550389247

  Triples (T) contribution             -0.021211969133
  Total correlation energy             -0.477762358380

  CCSD total energy                  -130.296380905471
  CCSD[T] energy                     -130.318690635216
  CCSD-T energy                      -130.317179000758
 !CCSD(T) total energy               -130.317592874604

 Timing summary (sec):

 STEP                 CPU(USER)    SYS     CPU(TOT)    WALL
 Transformation          0.91      0.15      1.06      1.07
 CCSD iterations        22.50      2.54     25.04     25.04
 Triples                 7.88      0.25      8.13      8.12

 Program statistics:

 Available memory in ccsd:               994999756
 Min. memory needed in ccsd:                887758
 Max. memory used in ccsd:                 1088212
 Max. memory used in cckext:               1535578 (27 integral passes)



 **********************************************************************************************************************************
 DATASETS  * FILE   NREC   LENGTH (MB)   RECORD NAMES
              1      20      479.19       500      610      700      900      950      970     1000      129      960     1100   
                                          VAR    BASINP    GEOM    SYMINP    ZMAT    AOBASIS   BASIS     P2S    ABASIS      S 
                                         1400     1410     1200     1210     1080     1600     1650     1300     1700     1380   
                                           T        V       H0       H01     AOSYM     SMH    MOLCAS    ERIS     OPER     JKOP   

              2       4        3.13       700     1000      520     2100   
                                         GEOM     BASIS   MCVARS     RHF  

 PROGRAMS   *        TOTAL   CCSD(T)        HF       INT
 CPU TIMES  *        42.44     31.31      5.39      5.65
 REAL TIME  *        48.37 SEC
 DISK USED  *         1.33 GB      
 **********************************************************************************************************************************

 CCSD(T)/USERDEF energy=   -130.317592874604

        CCSD(T)         HF-SCF  
   -130.31759287   -129.83983052
 **********************************************************************************************************************************
 Molpro calculation terminated
 Variable memory released
