
 Primary working directories    : /tmp/r2666/235319.maple
 Secondary working directories  : /tmp/r2666/235319.maple
 Wavefunction directory         : /ddn/home4/r2666/wfu/
 Main file repository           : /tmp/r2666/235319.maple/

 SHA1      : d5ffa45e93fdbca01ffc919aa182cfdae0147319
 NAME      : 2015.1.35
 ARCHNAME  : linux/x86_64
 FC        : /opt/intel/composer_xe_2015.1.133/bin/intel64/ifort
 BLASLIB   : -Wl,-_start-group /opt/intel/mkl/lib/intel64/libmkl_intel_ilp64.a /opt/intel/mkl/lib/intel64/libmkl_intel_thread.a /opt/intel/mkl/lib/intel64/libmkl_core.a -Wl,-_end-group
 id        : olemiss

 Nodes     nprocs
 cn091        1

 Using customized tuning parameters: mindgm=1; mindgv=20; mindgc=4; mindgr=1; noblas=0; minvec=7
 default implementation of scratch files=df  

 ***,hno CCSD(T)/TZ-F12 QFF
 memory, 995, m;
 gthresh,energy=1.d-12,zero=1.d-22,oneint=1.d-22,twoint=1.d-22;
 gthresh,optgrad=1.d-8,optstep=1.d-8;
 nocompress;
 geomtyp=xyz
 bohr
 geometry={
 3
         45        45
 N        0.0000000000       -0.1522579308       -1.1567714609
 H        0.0000000000        1.6650318528       -1.9392970650
 O        0.0000000000        0.0289938680        1.1454789349
 }
 
 basis={
 default=aug-cc-pvtz
 s,C,8236.0,1235.0,280.8, 79.27,25.59, 8.997,3.319
 s,C,0.9059,0.3643,0.1285000
 p,C,56.0,18.71,4.133,0.2827,0.3827,0.1209
 d,C,30.0,10.0,3.3,1.097,0.318
 f,C,7.0,2.3,0.7610
 s,N,11420.0,1712.0,389.3,110.0,35.57,12.54,4.644
 s,N,1.293,0.5118,0.1787
 p,N,79.89,26.63,5.948,1.742,0.555,0.1725
 d,N,45.0,15.0,5.0,1.654,0.469
 f,N,9.9,3.3,1.093
 s,O,15330.0,2299.0,522.4,147.3,47.55,16.76,6.207
 s,O,1.752,0.6882,0.2384
 p,O,103.5,34.46,7.749,2.28,0.7156,0.214
 d,O,63.0,21.0,7.0,2.314,0.645
 f,O,12.9,4.3,1.428
 s,mg,164900.0,24710.0,5628.0,1596.0,521.0;
 s,mg,188.0,73.01,29.90,12.54,4.306,1.826;
 s,mg,0.7417,0.0761,0.145,0.033,0.0129;
 p,mg,950.70,316.90,74.86,23.72,8.669,3.363;
 p,mg,1.310,0.4911,0.2364,0.08733,0.03237,0.00745;
 d,mg,1.601,0.686,0.126,0.294,0.0468;
 f,mg,1.372,0.588,0.094,0.252;
 }
   {hf,maxit=500;accu,20;}
 {ccsd(t),nocheck,maxit=250;orbital,IGNORE_ERROR;}

 Variables initialized (889), CPU time= 0.01 sec
 Commands  initialized (702), CPU time= 0.01 sec, 572 directives.
 Default parameters read. Elapsed time= 0.05 sec

 Checking input...
 Passed
1


                                         ***  PROGRAM SYSTEM MOLPRO  ***
                                       Copyright, TTI GmbH Stuttgart, 2015
                                    Version 2015.1 linked Jul  9 2018 13:16:40


 **********************************************************************************************************************************
 LABEL *   hno CCSD(T)/TZ-F12 QFF                                                        
  64 bit serial version                                                                  DATE: 08-Feb-20          TIME: 17:57:31  
 **********************************************************************************************************************************

 SHA1:             d5ffa45e93fdbca01ffc919aa182cfdae0147319
 **********************************************************************************************************************************

 THRESHOLDS:

 ZERO    =  1.00D-22  ONEINT  =  1.00D-22  TWOINT  =  1.00D-22  PREFAC  =  1.00D-14  LOCALI  =  1.00D-09  EORDER  =  1.00D-04
 ENERGY  =  1.00D-12  ETEST   =  0.00D+00  EDENS   =  0.00D+00  THRDEDEF=  1.00D-06  GRADIENT=  1.00D-02  STEP    =  1.00D-03
 ORBITAL =  1.00D-05  CIVEC   =  1.00D-05  COEFF   =  1.00D-04  PRINTCI =  5.00D-02  PUNCHCI =  9.90D+01  OPTGRAD =  3.00D-04
 OPTENERG=  1.00D-06  OPTSTEP =  3.00D-04  THRGRAD =  1.00D-10  COMPRESS=  1.00D-11  VARMIN  =  1.00D-07  VARMAX  =  1.00D-03
 THRDOUB =  0.00D+00  THRDIV  =  1.00D-05  THRRED  =  1.00D-07  THRPSP  =  1.00D+00  THRDC   =  1.00D-10  THRCS   =  1.00D-10
 THRNRM  =  1.00D-08  THREQ   =  0.00D+00  THRDE   =  1.00D+00  THRREF  =  1.00D-05  SPARFAC =  1.00D+00  THRDLP  =  1.00D-07
 THRDIA  =  1.00D-10  THRDLS  =  1.00D-07  THRGPS  =  0.00D+00  THRKEX  =  0.00D+00  THRDIS  =  2.00D-01  THRVAR  =  1.00D-10
 THRLOC  =  1.00D-06  THRGAP  =  1.00D-06  THRLOCT = -1.00D+00  THRGAPT = -1.00D+00  THRORB  =  1.00D-06  THRMLTP =  0.00D+00
 THRCPQCI=  1.00D-10  KEXTA   =  0.00D+00  THRCOARS=  0.00D+00  SYMTOL  =  1.00D-06  GRADTOL =  1.00D-06  THROVL  =  1.00D-08
 THRORTH =  1.00D-08  GRID    =  1.00D-06  GRIDMAX =  1.00D-03  DTMAX   =  0.00D+00  THROCCDE=  1.00D-01  THROCCDE=  1.00D-01



 THRESHOLDS:

 ZERO    =  1.00D-22  ONEINT  =  1.00D-22  TWOINT  =  1.00D-22  PREFAC  =  1.00D-14  LOCALI  =  1.00D-09  EORDER  =  1.00D-04
 ENERGY  =  1.00D-12  ETEST   =  0.00D+00  EDENS   =  0.00D+00  THRDEDEF=  1.00D-06  GRADIENT=  1.00D-02  STEP    =  1.00D-03
 ORBITAL =  1.00D-05  CIVEC   =  1.00D-05  COEFF   =  1.00D-04  PRINTCI =  5.00D-02  PUNCHCI =  9.90D+01  OPTGRAD =  1.00D-08
 OPTENERG=  1.00D-06  OPTSTEP =  1.00D-08  THRGRAD =  1.00D-10  COMPRESS=  1.00D-11  VARMIN  =  1.00D-07  VARMAX  =  1.00D-03
 THRDOUB =  0.00D+00  THRDIV  =  1.00D-05  THRRED  =  1.00D-07  THRPSP  =  1.00D+00  THRDC   =  1.00D-10  THRCS   =  1.00D-10
 THRNRM  =  1.00D-08  THREQ   =  0.00D+00  THRDE   =  1.00D+00  THRREF  =  1.00D-05  SPARFAC =  1.00D+00  THRDLP  =  1.00D-07
 THRDIA  =  1.00D-10  THRDLS  =  1.00D-07  THRGPS  =  0.00D+00  THRKEX  =  0.00D+00  THRDIS  =  2.00D-01  THRVAR  =  1.00D-10
 THRLOC  =  1.00D-06  THRGAP  =  1.00D-06  THRLOCT = -1.00D+00  THRGAPT = -1.00D+00  THRORB  =  1.00D-06  THRMLTP =  0.00D+00
 THRCPQCI=  1.00D-10  KEXTA   =  0.00D+00  THRCOARS=  0.00D+00  SYMTOL  =  1.00D-06  GRADTOL =  1.00D-06  THROVL  =  1.00D-08
 THRORTH =  1.00D-08  GRID    =  1.00D-06  GRIDMAX =  1.00D-03  DTMAX   =  0.00D+00  THROCCDE=  1.00D-01  THROCCDE=  1.00D-01



 Input parameters for SORTINT:

 COMPRESS =    0.000000
 C_FINAL  =    1.000000
 DEBUG    =   -1.000000
 C_SORT1  =    0.000000
 C_SEWARD =    0.000000
 THRESH   =    0.000000
 IO       =  molpro                                                          
 SPRI     =    0.000000
 SETTING GEOMTYP        =    XYZ
 ZUNIT=BOHR
 

 Variable memory set to  995000000 words,  buffer space   230000 words

 SETTING BASIS          =    USERDEF


 Recomputing integrals since basis changed


 Using spherical harmonics

 Library entry H      S aug-cc-pVTZ          selected for orbital group  2
 Library entry H      P aug-cc-pVTZ          selected for orbital group  2
 Library entry H      D aug-cc-pVTZ          selected for orbital group  2


 PROGRAM * SEWARD (Integral evaluation for generally contracted gaussian basis sets)     Author: Roland Lindh, 1990

 Geometry written to block  1 of record 700


 Point group  Cs  



 ATOMIC COORDINATES

 NR  ATOM    CHARGE       X              Y              Z

   1  N       7.00    0.000000000   -0.152257931   -1.156771461
   2  H       1.00    0.000000000    1.665031853   -1.939297065
   3  O       8.00    0.000000000    0.028993868    1.145478935

 Bond lengths in Bohr (Angstrom)

 1-2  1.978607712  1-3  2.309374179
     ( 1.047034111)     ( 1.222068187)

 Bond angles

  2-1-3  108.79522515

 NUCLEAR CHARGE:                   16
 NUMBER OF PRIMITIVE AOS:         203
 NUMBER OF SYMMETRY AOS:          173
 NUMBER OF CONTRACTIONS:          171   ( 114A'  +  57A"  )
 NUMBER OF CORE ORBITALS:           2   (   2A'  +   0A"  )
 NUMBER OF VALENCE ORBITALS:        9   (   7A'  +   2A"  )


 NUCLEAR REPULSION ENERGY   30.07793612


 Eigenvalues of metric

         1 0.105E-02 0.261E-02 0.338E-02 0.640E-02 0.968E-02 0.137E-01 0.146E-01 0.231E-01
         2 0.358E-01 0.551E-01 0.702E-01 0.944E-01 0.132E+00 0.134E+00 0.140E+00 0.142E+00


 Contracted 2-electron integrals neglected if value below      1.0D-22

       46071090. INTEGRALS WRITTEN OUT IN   11251 BLOCKS ON RECORD 1290 OF FILE 1


 NUMBER OF SORTED TWO-ELECTRON INTEGRALS:   55360566.     BUFFER LENGTH:  32768
 NUMBER OF SEGMENTS:   4  SEGMENT LENGTH:   15997996      RECORD LENGTH: 524288

 Memory used in sort:      16.56 MW

 SORT1 READ    46071090. AND WROTE    46507741. INTEGRALS IN    135 RECORDS. CPU TIME:     0.78 SEC, REAL TIME:     1.06 SEC
 SORT2 READ    46507741. AND WROTE    55360566. INTEGRALS IN      4 RECORDS. CPU TIME:     0.60 SEC, REAL TIME:     0.84 SEC

 FILE SIZES:   FILE 1:   758.1 MBYTE,  FILE 4:   566.3 MBYTE,   TOTAL:   1324.3 MBYTE

 OPERATOR DM      FOR CENTER  0  COORDINATES:    0.000000    0.000000    0.000000


 **********************************************************************************************************************************
 DATASETS  * FILE   NREC   LENGTH (MB)   RECORD NAMES
              1      19      420.74       500      610      700      900      950      970     1000      129      960     1100   
                                          VAR    BASINP    GEOM    SYMINP    ZMAT    AOBASIS   BASIS     P2S    ABASIS      S 
                                         1400     1410     1200     1210     1080     1600     1650     1300     1700   
                                           T        V       H0       H01     AOSYM     SMH    MOLCAS    ERIS     OPER   

 PROGRAMS   *        TOTAL       INT
 CPU TIMES  *         4.20      4.12
 REAL TIME  *         5.60 SEC
 DISK USED  *         1.32 GB      
 **********************************************************************************************************************************


 PROGRAM * RHF-SCF (CLOSED SHELL)       Authors: W. Meyer, H.-J. Werner


 NUMBER OF ELECTRONS:       8+    8-
 CONVERGENCE THRESHOLDS:    1.00E-10 (Density)    1.00E-13 (Energy)
 MAX. NUMBER OF ITERATIONS:      500
 INTERPOLATION TYPE:            DIIS
 INTERPOLATION STEPS:              2 (START)      1 (STEP)
 LEVEL SHIFTS:                  0.00 (CLOSED)  0.00 (OPEN) 



 Orbital guess generated from atomic densities. Full valence occupancy:    9   2

 Molecular orbital dump at record        2100.2

 Initial occupancy:   7   1

 ITERATION    DDIFF          GRAD             ENERGY        2-EL.EN.            DIPOLE MOMENTS         DIIS   ORB.
    1      0.000D+00      0.000D+00      -129.78535583    153.542040    0.00000    0.58450   -1.05978    0    start
    2      0.000D+00      0.890D-02      -129.81173276    154.683755    0.00000    0.60640   -0.19198    1    diag
    3      0.373D-02      0.696D-02      -129.83669061    154.836678    0.00000    0.55728   -0.60669    2    diag
    4      0.147D-02      0.106D-02      -129.83750367    154.552403    0.00000    0.56477   -0.54169    3    diag
    5      0.338D-03      0.343D-03      -129.83762798    154.641477    0.00000    0.57078   -0.54388    4    diag
    6      0.155D-03      0.100D-03      -129.83764824    154.625284    0.00000    0.57129   -0.53952    5    diag
    7      0.611D-04      0.510D-04      -129.83765446    154.627651    0.00000    0.57257   -0.53683    6    diag
    8      0.420D-04      0.183D-04      -129.83765522    154.626765    0.00000    0.57262   -0.53581    7    diag
    9      0.157D-04      0.346D-05      -129.83765525    154.626639    0.00000    0.57256   -0.53560    8    diag
   10      0.327D-05      0.767D-06      -129.83765525    154.626625    0.00000    0.57253   -0.53558    9    orth
   11      0.917D-06      0.151D-06      -129.83765525    154.626621    0.00000    0.57252   -0.53557    9    diag
   12      0.212D-06      0.323D-07      -129.83765525    154.626620    0.00000    0.57252   -0.53557    9    diag
   13      0.517D-07      0.887D-08      -129.83765525    154.626620    0.00000    0.57252   -0.53557    9    diag
   14      0.122D-07      0.157D-08      -129.83765525    154.626620    0.00000    0.57252   -0.53557    9    diag
   15      0.140D-08      0.416D-09      -129.83765525    154.626620    0.00000    0.57252   -0.53557    9    diag
   16      0.352D-09      0.121D-09      -129.83765525    154.626620    0.00000    0.57252   -0.53557    9    diag
   17      0.642D-10      0.321D-10      -129.83765525    154.626620    0.00000    0.57252   -0.53557    9    diag
   18      0.185D-10      0.105D-10      -129.83765525    154.626620    0.00000    0.57252   -0.53557    0    orth

 Final occupancy:   7   1

 !RHF STATE 1.1 Energy               -129.837655250996
 Nuclear energy                        30.07793612
 One-electron energy                 -237.22890122
 Two-electron energy                   77.31330985
 Virial quotient                       -1.00199764
 !RHF STATE 1.1 Dipole moment           0.00000000     0.57251554    -0.53557096
 Dipole moment /Debye                   0.00000000     1.45509405    -1.36119644

 Orbital energies:

         1.1          2.1          3.1          4.1          5.1          6.1          7.1          8.1          9.1
    -20.652643   -15.712199    -1.516399    -0.997823    -0.741477    -0.660285    -0.432853     0.039455     0.192476

         1.2          2.2          3.2
     -0.587462     0.074029     0.239180

 HOMO      7.1    -0.432853 =     -11.7785eV
 LUMO      8.1     0.039455 =       1.0736eV
 LUMO-HOMO         0.472308 =      12.8521eV


 **********************************************************************************************************************************
 DATASETS  * FILE   NREC   LENGTH (MB)   RECORD NAMES
              1      19      420.74       500      610      700      900      950      970     1000      129      960     1100   
                                          VAR    BASINP    GEOM    SYMINP    ZMAT    AOBASIS   BASIS     P2S    ABASIS      S 
                                         1400     1410     1200     1210     1080     1600     1650     1300     1700   
                                           T        V       H0       H01     AOSYM     SMH    MOLCAS    ERIS     OPER   

              2       4        3.13       700     1000      520     2100   
                                         GEOM     BASIS   MCVARS     RHF  

 PROGRAMS   *        TOTAL        HF       INT
 CPU TIMES  *         8.85      4.65      4.12
 REAL TIME  *        11.19 SEC
 DISK USED  *         1.32 GB      
 **********************************************************************************************************************************


 PROGRAM * CCSD (Closed-shell coupled cluster)     Authors: C. Hampel, H.-J. Werner, 1991, M. Deegan, P.J. Knowles, 1992


 Convergence thresholds:  THRVAR = 1.00D-08  THRDEN = 1.00D-12

 CCSD(T)     terms to be evaluated (factor= 1.000)


 Number of core orbitals:           2 (   2   0 )
 Number of closed-shell orbitals:   6 (   5   1 )
 Number of external orbitals:     163 ( 107  56 )

 Molecular orbitals read from record     2100.2  Type=RHF/CANONICAL (state 1.1)

 Number of N-1 electron functions:               6
 Number of N-2 electron functions:              21
 Number of singly external CSFs:               591
 Number of doubly external CSFs:            250014
 Total number of CSFs:                      250606

 Length of J-op  integral file:               0.00 MB
 Length of K-op  integral file:               1.15 MB
 Length of 3-ext integral record:             0.00 MB

 Memory could be reduced to 19.93 Mwords without degradation in triples

 Integral transformation finished. Total CPU:   0.74 sec, npass=  1  Memory used:   5.10 MW

 Reference energy:                   -129.83765525

 MP2 singlet pair energy:              -0.28820136
 MP2 triplet pair energy:              -0.16808397
 MP2 correlation energy:               -0.45628533
 MP2 total energy:                   -130.29394058

 SCS-MP2 correlation energy:           -0.45042721   (PS=  1.200000  PT=  0.333333)
 SCS-MP2 total energy:               -130.28808246

 ITER.      SQ.NORM     CORR.ENERGY   TOTAL ENERGY   ENERGY CHANGE        DEN1      VAR(S)    VAR(P)  DIIS     TIME  TIME/IT
   1      1.12017628    -0.45789302  -130.29554827    -0.00160769     0.01574653  0.34D-02  0.32D-02  1  1     1.34     0.68
   2      1.13103532    -0.45768943  -130.29534469     0.00020358    -0.01285457  0.13D-03  0.52D-03  2  2     1.97     0.69
   3      1.13786489    -0.45807983  -130.29573509    -0.00039040    -0.00344838  0.48D-04  0.61D-04  3  3     2.60     0.70
   4      1.14090277    -0.45811379  -130.29576904    -0.00003395    -0.00098818  0.48D-05  0.10D-04  4  4     3.21     0.70
   5      1.14207803    -0.45814894  -130.29580419    -0.00003516    -0.00023942  0.14D-05  0.18D-05  5  5     3.82     0.70
   6      1.14250265    -0.45813165  -130.29578690     0.00001729    -0.00007049  0.12D-06  0.44D-06  6  6     4.46     0.70
   7      1.14257603    -0.45813339  -130.29578864    -0.00000174     0.00000948  0.16D-07  0.10D-06  6  1     5.12     0.71
   8      1.14261190    -0.45813282  -130.29578807     0.00000057    -0.00000506  0.50D-08  0.16D-07  6  2     5.77     0.71
   9      1.14261725    -0.45813268  -130.29578793     0.00000014     0.00000123  0.23D-08  0.19D-08  6  3     6.41     0.71
  10      1.14261780    -0.45813302  -130.29578827    -0.00000034    -0.00000035  0.55D-09  0.30D-09  6  4     7.05     0.71
  11      1.14261622    -0.45813317  -130.29578842    -0.00000015     0.00000036  0.14D-09  0.30D-10  6  5     7.70     0.71
  12      1.14261500    -0.45813333  -130.29578858    -0.00000016     0.00000050  0.17D-10  0.84D-11  6  6     8.35     0.71
  13      1.14261431    -0.45813335  -130.29578861    -0.00000002     0.00000013  0.62D-11  0.15D-11  6  1     9.01     0.71
  14      1.14261376    -0.45813338  -130.29578864    -0.00000003     0.00000013  0.55D-12  0.50D-12  6  3     9.65     0.71
  15      1.14261359    -0.45813338  -130.29578864     0.00000000     0.00000001  0.14D-12  0.36D-13  6  2    10.31     0.71
  16      1.14261353    -0.45813339  -130.29578864    -0.00000000     0.00000001  0.33D-13  0.84D-14  6  4    10.95     0.71
  17      1.14261350    -0.45813339  -130.29578864    -0.00000000     0.00000001  0.47D-14  0.13D-14  6  5    11.57     0.71
  18      1.14261350    -0.45813339  -130.29578864    -0.00000000     0.00000000  0.56D-15  0.36D-15  6  6    12.22     0.71
  19      1.14261350    -0.45813339  -130.29578864     0.00000000    -0.00000000  0.78D-16  0.53D-16  6  1    12.86     0.71
  20      1.14261351    -0.45813339  -130.29578864     0.00000000    -0.00000000  0.39D-17  0.13D-16  6  3    13.51     0.71
  21      1.14261351    -0.45813339  -130.29578864     0.00000000    -0.00000000  0.63D-18  0.28D-17  6  4    14.15     0.71
  22      1.14261351    -0.45813339  -130.29578864     0.00000000    -0.00000000  0.55D-19  0.10D-17  6  2    14.78     0.71
  23      1.14261351    -0.45813339  -130.29578864    -0.00000000     0.00000000  0.96D-19  0.19D-18  6  5    15.41     0.71
  24      1.14261351    -0.45813339  -130.29578864    -0.00000000     0.00000000  0.54D-20  0.18D-19  6  1    16.09     0.71
  25      1.14261351    -0.45813339  -130.29578864     0.00000000    -0.00000000  0.27D-20  0.13D-20  6  6    16.74     0.72

 Norm of t1 vector:      0.07943308      S-energy:     0.00000000      T1 diagnostic:  0.01621421
                                                                       D1 diagnostic:  0.04489322

 Doubles amplitudes (print threshold =  0.500E-01):

         I         J         SYM. A    SYM. B    A         B      T(IJ, AB)

         6         6         2         2         1         1     -0.13965469


 Total CPU time for triples:      8.16 sec


 RESULTS
 =======

  Reference energy                   -129.837655250996
  CCSD singlet pair energy             -0.314952506095
  CCSD triplet pair energy             -0.143180881740
  CCSD correlation energy              -0.458133387832

  Triples (T) contribution             -0.021610835646
  Total correlation energy             -0.479744223478

  CCSD total energy                  -130.295788638828
  CCSD[T] energy                     -130.318557109905
  CCSD-T energy                      -130.316970762581
 !CCSD(T) total energy               -130.317399474474

 Timing summary (sec):

 STEP                 CPU(USER)    SYS     CPU(TOT)    WALL
 Transformation          0.75      0.14      0.89      0.89
 CCSD iterations        15.99      1.88     17.87     17.89
 Triples                 8.16      0.26      8.42      8.42

 Program statistics:

 Available memory in ccsd:               994999756
 Min. memory needed in ccsd:                887758
 Max. memory used in ccsd:                 1088212
 Max. memory used in cckext:               1535578 (25 integral passes)



 **********************************************************************************************************************************
 DATASETS  * FILE   NREC   LENGTH (MB)   RECORD NAMES
              1      20      478.69       500      610      700      900      950      970     1000      129      960     1100   
                                          VAR    BASINP    GEOM    SYMINP    ZMAT    AOBASIS   BASIS     P2S    ABASIS      S 
                                         1400     1410     1200     1210     1080     1600     1650     1300     1700     1380   
                                           T        V       H0       H01     AOSYM     SMH    MOLCAS    ERIS     OPER     JKOP   

              2       4        3.13       700     1000      520     2100   
                                         GEOM     BASIS   MCVARS     RHF  

 PROGRAMS   *        TOTAL   CCSD(T)        HF       INT
 CPU TIMES  *        33.78     24.93      4.65      4.12
 REAL TIME  *        38.42 SEC
 DISK USED  *         1.32 GB      
 **********************************************************************************************************************************

 CCSD(T)/USERDEF energy=   -130.317399474474

        CCSD(T)         HF-SCF  
   -130.31739947   -129.83765525
 **********************************************************************************************************************************
 Molpro calculation terminated
 Variable memory released
