
 Primary working directories    : /tmp/r2666/235392.maple
 Secondary working directories  : /tmp/r2666/235392.maple
 Wavefunction directory         : /ddn/home4/r2666/wfu/
 Main file repository           : /tmp/r2666/235392.maple/

 SHA1      : d5ffa45e93fdbca01ffc919aa182cfdae0147319
 NAME      : 2015.1.35
 ARCHNAME  : linux/x86_64
 FC        : /opt/intel/composer_xe_2015.1.133/bin/intel64/ifort
 BLASLIB   : -Wl,-_start-group /opt/intel/mkl/lib/intel64/libmkl_intel_ilp64.a /opt/intel/mkl/lib/intel64/libmkl_intel_thread.a /opt/intel/mkl/lib/intel64/libmkl_core.a -Wl,-_end-group
 id        : olemiss

 Nodes     nprocs
 cn092        1

 Using customized tuning parameters: mindgm=1; mindgv=20; mindgc=4; mindgr=1; noblas=0; minvec=7
 default implementation of scratch files=df  

 ***,hno CCSD(T)/TZ-F12 QFF
 memory, 995, m;
 gthresh,energy=1.d-12,zero=1.d-22,oneint=1.d-22,twoint=1.d-22;
 gthresh,optgrad=1.d-8,optstep=1.d-8;
 nocompress;
 geomtyp=xyz
 bohr
 geometry={
 3
        118       118
 N        0.0000000000       -0.1747064527       -1.1498217351
 H        0.0000000000        1.6756440532       -1.9270384139
 O        0.0000000000        0.0408301894        1.1262705579
 }
 
 basis={
 default=aug-cc-pvtz
 s,C,8236.0,1235.0,280.8, 79.27,25.59, 8.997,3.319
 s,C,0.9059,0.3643,0.1285000
 p,C,56.0,18.71,4.133,0.2827,0.3827,0.1209
 d,C,30.0,10.0,3.3,1.097,0.318
 f,C,7.0,2.3,0.7610
 s,N,11420.0,1712.0,389.3,110.0,35.57,12.54,4.644
 s,N,1.293,0.5118,0.1787
 p,N,79.89,26.63,5.948,1.742,0.555,0.1725
 d,N,45.0,15.0,5.0,1.654,0.469
 f,N,9.9,3.3,1.093
 s,O,15330.0,2299.0,522.4,147.3,47.55,16.76,6.207
 s,O,1.752,0.6882,0.2384
 p,O,103.5,34.46,7.749,2.28,0.7156,0.214
 d,O,63.0,21.0,7.0,2.314,0.645
 f,O,12.9,4.3,1.428
 s,mg,164900.0,24710.0,5628.0,1596.0,521.0;
 s,mg,188.0,73.01,29.90,12.54,4.306,1.826;
 s,mg,0.7417,0.0761,0.145,0.033,0.0129;
 p,mg,950.70,316.90,74.86,23.72,8.669,3.363;
 p,mg,1.310,0.4911,0.2364,0.08733,0.03237,0.00745;
 d,mg,1.601,0.686,0.126,0.294,0.0468;
 f,mg,1.372,0.588,0.094,0.252;
 }
   {hf,maxit=500;accu,20;}
 {ccsd(t),nocheck,maxit=250;orbital,IGNORE_ERROR;}

 Variables initialized (889), CPU time= 0.01 sec
 Commands  initialized (702), CPU time= 0.01 sec, 572 directives.
 Default parameters read. Elapsed time= 0.04 sec

 Checking input...
 Passed
1


                                         ***  PROGRAM SYSTEM MOLPRO  ***
                                       Copyright, TTI GmbH Stuttgart, 2015
                                    Version 2015.1 linked Jul  9 2018 13:16:40


 **********************************************************************************************************************************
 LABEL *   hno CCSD(T)/TZ-F12 QFF                                                        
  64 bit serial version                                                                  DATE: 08-Feb-20          TIME: 17:58:53  
 **********************************************************************************************************************************

 SHA1:             d5ffa45e93fdbca01ffc919aa182cfdae0147319
 **********************************************************************************************************************************

 THRESHOLDS:

 ZERO    =  1.00D-22  ONEINT  =  1.00D-22  TWOINT  =  1.00D-22  PREFAC  =  1.00D-14  LOCALI  =  1.00D-09  EORDER  =  1.00D-04
 ENERGY  =  1.00D-12  ETEST   =  0.00D+00  EDENS   =  0.00D+00  THRDEDEF=  1.00D-06  GRADIENT=  1.00D-02  STEP    =  1.00D-03
 ORBITAL =  1.00D-05  CIVEC   =  1.00D-05  COEFF   =  1.00D-04  PRINTCI =  5.00D-02  PUNCHCI =  9.90D+01  OPTGRAD =  3.00D-04
 OPTENERG=  1.00D-06  OPTSTEP =  3.00D-04  THRGRAD =  1.00D-10  COMPRESS=  1.00D-11  VARMIN  =  1.00D-07  VARMAX  =  1.00D-03
 THRDOUB =  0.00D+00  THRDIV  =  1.00D-05  THRRED  =  1.00D-07  THRPSP  =  1.00D+00  THRDC   =  1.00D-10  THRCS   =  1.00D-10
 THRNRM  =  1.00D-08  THREQ   =  0.00D+00  THRDE   =  1.00D+00  THRREF  =  1.00D-05  SPARFAC =  1.00D+00  THRDLP  =  1.00D-07
 THRDIA  =  1.00D-10  THRDLS  =  1.00D-07  THRGPS  =  0.00D+00  THRKEX  =  0.00D+00  THRDIS  =  2.00D-01  THRVAR  =  1.00D-10
 THRLOC  =  1.00D-06  THRGAP  =  1.00D-06  THRLOCT = -1.00D+00  THRGAPT = -1.00D+00  THRORB  =  1.00D-06  THRMLTP =  0.00D+00
 THRCPQCI=  1.00D-10  KEXTA   =  0.00D+00  THRCOARS=  0.00D+00  SYMTOL  =  1.00D-06  GRADTOL =  1.00D-06  THROVL  =  1.00D-08
 THRORTH =  1.00D-08  GRID    =  1.00D-06  GRIDMAX =  1.00D-03  DTMAX   =  0.00D+00  THROCCDE=  1.00D-01  THROCCDE=  1.00D-01



 THRESHOLDS:

 ZERO    =  1.00D-22  ONEINT  =  1.00D-22  TWOINT  =  1.00D-22  PREFAC  =  1.00D-14  LOCALI  =  1.00D-09  EORDER  =  1.00D-04
 ENERGY  =  1.00D-12  ETEST   =  0.00D+00  EDENS   =  0.00D+00  THRDEDEF=  1.00D-06  GRADIENT=  1.00D-02  STEP    =  1.00D-03
 ORBITAL =  1.00D-05  CIVEC   =  1.00D-05  COEFF   =  1.00D-04  PRINTCI =  5.00D-02  PUNCHCI =  9.90D+01  OPTGRAD =  1.00D-08
 OPTENERG=  1.00D-06  OPTSTEP =  1.00D-08  THRGRAD =  1.00D-10  COMPRESS=  1.00D-11  VARMIN  =  1.00D-07  VARMAX  =  1.00D-03
 THRDOUB =  0.00D+00  THRDIV  =  1.00D-05  THRRED  =  1.00D-07  THRPSP  =  1.00D+00  THRDC   =  1.00D-10  THRCS   =  1.00D-10
 THRNRM  =  1.00D-08  THREQ   =  0.00D+00  THRDE   =  1.00D+00  THRREF  =  1.00D-05  SPARFAC =  1.00D+00  THRDLP  =  1.00D-07
 THRDIA  =  1.00D-10  THRDLS  =  1.00D-07  THRGPS  =  0.00D+00  THRKEX  =  0.00D+00  THRDIS  =  2.00D-01  THRVAR  =  1.00D-10
 THRLOC  =  1.00D-06  THRGAP  =  1.00D-06  THRLOCT = -1.00D+00  THRGAPT = -1.00D+00  THRORB  =  1.00D-06  THRMLTP =  0.00D+00
 THRCPQCI=  1.00D-10  KEXTA   =  0.00D+00  THRCOARS=  0.00D+00  SYMTOL  =  1.00D-06  GRADTOL =  1.00D-06  THROVL  =  1.00D-08
 THRORTH =  1.00D-08  GRID    =  1.00D-06  GRIDMAX =  1.00D-03  DTMAX   =  0.00D+00  THROCCDE=  1.00D-01  THROCCDE=  1.00D-01



 Input parameters for SORTINT:

 COMPRESS =    0.000000
 C_FINAL  =    1.000000
 DEBUG    =   -1.000000
 C_SORT1  =    0.000000
 C_SEWARD =    0.000000
 THRESH   =    0.000000
 IO       =  molpro                                                          
 SPRI     =    0.000000
 SETTING GEOMTYP        =    XYZ
 ZUNIT=BOHR
 

 Variable memory set to  995000000 words,  buffer space   230000 words

 SETTING BASIS          =    USERDEF


 Recomputing integrals since basis changed


 Using spherical harmonics

 Library entry H      S aug-cc-pVTZ          selected for orbital group  2
 Library entry H      P aug-cc-pVTZ          selected for orbital group  2
 Library entry H      D aug-cc-pVTZ          selected for orbital group  2


 PROGRAM * SEWARD (Integral evaluation for generally contracted gaussian basis sets)     Author: Roland Lindh, 1990

 Geometry written to block  1 of record 700


 Point group  Cs  



 ATOMIC COORDINATES

 NR  ATOM    CHARGE       X              Y              Z

   1  N       7.00    0.000000000   -0.174706453   -1.149821735
   2  H       1.00    0.000000000    1.675644053   -1.927038414
   3  O       8.00    0.000000000    0.040830189    1.126270558

 Bond lengths in Bohr (Angstrom)

 1-2  2.006953602  1-3  2.286274736
     ( 1.062034110)     ( 1.209844488)

 Bond angles

  2-1-3  107.37468913

 NUCLEAR CHARGE:                   16
 NUMBER OF PRIMITIVE AOS:         203
 NUMBER OF SYMMETRY AOS:          173
 NUMBER OF CONTRACTIONS:          171   ( 114A'  +  57A"  )
 NUMBER OF CORE ORBITALS:           2   (   2A'  +   0A"  )
 NUMBER OF VALENCE ORBITALS:        9   (   7A'  +   2A"  )


 NUCLEAR REPULSION ENERGY   30.29171981


 Eigenvalues of metric

         1 0.107E-02 0.251E-02 0.338E-02 0.643E-02 0.102E-01 0.138E-01 0.145E-01 0.235E-01
         2 0.377E-01 0.536E-01 0.710E-01 0.941E-01 0.131E+00 0.134E+00 0.141E+00 0.142E+00


 Contracted 2-electron integrals neglected if value below      1.0D-22

       46145461. INTEGRALS WRITTEN OUT IN   11269 BLOCKS ON RECORD 1290 OF FILE 1


 NUMBER OF SORTED TWO-ELECTRON INTEGRALS:   55360566.     BUFFER LENGTH:  32768
 NUMBER OF SEGMENTS:   4  SEGMENT LENGTH:   15997996      RECORD LENGTH: 524288

 Memory used in sort:      16.56 MW

 SORT1 READ    46145461. AND WROTE    46582903. INTEGRALS IN    135 RECORDS. CPU TIME:     0.75 SEC, REAL TIME:     1.06 SEC
 SORT2 READ    46582903. AND WROTE    55360566. INTEGRALS IN      4 RECORDS. CPU TIME:     0.61 SEC, REAL TIME:     0.86 SEC

 FILE SIZES:   FILE 1:   759.3 MBYTE,  FILE 4:   566.3 MBYTE,   TOTAL:   1325.5 MBYTE

 OPERATOR DM      FOR CENTER  0  COORDINATES:    0.000000    0.000000    0.000000


 **********************************************************************************************************************************
 DATASETS  * FILE   NREC   LENGTH (MB)   RECORD NAMES
              1      19      421.25       500      610      700      900      950      970     1000      129      960     1100   
                                          VAR    BASINP    GEOM    SYMINP    ZMAT    AOBASIS   BASIS     P2S    ABASIS      S 
                                         1400     1410     1200     1210     1080     1600     1650     1300     1700   
                                           T        V       H0       H01     AOSYM     SMH    MOLCAS    ERIS     OPER   

 PROGRAMS   *        TOTAL       INT
 CPU TIMES  *         4.15      4.05
 REAL TIME  *         5.78 SEC
 DISK USED  *         1.33 GB      
 **********************************************************************************************************************************


 PROGRAM * RHF-SCF (CLOSED SHELL)       Authors: W. Meyer, H.-J. Werner


 NUMBER OF ELECTRONS:       8+    8-
 CONVERGENCE THRESHOLDS:    1.00E-10 (Density)    1.00E-13 (Energy)
 MAX. NUMBER OF ITERATIONS:      500
 INTERPOLATION TYPE:            DIIS
 INTERPOLATION STEPS:              2 (START)      1 (STEP)
 LEVEL SHIFTS:                  0.00 (CLOSED)  0.00 (OPEN) 



 Orbital guess generated from atomic densities. Full valence occupancy:    9   2

 Molecular orbital dump at record        2100.2

 Initial occupancy:   7   1

 ITERATION    DDIFF          GRAD             ENERGY        2-EL.EN.            DIPOLE MOMENTS         DIIS   ORB.
    1      0.000D+00      0.000D+00      -129.78773910    153.918945    0.00000    0.55655   -1.01894    0    start
    2      0.000D+00      0.885D-02      -129.81458829    155.097442    0.00000    0.59822   -0.18760    1    diag
    3      0.364D-02      0.679D-02      -129.83821210    155.220288    0.00000    0.54051   -0.58203    2    diag
    4      0.144D-02      0.104D-02      -129.83899927    154.943366    0.00000    0.54890   -0.51958    3    diag
    5      0.329D-03      0.340D-03      -129.83912258    155.032162    0.00000    0.55500   -0.52195    4    diag
    6      0.154D-03      0.100D-03      -129.83914288    155.015879    0.00000    0.55554   -0.51776    5    diag
    7      0.611D-04      0.504D-04      -129.83914888    155.018455    0.00000    0.55690   -0.51521    6    diag
    8      0.415D-04      0.174D-04      -129.83914954    155.017605    0.00000    0.55695   -0.51428    7    diag
    9      0.146D-04      0.325D-05      -129.83914956    155.017488    0.00000    0.55690   -0.51410    8    diag
   10      0.297D-05      0.733D-06      -129.83914957    155.017473    0.00000    0.55687   -0.51407    9    orth
   11      0.863D-06      0.146D-06      -129.83914957    155.017469    0.00000    0.55686   -0.51406    9    diag
   12      0.206D-06      0.307D-07      -129.83914957    155.017468    0.00000    0.55685   -0.51406    9    diag
   13      0.513D-07      0.819D-08      -129.83914957    155.017468    0.00000    0.55685   -0.51406    9    diag
   14      0.120D-07      0.144D-08      -129.83914957    155.017468    0.00000    0.55685   -0.51406    9    diag
   15      0.152D-08      0.388D-09      -129.83914957    155.017468    0.00000    0.55685   -0.51406    9    diag
   16      0.338D-09      0.115D-09      -129.83914957    155.017468    0.00000    0.55685   -0.51406    9    diag
   17      0.804D-10      0.326D-10      -129.83914957    155.017468    0.00000    0.55685   -0.51406    9    diag
   18      0.255D-10      0.109D-10      -129.83914957    155.017468    0.00000    0.55685   -0.51406    9    diag
   19      0.104D-10      0.267D-11      -129.83914957    155.017468    0.00000    0.55685   -0.51406    9    fixocc
   20      0.265D-11      0.102D-11      -129.83914957    155.017468    0.00000    0.55685   -0.51406    9    orth
   21      0.289D-12      0.456D-12      -129.83914957    155.017468    0.00000    0.55685   -0.51406    9    diag
   22      0.194D-12      0.372D-12      -129.83914957    155.017468    0.00000    0.55685   -0.51406    9    diag
   23      0.832D-13      0.618D-12      -129.83914957    155.017468    0.00000    0.55685   -0.51406    0    orth

 Final occupancy:   7   1

 !RHF STATE 1.1 Energy               -129.839149566132
 Nuclear energy                        30.29171981
 One-electron energy                 -237.63960323
 Two-electron energy                   77.50873385
 Virial quotient                       -1.00178258
 !RHF STATE 1.1 Dipole moment           0.00000000     0.55685444    -0.51406231
 Dipole moment /Debye                   0.00000000     1.41529011    -1.30653048

 Orbital energies:

         1.1          2.1          3.1          4.1          5.1          6.1          7.1          8.1          9.1
    -20.651463   -15.712427    -1.526818    -0.990396    -0.743568    -0.663551    -0.429261     0.039702     0.191838

         1.2          2.2          3.2
     -0.593584     0.078638     0.239303

 HOMO      7.1    -0.429261 =     -11.6808eV
 LUMO      8.1     0.039702 =       1.0803eV
 LUMO-HOMO         0.468963 =      12.7611eV


 **********************************************************************************************************************************
 DATASETS  * FILE   NREC   LENGTH (MB)   RECORD NAMES
              1      19      421.25       500      610      700      900      950      970     1000      129      960     1100   
                                          VAR    BASINP    GEOM    SYMINP    ZMAT    AOBASIS   BASIS     P2S    ABASIS      S 
                                         1400     1410     1200     1210     1080     1600     1650     1300     1700   
                                           T        V       H0       H01     AOSYM     SMH    MOLCAS    ERIS     OPER   

              2       4        3.13       700     1000      520     2100   
                                         GEOM     BASIS   MCVARS     RHF  

 PROGRAMS   *        TOTAL        HF       INT
 CPU TIMES  *         9.97      5.82      4.05
 REAL TIME  *        12.74 SEC
 DISK USED  *         1.33 GB      
 **********************************************************************************************************************************


 PROGRAM * CCSD (Closed-shell coupled cluster)     Authors: C. Hampel, H.-J. Werner, 1991, M. Deegan, P.J. Knowles, 1992


 Convergence thresholds:  THRVAR = 1.00D-08  THRDEN = 1.00D-12

 CCSD(T)     terms to be evaluated (factor= 1.000)


 Number of core orbitals:           2 (   2   0 )
 Number of closed-shell orbitals:   6 (   5   1 )
 Number of external orbitals:     163 ( 107  56 )

 Molecular orbitals read from record     2100.2  Type=RHF/CANONICAL (state 1.1)

 Number of N-1 electron functions:               6
 Number of N-2 electron functions:              21
 Number of singly external CSFs:               591
 Number of doubly external CSFs:            250014
 Total number of CSFs:                      250606

 Length of J-op  integral file:               0.00 MB
 Length of K-op  integral file:               1.15 MB
 Length of 3-ext integral record:             0.00 MB

 Memory could be reduced to 19.93 Mwords without degradation in triples

 Integral transformation finished. Total CPU:   0.72 sec, npass=  1  Memory used:   5.10 MW

 Reference energy:                   -129.83914957

 MP2 singlet pair energy:              -0.28729245
 MP2 triplet pair energy:              -0.16744887
 MP2 correlation energy:               -0.45474133
 MP2 total energy:                   -130.29389089

 SCS-MP2 correlation energy:           -0.44894135   (PS=  1.200000  PT=  0.333333)
 SCS-MP2 total energy:               -130.28809092

 ITER.      SQ.NORM     CORR.ENERGY   TOTAL ENERGY   ENERGY CHANGE        DEN1      VAR(S)    VAR(P)  DIIS     TIME  TIME/IT
   1      1.11932372    -0.45677990  -130.29592947    -0.00203857     0.01487562  0.32D-02  0.31D-02  1  1     1.33     0.66
   2      1.12994205    -0.45667977  -130.29582934     0.00010013    -0.01260270  0.12D-03  0.50D-03  2  2     1.97     0.68
   3      1.13658584    -0.45705961  -130.29620918    -0.00037984    -0.00340029  0.45D-04  0.58D-04  3  3     2.58     0.69
   4      1.13948593    -0.45709112  -130.29624069    -0.00003151    -0.00095618  0.46D-05  0.97D-05  4  4     3.17     0.69
   5      1.14058106    -0.45712438  -130.29627394    -0.00003325    -0.00022396  0.14D-05  0.17D-05  5  5     3.77     0.69
   6      1.14098111    -0.45710840  -130.29625797     0.00001598    -0.00006651  0.13D-06  0.41D-06  6  6     4.39     0.69
   7      1.14105423    -0.45710977  -130.29625933    -0.00000137     0.00000853  0.19D-07  0.90D-07  6  1     5.02     0.69
   8      1.14108928    -0.45710926  -130.29625883     0.00000051    -0.00000474  0.46D-08  0.14D-07  6  2     5.68     0.70
   9      1.14109491    -0.45710912  -130.29625868     0.00000014     0.00000095  0.21D-08  0.17D-08  6  3     6.32     0.70
  10      1.14109540    -0.45710944  -130.29625901    -0.00000033    -0.00000025  0.48D-09  0.26D-09  6  4     6.95     0.70
  11      1.14109390    -0.45710958  -130.29625915    -0.00000014     0.00000034  0.12D-09  0.26D-10  6  5     7.56     0.70
  12      1.14109274    -0.45710973  -130.29625929    -0.00000015     0.00000047  0.15D-10  0.74D-11  6  6     8.19     0.70
  13      1.14109209    -0.45710975  -130.29625931    -0.00000002     0.00000012  0.59D-11  0.13D-11  6  1     8.82     0.70
  14      1.14109157    -0.45710977  -130.29625934    -0.00000003     0.00000012  0.54D-12  0.43D-12  6  3     9.46     0.70
  15      1.14109142    -0.45710977  -130.29625934     0.00000000     0.00000001  0.14D-12  0.30D-13  6  2    10.07     0.70
  16      1.14109137    -0.45710978  -130.29625934    -0.00000000     0.00000001  0.33D-13  0.76D-14  6  4    10.68     0.70
  17      1.14109135    -0.45710978  -130.29625934    -0.00000000     0.00000001  0.42D-14  0.12D-14  6  5    11.33     0.70
  18      1.14109135    -0.45710978  -130.29625934     0.00000000     0.00000000  0.45D-15  0.33D-15  6  6    11.94     0.70
  19      1.14109135    -0.45710978  -130.29625934     0.00000000    -0.00000000  0.62D-16  0.42D-16  6  1    12.59     0.70
  20      1.14109135    -0.45710978  -130.29625934     0.00000000    -0.00000000  0.33D-17  0.10D-16  6  3    13.21     0.70
  21      1.14109135    -0.45710978  -130.29625934     0.00000000    -0.00000000  0.51D-18  0.21D-17  6  4    13.82     0.70
  22      1.14109135    -0.45710978  -130.29625934     0.00000000    -0.00000000  0.15D-19  0.75D-18  6  2    14.43     0.70
  23      1.14109135    -0.45710978  -130.29625934    -0.00000000     0.00000000  0.28D-19  0.13D-18  6  4    15.08     0.70
  24      1.14109135    -0.45710978  -130.29625934     0.00000000    -0.00000000  0.34D-20  0.63D-20  6  5    15.69     0.70
  25      1.14109135    -0.45710978  -130.29625934    -0.00000000     0.00000000  0.33D-21  0.54D-21  6  6    16.34     0.70
  26      1.14109135    -0.45710978  -130.29625934     0.00000000    -0.00000000  0.13D-21  0.58D-22  6  1    16.99     0.70
  27      1.14109135    -0.45710978  -130.29625934    -0.00000000    -0.00000000  0.49D-22  0.16D-22  6  3    17.65     0.70

 Norm of t1 vector:      0.07774891      S-energy:    -0.00000000      T1 diagnostic:  0.01587043
                                                                       D1 diagnostic:  0.04318076

 Doubles amplitudes (print threshold =  0.500E-01):

         I         J         SYM. A    SYM. B    A         B      T(IJ, AB)

         6         6         2         2         1         1     -0.13601919


 Total CPU time for triples:      7.66 sec


 RESULTS
 =======

  Reference energy                   -129.839149566132
  CCSD singlet pair energy             -0.314042867372
  CCSD triplet pair energy             -0.143066909837
  CCSD correlation energy              -0.457109777209

  Triples (T) contribution             -0.021315617353
  Total correlation energy             -0.478425394562

  CCSD total energy                  -130.296259343342
  CCSD[T] energy                     -130.318685081783
  CCSD-T energy                      -130.317155924835
 !CCSD(T) total energy               -130.317574960694

 Timing summary (sec):

 STEP                 CPU(USER)    SYS     CPU(TOT)    WALL
 Transformation          0.73      0.11      0.84      0.84
 CCSD iterations        16.93      2.00     18.93     18.93
 Triples                 7.66      0.23      7.89      7.89

 Program statistics:

 Available memory in ccsd:               994999756
 Min. memory needed in ccsd:                887758
 Max. memory used in ccsd:                 1088212
 Max. memory used in cckext:               1535578 (27 integral passes)



 **********************************************************************************************************************************
 DATASETS  * FILE   NREC   LENGTH (MB)   RECORD NAMES
              1      20      479.21       500      610      700      900      950      970     1000      129      960     1100   
                                          VAR    BASINP    GEOM    SYMINP    ZMAT    AOBASIS   BASIS     P2S    ABASIS      S 
                                         1400     1410     1200     1210     1080     1600     1650     1300     1700     1380   
                                           T        V       H0       H01     AOSYM     SMH    MOLCAS    ERIS     OPER     JKOP   

              2       4        3.13       700     1000      520     2100   
                                         GEOM     BASIS   MCVARS     RHF  

 PROGRAMS   *        TOTAL   CCSD(T)        HF       INT
 CPU TIMES  *        35.32     25.35      5.82      4.05
 REAL TIME  *        40.96 SEC
 DISK USED  *         1.33 GB      
 **********************************************************************************************************************************

 CCSD(T)/USERDEF energy=   -130.317574960694

        CCSD(T)         HF-SCF  
   -130.31757496   -129.83914957
 **********************************************************************************************************************************
 Molpro calculation terminated
 Variable memory released
