
 Primary working directories    : /tmp/r2666/235316.maple
 Secondary working directories  : /tmp/r2666/235316.maple
 Wavefunction directory         : /ddn/home4/r2666/wfu/
 Main file repository           : /tmp/r2666/235316.maple/

 SHA1      : d5ffa45e93fdbca01ffc919aa182cfdae0147319
 NAME      : 2015.1.35
 ARCHNAME  : linux/x86_64
 FC        : /opt/intel/composer_xe_2015.1.133/bin/intel64/ifort
 BLASLIB   : -Wl,-_start-group /opt/intel/mkl/lib/intel64/libmkl_intel_ilp64.a /opt/intel/mkl/lib/intel64/libmkl_intel_thread.a /opt/intel/mkl/lib/intel64/libmkl_core.a -Wl,-_end-group
 id        : olemiss

 Nodes     nprocs
 cn076        1

 Using customized tuning parameters: mindgm=1; mindgv=20; mindgc=4; mindgr=1; noblas=0; minvec=7
 default implementation of scratch files=df  

 ***,hno CCSD(T)/TZ-F12 QFF
 memory, 995, m;
 gthresh,energy=1.d-12,zero=1.d-22,oneint=1.d-22,twoint=1.d-22;
 gthresh,optgrad=1.d-8,optstep=1.d-8;
 nocompress;
 geomtyp=xyz
 bohr
 geometry={
 3
         42        42
 N        0.0000000000       -0.1505436156       -1.1486938794
 H        0.0000000000        1.6637098651       -1.9382334832
 O        0.0000000000        0.0286015405        1.1363377716
 }
 
 basis={
 default=aug-cc-pvtz
 s,C,8236.0,1235.0,280.8, 79.27,25.59, 8.997,3.319
 s,C,0.9059,0.3643,0.1285000
 p,C,56.0,18.71,4.133,0.2827,0.3827,0.1209
 d,C,30.0,10.0,3.3,1.097,0.318
 f,C,7.0,2.3,0.7610
 s,N,11420.0,1712.0,389.3,110.0,35.57,12.54,4.644
 s,N,1.293,0.5118,0.1787
 p,N,79.89,26.63,5.948,1.742,0.555,0.1725
 d,N,45.0,15.0,5.0,1.654,0.469
 f,N,9.9,3.3,1.093
 s,O,15330.0,2299.0,522.4,147.3,47.55,16.76,6.207
 s,O,1.752,0.6882,0.2384
 p,O,103.5,34.46,7.749,2.28,0.7156,0.214
 d,O,63.0,21.0,7.0,2.314,0.645
 f,O,12.9,4.3,1.428
 s,mg,164900.0,24710.0,5628.0,1596.0,521.0;
 s,mg,188.0,73.01,29.90,12.54,4.306,1.826;
 s,mg,0.7417,0.0761,0.145,0.033,0.0129;
 p,mg,950.70,316.90,74.86,23.72,8.669,3.363;
 p,mg,1.310,0.4911,0.2364,0.08733,0.03237,0.00745;
 d,mg,1.601,0.686,0.126,0.294,0.0468;
 f,mg,1.372,0.588,0.094,0.252;
 }
   {hf,maxit=500;accu,20;}
 {ccsd(t),nocheck,maxit=250;orbital,IGNORE_ERROR;}

 Variables initialized (889), CPU time= 0.01 sec
 Commands  initialized (702), CPU time= 0.01 sec, 572 directives.
 Default parameters read. Elapsed time= 0.12 sec

 Checking input...
 Passed
1


                                         ***  PROGRAM SYSTEM MOLPRO  ***
                                       Copyright, TTI GmbH Stuttgart, 2015
                                    Version 2015.1 linked Jul  9 2018 13:16:40


 **********************************************************************************************************************************
 LABEL *   hno CCSD(T)/TZ-F12 QFF                                                        
  64 bit serial version                                                                  DATE: 08-Feb-20          TIME: 17:57:31  
 **********************************************************************************************************************************

 SHA1:             d5ffa45e93fdbca01ffc919aa182cfdae0147319
 **********************************************************************************************************************************

 THRESHOLDS:

 ZERO    =  1.00D-22  ONEINT  =  1.00D-22  TWOINT  =  1.00D-22  PREFAC  =  1.00D-14  LOCALI  =  1.00D-09  EORDER  =  1.00D-04
 ENERGY  =  1.00D-12  ETEST   =  0.00D+00  EDENS   =  0.00D+00  THRDEDEF=  1.00D-06  GRADIENT=  1.00D-02  STEP    =  1.00D-03
 ORBITAL =  1.00D-05  CIVEC   =  1.00D-05  COEFF   =  1.00D-04  PRINTCI =  5.00D-02  PUNCHCI =  9.90D+01  OPTGRAD =  3.00D-04
 OPTENERG=  1.00D-06  OPTSTEP =  3.00D-04  THRGRAD =  1.00D-10  COMPRESS=  1.00D-11  VARMIN  =  1.00D-07  VARMAX  =  1.00D-03
 THRDOUB =  0.00D+00  THRDIV  =  1.00D-05  THRRED  =  1.00D-07  THRPSP  =  1.00D+00  THRDC   =  1.00D-10  THRCS   =  1.00D-10
 THRNRM  =  1.00D-08  THREQ   =  0.00D+00  THRDE   =  1.00D+00  THRREF  =  1.00D-05  SPARFAC =  1.00D+00  THRDLP  =  1.00D-07
 THRDIA  =  1.00D-10  THRDLS  =  1.00D-07  THRGPS  =  0.00D+00  THRKEX  =  0.00D+00  THRDIS  =  2.00D-01  THRVAR  =  1.00D-10
 THRLOC  =  1.00D-06  THRGAP  =  1.00D-06  THRLOCT = -1.00D+00  THRGAPT = -1.00D+00  THRORB  =  1.00D-06  THRMLTP =  0.00D+00
 THRCPQCI=  1.00D-10  KEXTA   =  0.00D+00  THRCOARS=  0.00D+00  SYMTOL  =  1.00D-06  GRADTOL =  1.00D-06  THROVL  =  1.00D-08
 THRORTH =  1.00D-08  GRID    =  1.00D-06  GRIDMAX =  1.00D-03  DTMAX   =  0.00D+00  THROCCDE=  1.00D-01  THROCCDE=  1.00D-01



 THRESHOLDS:

 ZERO    =  1.00D-22  ONEINT  =  1.00D-22  TWOINT  =  1.00D-22  PREFAC  =  1.00D-14  LOCALI  =  1.00D-09  EORDER  =  1.00D-04
 ENERGY  =  1.00D-12  ETEST   =  0.00D+00  EDENS   =  0.00D+00  THRDEDEF=  1.00D-06  GRADIENT=  1.00D-02  STEP    =  1.00D-03
 ORBITAL =  1.00D-05  CIVEC   =  1.00D-05  COEFF   =  1.00D-04  PRINTCI =  5.00D-02  PUNCHCI =  9.90D+01  OPTGRAD =  1.00D-08
 OPTENERG=  1.00D-06  OPTSTEP =  1.00D-08  THRGRAD =  1.00D-10  COMPRESS=  1.00D-11  VARMIN  =  1.00D-07  VARMAX  =  1.00D-03
 THRDOUB =  0.00D+00  THRDIV  =  1.00D-05  THRRED  =  1.00D-07  THRPSP  =  1.00D+00  THRDC   =  1.00D-10  THRCS   =  1.00D-10
 THRNRM  =  1.00D-08  THREQ   =  0.00D+00  THRDE   =  1.00D+00  THRREF  =  1.00D-05  SPARFAC =  1.00D+00  THRDLP  =  1.00D-07
 THRDIA  =  1.00D-10  THRDLS  =  1.00D-07  THRGPS  =  0.00D+00  THRKEX  =  0.00D+00  THRDIS  =  2.00D-01  THRVAR  =  1.00D-10
 THRLOC  =  1.00D-06  THRGAP  =  1.00D-06  THRLOCT = -1.00D+00  THRGAPT = -1.00D+00  THRORB  =  1.00D-06  THRMLTP =  0.00D+00
 THRCPQCI=  1.00D-10  KEXTA   =  0.00D+00  THRCOARS=  0.00D+00  SYMTOL  =  1.00D-06  GRADTOL =  1.00D-06  THROVL  =  1.00D-08
 THRORTH =  1.00D-08  GRID    =  1.00D-06  GRIDMAX =  1.00D-03  DTMAX   =  0.00D+00  THROCCDE=  1.00D-01  THROCCDE=  1.00D-01



 Input parameters for SORTINT:

 COMPRESS =    0.000000
 C_FINAL  =    1.000000
 DEBUG    =   -1.000000
 C_SORT1  =    0.000000
 C_SEWARD =    0.000000
 THRESH   =    0.000000
 IO       =  molpro                                                          
 SPRI     =    0.000000
 SETTING GEOMTYP        =    XYZ
 ZUNIT=BOHR
 

 Variable memory set to  995000000 words,  buffer space   230000 words

 SETTING BASIS          =    USERDEF


 Recomputing integrals since basis changed


 Using spherical harmonics

 Library entry H      S aug-cc-pVTZ          selected for orbital group  2
 Library entry H      P aug-cc-pVTZ          selected for orbital group  2
 Library entry H      D aug-cc-pVTZ          selected for orbital group  2


 PROGRAM * SEWARD (Integral evaluation for generally contracted gaussian basis sets)     Author: Roland Lindh, 1990

 Geometry written to block  1 of record 700


 Point group  Cs  



 ATOMIC COORDINATES

 NR  ATOM    CHARGE       X              Y              Z

   1  N       7.00    0.000000000   -0.150543616   -1.148693879
   2  H       1.00    0.000000000    1.663709865   -1.938233483
   3  O       8.00    0.000000000    0.028601541    1.136337772

 Bond lengths in Bohr (Angstrom)

 1-2  1.978607712  1-3  2.292043331
     ( 1.047034111)     ( 1.212897097)

 Bond angles

  2-1-3  109.03526462

 NUCLEAR CHARGE:                   16
 NUMBER OF PRIMITIVE AOS:         203
 NUMBER OF SYMMETRY AOS:          173
 NUMBER OF CONTRACTIONS:          171   ( 114A'  +  57A"  )
 NUMBER OF CORE ORBITALS:           2   (   2A'  +   0A"  )
 NUMBER OF VALENCE ORBITALS:        9   (   7A'  +   2A"  )


 NUCLEAR REPULSION ENERGY   30.26750673


 Eigenvalues of metric

         1 0.104E-02 0.252E-02 0.334E-02 0.635E-02 0.968E-02 0.137E-01 0.145E-01 0.229E-01
         2 0.357E-01 0.538E-01 0.695E-01 0.943E-01 0.131E+00 0.134E+00 0.140E+00 0.142E+00


 Contracted 2-electron integrals neglected if value below      1.0D-22

       46126494. INTEGRALS WRITTEN OUT IN   11265 BLOCKS ON RECORD 1290 OF FILE 1


 NUMBER OF SORTED TWO-ELECTRON INTEGRALS:   55360566.     BUFFER LENGTH:  32768
 NUMBER OF SEGMENTS:   4  SEGMENT LENGTH:   15997996      RECORD LENGTH: 524288

 Memory used in sort:      16.56 MW

 SORT1 READ    46126494. AND WROTE    46563774. INTEGRALS IN    135 RECORDS. CPU TIME:     0.75 SEC, REAL TIME:     1.01 SEC
 SORT2 READ    46563774. AND WROTE    55360566. INTEGRALS IN      4 RECORDS. CPU TIME:     0.65 SEC, REAL TIME:     0.86 SEC

 FILE SIZES:   FILE 1:   759.0 MBYTE,  FILE 4:   566.3 MBYTE,   TOTAL:   1325.3 MBYTE

 OPERATOR DM      FOR CENTER  0  COORDINATES:    0.000000    0.000000    0.000000


 **********************************************************************************************************************************
 DATASETS  * FILE   NREC   LENGTH (MB)   RECORD NAMES
              1      19      421.12       500      610      700      900      950      970     1000      129      960     1100   
                                          VAR    BASINP    GEOM    SYMINP    ZMAT    AOBASIS   BASIS     P2S    ABASIS      S 
                                         1400     1410     1200     1210     1080     1600     1650     1300     1700   
                                           T        V       H0       H01     AOSYM     SMH    MOLCAS    ERIS     OPER   

 PROGRAMS   *        TOTAL       INT
 CPU TIMES  *         4.08      3.94
 REAL TIME  *         5.61 SEC
 DISK USED  *         1.33 GB      
 **********************************************************************************************************************************


 PROGRAM * RHF-SCF (CLOSED SHELL)       Authors: W. Meyer, H.-J. Werner


 NUMBER OF ELECTRONS:       8+    8-
 CONVERGENCE THRESHOLDS:    1.00E-10 (Density)    1.00E-13 (Energy)
 MAX. NUMBER OF ITERATIONS:      500
 INTERPOLATION TYPE:            DIIS
 INTERPOLATION STEPS:              2 (START)      1 (STEP)
 LEVEL SHIFTS:                  0.00 (CLOSED)  0.00 (OPEN) 



 Orbital guess generated from atomic densities. Full valence occupancy:    9   2

 Molecular orbital dump at record        2100.2

 Initial occupancy:   7   1

 ITERATION    DDIFF          GRAD             ENERGY        2-EL.EN.            DIPOLE MOMENTS         DIIS   ORB.
    1      0.000D+00      0.000D+00      -129.78825273    153.879917    0.00000    0.58255   -1.03080    0    start
    2      0.000D+00      0.881D-02      -129.81498844    155.042516    0.00000    0.60081   -0.19907    1    diag
    3      0.368D-02      0.674D-02      -129.83829294    155.174621    0.00000    0.55405   -0.59462    2    diag
    4      0.143D-02      0.105D-02      -129.83908801    154.896791    0.00000    0.56165   -0.53111    3    diag
    5      0.335D-03      0.338D-03      -129.83920895    154.985113    0.00000    0.56767   -0.53347    4    diag
    6      0.153D-03      0.988D-04      -129.83922861    154.969044    0.00000    0.56823   -0.52928    5    diag
    7      0.608D-04      0.499D-04      -129.83923449    154.971502    0.00000    0.56954   -0.52671    6    diag
    8      0.414D-04      0.173D-04      -129.83923515    154.970663    0.00000    0.56959   -0.52576    7    diag
    9      0.147D-04      0.325D-05      -129.83923518    154.970546    0.00000    0.56954   -0.52557    8    diag
   10      0.302D-05      0.738D-06      -129.83923518    154.970532    0.00000    0.56950   -0.52555    9    orth
   11      0.887D-06      0.146D-06      -129.83923518    154.970528    0.00000    0.56949   -0.52555    9    diag
   12      0.207D-06      0.304D-07      -129.83923518    154.970527    0.00000    0.56949   -0.52554    9    diag
   13      0.500D-07      0.811D-08      -129.83923518    154.970527    0.00000    0.56949   -0.52554    9    diag
   14      0.116D-07      0.142D-08      -129.83923518    154.970527    0.00000    0.56949   -0.52554    9    diag
   15      0.142D-08      0.377D-09      -129.83923518    154.970527    0.00000    0.56949   -0.52554    9    diag
   16      0.326D-09      0.108D-09      -129.83923518    154.970527    0.00000    0.56949   -0.52554    9    diag
   17      0.655D-10      0.280D-10      -129.83923518    154.970527    0.00000    0.56949   -0.52554    9    diag
   18      0.191D-10      0.898D-11      -129.83923518    154.970527    0.00000    0.56949   -0.52554    9    diag
   19      0.721D-11      0.195D-11      -129.83923518    154.970527    0.00000    0.56949   -0.52554    9    fixocc
   20      0.167D-11      0.530D-12      -129.83923518    154.970527    0.00000    0.56949   -0.52554    0    orth

 Final occupancy:   7   1

 !RHF STATE 1.1 Energy               -129.839235179174
 Nuclear energy                        30.26750673
 One-electron energy                 -237.59200536
 Two-electron energy                   77.48526345
 Virial quotient                       -1.00174277
 !RHF STATE 1.1 Dipole moment           0.00000000     0.56949220    -0.52554297
 Dipole moment /Debye                   0.00000000     1.44740999    -1.33570951

 Orbital energies:

         1.1          2.1          3.1          4.1          5.1          6.1          7.1          8.1          9.1
    -20.651845   -15.710600    -1.523642    -0.995844    -0.744213    -0.662959    -0.429945     0.039571     0.192917

         1.2          2.2          3.2
     -0.591692     0.077155     0.239496

 HOMO      7.1    -0.429945 =     -11.6994eV
 LUMO      8.1     0.039571 =       1.0768eV
 LUMO-HOMO         0.469517 =      12.7762eV


 **********************************************************************************************************************************
 DATASETS  * FILE   NREC   LENGTH (MB)   RECORD NAMES
              1      19      421.12       500      610      700      900      950      970     1000      129      960     1100   
                                          VAR    BASINP    GEOM    SYMINP    ZMAT    AOBASIS   BASIS     P2S    ABASIS      S 
                                         1400     1410     1200     1210     1080     1600     1650     1300     1700   
                                           T        V       H0       H01     AOSYM     SMH    MOLCAS    ERIS     OPER   

              2       4        3.13       700     1000      520     2100   
                                         GEOM     BASIS   MCVARS     RHF  

 PROGRAMS   *        TOTAL        HF       INT
 CPU TIMES  *         8.91      4.83      3.94
 REAL TIME  *        11.54 SEC
 DISK USED  *         1.33 GB      
 **********************************************************************************************************************************


 PROGRAM * CCSD (Closed-shell coupled cluster)     Authors: C. Hampel, H.-J. Werner, 1991, M. Deegan, P.J. Knowles, 1992


 Convergence thresholds:  THRVAR = 1.00D-08  THRDEN = 1.00D-12

 CCSD(T)     terms to be evaluated (factor= 1.000)


 Number of core orbitals:           2 (   2   0 )
 Number of closed-shell orbitals:   6 (   5   1 )
 Number of external orbitals:     163 ( 107  56 )

 Molecular orbitals read from record     2100.2  Type=RHF/CANONICAL (state 1.1)

 Number of N-1 electron functions:               6
 Number of N-2 electron functions:              21
 Number of singly external CSFs:               591
 Number of doubly external CSFs:            250014
 Total number of CSFs:                      250606

 Length of J-op  integral file:               0.00 MB
 Length of K-op  integral file:               1.15 MB
 Length of 3-ext integral record:             0.00 MB

 Memory could be reduced to 19.93 Mwords without degradation in triples

 Integral transformation finished. Total CPU:   0.68 sec, npass=  1  Memory used:   5.10 MW

 Reference energy:                   -129.83923518

 MP2 singlet pair energy:              -0.28725866
 MP2 triplet pair energy:              -0.16745486
 MP2 correlation energy:               -0.45471352
 MP2 total energy:                   -130.29394870

 SCS-MP2 correlation energy:           -0.44890453   (PS=  1.200000  PT=  0.333333)
 SCS-MP2 total energy:               -130.28813971

 ITER.      SQ.NORM     CORR.ENERGY   TOTAL ENERGY   ENERGY CHANGE        DEN1      VAR(S)    VAR(P)  DIIS     TIME  TIME/IT
   1      1.11918412    -0.45667477  -130.29590995    -0.00196125     0.01498526  0.33D-02  0.31D-02  1  1     1.27     0.64
   2      1.12980903    -0.45655194  -130.29578712     0.00012283    -0.01261589  0.12D-03  0.50D-03  2  2     1.87     0.66
   3      1.13645361    -0.45692988  -130.29616506    -0.00037794    -0.00338932  0.45D-04  0.59D-04  3  3     2.45     0.66
   4      1.13938092    -0.45696264  -130.29619782    -0.00003276    -0.00095935  0.45D-05  0.10D-04  4  4     3.05     0.66
   5      1.14049406    -0.45699581  -130.29623099    -0.00003317    -0.00022687  0.13D-05  0.18D-05  5  5     3.64     0.66
   6      1.14090185    -0.45697956  -130.29621473     0.00001626    -0.00006753  0.12D-06  0.44D-06  6  6     4.24     0.66
   7      1.14097551    -0.45698120  -130.29621637    -0.00000164     0.00000885  0.16D-07  0.97D-07  6  1     4.84     0.66
   8      1.14101079    -0.45698075  -130.29621593     0.00000045    -0.00000479  0.51D-08  0.15D-07  6  2     5.44     0.66
   9      1.14101623    -0.45698062  -130.29621580     0.00000012     0.00000102  0.23D-08  0.18D-08  6  3     6.04     0.66
  10      1.14101664    -0.45698096  -130.29621614    -0.00000034    -0.00000026  0.53D-09  0.27D-09  6  4     6.66     0.66
  11      1.14101509    -0.45698110  -130.29621628    -0.00000014     0.00000035  0.13D-09  0.28D-10  6  5     7.23     0.66
  12      1.14101389    -0.45698126  -130.29621644    -0.00000015     0.00000049  0.16D-10  0.79D-11  6  6     7.81     0.66
  13      1.14101322    -0.45698128  -130.29621646    -0.00000002     0.00000013  0.61D-11  0.15D-11  6  1     8.39     0.66
  14      1.14101269    -0.45698131  -130.29621649    -0.00000003     0.00000012  0.56D-12  0.47D-12  6  3     8.97     0.66
  15      1.14101253    -0.45698131  -130.29621649     0.00000000     0.00000001  0.14D-12  0.33D-13  6  2     9.56     0.66
  16      1.14101247    -0.45698131  -130.29621649    -0.00000000     0.00000001  0.33D-13  0.79D-14  6  4    10.14     0.66
  17      1.14101245    -0.45698131  -130.29621649    -0.00000000     0.00000001  0.43D-14  0.12D-14  6  5    10.72     0.66
  18      1.14101245    -0.45698131  -130.29621649     0.00000000     0.00000000  0.50D-15  0.33D-15  6  6    11.29     0.67
  19      1.14101245    -0.45698131  -130.29621649     0.00000000    -0.00000000  0.67D-16  0.44D-16  6  1    11.84     0.67
  20      1.14101245    -0.45698131  -130.29621649     0.00000000    -0.00000000  0.34D-17  0.10D-16  6  3    12.41     0.67
  21      1.14101246    -0.45698131  -130.29621649     0.00000000    -0.00000000  0.55D-18  0.22D-17  6  4    13.02     0.67
  22      1.14101246    -0.45698131  -130.29621649     0.00000000    -0.00000000  0.25D-19  0.78D-18  6  2    13.61     0.67
  23      1.14101246    -0.45698131  -130.29621649    -0.00000000     0.00000000  0.35D-19  0.14D-18  6  4    14.22     0.67
  24      1.14101246    -0.45698131  -130.29621649     0.00000000    -0.00000000  0.36D-20  0.69D-20  6  5    14.85     0.67
  25      1.14101246    -0.45698131  -130.29621649    -0.00000000     0.00000000  0.46D-21  0.57D-21  6  6    15.46     0.67
  26      1.14101246    -0.45698131  -130.29621649     0.00000000    -0.00000000  0.17D-21  0.67D-22  6  1    16.11     0.67
  27      1.14101246    -0.45698131  -130.29621649     0.00000000    -0.00000000  0.67D-22  0.20D-22  6  3    16.72     0.67

 Norm of t1 vector:      0.07799518      S-energy:     0.00000000      T1 diagnostic:  0.01592070
                                                                       D1 diagnostic:  0.04369554

 Doubles amplitudes (print threshold =  0.500E-01):

         I         J         SYM. A    SYM. B    A         B      T(IJ, AB)

         6         6         2         2         1         1     -0.13683994


 Total CPU time for triples:      7.51 sec


 RESULTS
 =======

  Reference energy                   -129.839235179174
  CCSD singlet pair energy             -0.313943392861
  CCSD triplet pair energy             -0.143037917622
  CCSD correlation energy              -0.456981310483

  Triples (T) contribution             -0.021325032527
  Total correlation energy             -0.478306343009

  CCSD total energy                  -130.296216489657
  CCSD[T] energy                     -130.318658141720
  CCSD-T energy                      -130.317122906341
 !CCSD(T) total energy               -130.317541522183

 Timing summary (sec):

 STEP                 CPU(USER)    SYS     CPU(TOT)    WALL
 Transformation          0.69      0.11      0.80      0.81
 CCSD iterations        16.03      2.04     18.07     18.06
 Triples                 7.51      0.20      7.71      7.72

 Program statistics:

 Available memory in ccsd:               994999756
 Min. memory needed in ccsd:                887758
 Max. memory used in ccsd:                 1088212
 Max. memory used in cckext:               1535578 (27 integral passes)



 **********************************************************************************************************************************
 DATASETS  * FILE   NREC   LENGTH (MB)   RECORD NAMES
              1      20      479.08       500      610      700      900      950      970     1000      129      960     1100   
                                          VAR    BASINP    GEOM    SYMINP    ZMAT    AOBASIS   BASIS     P2S    ABASIS      S 
                                         1400     1410     1200     1210     1080     1600     1650     1300     1700     1380   
                                           T        V       H0       H01     AOSYM     SMH    MOLCAS    ERIS     OPER     JKOP   

              2       4        3.13       700     1000      520     2100   
                                         GEOM     BASIS   MCVARS     RHF  

 PROGRAMS   *        TOTAL   CCSD(T)        HF       INT
 CPU TIMES  *        33.19     24.28      4.83      3.94
 REAL TIME  *        38.19 SEC
 DISK USED  *         1.33 GB      
 **********************************************************************************************************************************

 CCSD(T)/USERDEF energy=   -130.317541522183

        CCSD(T)         HF-SCF  
   -130.31754152   -129.83923518
 **********************************************************************************************************************************
 Molpro calculation terminated
 Variable memory released
