
 Primary working directories    : /tmp/r2666/235303.maple
 Secondary working directories  : /tmp/r2666/235303.maple
 Wavefunction directory         : /ddn/home4/r2666/wfu/
 Main file repository           : /tmp/r2666/235303.maple/

 SHA1      : d5ffa45e93fdbca01ffc919aa182cfdae0147319
 NAME      : 2015.1.35
 ARCHNAME  : linux/x86_64
 FC        : /opt/intel/composer_xe_2015.1.133/bin/intel64/ifort
 BLASLIB   : -Wl,-_start-group /opt/intel/mkl/lib/intel64/libmkl_intel_ilp64.a /opt/intel/mkl/lib/intel64/libmkl_intel_thread.a /opt/intel/mkl/lib/intel64/libmkl_core.a -Wl,-_end-group
 id        : olemiss

 Nodes     nprocs
 cn033        1

 Using customized tuning parameters: mindgm=1; mindgv=20; mindgc=4; mindgr=1; noblas=0; minvec=7
 default implementation of scratch files=df  

 ***,hno CCSD(T)/TZ-F12 QFF
 memory, 995, m;
 gthresh,energy=1.d-12,zero=1.d-22,oneint=1.d-22,twoint=1.d-22;
 gthresh,optgrad=1.d-8,optstep=1.d-8;
 nocompress;
 geomtyp=xyz
 bohr
 geometry={
 3
         29        29
 N        0.0000000000       -0.1628082587       -1.1584607516
 H        0.0000000000        1.6629802129       -1.9209467746
 O        0.0000000000        0.0415958358        1.1288179351
 }
 
 basis={
 default=aug-cc-pvtz
 s,C,8236.0,1235.0,280.8, 79.27,25.59, 8.997,3.319
 s,C,0.9059,0.3643,0.1285000
 p,C,56.0,18.71,4.133,0.2827,0.3827,0.1209
 d,C,30.0,10.0,3.3,1.097,0.318
 f,C,7.0,2.3,0.7610
 s,N,11420.0,1712.0,389.3,110.0,35.57,12.54,4.644
 s,N,1.293,0.5118,0.1787
 p,N,79.89,26.63,5.948,1.742,0.555,0.1725
 d,N,45.0,15.0,5.0,1.654,0.469
 f,N,9.9,3.3,1.093
 s,O,15330.0,2299.0,522.4,147.3,47.55,16.76,6.207
 s,O,1.752,0.6882,0.2384
 p,O,103.5,34.46,7.749,2.28,0.7156,0.214
 d,O,63.0,21.0,7.0,2.314,0.645
 f,O,12.9,4.3,1.428
 s,mg,164900.0,24710.0,5628.0,1596.0,521.0;
 s,mg,188.0,73.01,29.90,12.54,4.306,1.826;
 s,mg,0.7417,0.0761,0.145,0.033,0.0129;
 p,mg,950.70,316.90,74.86,23.72,8.669,3.363;
 p,mg,1.310,0.4911,0.2364,0.08733,0.03237,0.00745;
 d,mg,1.601,0.686,0.126,0.294,0.0468;
 f,mg,1.372,0.588,0.094,0.252;
 }
   {hf,maxit=500;accu,20;}
 {ccsd(t),nocheck,maxit=250;orbital,IGNORE_ERROR;}

 Variables initialized (889), CPU time= 0.01 sec
 Commands  initialized (702), CPU time= 0.00 sec, 572 directives.
 Default parameters read. Elapsed time= 0.05 sec

 Checking input...
 Passed
1


                                         ***  PROGRAM SYSTEM MOLPRO  ***
                                       Copyright, TTI GmbH Stuttgart, 2015
                                    Version 2015.1 linked Jul  9 2018 13:16:40


 **********************************************************************************************************************************
 LABEL *   hno CCSD(T)/TZ-F12 QFF                                                        
  64 bit serial version                                                                  DATE: 08-Feb-20          TIME: 17:57:29  
 **********************************************************************************************************************************

 SHA1:             d5ffa45e93fdbca01ffc919aa182cfdae0147319
 **********************************************************************************************************************************

 THRESHOLDS:

 ZERO    =  1.00D-22  ONEINT  =  1.00D-22  TWOINT  =  1.00D-22  PREFAC  =  1.00D-14  LOCALI  =  1.00D-09  EORDER  =  1.00D-04
 ENERGY  =  1.00D-12  ETEST   =  0.00D+00  EDENS   =  0.00D+00  THRDEDEF=  1.00D-06  GRADIENT=  1.00D-02  STEP    =  1.00D-03
 ORBITAL =  1.00D-05  CIVEC   =  1.00D-05  COEFF   =  1.00D-04  PRINTCI =  5.00D-02  PUNCHCI =  9.90D+01  OPTGRAD =  3.00D-04
 OPTENERG=  1.00D-06  OPTSTEP =  3.00D-04  THRGRAD =  1.00D-10  COMPRESS=  1.00D-11  VARMIN  =  1.00D-07  VARMAX  =  1.00D-03
 THRDOUB =  0.00D+00  THRDIV  =  1.00D-05  THRRED  =  1.00D-07  THRPSP  =  1.00D+00  THRDC   =  1.00D-10  THRCS   =  1.00D-10
 THRNRM  =  1.00D-08  THREQ   =  0.00D+00  THRDE   =  1.00D+00  THRREF  =  1.00D-05  SPARFAC =  1.00D+00  THRDLP  =  1.00D-07
 THRDIA  =  1.00D-10  THRDLS  =  1.00D-07  THRGPS  =  0.00D+00  THRKEX  =  0.00D+00  THRDIS  =  2.00D-01  THRVAR  =  1.00D-10
 THRLOC  =  1.00D-06  THRGAP  =  1.00D-06  THRLOCT = -1.00D+00  THRGAPT = -1.00D+00  THRORB  =  1.00D-06  THRMLTP =  0.00D+00
 THRCPQCI=  1.00D-10  KEXTA   =  0.00D+00  THRCOARS=  0.00D+00  SYMTOL  =  1.00D-06  GRADTOL =  1.00D-06  THROVL  =  1.00D-08
 THRORTH =  1.00D-08  GRID    =  1.00D-06  GRIDMAX =  1.00D-03  DTMAX   =  0.00D+00  THROCCDE=  1.00D-01  THROCCDE=  1.00D-01



 THRESHOLDS:

 ZERO    =  1.00D-22  ONEINT  =  1.00D-22  TWOINT  =  1.00D-22  PREFAC  =  1.00D-14  LOCALI  =  1.00D-09  EORDER  =  1.00D-04
 ENERGY  =  1.00D-12  ETEST   =  0.00D+00  EDENS   =  0.00D+00  THRDEDEF=  1.00D-06  GRADIENT=  1.00D-02  STEP    =  1.00D-03
 ORBITAL =  1.00D-05  CIVEC   =  1.00D-05  COEFF   =  1.00D-04  PRINTCI =  5.00D-02  PUNCHCI =  9.90D+01  OPTGRAD =  1.00D-08
 OPTENERG=  1.00D-06  OPTSTEP =  1.00D-08  THRGRAD =  1.00D-10  COMPRESS=  1.00D-11  VARMIN  =  1.00D-07  VARMAX  =  1.00D-03
 THRDOUB =  0.00D+00  THRDIV  =  1.00D-05  THRRED  =  1.00D-07  THRPSP  =  1.00D+00  THRDC   =  1.00D-10  THRCS   =  1.00D-10
 THRNRM  =  1.00D-08  THREQ   =  0.00D+00  THRDE   =  1.00D+00  THRREF  =  1.00D-05  SPARFAC =  1.00D+00  THRDLP  =  1.00D-07
 THRDIA  =  1.00D-10  THRDLS  =  1.00D-07  THRGPS  =  0.00D+00  THRKEX  =  0.00D+00  THRDIS  =  2.00D-01  THRVAR  =  1.00D-10
 THRLOC  =  1.00D-06  THRGAP  =  1.00D-06  THRLOCT = -1.00D+00  THRGAPT = -1.00D+00  THRORB  =  1.00D-06  THRMLTP =  0.00D+00
 THRCPQCI=  1.00D-10  KEXTA   =  0.00D+00  THRCOARS=  0.00D+00  SYMTOL  =  1.00D-06  GRADTOL =  1.00D-06  THROVL  =  1.00D-08
 THRORTH =  1.00D-08  GRID    =  1.00D-06  GRIDMAX =  1.00D-03  DTMAX   =  0.00D+00  THROCCDE=  1.00D-01  THROCCDE=  1.00D-01



 Input parameters for SORTINT:

 COMPRESS =    0.000000
 C_FINAL  =    1.000000
 DEBUG    =   -1.000000
 C_SORT1  =    0.000000
 C_SEWARD =    0.000000
 THRESH   =    0.000000
 IO       =  molpro                                                          
 SPRI     =    0.000000
 SETTING GEOMTYP        =    XYZ
 ZUNIT=BOHR
 

 Variable memory set to  995000000 words,  buffer space   230000 words

 SETTING BASIS          =    USERDEF


 Recomputing integrals since basis changed


 Using spherical harmonics

 Library entry H      S aug-cc-pVTZ          selected for orbital group  2
 Library entry H      P aug-cc-pVTZ          selected for orbital group  2
 Library entry H      D aug-cc-pVTZ          selected for orbital group  2


 PROGRAM * SEWARD (Integral evaluation for generally contracted gaussian basis sets)     Author: Roland Lindh, 1990

 Geometry written to block  1 of record 700


 Point group  Cs  



 ATOMIC COORDINATES

 NR  ATOM    CHARGE       X              Y              Z

   1  N       7.00    0.000000000   -0.162808259   -1.158460752
   2  H       1.00    0.000000000    1.662980213   -1.920946775
   3  O       8.00    0.000000000    0.041595836    1.128817935

 Bond lengths in Bohr (Angstrom)

 1-2  1.978607712  1-3  2.296393874
     ( 1.047034111)     ( 1.215199305)

 Bond angles

  2-1-3  107.55968976

 NUCLEAR CHARGE:                   16
 NUMBER OF PRIMITIVE AOS:         203
 NUMBER OF SYMMETRY AOS:          173
 NUMBER OF CONTRACTIONS:          171   ( 114A'  +  57A"  )
 NUMBER OF CORE ORBITALS:           2   (   2A'  +   0A"  )
 NUMBER OF VALENCE ORBITALS:        9   (   7A'  +   2A"  )


 NUCLEAR REPULSION ENERGY   30.24007288


 Eigenvalues of metric

         1 0.105E-02 0.255E-02 0.334E-02 0.636E-02 0.969E-02 0.137E-01 0.145E-01 0.229E-01
         2 0.359E-01 0.542E-01 0.702E-01 0.941E-01 0.131E+00 0.134E+00 0.140E+00 0.142E+00


 Contracted 2-electron integrals neglected if value below      1.0D-22

       46112584. INTEGRALS WRITTEN OUT IN   11261 BLOCKS ON RECORD 1290 OF FILE 1


 NUMBER OF SORTED TWO-ELECTRON INTEGRALS:   55360566.     BUFFER LENGTH:  32768
 NUMBER OF SEGMENTS:   4  SEGMENT LENGTH:   15997996      RECORD LENGTH: 524288

 Memory used in sort:      16.56 MW

 SORT1 READ    46112584. AND WROTE    46549643. INTEGRALS IN    135 RECORDS. CPU TIME:     1.27 SEC, REAL TIME:     1.64 SEC
 SORT2 READ    46549643. AND WROTE    55360566. INTEGRALS IN      4 RECORDS. CPU TIME:     0.76 SEC, REAL TIME:     1.01 SEC

 FILE SIZES:   FILE 1:   758.7 MBYTE,  FILE 4:   566.3 MBYTE,   TOTAL:   1325.0 MBYTE

 OPERATOR DM      FOR CENTER  0  COORDINATES:    0.000000    0.000000    0.000000


 **********************************************************************************************************************************
 DATASETS  * FILE   NREC   LENGTH (MB)   RECORD NAMES
              1      19      421.02       500      610      700      900      950      970     1000      129      960     1100   
                                          VAR    BASINP    GEOM    SYMINP    ZMAT    AOBASIS   BASIS     P2S    ABASIS      S 
                                         1400     1410     1200     1210     1080     1600     1650     1300     1700   
                                           T        V       H0       H01     AOSYM     SMH    MOLCAS    ERIS     OPER   

 PROGRAMS   *        TOTAL       INT
 CPU TIMES  *         5.70      5.61
 REAL TIME  *         7.30 SEC
 DISK USED  *         1.33 GB      
 **********************************************************************************************************************************


 PROGRAM * RHF-SCF (CLOSED SHELL)       Authors: W. Meyer, H.-J. Werner


 NUMBER OF ELECTRONS:       8+    8-
 CONVERGENCE THRESHOLDS:    1.00E-10 (Density)    1.00E-13 (Energy)
 MAX. NUMBER OF ITERATIONS:      500
 INTERPOLATION TYPE:            DIIS
 INTERPOLATION STEPS:              2 (START)      1 (STEP)
 LEVEL SHIFTS:                  0.00 (CLOSED)  0.00 (OPEN) 



 Orbital guess generated from atomic densities. Full valence occupancy:    9   2

 Molecular orbital dump at record        2100.2

 Initial occupancy:   7   1

 ITERATION    DDIFF          GRAD             ENERGY        2-EL.EN.            DIPOLE MOMENTS         DIIS   ORB.
    1      0.000D+00      0.000D+00      -129.78746385    153.837041    0.00000    0.57051   -1.03472    0    start
    2      0.000D+00      0.884D-02      -129.81414591    154.988157    0.00000    0.60284   -0.19147    1    diag
    3      0.369D-02      0.682D-02      -129.83798317    155.126849    0.00000    0.54906   -0.59212    2    diag
    4      0.144D-02      0.105D-02      -129.83877908    154.847992    0.00000    0.55733   -0.52865    3    diag
    5      0.334D-03      0.340D-03      -129.83890141    154.936103    0.00000    0.56323   -0.53086    4    diag
    6      0.154D-03      0.997D-04      -129.83892139    154.919969    0.00000    0.56375   -0.52661    5    diag
    7      0.609D-04      0.504D-04      -129.83892742    154.922408    0.00000    0.56504   -0.52399    6    diag
    8      0.416D-04      0.176D-04      -129.83892811    154.921546    0.00000    0.56509   -0.52303    7    diag
    9      0.149D-04      0.329D-05      -129.83892814    154.921429    0.00000    0.56504   -0.52283    8    diag
   10      0.308D-05      0.735D-06      -129.83892814    154.921416    0.00000    0.56500   -0.52281    9    orth
   11      0.886D-06      0.145D-06      -129.83892814    154.921412    0.00000    0.56500   -0.52281    9    diag
   12      0.207D-06      0.308D-07      -129.83892814    154.921411    0.00000    0.56499   -0.52280    9    diag
   13      0.508D-07      0.825D-08      -129.83892814    154.921411    0.00000    0.56499   -0.52280    9    diag
   14      0.117D-07      0.144D-08      -129.83892814    154.921411    0.00000    0.56499   -0.52280    9    diag
   15      0.141D-08      0.379D-09      -129.83892814    154.921411    0.00000    0.56499   -0.52280    9    diag
   16      0.325D-09      0.108D-09      -129.83892814    154.921411    0.00000    0.56499   -0.52280    9    diag
   17      0.658D-10      0.282D-10      -129.83892814    154.921411    0.00000    0.56499   -0.52280    0    orth

 Final occupancy:   7   1

 !RHF STATE 1.1 Energy               -129.838928136554
 Nuclear energy                        30.24007288
 One-electron energy                 -237.53970646
 Two-electron energy                   77.46070545
 Virial quotient                       -1.00176826
 !RHF STATE 1.1 Dipole moment           0.00000000     0.56499329    -0.52280400
 Dipole moment /Debye                   0.00000000     1.43597566    -1.32874818

 Orbital energies:

         1.1          2.1          3.1          4.1          5.1          6.1          7.1          8.1          9.1
    -20.651720   -15.711277    -1.522559    -0.995476    -0.743583    -0.662049    -0.431664     0.039691     0.192952

         1.2          2.2          3.2
     -0.590819     0.076696     0.239288

 HOMO      7.1    -0.431664 =     -11.7462eV
 LUMO      8.1     0.039691 =       1.0800eV
 LUMO-HOMO         0.471355 =      12.8262eV


 **********************************************************************************************************************************
 DATASETS  * FILE   NREC   LENGTH (MB)   RECORD NAMES
              1      19      421.02       500      610      700      900      950      970     1000      129      960     1100   
                                          VAR    BASINP    GEOM    SYMINP    ZMAT    AOBASIS   BASIS     P2S    ABASIS      S 
                                         1400     1410     1200     1210     1080     1600     1650     1300     1700   
                                           T        V       H0       H01     AOSYM     SMH    MOLCAS    ERIS     OPER   

              2       4        3.13       700     1000      520     2100   
                                         GEOM     BASIS   MCVARS     RHF  

 PROGRAMS   *        TOTAL        HF       INT
 CPU TIMES  *        10.62      4.92      5.61
 REAL TIME  *        13.73 SEC
 DISK USED  *         1.33 GB      
 **********************************************************************************************************************************


 PROGRAM * CCSD (Closed-shell coupled cluster)     Authors: C. Hampel, H.-J. Werner, 1991, M. Deegan, P.J. Knowles, 1992


 Convergence thresholds:  THRVAR = 1.00D-08  THRDEN = 1.00D-12

 CCSD(T)     terms to be evaluated (factor= 1.000)


 Number of core orbitals:           2 (   2   0 )
 Number of closed-shell orbitals:   6 (   5   1 )
 Number of external orbitals:     163 ( 107  56 )

 Molecular orbitals read from record     2100.2  Type=RHF/CANONICAL (state 1.1)

 Number of N-1 electron functions:               6
 Number of N-2 electron functions:              21
 Number of singly external CSFs:               591
 Number of doubly external CSFs:            250014
 Total number of CSFs:                      250606

 Length of J-op  integral file:               0.00 MB
 Length of K-op  integral file:               1.15 MB
 Length of 3-ext integral record:             0.00 MB

 Memory could be reduced to 19.93 Mwords without degradation in triples

 Integral transformation finished. Total CPU:   0.82 sec, npass=  1  Memory used:   5.10 MW

 Reference energy:                   -129.83892814

 MP2 singlet pair energy:              -0.28749724
 MP2 triplet pair energy:              -0.16761517
 MP2 correlation energy:               -0.45511241
 MP2 total energy:                   -130.29404055

 SCS-MP2 correlation energy:           -0.44929057   (PS=  1.200000  PT=  0.333333)
 SCS-MP2 total energy:               -130.28821871

 ITER.      SQ.NORM     CORR.ENERGY   TOTAL ENERGY   ENERGY CHANGE        DEN1      VAR(S)    VAR(P)  DIIS     TIME  TIME/IT
   1      1.11939781    -0.45698193  -130.29591007    -0.00186952     0.01514871  0.33D-02  0.32D-02  1  1     1.64     0.88
   2      1.13005632    -0.45684391  -130.29577205     0.00013802    -0.01265948  0.12D-03  0.50D-03  2  2     2.45     0.90
   3      1.13671748    -0.45722119  -130.29614933    -0.00037728    -0.00340097  0.45D-04  0.59D-04  3  3     3.27     0.91
   4      1.13965050    -0.45725496  -130.29618310    -0.00003377    -0.00096117  0.45D-05  0.99D-05  4  4     4.07     0.92
   5      1.14075942    -0.45728812  -130.29621626    -0.00003316    -0.00022730  0.13D-05  0.18D-05  5  5     4.90     0.92
   6      1.14116173    -0.45727181  -130.29619995     0.00001631    -0.00006705  0.12D-06  0.43D-06  6  6     5.72     0.92
   7      1.14123248    -0.45727345  -130.29620159    -0.00000164     0.00000904  0.16D-07  0.94D-07  6  1     6.54     0.92
   8      1.14126701    -0.45727295  -130.29620108     0.00000050    -0.00000477  0.48D-08  0.15D-07  6  2     7.38     0.92
   9      1.14127196    -0.45727284  -130.29620098     0.00000010     0.00000114  0.21D-08  0.17D-08  6  3     8.23     0.93
  10      1.14127247    -0.45727317  -130.29620130    -0.00000032    -0.00000032  0.50D-09  0.27D-09  6  4     9.06     0.93
  11      1.14127097    -0.45727330  -130.29620144    -0.00000014     0.00000035  0.12D-09  0.26D-10  6  5     9.91     0.93
  12      1.14126983    -0.45727345  -130.29620159    -0.00000015     0.00000047  0.15D-10  0.74D-11  6  6    10.77     0.93
  13      1.14126918    -0.45727347  -130.29620161    -0.00000002     0.00000012  0.56D-11  0.14D-11  6  1    11.58     0.93
  14      1.14126868    -0.45727350  -130.29620164    -0.00000003     0.00000012  0.51D-12  0.44D-12  6  3    12.41     0.93
  15      1.14126852    -0.45727350  -130.29620164     0.00000000     0.00000001  0.13D-12  0.31D-13  6  2    13.27     0.93
  16      1.14126847    -0.45727350  -130.29620164    -0.00000000     0.00000001  0.31D-13  0.74D-14  6  4    14.08     0.93
  17      1.14126845    -0.45727350  -130.29620164    -0.00000000     0.00000001  0.42D-14  0.12D-14  6  5    14.92     0.93
  18      1.14126845    -0.45727350  -130.29620164     0.00000000     0.00000000  0.48D-15  0.33D-15  6  6    15.79     0.93
  19      1.14126845    -0.45727350  -130.29620164     0.00000000    -0.00000000  0.65D-16  0.45D-16  6  1    16.63     0.93
  20      1.14126845    -0.45727350  -130.29620164     0.00000000    -0.00000000  0.32D-17  0.11D-16  6  3    17.47     0.93
  21      1.14126845    -0.45727350  -130.29620164     0.00000000    -0.00000000  0.53D-18  0.24D-17  6  4    18.26     0.93
  22      1.14126845    -0.45727350  -130.29620164     0.00000000    -0.00000000  0.32D-19  0.86D-18  6  2    19.10     0.93
  23      1.14126845    -0.45727350  -130.29620164    -0.00000000     0.00000000  0.71D-19  0.17D-18  6  5    19.96     0.93
  24      1.14126845    -0.45727350  -130.29620164    -0.00000000     0.00000000  0.46D-20  0.15D-19  6  1    20.80     0.93
  25      1.14126845    -0.45727350  -130.29620164     0.00000000    -0.00000000  0.23D-20  0.11D-20  6  6    21.66     0.93

 Norm of t1 vector:      0.07792089      S-energy:     0.00000000      T1 diagnostic:  0.01590553
                                                                       D1 diagnostic:  0.04385332

 Doubles amplitudes (print threshold =  0.500E-01):

         I         J         SYM. A    SYM. B    A         B      T(IJ, AB)

         6         6         2         2         1         1     -0.13774674


 Total CPU time for triples:      6.90 sec


 RESULTS
 =======

  Reference energy                   -129.838928136554
  CCSD singlet pair energy             -0.314193084024
  CCSD triplet pair energy             -0.143080420164
  CCSD correlation energy              -0.457273504181

  Triples (T) contribution             -0.021383263890
  Total correlation energy             -0.478656768071

  CCSD total energy                  -130.296201640735
  CCSD[T] energy                     -130.318703835000
  CCSD-T energy                      -130.317165664935
 !CCSD(T) total energy               -130.317584904625

 Timing summary (sec):

 STEP                 CPU(USER)    SYS     CPU(TOT)    WALL
 Transformation          0.83      0.23      1.06      1.07
 CCSD iterations        20.83      2.47     23.30     23.31
 Triples                 6.90      0.21      7.11      7.11

 Program statistics:

 Available memory in ccsd:               994999756
 Min. memory needed in ccsd:                887758
 Max. memory used in ccsd:                 1088212
 Max. memory used in cckext:               1535578 (25 integral passes)



 **********************************************************************************************************************************
 DATASETS  * FILE   NREC   LENGTH (MB)   RECORD NAMES
              1      20      478.98       500      610      700      900      950      970     1000      129      960     1100   
                                          VAR    BASINP    GEOM    SYMINP    ZMAT    AOBASIS   BASIS     P2S    ABASIS      S 
                                         1400     1410     1200     1210     1080     1600     1650     1300     1700     1380   
                                           T        V       H0       H01     AOSYM     SMH    MOLCAS    ERIS     OPER     JKOP   

              2       4        3.13       700     1000      520     2100   
                                         GEOM     BASIS   MCVARS     RHF  

 PROGRAMS   *        TOTAL   CCSD(T)        HF       INT
 CPU TIMES  *        39.21     28.58      4.92      5.61
 REAL TIME  *        45.26 SEC
 DISK USED  *         1.33 GB      
 **********************************************************************************************************************************

 CCSD(T)/USERDEF energy=   -130.317584904625

        CCSD(T)         HF-SCF  
   -130.31758490   -129.83892814
 **********************************************************************************************************************************
 Molpro calculation terminated
 Variable memory released
