
 Primary working directories    : /tmp/r2666/235358.maple
 Secondary working directories  : /tmp/r2666/235358.maple
 Wavefunction directory         : /ddn/home4/r2666/wfu/
 Main file repository           : /tmp/r2666/235358.maple/

 SHA1      : d5ffa45e93fdbca01ffc919aa182cfdae0147319
 NAME      : 2015.1.35
 ARCHNAME  : linux/x86_64
 FC        : /opt/intel/composer_xe_2015.1.133/bin/intel64/ifort
 BLASLIB   : -Wl,-_start-group /opt/intel/mkl/lib/intel64/libmkl_intel_ilp64.a /opt/intel/mkl/lib/intel64/libmkl_intel_thread.a /opt/intel/mkl/lib/intel64/libmkl_core.a -Wl,-_end-group
 id        : olemiss

 Nodes     nprocs
 cn030        1

 Using customized tuning parameters: mindgm=1; mindgv=20; mindgc=4; mindgr=1; noblas=0; minvec=7
 default implementation of scratch files=df  

 ***,hno CCSD(T)/TZ-F12 QFF
 memory, 995, m;
 gthresh,energy=1.d-12,zero=1.d-22,oneint=1.d-22,twoint=1.d-22;
 gthresh,optgrad=1.d-8,optstep=1.d-8;
 nocompress;
 geomtyp=xyz
 bohr
 geometry={
 3
         84        84
 N        0.0000000000       -0.1604614986       -1.1606212526
 H        0.0000000000        1.6697005899       -1.9370713470
 O        0.0000000000        0.0325286987        1.1471030087
 }
 
 basis={
 default=aug-cc-pvtz
 s,C,8236.0,1235.0,280.8, 79.27,25.59, 8.997,3.319
 s,C,0.9059,0.3643,0.1285000
 p,C,56.0,18.71,4.133,0.2827,0.3827,0.1209
 d,C,30.0,10.0,3.3,1.097,0.318
 f,C,7.0,2.3,0.7610
 s,N,11420.0,1712.0,389.3,110.0,35.57,12.54,4.644
 s,N,1.293,0.5118,0.1787
 p,N,79.89,26.63,5.948,1.742,0.555,0.1725
 d,N,45.0,15.0,5.0,1.654,0.469
 f,N,9.9,3.3,1.093
 s,O,15330.0,2299.0,522.4,147.3,47.55,16.76,6.207
 s,O,1.752,0.6882,0.2384
 p,O,103.5,34.46,7.749,2.28,0.7156,0.214
 d,O,63.0,21.0,7.0,2.314,0.645
 f,O,12.9,4.3,1.428
 s,mg,164900.0,24710.0,5628.0,1596.0,521.0;
 s,mg,188.0,73.01,29.90,12.54,4.306,1.826;
 s,mg,0.7417,0.0761,0.145,0.033,0.0129;
 p,mg,950.70,316.90,74.86,23.72,8.669,3.363;
 p,mg,1.310,0.4911,0.2364,0.08733,0.03237,0.00745;
 d,mg,1.601,0.686,0.126,0.294,0.0468;
 f,mg,1.372,0.588,0.094,0.252;
 }
   {hf,maxit=500;accu,20;}
 {ccsd(t),nocheck,maxit=250;orbital,IGNORE_ERROR;}

 Variables initialized (889), CPU time= 0.01 sec
 Commands  initialized (702), CPU time= 0.00 sec, 572 directives.
 Default parameters read. Elapsed time= 0.05 sec

 Checking input...
 Passed
1


                                         ***  PROGRAM SYSTEM MOLPRO  ***
                                       Copyright, TTI GmbH Stuttgart, 2015
                                    Version 2015.1 linked Jul  9 2018 13:16:40


 **********************************************************************************************************************************
 LABEL *   hno CCSD(T)/TZ-F12 QFF                                                        
  64 bit serial version                                                                  DATE: 08-Feb-20          TIME: 17:58:17  
 **********************************************************************************************************************************

 SHA1:             d5ffa45e93fdbca01ffc919aa182cfdae0147319
 **********************************************************************************************************************************

 THRESHOLDS:

 ZERO    =  1.00D-22  ONEINT  =  1.00D-22  TWOINT  =  1.00D-22  PREFAC  =  1.00D-14  LOCALI  =  1.00D-09  EORDER  =  1.00D-04
 ENERGY  =  1.00D-12  ETEST   =  0.00D+00  EDENS   =  0.00D+00  THRDEDEF=  1.00D-06  GRADIENT=  1.00D-02  STEP    =  1.00D-03
 ORBITAL =  1.00D-05  CIVEC   =  1.00D-05  COEFF   =  1.00D-04  PRINTCI =  5.00D-02  PUNCHCI =  9.90D+01  OPTGRAD =  3.00D-04
 OPTENERG=  1.00D-06  OPTSTEP =  3.00D-04  THRGRAD =  1.00D-10  COMPRESS=  1.00D-11  VARMIN  =  1.00D-07  VARMAX  =  1.00D-03
 THRDOUB =  0.00D+00  THRDIV  =  1.00D-05  THRRED  =  1.00D-07  THRPSP  =  1.00D+00  THRDC   =  1.00D-10  THRCS   =  1.00D-10
 THRNRM  =  1.00D-08  THREQ   =  0.00D+00  THRDE   =  1.00D+00  THRREF  =  1.00D-05  SPARFAC =  1.00D+00  THRDLP  =  1.00D-07
 THRDIA  =  1.00D-10  THRDLS  =  1.00D-07  THRGPS  =  0.00D+00  THRKEX  =  0.00D+00  THRDIS  =  2.00D-01  THRVAR  =  1.00D-10
 THRLOC  =  1.00D-06  THRGAP  =  1.00D-06  THRLOCT = -1.00D+00  THRGAPT = -1.00D+00  THRORB  =  1.00D-06  THRMLTP =  0.00D+00
 THRCPQCI=  1.00D-10  KEXTA   =  0.00D+00  THRCOARS=  0.00D+00  SYMTOL  =  1.00D-06  GRADTOL =  1.00D-06  THROVL  =  1.00D-08
 THRORTH =  1.00D-08  GRID    =  1.00D-06  GRIDMAX =  1.00D-03  DTMAX   =  0.00D+00  THROCCDE=  1.00D-01  THROCCDE=  1.00D-01



 THRESHOLDS:

 ZERO    =  1.00D-22  ONEINT  =  1.00D-22  TWOINT  =  1.00D-22  PREFAC  =  1.00D-14  LOCALI  =  1.00D-09  EORDER  =  1.00D-04
 ENERGY  =  1.00D-12  ETEST   =  0.00D+00  EDENS   =  0.00D+00  THRDEDEF=  1.00D-06  GRADIENT=  1.00D-02  STEP    =  1.00D-03
 ORBITAL =  1.00D-05  CIVEC   =  1.00D-05  COEFF   =  1.00D-04  PRINTCI =  5.00D-02  PUNCHCI =  9.90D+01  OPTGRAD =  1.00D-08
 OPTENERG=  1.00D-06  OPTSTEP =  1.00D-08  THRGRAD =  1.00D-10  COMPRESS=  1.00D-11  VARMIN  =  1.00D-07  VARMAX  =  1.00D-03
 THRDOUB =  0.00D+00  THRDIV  =  1.00D-05  THRRED  =  1.00D-07  THRPSP  =  1.00D+00  THRDC   =  1.00D-10  THRCS   =  1.00D-10
 THRNRM  =  1.00D-08  THREQ   =  0.00D+00  THRDE   =  1.00D+00  THRREF  =  1.00D-05  SPARFAC =  1.00D+00  THRDLP  =  1.00D-07
 THRDIA  =  1.00D-10  THRDLS  =  1.00D-07  THRGPS  =  0.00D+00  THRKEX  =  0.00D+00  THRDIS  =  2.00D-01  THRVAR  =  1.00D-10
 THRLOC  =  1.00D-06  THRGAP  =  1.00D-06  THRLOCT = -1.00D+00  THRGAPT = -1.00D+00  THRORB  =  1.00D-06  THRMLTP =  0.00D+00
 THRCPQCI=  1.00D-10  KEXTA   =  0.00D+00  THRCOARS=  0.00D+00  SYMTOL  =  1.00D-06  GRADTOL =  1.00D-06  THROVL  =  1.00D-08
 THRORTH =  1.00D-08  GRID    =  1.00D-06  GRIDMAX =  1.00D-03  DTMAX   =  0.00D+00  THROCCDE=  1.00D-01  THROCCDE=  1.00D-01



 Input parameters for SORTINT:

 COMPRESS =    0.000000
 C_FINAL  =    1.000000
 DEBUG    =   -1.000000
 C_SORT1  =    0.000000
 C_SEWARD =    0.000000
 THRESH   =    0.000000
 IO       =  molpro                                                          
 SPRI     =    0.000000
 SETTING GEOMTYP        =    XYZ
 ZUNIT=BOHR
 

 Variable memory set to  995000000 words,  buffer space   230000 words

 SETTING BASIS          =    USERDEF


 Recomputing integrals since basis changed


 Using spherical harmonics

 Library entry H      S aug-cc-pVTZ          selected for orbital group  2
 Library entry H      P aug-cc-pVTZ          selected for orbital group  2
 Library entry H      D aug-cc-pVTZ          selected for orbital group  2


 PROGRAM * SEWARD (Integral evaluation for generally contracted gaussian basis sets)     Author: Roland Lindh, 1990

 Geometry written to block  1 of record 700


 Point group  Cs  



 ATOMIC COORDINATES

 NR  ATOM    CHARGE       X              Y              Z

   1  N       7.00    0.000000000   -0.160461499   -1.160621253
   2  H       1.00    0.000000000    1.669700590   -1.937071347
   3  O       8.00    0.000000000    0.032528699    1.147103009

 Bond lengths in Bohr (Angstrom)

 1-2  1.988056342  1-3  2.315779886
     ( 1.052034110)     ( 1.225457941)

 Bond angles

  2-1-3  108.20878234

 NUCLEAR CHARGE:                   16
 NUMBER OF PRIMITIVE AOS:         203
 NUMBER OF SYMMETRY AOS:          173
 NUMBER OF CONTRACTIONS:          171   ( 114A'  +  57A"  )
 NUMBER OF CORE ORBITALS:           2   (   2A'  +   0A"  )
 NUMBER OF VALENCE ORBITALS:        9   (   7A'  +   2A"  )


 NUCLEAR REPULSION ENERGY   29.99404639


 Eigenvalues of metric

         1 0.107E-02 0.265E-02 0.341E-02 0.645E-02 0.986E-02 0.137E-01 0.146E-01 0.234E-01
         2 0.365E-01 0.556E-01 0.710E-01 0.944E-01 0.132E+00 0.134E+00 0.141E+00 0.142E+00


 Contracted 2-electron integrals neglected if value below      1.0D-22

       46053033. INTEGRALS WRITTEN OUT IN   11247 BLOCKS ON RECORD 1290 OF FILE 1


 NUMBER OF SORTED TWO-ELECTRON INTEGRALS:   55360566.     BUFFER LENGTH:  32768
 NUMBER OF SEGMENTS:   4  SEGMENT LENGTH:   15997996      RECORD LENGTH: 524288

 Memory used in sort:      16.56 MW

 SORT1 READ    46053033. AND WROTE    46489607. INTEGRALS IN    135 RECORDS. CPU TIME:     1.31 SEC, REAL TIME:     1.61 SEC
 SORT2 READ    46489607. AND WROTE    55360566. INTEGRALS IN      4 RECORDS. CPU TIME:     0.76 SEC, REAL TIME:     0.99 SEC

 FILE SIZES:   FILE 1:   757.8 MBYTE,  FILE 4:   566.3 MBYTE,   TOTAL:   1324.1 MBYTE

 OPERATOR DM      FOR CENTER  0  COORDINATES:    0.000000    0.000000    0.000000


 **********************************************************************************************************************************
 DATASETS  * FILE   NREC   LENGTH (MB)   RECORD NAMES
              1      19      420.62       500      610      700      900      950      970     1000      129      960     1100   
                                          VAR    BASINP    GEOM    SYMINP    ZMAT    AOBASIS   BASIS     P2S    ABASIS      S 
                                         1400     1410     1200     1210     1080     1600     1650     1300     1700   
                                           T        V       H0       H01     AOSYM     SMH    MOLCAS    ERIS     OPER   

 PROGRAMS   *        TOTAL       INT
 CPU TIMES  *         5.64      5.55
 REAL TIME  *         7.22 SEC
 DISK USED  *         1.32 GB      
 **********************************************************************************************************************************


 PROGRAM * RHF-SCF (CLOSED SHELL)       Authors: W. Meyer, H.-J. Werner


 NUMBER OF ELECTRONS:       8+    8-
 CONVERGENCE THRESHOLDS:    1.00E-10 (Density)    1.00E-13 (Energy)
 MAX. NUMBER OF ITERATIONS:      500
 INTERPOLATION TYPE:            DIIS
 INTERPOLATION STEPS:              2 (START)      1 (STEP)
 LEVEL SHIFTS:                  0.00 (CLOSED)  0.00 (OPEN) 



 Orbital guess generated from atomic densities. Full valence occupancy:    9   2

 Molecular orbital dump at record        2100.2

 Initial occupancy:   7   1

 ITERATION    DDIFF          GRAD             ENERGY        2-EL.EN.            DIPOLE MOMENTS         DIIS   ORB.
    1      0.000D+00      0.000D+00      -129.78378511    153.391841    0.00000    0.57752   -1.07041    0    start
    2      0.000D+00      0.896D-02      -129.80999679    154.528104    0.00000    0.60846   -0.18490    1    diag
    3      0.374D-02      0.708D-02      -129.83590393    154.688175    0.00000    0.55476   -0.60876    2    diag
    4      0.149D-02      0.106D-02      -129.83672278    154.401133    0.00000    0.56242   -0.54339    3    diag
    5      0.338D-03      0.346D-03      -129.83684952    154.490747    0.00000    0.56845   -0.54550    4    diag
    6      0.155D-03      0.101D-03      -129.83687030    154.474420    0.00000    0.56893   -0.54107    5    diag
    7      0.614D-04      0.517D-04      -129.83687673    154.476780    0.00000    0.57022   -0.53832    6    diag
    8      0.423D-04      0.187D-04      -129.83687754    154.475867    0.00000    0.57026   -0.53727    7    diag
    9      0.161D-04      0.356D-05      -129.83687757    154.475736    0.00000    0.57021   -0.53705    8    diag
   10      0.338D-05      0.780D-06      -129.83687758    154.475721    0.00000    0.57017   -0.53703    9    orth
   11      0.924D-06      0.153D-06      -129.83687758    154.475717    0.00000    0.57016   -0.53703    9    diag
   12      0.214D-06      0.334D-07      -129.83687758    154.475716    0.00000    0.57016   -0.53702    9    diag
   13      0.530D-07      0.926D-08      -129.83687758    154.475716    0.00000    0.57016   -0.53702    9    diag
   14      0.126D-07      0.163D-08      -129.83687758    154.475716    0.00000    0.57016   -0.53702    9    diag
   15      0.141D-08      0.434D-09      -129.83687758    154.475716    0.00000    0.57016   -0.53702    9    diag
   16      0.364D-09      0.127D-09      -129.83687758    154.475716    0.00000    0.57016   -0.53702    9    diag
   17      0.672D-10      0.344D-10      -129.83687758    154.475716    0.00000    0.57016   -0.53702    9    diag
   18      0.197D-10      0.115D-10      -129.83687758    154.475716    0.00000    0.57016   -0.53702    9    diag
   19      0.749D-11      0.277D-11      -129.83687758    154.475716    0.00000    0.57016   -0.53702    9    fixocc
   20      0.210D-11      0.770D-12      -129.83687758    154.475716    0.00000    0.57016   -0.53702    9    orth
   21      0.391D-12      0.548D-12      -129.83687758    154.475716    0.00000    0.57016   -0.53702    9    diag
   22      0.170D-12      0.622D-12      -129.83687758    154.475716    0.00000    0.57016   -0.53702    0    orth

 Final occupancy:   7   1

 !RHF STATE 1.1 Energy               -129.836877575727
 Nuclear energy                        29.99404639
 One-electron energy                 -237.06878201
 Two-electron energy                   77.23785804
 Virial quotient                       -1.00213508
 !RHF STATE 1.1 Dipole moment           0.00000000     0.57016195    -0.53702356
 Dipole moment /Debye                   0.00000000     1.44911220    -1.36488833

 Orbital energies:

         1.1          2.1          3.1          4.1          5.1          6.1          7.1          8.1          9.1
    -20.652901   -15.713552    -1.513939    -0.996983    -0.739917    -0.659224    -0.433965     0.039432     0.191920

         1.2          2.2          3.2
     -0.586051     0.073009     0.238982

 HOMO      7.1    -0.433965 =     -11.8088eV
 LUMO      8.1     0.039432 =       1.0730eV
 LUMO-HOMO         0.473397 =      12.8818eV


 **********************************************************************************************************************************
 DATASETS  * FILE   NREC   LENGTH (MB)   RECORD NAMES
              1      19      420.62       500      610      700      900      950      970     1000      129      960     1100   
                                          VAR    BASINP    GEOM    SYMINP    ZMAT    AOBASIS   BASIS     P2S    ABASIS      S 
                                         1400     1410     1200     1210     1080     1600     1650     1300     1700   
                                           T        V       H0       H01     AOSYM     SMH    MOLCAS    ERIS     OPER   

              2       4        3.13       700     1000      520     2100   
                                         GEOM     BASIS   MCVARS     RHF  

 PROGRAMS   *        TOTAL        HF       INT
 CPU TIMES  *        12.04      6.40      5.55
 REAL TIME  *        15.12 SEC
 DISK USED  *         1.32 GB      
 **********************************************************************************************************************************


 PROGRAM * CCSD (Closed-shell coupled cluster)     Authors: C. Hampel, H.-J. Werner, 1991, M. Deegan, P.J. Knowles, 1992


 Convergence thresholds:  THRVAR = 1.00D-08  THRDEN = 1.00D-12

 CCSD(T)     terms to be evaluated (factor= 1.000)


 Number of core orbitals:           2 (   2   0 )
 Number of closed-shell orbitals:   6 (   5   1 )
 Number of external orbitals:     163 ( 107  56 )

 Molecular orbitals read from record     2100.2  Type=RHF/CANONICAL (state 1.1)

 Number of N-1 electron functions:               6
 Number of N-2 electron functions:              21
 Number of singly external CSFs:               591
 Number of doubly external CSFs:            250014
 Total number of CSFs:                      250606

 Length of J-op  integral file:               0.00 MB
 Length of K-op  integral file:               1.15 MB
 Length of 3-ext integral record:             0.00 MB

 Memory could be reduced to 19.93 Mwords without degradation in triples

 Integral transformation finished. Total CPU:   0.87 sec, npass=  1  Memory used:   5.10 MW

 Reference energy:                   -129.83687758

 MP2 singlet pair energy:              -0.28866668
 MP2 triplet pair energy:              -0.16838728
 MP2 correlation energy:               -0.45705396
 MP2 total energy:                   -130.29393154

 SCS-MP2 correlation energy:           -0.45117433   (PS=  1.200000  PT=  0.333333)
 SCS-MP2 total energy:               -130.28805190

 ITER.      SQ.NORM     CORR.ENERGY   TOTAL ENERGY   ENERGY CHANGE        DEN1      VAR(S)    VAR(P)  DIIS     TIME  TIME/IT
   1      1.12069951    -0.45851446  -130.29539203    -0.00146050     0.01608345  0.34D-02  0.33D-02  1  1     1.66     0.85
   2      1.13167037    -0.45827770  -130.29515528     0.00023675    -0.01296707  0.13D-03  0.52D-03  2  2     2.49     0.87
   3      1.13858981    -0.45867491  -130.29555249    -0.00039721    -0.00348032  0.49D-04  0.62D-04  3  3     3.30     0.88
   4      1.14167293    -0.45870897  -130.29558654    -0.00003405    -0.00100128  0.50D-05  0.11D-04  4  4     4.11     0.89
   5      1.14287385    -0.45874518  -130.29562276    -0.00003621    -0.00024479  0.14D-05  0.18D-05  5  5     4.92     0.89
   6      1.14330472    -0.45872746  -130.29560504     0.00001772    -0.00007168  0.13D-06  0.43D-06  6  6     5.72     0.89
   7      1.14337794    -0.45872915  -130.29560672    -0.00000169     0.00000968  0.17D-07  0.99D-07  6  1     6.52     0.89
   8      1.14341401    -0.45872850  -130.29560608     0.00000065    -0.00000517  0.48D-08  0.16D-07  6  2     7.32     0.89
   9      1.14341939    -0.45872835  -130.29560593     0.00000015     0.00000130  0.23D-08  0.20D-08  6  3     8.15     0.89
  10      1.14342002    -0.45872869  -130.29560627    -0.00000034    -0.00000038  0.55D-09  0.31D-09  6  4     8.98     0.89
  11      1.14341845    -0.45872884  -130.29560642    -0.00000015     0.00000036  0.14D-09  0.31D-10  6  5     9.78     0.89
  12      1.14341722    -0.45872901  -130.29560658    -0.00000016     0.00000050  0.17D-10  0.85D-11  6  6    10.56     0.89
  13      1.14341652    -0.45872903  -130.29560660    -0.00000002     0.00000013  0.62D-11  0.15D-11  6  1    11.37     0.89
  14      1.14341596    -0.45872906  -130.29560663    -0.00000003     0.00000013  0.54D-12  0.50D-12  6  3    12.17     0.89
  15      1.14341579    -0.45872906  -130.29560663     0.00000000     0.00000001  0.15D-12  0.37D-13  6  2    12.98     0.89
  16      1.14341573    -0.45872906  -130.29560664    -0.00000000     0.00000001  0.34D-13  0.85D-14  6  4    13.77     0.89
  17      1.14341570    -0.45872906  -130.29560664    -0.00000000     0.00000001  0.49D-14  0.13D-14  6  5    14.61     0.90
  18      1.14341570    -0.45872906  -130.29560664    -0.00000000     0.00000000  0.58D-15  0.38D-15  6  6    15.41     0.90
  19      1.14341570    -0.45872906  -130.29560664     0.00000000    -0.00000000  0.82D-16  0.57D-16  6  1    16.21     0.90
  20      1.14341570    -0.45872906  -130.29560664     0.00000000    -0.00000000  0.41D-17  0.14D-16  6  3    16.99     0.90
  21      1.14341570    -0.45872906  -130.29560664     0.00000000    -0.00000000  0.65D-18  0.32D-17  6  4    17.84     0.90
  22      1.14341571    -0.45872906  -130.29560664     0.00000000    -0.00000000  0.61D-19  0.11D-17  6  2    18.65     0.90
  23      1.14341570    -0.45872906  -130.29560664    -0.00000000     0.00000000  0.10D-18  0.21D-18  6  5    19.48     0.90
  24      1.14341570    -0.45872906  -130.29560664    -0.00000000     0.00000000  0.52D-20  0.20D-19  6  1    20.32     0.90
  25      1.14341570    -0.45872906  -130.29560664     0.00000000    -0.00000000  0.28D-20  0.14D-20  6  6    21.15     0.90

 Norm of t1 vector:      0.08006433      S-energy:     0.00000000      T1 diagnostic:  0.01634306
                                                                       D1 diagnostic:  0.04530857

 Doubles amplitudes (print threshold =  0.500E-01):

         I         J         SYM. A    SYM. B    A         B      T(IJ, AB)

         6         6         2         2         1         1     -0.14071166


 Total CPU time for triples:      8.60 sec


 RESULTS
 =======

  Reference energy                   -129.836877575727
  CCSD singlet pair energy             -0.315469870008
  CCSD triplet pair energy             -0.143259190329
  CCSD correlation energy              -0.458729060338

  Triples (T) contribution             -0.021746297947
  Total correlation energy             -0.480475358285

  CCSD total energy                  -130.295606636064
  CCSD[T] energy                     -130.318528883556
  CCSD-T energy                      -130.316919120215
 !CCSD(T) total energy               -130.317352934011

 Timing summary (sec):

 STEP                 CPU(USER)    SYS     CPU(TOT)    WALL
 Transformation          0.88      0.15      1.03      1.03
 CCSD iterations        20.27      2.26     22.53     22.56
 Triples                 8.60      0.30      8.90      8.89

 Program statistics:

 Available memory in ccsd:               994999756
 Min. memory needed in ccsd:                887758
 Max. memory used in ccsd:                 1088212
 Max. memory used in cckext:               1535578 (25 integral passes)



 **********************************************************************************************************************************
 DATASETS  * FILE   NREC   LENGTH (MB)   RECORD NAMES
              1      20      478.58       500      610      700      900      950      970     1000      129      960     1100   
                                          VAR    BASINP    GEOM    SYMINP    ZMAT    AOBASIS   BASIS     P2S    ABASIS      S 
                                         1400     1410     1200     1210     1080     1600     1650     1300     1700     1380   
                                           T        V       H0       H01     AOSYM     SMH    MOLCAS    ERIS     OPER     JKOP   

              2       4        3.13       700     1000      520     2100   
                                         GEOM     BASIS   MCVARS     RHF  

 PROGRAMS   *        TOTAL   CCSD(T)        HF       INT
 CPU TIMES  *        41.82     29.78      6.40      5.55
 REAL TIME  *        47.63 SEC
 DISK USED  *         1.32 GB      
 **********************************************************************************************************************************

 CCSD(T)/USERDEF energy=   -130.317352934011

        CCSD(T)         HF-SCF  
   -130.31735293   -129.83687758
 **********************************************************************************************************************************
 Molpro calculation terminated
 Variable memory released
