
 Primary working directories    : /tmp/r2666/235306.maple
 Secondary working directories  : /tmp/r2666/235306.maple
 Wavefunction directory         : /ddn/home4/r2666/wfu/
 Main file repository           : /tmp/r2666/235306.maple/

 SHA1      : d5ffa45e93fdbca01ffc919aa182cfdae0147319
 NAME      : 2015.1.35
 ARCHNAME  : linux/x86_64
 FC        : /opt/intel/composer_xe_2015.1.133/bin/intel64/ifort
 BLASLIB   : -Wl,-_start-group /opt/intel/mkl/lib/intel64/libmkl_intel_ilp64.a /opt/intel/mkl/lib/intel64/libmkl_intel_thread.a /opt/intel/mkl/lib/intel64/libmkl_core.a -Wl,-_end-group
 id        : olemiss

 Nodes     nprocs
 cn091        1

 Using customized tuning parameters: mindgm=1; mindgv=20; mindgc=4; mindgr=1; noblas=0; minvec=7
 default implementation of scratch files=df  

 ***,hno CCSD(T)/TZ-F12 QFF
 memory, 995, m;
 gthresh,energy=1.d-12,zero=1.d-22,oneint=1.d-22,twoint=1.d-22;
 gthresh,optgrad=1.d-8,optstep=1.d-8;
 nocompress;
 geomtyp=xyz
 bohr
 geometry={
 3
         32        32
 N        0.0000000000       -0.1529555792       -1.1438704330
 H        0.0000000000        1.6621702593       -1.9314024444
 O        0.0000000000        0.0325531099        1.1246832863
 }
 
 basis={
 default=aug-cc-pvtz
 s,C,8236.0,1235.0,280.8, 79.27,25.59, 8.997,3.319
 s,C,0.9059,0.3643,0.1285000
 p,C,56.0,18.71,4.133,0.2827,0.3827,0.1209
 d,C,30.0,10.0,3.3,1.097,0.318
 f,C,7.0,2.3,0.7610
 s,N,11420.0,1712.0,389.3,110.0,35.57,12.54,4.644
 s,N,1.293,0.5118,0.1787
 p,N,79.89,26.63,5.948,1.742,0.555,0.1725
 d,N,45.0,15.0,5.0,1.654,0.469
 f,N,9.9,3.3,1.093
 s,O,15330.0,2299.0,522.4,147.3,47.55,16.76,6.207
 s,O,1.752,0.6882,0.2384
 p,O,103.5,34.46,7.749,2.28,0.7156,0.214
 d,O,63.0,21.0,7.0,2.314,0.645
 f,O,12.9,4.3,1.428
 s,mg,164900.0,24710.0,5628.0,1596.0,521.0;
 s,mg,188.0,73.01,29.90,12.54,4.306,1.826;
 s,mg,0.7417,0.0761,0.145,0.033,0.0129;
 p,mg,950.70,316.90,74.86,23.72,8.669,3.363;
 p,mg,1.310,0.4911,0.2364,0.08733,0.03237,0.00745;
 d,mg,1.601,0.686,0.126,0.294,0.0468;
 f,mg,1.372,0.588,0.094,0.252;
 }
   {hf,maxit=500;accu,20;}
 {ccsd(t),nocheck,maxit=250;orbital,IGNORE_ERROR;}

 Variables initialized (889), CPU time= 0.00 sec
 Commands  initialized (702), CPU time= 0.01 sec, 572 directives.
 Default parameters read. Elapsed time= 0.06 sec

 Checking input...
 Passed
1


                                         ***  PROGRAM SYSTEM MOLPRO  ***
                                       Copyright, TTI GmbH Stuttgart, 2015
                                    Version 2015.1 linked Jul  9 2018 13:16:40


 **********************************************************************************************************************************
 LABEL *   hno CCSD(T)/TZ-F12 QFF                                                        
  64 bit serial version                                                                  DATE: 08-Feb-20          TIME: 17:57:29  
 **********************************************************************************************************************************

 SHA1:             d5ffa45e93fdbca01ffc919aa182cfdae0147319
 **********************************************************************************************************************************

 THRESHOLDS:

 ZERO    =  1.00D-22  ONEINT  =  1.00D-22  TWOINT  =  1.00D-22  PREFAC  =  1.00D-14  LOCALI  =  1.00D-09  EORDER  =  1.00D-04
 ENERGY  =  1.00D-12  ETEST   =  0.00D+00  EDENS   =  0.00D+00  THRDEDEF=  1.00D-06  GRADIENT=  1.00D-02  STEP    =  1.00D-03
 ORBITAL =  1.00D-05  CIVEC   =  1.00D-05  COEFF   =  1.00D-04  PRINTCI =  5.00D-02  PUNCHCI =  9.90D+01  OPTGRAD =  3.00D-04
 OPTENERG=  1.00D-06  OPTSTEP =  3.00D-04  THRGRAD =  1.00D-10  COMPRESS=  1.00D-11  VARMIN  =  1.00D-07  VARMAX  =  1.00D-03
 THRDOUB =  0.00D+00  THRDIV  =  1.00D-05  THRRED  =  1.00D-07  THRPSP  =  1.00D+00  THRDC   =  1.00D-10  THRCS   =  1.00D-10
 THRNRM  =  1.00D-08  THREQ   =  0.00D+00  THRDE   =  1.00D+00  THRREF  =  1.00D-05  SPARFAC =  1.00D+00  THRDLP  =  1.00D-07
 THRDIA  =  1.00D-10  THRDLS  =  1.00D-07  THRGPS  =  0.00D+00  THRKEX  =  0.00D+00  THRDIS  =  2.00D-01  THRVAR  =  1.00D-10
 THRLOC  =  1.00D-06  THRGAP  =  1.00D-06  THRLOCT = -1.00D+00  THRGAPT = -1.00D+00  THRORB  =  1.00D-06  THRMLTP =  0.00D+00
 THRCPQCI=  1.00D-10  KEXTA   =  0.00D+00  THRCOARS=  0.00D+00  SYMTOL  =  1.00D-06  GRADTOL =  1.00D-06  THROVL  =  1.00D-08
 THRORTH =  1.00D-08  GRID    =  1.00D-06  GRIDMAX =  1.00D-03  DTMAX   =  0.00D+00  THROCCDE=  1.00D-01  THROCCDE=  1.00D-01



 THRESHOLDS:

 ZERO    =  1.00D-22  ONEINT  =  1.00D-22  TWOINT  =  1.00D-22  PREFAC  =  1.00D-14  LOCALI  =  1.00D-09  EORDER  =  1.00D-04
 ENERGY  =  1.00D-12  ETEST   =  0.00D+00  EDENS   =  0.00D+00  THRDEDEF=  1.00D-06  GRADIENT=  1.00D-02  STEP    =  1.00D-03
 ORBITAL =  1.00D-05  CIVEC   =  1.00D-05  COEFF   =  1.00D-04  PRINTCI =  5.00D-02  PUNCHCI =  9.90D+01  OPTGRAD =  1.00D-08
 OPTENERG=  1.00D-06  OPTSTEP =  1.00D-08  THRGRAD =  1.00D-10  COMPRESS=  1.00D-11  VARMIN  =  1.00D-07  VARMAX  =  1.00D-03
 THRDOUB =  0.00D+00  THRDIV  =  1.00D-05  THRRED  =  1.00D-07  THRPSP  =  1.00D+00  THRDC   =  1.00D-10  THRCS   =  1.00D-10
 THRNRM  =  1.00D-08  THREQ   =  0.00D+00  THRDE   =  1.00D+00  THRREF  =  1.00D-05  SPARFAC =  1.00D+00  THRDLP  =  1.00D-07
 THRDIA  =  1.00D-10  THRDLS  =  1.00D-07  THRGPS  =  0.00D+00  THRKEX  =  0.00D+00  THRDIS  =  2.00D-01  THRVAR  =  1.00D-10
 THRLOC  =  1.00D-06  THRGAP  =  1.00D-06  THRLOCT = -1.00D+00  THRGAPT = -1.00D+00  THRORB  =  1.00D-06  THRMLTP =  0.00D+00
 THRCPQCI=  1.00D-10  KEXTA   =  0.00D+00  THRCOARS=  0.00D+00  SYMTOL  =  1.00D-06  GRADTOL =  1.00D-06  THROVL  =  1.00D-08
 THRORTH =  1.00D-08  GRID    =  1.00D-06  GRIDMAX =  1.00D-03  DTMAX   =  0.00D+00  THROCCDE=  1.00D-01  THROCCDE=  1.00D-01



 Input parameters for SORTINT:

 COMPRESS =    0.000000
 C_FINAL  =    1.000000
 DEBUG    =   -1.000000
 C_SORT1  =    0.000000
 C_SEWARD =    0.000000
 THRESH   =    0.000000
 IO       =  molpro                                                          
 SPRI     =    0.000000
 SETTING GEOMTYP        =    XYZ
 ZUNIT=BOHR
 

 Variable memory set to  995000000 words,  buffer space   230000 words

 SETTING BASIS          =    USERDEF


 Recomputing integrals since basis changed


 Using spherical harmonics

 Library entry H      S aug-cc-pVTZ          selected for orbital group  2
 Library entry H      P aug-cc-pVTZ          selected for orbital group  2
 Library entry H      D aug-cc-pVTZ          selected for orbital group  2


 PROGRAM * SEWARD (Integral evaluation for generally contracted gaussian basis sets)     Author: Roland Lindh, 1990

 Geometry written to block  1 of record 700


 Point group  Cs  



 ATOMIC COORDINATES

 NR  ATOM    CHARGE       X              Y              Z

   1  N       7.00    0.000000000   -0.152955579   -1.143870433
   2  H       1.00    0.000000000    1.662170259   -1.931402444
   3  O       8.00    0.000000000    0.032553110    1.124683286

 Bond lengths in Bohr (Angstrom)

 1-2  1.978607712  1-3  2.276125974
     ( 1.047034111)     ( 1.204473995)

 Bond angles

  2-1-3  108.77976204

 NUCLEAR CHARGE:                   16
 NUMBER OF PRIMITIVE AOS:         203
 NUMBER OF SYMMETRY AOS:          173
 NUMBER OF CONTRACTIONS:          171   ( 114A'  +  57A"  )
 NUMBER OF CORE ORBITALS:           2   (   2A'  +   0A"  )
 NUMBER OF VALENCE ORBITALS:        9   (   7A'  +   2A"  )


 NUCLEAR REPULSION ENERGY   30.45090122


 Eigenvalues of metric

         1 0.102E-02 0.245E-02 0.330E-02 0.631E-02 0.968E-02 0.136E-01 0.144E-01 0.228E-01
         2 0.357E-01 0.526E-01 0.691E-01 0.941E-01 0.131E+00 0.134E+00 0.140E+00 0.142E+00


 Contracted 2-electron integrals neglected if value below      1.0D-22

       46172910. INTEGRALS WRITTEN OUT IN   11276 BLOCKS ON RECORD 1290 OF FILE 1


 NUMBER OF SORTED TWO-ELECTRON INTEGRALS:   55360566.     BUFFER LENGTH:  32768
 NUMBER OF SEGMENTS:   4  SEGMENT LENGTH:   15997996      RECORD LENGTH: 524288

 Memory used in sort:      16.56 MW

 SORT1 READ    46172910. AND WROTE    46610596. INTEGRALS IN    135 RECORDS. CPU TIME:     0.78 SEC, REAL TIME:     1.07 SEC
 SORT2 READ    46610596. AND WROTE    55360566. INTEGRALS IN      4 RECORDS. CPU TIME:     0.67 SEC, REAL TIME:     0.87 SEC

 FILE SIZES:   FILE 1:   759.7 MBYTE,  FILE 4:   566.3 MBYTE,   TOTAL:   1326.0 MBYTE

 OPERATOR DM      FOR CENTER  0  COORDINATES:    0.000000    0.000000    0.000000


 **********************************************************************************************************************************
 DATASETS  * FILE   NREC   LENGTH (MB)   RECORD NAMES
              1      19      421.43       500      610      700      900      950      970     1000      129      960     1100   
                                          VAR    BASINP    GEOM    SYMINP    ZMAT    AOBASIS   BASIS     P2S    ABASIS      S 
                                         1400     1410     1200     1210     1080     1600     1650     1300     1700   
                                           T        V       H0       H01     AOSYM     SMH    MOLCAS    ERIS     OPER   

 PROGRAMS   *        TOTAL       INT
 CPU TIMES  *         4.23      4.14
 REAL TIME  *         5.72 SEC
 DISK USED  *         1.33 GB      
 **********************************************************************************************************************************


 PROGRAM * RHF-SCF (CLOSED SHELL)       Authors: W. Meyer, H.-J. Werner


 NUMBER OF ELECTRONS:       8+    8-
 CONVERGENCE THRESHOLDS:    1.00E-10 (Density)    1.00E-13 (Energy)
 MAX. NUMBER OF ITERATIONS:      500
 INTERPOLATION TYPE:            DIIS
 INTERPOLATION STEPS:              2 (START)      1 (STEP)
 LEVEL SHIFTS:                  0.00 (CLOSED)  0.00 (OPEN) 



 Orbital guess generated from atomic densities. Full valence occupancy:    9   2

 Molecular orbital dump at record        2100.2

 Initial occupancy:   7   1

 ITERATION    DDIFF          GRAD             ENERGY        2-EL.EN.            DIPOLE MOMENTS         DIIS   ORB.
    1      0.000D+00      0.000D+00      -129.79067205    154.208955    0.00000    0.57640   -1.00326    0    start
    2      0.000D+00      0.873D-02      -129.81767841    155.386913    0.00000    0.59571   -0.20256    1    diag
    3      0.364D-02      0.656D-02      -129.83960679    155.500910    0.00000    0.54899   -0.58140    2    diag
    4      0.140D-02      0.104D-02      -129.84038344    155.229353    0.00000    0.55692   -0.51946    3    diag
    5      0.331D-03      0.334D-03      -129.84050142    155.316861    0.00000    0.56292   -0.52195    4    diag
    6      0.152D-03      0.977D-04      -129.84052056    155.300897    0.00000    0.56351   -0.51791    5    diag
    7      0.605D-04      0.489D-04      -129.84052615    155.303440    0.00000    0.56484   -0.51545    6    diag
    8      0.409D-04      0.166D-04      -129.84052674    155.302638    0.00000    0.56490   -0.51457    7    diag
    9      0.139D-04      0.307D-05      -129.84052676    155.302529    0.00000    0.56485   -0.51439    8    diag
   10      0.280D-05      0.709D-06      -129.84052676    155.302516    0.00000    0.56481   -0.51436    9    orth
   11      0.856D-06      0.141D-06      -129.84052676    155.302512    0.00000    0.56480   -0.51436    9    diag
   12      0.203D-06      0.289D-07      -129.84052676    155.302511    0.00000    0.56480   -0.51436    9    diag
   13      0.488D-07      0.759D-08      -129.84052676    155.302511    0.00000    0.56480   -0.51436    9    diag
   14      0.112D-07      0.134D-08      -129.84052676    155.302511    0.00000    0.56480   -0.51436    9    diag
   15      0.146D-08      0.364D-09      -129.84052676    155.302511    0.00000    0.56480   -0.51436    9    diag
   16      0.322D-09      0.108D-09      -129.84052676    155.302511    0.00000    0.56480   -0.51436    9    diag
   17      0.762D-10      0.300D-10      -129.84052676    155.302511    0.00000    0.56480   -0.51436    9    diag
   18      0.244D-10      0.100D-10      -129.84052676    155.302511    0.00000    0.56480   -0.51436    9    diag
   19      0.986D-11      0.246D-11      -129.84052676    155.302511    0.00000    0.56480   -0.51436    9    fixocc
   20      0.245D-11      0.590D-12      -129.84052676    155.302511    0.00000    0.56480   -0.51436    0    orth

 Final occupancy:   7   1

 !RHF STATE 1.1 Energy               -129.840526762755
 Nuclear energy                        30.45090122
 One-electron energy                 -237.94268342
 Two-electron energy                   77.65125543
 Virial quotient                       -1.00148497
 !RHF STATE 1.1 Dipole moment           0.00000000     0.56480093    -0.51435918
 Dipole moment /Debye                   0.00000000     1.43548675    -1.30728502

 Orbital energies:

         1.1          2.1          3.1          4.1          5.1          6.1          7.1          8.1          9.1
    -20.650998   -15.709229    -1.530670    -0.993744    -0.746787    -0.665361    -0.427574     0.039730     0.193384

         1.2          2.2          3.2
     -0.595724     0.080160     0.239755

 HOMO      7.1    -0.427574 =     -11.6349eV
 LUMO      8.1     0.039730 =       1.0811eV
 LUMO-HOMO         0.467303 =      12.7160eV


 **********************************************************************************************************************************
 DATASETS  * FILE   NREC   LENGTH (MB)   RECORD NAMES
              1      19      421.43       500      610      700      900      950      970     1000      129      960     1100   
                                          VAR    BASINP    GEOM    SYMINP    ZMAT    AOBASIS   BASIS     P2S    ABASIS      S 
                                         1400     1410     1200     1210     1080     1600     1650     1300     1700   
                                           T        V       H0       H01     AOSYM     SMH    MOLCAS    ERIS     OPER   

              2       4        3.13       700     1000      520     2100   
                                         GEOM     BASIS   MCVARS     RHF  

 PROGRAMS   *        TOTAL        HF       INT
 CPU TIMES  *         9.35      5.12      4.14
 REAL TIME  *        11.86 SEC
 DISK USED  *         1.33 GB      
 **********************************************************************************************************************************


 PROGRAM * CCSD (Closed-shell coupled cluster)     Authors: C. Hampel, H.-J. Werner, 1991, M. Deegan, P.J. Knowles, 1992


 Convergence thresholds:  THRVAR = 1.00D-08  THRDEN = 1.00D-12

 CCSD(T)     terms to be evaluated (factor= 1.000)


 Number of core orbitals:           2 (   2   0 )
 Number of closed-shell orbitals:   6 (   5   1 )
 Number of external orbitals:     163 ( 107  56 )

 Molecular orbitals read from record     2100.2  Type=RHF/CANONICAL (state 1.1)

 Number of N-1 electron functions:               6
 Number of N-2 electron functions:              21
 Number of singly external CSFs:               591
 Number of doubly external CSFs:            250014
 Total number of CSFs:                      250606

 Length of J-op  integral file:               0.00 MB
 Length of K-op  integral file:               1.15 MB
 Length of 3-ext integral record:             0.00 MB

 Memory could be reduced to 19.93 Mwords without degradation in triples

 Integral transformation finished. Total CPU:   0.74 sec, npass=  1  Memory used:   5.10 MW

 Reference energy:                   -129.84052676

 MP2 singlet pair energy:              -0.28640626
 MP2 triplet pair energy:              -0.16688834
 MP2 correlation energy:               -0.45329460
 MP2 total energy:                   -130.29382136

 SCS-MP2 correlation energy:           -0.44752915   (PS=  1.200000  PT=  0.333333)
 SCS-MP2 total energy:               -130.28805591

 ITER.      SQ.NORM     CORR.ENERGY   TOTAL ENERGY   ENERGY CHANGE        DEN1      VAR(S)    VAR(P)  DIIS     TIME  TIME/IT
   1      1.11827185    -0.45557151  -130.29609828    -0.00227691     0.01429827  0.32D-02  0.30D-02  1  1     1.37     0.69
   2      1.12868050    -0.45552025  -130.29604701     0.00005126    -0.01239820  0.12D-03  0.49D-03  2  2     2.03     0.70
   3      1.13515105    -0.45588598  -130.29641274    -0.00036573    -0.00333473  0.43D-04  0.57D-04  3  3     2.65     0.71
   4      1.13797433    -0.45591792  -130.29644468    -0.00003194    -0.00093201  0.43D-05  0.96D-05  4  4     3.31     0.71
   5      1.13902876    -0.45594927  -130.29647604    -0.00003136    -0.00021530  0.13D-05  0.18D-05  5  5     3.95     0.71
   6      1.13941953    -0.45593397  -130.29646074     0.00001530    -0.00006464  0.12D-06  0.43D-06  6  6     4.60     0.71
   7      1.13949268    -0.45593552  -130.29646228    -0.00000155     0.00000829  0.16D-07  0.93D-07  6  1     5.25     0.71
   8      1.13952712    -0.45593516  -130.29646193     0.00000035    -0.00000453  0.51D-08  0.14D-07  6  2     5.88     0.71
   9      1.13953246    -0.45593506  -130.29646182     0.00000011     0.00000086  0.22D-08  0.16D-08  6  3     6.53     0.71
  10      1.13953278    -0.45593538  -130.29646215    -0.00000033    -0.00000020  0.49D-09  0.25D-09  6  4     7.18     0.71
  11      1.13953126    -0.45593552  -130.29646228    -0.00000014     0.00000034  0.12D-09  0.25D-10  6  5     7.82     0.71
  12      1.13953011    -0.45593567  -130.29646243    -0.00000015     0.00000047  0.15D-10  0.73D-11  6  6     8.43     0.71
  13      1.13952947    -0.45593569  -130.29646245    -0.00000002     0.00000012  0.58D-11  0.13D-11  6  1     9.09     0.71
  14      1.13952897    -0.45593571  -130.29646248    -0.00000003     0.00000011  0.55D-12  0.43D-12  6  3     9.71     0.71
  15      1.13952882    -0.45593571  -130.29646248    -0.00000000     0.00000001  0.13D-12  0.30D-13  6  2    10.34     0.71
  16      1.13952877    -0.45593571  -130.29646248    -0.00000000     0.00000001  0.31D-13  0.73D-14  6  4    10.97     0.71
  17      1.13952875    -0.45593572  -130.29646248    -0.00000000     0.00000001  0.39D-14  0.11D-14  6  5    11.61     0.71
  18      1.13952875    -0.45593572  -130.29646248     0.00000000     0.00000000  0.43D-15  0.31D-15  6  6    12.26     0.71
  19      1.13952875    -0.45593572  -130.29646248     0.00000000    -0.00000000  0.57D-16  0.37D-16  6  1    12.90     0.71
  20      1.13952875    -0.45593572  -130.29646248     0.00000000    -0.00000000  0.30D-17  0.83D-17  6  3    13.55     0.71
  21      1.13952875    -0.45593572  -130.29646248     0.00000000    -0.00000000  0.48D-18  0.17D-17  6  4    14.21     0.71
  22      1.13952875    -0.45593572  -130.29646248     0.00000000    -0.00000000  0.16D-19  0.61D-18  6  2    14.86     0.71
  23      1.13952875    -0.45593572  -130.29646248    -0.00000000     0.00000000  0.45D-19  0.13D-18  6  5    15.49     0.71
  24      1.13952875    -0.45593572  -130.29646248    -0.00000000     0.00000000  0.47D-20  0.12D-19  6  1    16.11     0.71
  25      1.13952875    -0.45593572  -130.29646248     0.00000000    -0.00000000  0.20D-20  0.84D-21  6  6    16.78     0.71

 Norm of t1 vector:      0.07658374      S-energy:     0.00000000      T1 diagnostic:  0.01563259
                                                                       D1 diagnostic:  0.04257915

 Doubles amplitudes (print threshold =  0.500E-01):

         I         J         SYM. A    SYM. B    A         B      T(IJ, AB)

         6         6         2         2         1         1     -0.13432415


 Total CPU time for triples:      8.43 sec


 RESULTS
 =======

  Reference energy                   -129.840526762755
  CCSD singlet pair energy             -0.313026504181
  CCSD triplet pair energy             -0.142909210865
  CCSD correlation energy              -0.455935715046

  Triples (T) contribution             -0.021063432140
  Total correlation energy             -0.476999147186

  CCSD total energy                  -130.296462477802
  CCSD[T] energy                     -130.318603991464
  CCSD-T energy                      -130.317117125506
 !CCSD(T) total energy               -130.317525909941

 Timing summary (sec):

 STEP                 CPU(USER)    SYS     CPU(TOT)    WALL
 Transformation          0.76      0.12      0.88      0.87
 CCSD iterations        16.02      1.83     17.85     17.86
 Triples                 8.43      0.23      8.66      8.66

 Program statistics:

 Available memory in ccsd:               994999756
 Min. memory needed in ccsd:                887758
 Max. memory used in ccsd:                 1088212
 Max. memory used in cckext:               1535578 (25 integral passes)



 **********************************************************************************************************************************
 DATASETS  * FILE   NREC   LENGTH (MB)   RECORD NAMES
              1      20      479.39       500      610      700      900      950      970     1000      129      960     1100   
                                          VAR    BASINP    GEOM    SYMINP    ZMAT    AOBASIS   BASIS     P2S    ABASIS      S 
                                         1400     1410     1200     1210     1080     1600     1650     1300     1700     1380   
                                           T        V       H0       H01     AOSYM     SMH    MOLCAS    ERIS     OPER     JKOP   

              2       4        3.13       700     1000      520     2100   
                                         GEOM     BASIS   MCVARS     RHF  

 PROGRAMS   *        TOTAL   CCSD(T)        HF       INT
 CPU TIMES  *        34.59     25.24      5.12      4.14
 REAL TIME  *        39.29 SEC
 DISK USED  *         1.33 GB      
 **********************************************************************************************************************************

 CCSD(T)/USERDEF energy=   -130.317525909941

        CCSD(T)         HF-SCF  
   -130.31752591   -129.84052676
 **********************************************************************************************************************************
 Molpro calculation terminated
 Variable memory released
