
 Primary working directories    : /tmp/r2666/235359.maple
 Secondary working directories  : /tmp/r2666/235359.maple
 Wavefunction directory         : /ddn/home4/r2666/wfu/
 Main file repository           : /tmp/r2666/235359.maple/

 SHA1      : d5ffa45e93fdbca01ffc919aa182cfdae0147319
 NAME      : 2015.1.35
 ARCHNAME  : linux/x86_64
 FC        : /opt/intel/composer_xe_2015.1.133/bin/intel64/ifort
 BLASLIB   : -Wl,-_start-group /opt/intel/mkl/lib/intel64/libmkl_intel_ilp64.a /opt/intel/mkl/lib/intel64/libmkl_intel_thread.a /opt/intel/mkl/lib/intel64/libmkl_core.a -Wl,-_end-group
 id        : olemiss

 Nodes     nprocs
 cn034        1

 Using customized tuning parameters: mindgm=1; mindgv=20; mindgc=4; mindgr=1; noblas=0; minvec=7
 default implementation of scratch files=df  

 ***,hno CCSD(T)/TZ-F12 QFF
 memory, 995, m;
 gthresh,energy=1.d-12,zero=1.d-22,oneint=1.d-22,twoint=1.d-22;
 gthresh,optgrad=1.d-8,optstep=1.d-8;
 nocompress;
 geomtyp=xyz
 bohr
 geometry={
 3
         85        85
 N        0.0000000000       -0.1563567151       -1.1573417013
 H        0.0000000000        1.6699384650       -1.9428440464
 O        0.0000000000        0.0281860401        1.1495961567
 }
 
 basis={
 default=aug-cc-pvtz
 s,C,8236.0,1235.0,280.8, 79.27,25.59, 8.997,3.319
 s,C,0.9059,0.3643,0.1285000
 p,C,56.0,18.71,4.133,0.2827,0.3827,0.1209
 d,C,30.0,10.0,3.3,1.097,0.318
 f,C,7.0,2.3,0.7610
 s,N,11420.0,1712.0,389.3,110.0,35.57,12.54,4.644
 s,N,1.293,0.5118,0.1787
 p,N,79.89,26.63,5.948,1.742,0.555,0.1725
 d,N,45.0,15.0,5.0,1.654,0.469
 f,N,9.9,3.3,1.093
 s,O,15330.0,2299.0,522.4,147.3,47.55,16.76,6.207
 s,O,1.752,0.6882,0.2384
 p,O,103.5,34.46,7.749,2.28,0.7156,0.214
 d,O,63.0,21.0,7.0,2.314,0.645
 f,O,12.9,4.3,1.428
 s,mg,164900.0,24710.0,5628.0,1596.0,521.0;
 s,mg,188.0,73.01,29.90,12.54,4.306,1.826;
 s,mg,0.7417,0.0761,0.145,0.033,0.0129;
 p,mg,950.70,316.90,74.86,23.72,8.669,3.363;
 p,mg,1.310,0.4911,0.2364,0.08733,0.03237,0.00745;
 d,mg,1.601,0.686,0.126,0.294,0.0468;
 f,mg,1.372,0.588,0.094,0.252;
 }
   {hf,maxit=500;accu,20;}
 {ccsd(t),nocheck,maxit=250;orbital,IGNORE_ERROR;}

 Variables initialized (889), CPU time= 0.00 sec
 Commands  initialized (702), CPU time= 0.01 sec, 572 directives.
 Default parameters read. Elapsed time= 0.05 sec

 Checking input...
 Passed
1


                                         ***  PROGRAM SYSTEM MOLPRO  ***
                                       Copyright, TTI GmbH Stuttgart, 2015
                                    Version 2015.1 linked Jul  9 2018 13:16:40


 **********************************************************************************************************************************
 LABEL *   hno CCSD(T)/TZ-F12 QFF                                                        
  64 bit serial version                                                                  DATE: 08-Feb-20          TIME: 17:58:18  
 **********************************************************************************************************************************

 SHA1:             d5ffa45e93fdbca01ffc919aa182cfdae0147319
 **********************************************************************************************************************************

 THRESHOLDS:

 ZERO    =  1.00D-22  ONEINT  =  1.00D-22  TWOINT  =  1.00D-22  PREFAC  =  1.00D-14  LOCALI  =  1.00D-09  EORDER  =  1.00D-04
 ENERGY  =  1.00D-12  ETEST   =  0.00D+00  EDENS   =  0.00D+00  THRDEDEF=  1.00D-06  GRADIENT=  1.00D-02  STEP    =  1.00D-03
 ORBITAL =  1.00D-05  CIVEC   =  1.00D-05  COEFF   =  1.00D-04  PRINTCI =  5.00D-02  PUNCHCI =  9.90D+01  OPTGRAD =  3.00D-04
 OPTENERG=  1.00D-06  OPTSTEP =  3.00D-04  THRGRAD =  1.00D-10  COMPRESS=  1.00D-11  VARMIN  =  1.00D-07  VARMAX  =  1.00D-03
 THRDOUB =  0.00D+00  THRDIV  =  1.00D-05  THRRED  =  1.00D-07  THRPSP  =  1.00D+00  THRDC   =  1.00D-10  THRCS   =  1.00D-10
 THRNRM  =  1.00D-08  THREQ   =  0.00D+00  THRDE   =  1.00D+00  THRREF  =  1.00D-05  SPARFAC =  1.00D+00  THRDLP  =  1.00D-07
 THRDIA  =  1.00D-10  THRDLS  =  1.00D-07  THRGPS  =  0.00D+00  THRKEX  =  0.00D+00  THRDIS  =  2.00D-01  THRVAR  =  1.00D-10
 THRLOC  =  1.00D-06  THRGAP  =  1.00D-06  THRLOCT = -1.00D+00  THRGAPT = -1.00D+00  THRORB  =  1.00D-06  THRMLTP =  0.00D+00
 THRCPQCI=  1.00D-10  KEXTA   =  0.00D+00  THRCOARS=  0.00D+00  SYMTOL  =  1.00D-06  GRADTOL =  1.00D-06  THROVL  =  1.00D-08
 THRORTH =  1.00D-08  GRID    =  1.00D-06  GRIDMAX =  1.00D-03  DTMAX   =  0.00D+00  THROCCDE=  1.00D-01  THROCCDE=  1.00D-01



 THRESHOLDS:

 ZERO    =  1.00D-22  ONEINT  =  1.00D-22  TWOINT  =  1.00D-22  PREFAC  =  1.00D-14  LOCALI  =  1.00D-09  EORDER  =  1.00D-04
 ENERGY  =  1.00D-12  ETEST   =  0.00D+00  EDENS   =  0.00D+00  THRDEDEF=  1.00D-06  GRADIENT=  1.00D-02  STEP    =  1.00D-03
 ORBITAL =  1.00D-05  CIVEC   =  1.00D-05  COEFF   =  1.00D-04  PRINTCI =  5.00D-02  PUNCHCI =  9.90D+01  OPTGRAD =  1.00D-08
 OPTENERG=  1.00D-06  OPTSTEP =  1.00D-08  THRGRAD =  1.00D-10  COMPRESS=  1.00D-11  VARMIN  =  1.00D-07  VARMAX  =  1.00D-03
 THRDOUB =  0.00D+00  THRDIV  =  1.00D-05  THRRED  =  1.00D-07  THRPSP  =  1.00D+00  THRDC   =  1.00D-10  THRCS   =  1.00D-10
 THRNRM  =  1.00D-08  THREQ   =  0.00D+00  THRDE   =  1.00D+00  THRREF  =  1.00D-05  SPARFAC =  1.00D+00  THRDLP  =  1.00D-07
 THRDIA  =  1.00D-10  THRDLS  =  1.00D-07  THRGPS  =  0.00D+00  THRKEX  =  0.00D+00  THRDIS  =  2.00D-01  THRVAR  =  1.00D-10
 THRLOC  =  1.00D-06  THRGAP  =  1.00D-06  THRLOCT = -1.00D+00  THRGAPT = -1.00D+00  THRORB  =  1.00D-06  THRMLTP =  0.00D+00
 THRCPQCI=  1.00D-10  KEXTA   =  0.00D+00  THRCOARS=  0.00D+00  SYMTOL  =  1.00D-06  GRADTOL =  1.00D-06  THROVL  =  1.00D-08
 THRORTH =  1.00D-08  GRID    =  1.00D-06  GRIDMAX =  1.00D-03  DTMAX   =  0.00D+00  THROCCDE=  1.00D-01  THROCCDE=  1.00D-01



 Input parameters for SORTINT:

 COMPRESS =    0.000000
 C_FINAL  =    1.000000
 DEBUG    =   -1.000000
 C_SORT1  =    0.000000
 C_SEWARD =    0.000000
 THRESH   =    0.000000
 IO       =  molpro                                                          
 SPRI     =    0.000000
 SETTING GEOMTYP        =    XYZ
 ZUNIT=BOHR
 

 Variable memory set to  995000000 words,  buffer space   230000 words

 SETTING BASIS          =    USERDEF


 Recomputing integrals since basis changed


 Using spherical harmonics

 Library entry H      S aug-cc-pVTZ          selected for orbital group  2
 Library entry H      P aug-cc-pVTZ          selected for orbital group  2
 Library entry H      D aug-cc-pVTZ          selected for orbital group  2


 PROGRAM * SEWARD (Integral evaluation for generally contracted gaussian basis sets)     Author: Roland Lindh, 1990

 Geometry written to block  1 of record 700


 Point group  Cs  



 ATOMIC COORDINATES

 NR  ATOM    CHARGE       X              Y              Z

   1  N       7.00    0.000000000   -0.156356715   -1.157341701
   2  H       1.00    0.000000000    1.669938465   -1.942844046
   3  O       8.00    0.000000000    0.028186040    1.149596157

 Bond lengths in Bohr (Angstrom)

 1-2  1.988056342  1-3  2.314307307
     ( 1.052034110)     ( 1.224678686)

 Bond angles

  2-1-3  108.69926033

 NUCLEAR CHARGE:                   16
 NUMBER OF PRIMITIVE AOS:         203
 NUMBER OF SYMMETRY AOS:          173
 NUMBER OF CONTRACTIONS:          171   ( 114A'  +  57A"  )
 NUMBER OF CORE ORBITALS:           2   (   2A'  +   0A"  )
 NUMBER OF VALENCE ORBITALS:        9   (   7A'  +   2A"  )


 NUCLEAR REPULSION ENERGY   30.00325028


 Eigenvalues of metric

         1 0.107E-02 0.264E-02 0.342E-02 0.645E-02 0.985E-02 0.137E-01 0.146E-01 0.234E-01
         2 0.364E-01 0.555E-01 0.708E-01 0.944E-01 0.132E+00 0.135E+00 0.140E+00 0.142E+00


 Contracted 2-electron integrals neglected if value below      1.0D-22

       46056351. INTEGRALS WRITTEN OUT IN   11247 BLOCKS ON RECORD 1290 OF FILE 1


 NUMBER OF SORTED TWO-ELECTRON INTEGRALS:   55360566.     BUFFER LENGTH:  32768
 NUMBER OF SEGMENTS:   4  SEGMENT LENGTH:   15997996      RECORD LENGTH: 524288

 Memory used in sort:      16.56 MW

 SORT1 READ    46056351. AND WROTE    46492920. INTEGRALS IN    135 RECORDS. CPU TIME:     1.34 SEC, REAL TIME:     1.61 SEC
 SORT2 READ    46492920. AND WROTE    55360566. INTEGRALS IN      4 RECORDS. CPU TIME:     0.74 SEC, REAL TIME:     1.01 SEC

 FILE SIZES:   FILE 1:   757.8 MBYTE,  FILE 4:   566.3 MBYTE,   TOTAL:   1324.1 MBYTE

 OPERATOR DM      FOR CENTER  0  COORDINATES:    0.000000    0.000000    0.000000


 **********************************************************************************************************************************
 DATASETS  * FILE   NREC   LENGTH (MB)   RECORD NAMES
              1      19      420.64       500      610      700      900      950      970     1000      129      960     1100   
                                          VAR    BASINP    GEOM    SYMINP    ZMAT    AOBASIS   BASIS     P2S    ABASIS      S 
                                         1400     1410     1200     1210     1080     1600     1650     1300     1700   
                                           T        V       H0       H01     AOSYM     SMH    MOLCAS    ERIS     OPER   

 PROGRAMS   *        TOTAL       INT
 CPU TIMES  *         5.65      5.57
 REAL TIME  *         7.23 SEC
 DISK USED  *         1.32 GB      
 **********************************************************************************************************************************


 PROGRAM * RHF-SCF (CLOSED SHELL)       Authors: W. Meyer, H.-J. Werner


 NUMBER OF ELECTRONS:       8+    8-
 CONVERGENCE THRESHOLDS:    1.00E-10 (Density)    1.00E-13 (Energy)
 MAX. NUMBER OF ITERATIONS:      500
 INTERPOLATION TYPE:            DIIS
 INTERPOLATION STEPS:              2 (START)      1 (STEP)
 LEVEL SHIFTS:                  0.00 (CLOSED)  0.00 (OPEN) 



 Orbital guess generated from atomic densities. Full valence occupancy:    9   2

 Molecular orbital dump at record        2100.2

 Initial occupancy:   7   1

 ITERATION    DDIFF          GRAD             ENERGY        2-EL.EN.            DIPOLE MOMENTS         DIIS   ORB.
    1      0.000D+00      0.000D+00      -129.78405905    153.406208    0.00000    0.58166   -1.06903    0    start
    2      0.000D+00      0.895D-02      -129.81029969    154.546524    0.00000    0.60769   -0.18760    1    diag
    3      0.374D-02      0.706D-02      -129.83600943    154.704343    0.00000    0.55645   -0.60963    2    diag
    4      0.149D-02      0.106D-02      -129.83682812    154.417617    0.00000    0.56388   -0.54424    3    diag
    5      0.338D-03      0.345D-03      -129.83695437    154.507304    0.00000    0.56995   -0.54640    4    diag
    6      0.155D-03      0.101D-03      -129.83697503    154.491001    0.00000    0.57045   -0.54198    5    diag
    7      0.614D-04      0.515D-04      -129.83698141    154.493367    0.00000    0.57174   -0.53925    6    diag
    8      0.422D-04      0.186D-04      -129.83698220    154.492463    0.00000    0.57179   -0.53821    7    diag
    9      0.160D-04      0.354D-05      -129.83698224    154.492332    0.00000    0.57173   -0.53800    8    diag
   10      0.336D-05      0.781D-06      -129.83698224    154.492317    0.00000    0.57169   -0.53797    9    orth
   11      0.924D-06      0.153D-06      -129.83698224    154.492313    0.00000    0.57169   -0.53797    9    diag
   12      0.214D-06      0.333D-07      -129.83698224    154.492312    0.00000    0.57168   -0.53797    9    diag
   13      0.527D-07      0.920D-08      -129.83698224    154.492312    0.00000    0.57168   -0.53797    9    diag
   14      0.126D-07      0.163D-08      -129.83698224    154.492312    0.00000    0.57168   -0.53797    9    diag
   15      0.142D-08      0.433D-09      -129.83698224    154.492312    0.00000    0.57168   -0.53797    9    diag
   16      0.364D-09      0.126D-09      -129.83698224    154.492312    0.00000    0.57168   -0.53797    9    diag
   17      0.667D-10      0.342D-10      -129.83698224    154.492312    0.00000    0.57168   -0.53797    0    orth

 Final occupancy:   7   1

 !RHF STATE 1.1 Energy               -129.836982237867
 Nuclear energy                        30.00325028
 One-electron energy                 -237.08638846
 Two-electron energy                   77.24615594
 Virial quotient                       -1.00212687
 !RHF STATE 1.1 Dipole moment           0.00000000     0.57168463    -0.53796894
 Dipole moment /Debye                   0.00000000     1.45298223    -1.36729110

 Orbital energies:

         1.1          2.1          3.1          4.1          5.1          6.1          7.1          8.1          9.1
    -20.652939   -15.713322    -1.514301    -0.997092    -0.740137    -0.659514    -0.433393     0.039392     0.191897

         1.2          2.2          3.2
     -0.586340     0.073169     0.239045

 HOMO      7.1    -0.433393 =     -11.7932eV
 LUMO      8.1     0.039392 =       1.0719eV
 LUMO-HOMO         0.472785 =      12.8651eV


 **********************************************************************************************************************************
 DATASETS  * FILE   NREC   LENGTH (MB)   RECORD NAMES
              1      19      420.64       500      610      700      900      950      970     1000      129      960     1100   
                                          VAR    BASINP    GEOM    SYMINP    ZMAT    AOBASIS   BASIS     P2S    ABASIS      S 
                                         1400     1410     1200     1210     1080     1600     1650     1300     1700   
                                           T        V       H0       H01     AOSYM     SMH    MOLCAS    ERIS     OPER   

              2       4        3.13       700     1000      520     2100   
                                         GEOM     BASIS   MCVARS     RHF  

 PROGRAMS   *        TOTAL        HF       INT
 CPU TIMES  *        10.44      4.79      5.57
 REAL TIME  *        13.46 SEC
 DISK USED  *         1.32 GB      
 **********************************************************************************************************************************


 PROGRAM * CCSD (Closed-shell coupled cluster)     Authors: C. Hampel, H.-J. Werner, 1991, M. Deegan, P.J. Knowles, 1992


 Convergence thresholds:  THRVAR = 1.00D-08  THRDEN = 1.00D-12

 CCSD(T)     terms to be evaluated (factor= 1.000)


 Number of core orbitals:           2 (   2   0 )
 Number of closed-shell orbitals:   6 (   5   1 )
 Number of external orbitals:     163 ( 107  56 )

 Molecular orbitals read from record     2100.2  Type=RHF/CANONICAL (state 1.1)

 Number of N-1 electron functions:               6
 Number of N-2 electron functions:              21
 Number of singly external CSFs:               591
 Number of doubly external CSFs:            250014
 Total number of CSFs:                      250606

 Length of J-op  integral file:               0.00 MB
 Length of K-op  integral file:               1.15 MB
 Length of 3-ext integral record:             0.00 MB

 Memory could be reduced to 19.93 Mwords without degradation in triples

 Integral transformation finished. Total CPU:   0.87 sec, npass=  1  Memory used:   5.10 MW

 Reference energy:                   -129.83698224

 MP2 singlet pair energy:              -0.28858434
 MP2 triplet pair energy:              -0.16833129
 MP2 correlation energy:               -0.45691563
 MP2 total energy:                   -130.29389787

 SCS-MP2 correlation energy:           -0.45104068   (PS=  1.200000  PT=  0.333333)
 SCS-MP2 total energy:               -130.28802292

 ITER.      SQ.NORM     CORR.ENERGY   TOTAL ENERGY   ENERGY CHANGE        DEN1      VAR(S)    VAR(P)  DIIS     TIME  TIME/IT
   1      1.12062606    -0.45840880  -130.29539104    -0.00149317     0.01602494  0.34D-02  0.33D-02  1  1     1.68     0.85
   2      1.13158483    -0.45817775  -130.29515999     0.00023105    -0.01295147  0.13D-03  0.52D-03  2  2     2.47     0.88
   3      1.13849833    -0.45857519  -130.29555742    -0.00039744    -0.00347634  0.49D-04  0.62D-04  3  3     3.31     0.90
   4      1.14157919    -0.45860888  -130.29559112    -0.00003370    -0.00100060  0.50D-05  0.11D-04  4  4     4.13     0.90
   5      1.14278128    -0.45864508  -130.29562732    -0.00003620    -0.00024459  0.15D-05  0.18D-05  5  5     4.90     0.90
   6      1.14321387    -0.45862738  -130.29560962     0.00001770    -0.00007181  0.13D-06  0.44D-06  6  6     5.66     0.90
   7      1.14328803    -0.45862907  -130.29561131    -0.00000169     0.00000961  0.17D-07  0.10D-06  6  1     6.48     0.90
   8      1.14332435    -0.45862844  -130.29561068     0.00000063    -0.00000517  0.49D-08  0.17D-07  6  2     7.29     0.90
   9      1.14332992    -0.45862829  -130.29561052     0.00000016     0.00000126  0.24D-08  0.20D-08  6  3     8.10     0.90
  10      1.14333051    -0.45862863  -130.29561087    -0.00000035    -0.00000036  0.56D-09  0.31D-09  6  4     8.90     0.90
  11      1.14332892    -0.45862878  -130.29561102    -0.00000015     0.00000036  0.14D-09  0.31D-10  6  5     9.73     0.90
  12      1.14332768    -0.45862895  -130.29561119    -0.00000017     0.00000051  0.17D-10  0.87D-11  6  6    10.56     0.90
  13      1.14332696    -0.45862897  -130.29561121    -0.00000002     0.00000013  0.64D-11  0.16D-11  6  1    11.36     0.90
  14      1.14332640    -0.45862900  -130.29561124    -0.00000003     0.00000013  0.56D-12  0.52D-12  6  3    12.17     0.90
  15      1.14332623    -0.45862900  -130.29561124     0.00000000     0.00000001  0.15D-12  0.37D-13  6  2    12.97     0.90
  16      1.14332616    -0.45862900  -130.29561124    -0.00000000     0.00000001  0.35D-13  0.87D-14  6  4    13.76     0.90
  17      1.14332614    -0.45862900  -130.29561124    -0.00000000     0.00000001  0.50D-14  0.14D-14  6  5    14.58     0.90
  18      1.14332613    -0.45862900  -130.29561124    -0.00000000     0.00000000  0.59D-15  0.38D-15  6  6    15.38     0.90
  19      1.14332614    -0.45862900  -130.29561124     0.00000000    -0.00000000  0.83D-16  0.56D-16  6  1    16.21     0.90
  20      1.14332614    -0.45862900  -130.29561124     0.00000000    -0.00000000  0.42D-17  0.14D-16  6  3    17.03     0.90
  21      1.14332614    -0.45862900  -130.29561124     0.00000000    -0.00000000  0.66D-18  0.31D-17  6  4    17.85     0.90
  22      1.14332614    -0.45862900  -130.29561124     0.00000000    -0.00000000  0.55D-19  0.11D-17  6  2    18.65     0.90
  23      1.14332614    -0.45862900  -130.29561124    -0.00000000     0.00000000  0.10D-18  0.21D-18  6  5    19.46     0.90
  24      1.14332614    -0.45862900  -130.29561124    -0.00000000     0.00000000  0.55D-20  0.20D-19  6  1    20.27     0.90
  25      1.14332614    -0.45862900  -130.29561124     0.00000000    -0.00000000  0.28D-20  0.14D-20  6  6    21.12     0.90

 Norm of t1 vector:      0.08008641      S-energy:     0.00000000      T1 diagnostic:  0.01634757
                                                                       D1 diagnostic:  0.04525470

 Doubles amplitudes (print threshold =  0.500E-01):

         I         J         SYM. A    SYM. B    A         B      T(IJ, AB)

         6         6         2         2         1         1     -0.14040812


 Total CPU time for triples:      8.64 sec


 RESULTS
 =======

  Reference energy                   -129.836982237867
  CCSD singlet pair energy             -0.315384324299
  CCSD triplet pair energy             -0.143244679010
  CCSD correlation energy              -0.458629003298

  Triples (T) contribution             -0.021725949127
  Total correlation energy             -0.480354952425

  CCSD total energy                  -130.295611241165
  CCSD[T] energy                     -130.318512239316
  CCSD-T energy                      -130.316903600807
 !CCSD(T) total energy               -130.317337190292

 Timing summary (sec):

 STEP                 CPU(USER)    SYS     CPU(TOT)    WALL
 Transformation          0.88      0.15      1.03      1.03
 CCSD iterations        20.24      2.39     22.63     22.64
 Triples                 8.64      0.26      8.90      8.90

 Program statistics:

 Available memory in ccsd:               994999756
 Min. memory needed in ccsd:                887758
 Max. memory used in ccsd:                 1088212
 Max. memory used in cckext:               1535578 (25 integral passes)



 **********************************************************************************************************************************
 DATASETS  * FILE   NREC   LENGTH (MB)   RECORD NAMES
              1      20      478.59       500      610      700      900      950      970     1000      129      960     1100   
                                          VAR    BASINP    GEOM    SYMINP    ZMAT    AOBASIS   BASIS     P2S    ABASIS      S 
                                         1400     1410     1200     1210     1080     1600     1650     1300     1700     1380   
                                           T        V       H0       H01     AOSYM     SMH    MOLCAS    ERIS     OPER     JKOP   

              2       4        3.13       700     1000      520     2100   
                                         GEOM     BASIS   MCVARS     RHF  

 PROGRAMS   *        TOTAL   CCSD(T)        HF       INT
 CPU TIMES  *        40.23     29.77      4.79      5.57
 REAL TIME  *        46.06 SEC
 DISK USED  *         1.32 GB      
 **********************************************************************************************************************************

 CCSD(T)/USERDEF energy=   -130.317337190292

        CCSD(T)         HF-SCF  
   -130.31733719   -129.83698224
 **********************************************************************************************************************************
 Molpro calculation terminated
 Variable memory released
