
 Primary working directories    : /tmp/r2666/235335.maple
 Secondary working directories  : /tmp/r2666/235335.maple
 Wavefunction directory         : /ddn/home4/r2666/wfu/
 Main file repository           : /tmp/r2666/235335.maple/

 SHA1      : d5ffa45e93fdbca01ffc919aa182cfdae0147319
 NAME      : 2015.1.35
 ARCHNAME  : linux/x86_64
 FC        : /opt/intel/composer_xe_2015.1.133/bin/intel64/ifort
 BLASLIB   : -Wl,-_start-group /opt/intel/mkl/lib/intel64/libmkl_intel_ilp64.a /opt/intel/mkl/lib/intel64/libmkl_intel_thread.a /opt/intel/mkl/lib/intel64/libmkl_core.a -Wl,-_end-group
 id        : olemiss

 Nodes     nprocs
 cn075        1

 Using customized tuning parameters: mindgm=1; mindgv=20; mindgc=4; mindgr=1; noblas=0; minvec=7
 default implementation of scratch files=df  

 ***,hno CCSD(T)/TZ-F12 QFF
 memory, 995, m;
 gthresh,energy=1.d-12,zero=1.d-22,oneint=1.d-22,twoint=1.d-22;
 gthresh,optgrad=1.d-8,optstep=1.d-8;
 nocompress;
 geomtyp=xyz
 bohr
 geometry={
 3
         61        61
 N        0.0000000000       -0.1709786642       -1.1623963049
 H        0.0000000000        1.6676032371       -1.9186929475
 O        0.0000000000        0.0451432172        1.1304996614
 }
 
 basis={
 default=aug-cc-pvtz
 s,C,8236.0,1235.0,280.8, 79.27,25.59, 8.997,3.319
 s,C,0.9059,0.3643,0.1285000
 p,C,56.0,18.71,4.133,0.2827,0.3827,0.1209
 d,C,30.0,10.0,3.3,1.097,0.318
 f,C,7.0,2.3,0.7610
 s,N,11420.0,1712.0,389.3,110.0,35.57,12.54,4.644
 s,N,1.293,0.5118,0.1787
 p,N,79.89,26.63,5.948,1.742,0.555,0.1725
 d,N,45.0,15.0,5.0,1.654,0.469
 f,N,9.9,3.3,1.093
 s,O,15330.0,2299.0,522.4,147.3,47.55,16.76,6.207
 s,O,1.752,0.6882,0.2384
 p,O,103.5,34.46,7.749,2.28,0.7156,0.214
 d,O,63.0,21.0,7.0,2.314,0.645
 f,O,12.9,4.3,1.428
 s,mg,164900.0,24710.0,5628.0,1596.0,521.0;
 s,mg,188.0,73.01,29.90,12.54,4.306,1.826;
 s,mg,0.7417,0.0761,0.145,0.033,0.0129;
 p,mg,950.70,316.90,74.86,23.72,8.669,3.363;
 p,mg,1.310,0.4911,0.2364,0.08733,0.03237,0.00745;
 d,mg,1.601,0.686,0.126,0.294,0.0468;
 f,mg,1.372,0.588,0.094,0.252;
 }
   {hf,maxit=500;accu,20;}
 {ccsd(t),nocheck,maxit=250;orbital,IGNORE_ERROR;}

 Variables initialized (889), CPU time= 0.01 sec
 Commands  initialized (702), CPU time= 0.01 sec, 572 directives.
 Default parameters read. Elapsed time= 0.05 sec

 Checking input...
 Passed
1


                                         ***  PROGRAM SYSTEM MOLPRO  ***
                                       Copyright, TTI GmbH Stuttgart, 2015
                                    Version 2015.1 linked Jul  9 2018 13:16:40


 **********************************************************************************************************************************
 LABEL *   hno CCSD(T)/TZ-F12 QFF                                                        
  64 bit serial version                                                                  DATE: 08-Feb-20          TIME: 17:58:10  
 **********************************************************************************************************************************

 SHA1:             d5ffa45e93fdbca01ffc919aa182cfdae0147319
 **********************************************************************************************************************************

 THRESHOLDS:

 ZERO    =  1.00D-22  ONEINT  =  1.00D-22  TWOINT  =  1.00D-22  PREFAC  =  1.00D-14  LOCALI  =  1.00D-09  EORDER  =  1.00D-04
 ENERGY  =  1.00D-12  ETEST   =  0.00D+00  EDENS   =  0.00D+00  THRDEDEF=  1.00D-06  GRADIENT=  1.00D-02  STEP    =  1.00D-03
 ORBITAL =  1.00D-05  CIVEC   =  1.00D-05  COEFF   =  1.00D-04  PRINTCI =  5.00D-02  PUNCHCI =  9.90D+01  OPTGRAD =  3.00D-04
 OPTENERG=  1.00D-06  OPTSTEP =  3.00D-04  THRGRAD =  1.00D-10  COMPRESS=  1.00D-11  VARMIN  =  1.00D-07  VARMAX  =  1.00D-03
 THRDOUB =  0.00D+00  THRDIV  =  1.00D-05  THRRED  =  1.00D-07  THRPSP  =  1.00D+00  THRDC   =  1.00D-10  THRCS   =  1.00D-10
 THRNRM  =  1.00D-08  THREQ   =  0.00D+00  THRDE   =  1.00D+00  THRREF  =  1.00D-05  SPARFAC =  1.00D+00  THRDLP  =  1.00D-07
 THRDIA  =  1.00D-10  THRDLS  =  1.00D-07  THRGPS  =  0.00D+00  THRKEX  =  0.00D+00  THRDIS  =  2.00D-01  THRVAR  =  1.00D-10
 THRLOC  =  1.00D-06  THRGAP  =  1.00D-06  THRLOCT = -1.00D+00  THRGAPT = -1.00D+00  THRORB  =  1.00D-06  THRMLTP =  0.00D+00
 THRCPQCI=  1.00D-10  KEXTA   =  0.00D+00  THRCOARS=  0.00D+00  SYMTOL  =  1.00D-06  GRADTOL =  1.00D-06  THROVL  =  1.00D-08
 THRORTH =  1.00D-08  GRID    =  1.00D-06  GRIDMAX =  1.00D-03  DTMAX   =  0.00D+00  THROCCDE=  1.00D-01  THROCCDE=  1.00D-01



 THRESHOLDS:

 ZERO    =  1.00D-22  ONEINT  =  1.00D-22  TWOINT  =  1.00D-22  PREFAC  =  1.00D-14  LOCALI  =  1.00D-09  EORDER  =  1.00D-04
 ENERGY  =  1.00D-12  ETEST   =  0.00D+00  EDENS   =  0.00D+00  THRDEDEF=  1.00D-06  GRADIENT=  1.00D-02  STEP    =  1.00D-03
 ORBITAL =  1.00D-05  CIVEC   =  1.00D-05  COEFF   =  1.00D-04  PRINTCI =  5.00D-02  PUNCHCI =  9.90D+01  OPTGRAD =  1.00D-08
 OPTENERG=  1.00D-06  OPTSTEP =  1.00D-08  THRGRAD =  1.00D-10  COMPRESS=  1.00D-11  VARMIN  =  1.00D-07  VARMAX  =  1.00D-03
 THRDOUB =  0.00D+00  THRDIV  =  1.00D-05  THRRED  =  1.00D-07  THRPSP  =  1.00D+00  THRDC   =  1.00D-10  THRCS   =  1.00D-10
 THRNRM  =  1.00D-08  THREQ   =  0.00D+00  THRDE   =  1.00D+00  THRREF  =  1.00D-05  SPARFAC =  1.00D+00  THRDLP  =  1.00D-07
 THRDIA  =  1.00D-10  THRDLS  =  1.00D-07  THRGPS  =  0.00D+00  THRKEX  =  0.00D+00  THRDIS  =  2.00D-01  THRVAR  =  1.00D-10
 THRLOC  =  1.00D-06  THRGAP  =  1.00D-06  THRLOCT = -1.00D+00  THRGAPT = -1.00D+00  THRORB  =  1.00D-06  THRMLTP =  0.00D+00
 THRCPQCI=  1.00D-10  KEXTA   =  0.00D+00  THRCOARS=  0.00D+00  SYMTOL  =  1.00D-06  GRADTOL =  1.00D-06  THROVL  =  1.00D-08
 THRORTH =  1.00D-08  GRID    =  1.00D-06  GRIDMAX =  1.00D-03  DTMAX   =  0.00D+00  THROCCDE=  1.00D-01  THROCCDE=  1.00D-01



 Input parameters for SORTINT:

 COMPRESS =    0.000000
 C_FINAL  =    1.000000
 DEBUG    =   -1.000000
 C_SORT1  =    0.000000
 C_SEWARD =    0.000000
 THRESH   =    0.000000
 IO       =  molpro                                                          
 SPRI     =    0.000000
 SETTING GEOMTYP        =    XYZ
 ZUNIT=BOHR
 

 Variable memory set to  995000000 words,  buffer space   230000 words

 SETTING BASIS          =    USERDEF


 Recomputing integrals since basis changed


 Using spherical harmonics

 Library entry H      S aug-cc-pVTZ          selected for orbital group  2
 Library entry H      P aug-cc-pVTZ          selected for orbital group  2
 Library entry H      D aug-cc-pVTZ          selected for orbital group  2


 PROGRAM * SEWARD (Integral evaluation for generally contracted gaussian basis sets)     Author: Roland Lindh, 1990

 Geometry written to block  1 of record 700


 Point group  Cs  



 ATOMIC COORDINATES

 NR  ATOM    CHARGE       X              Y              Z

   1  N       7.00    0.000000000   -0.170978664   -1.162396305
   2  H       1.00    0.000000000    1.667603237   -1.918692948
   3  O       8.00    0.000000000    0.045143217    1.130499661

 Bond lengths in Bohr (Angstrom)

 1-2  1.988056342  1-3  2.303058961
     ( 1.052034110)     ( 1.218726318)

 Bond angles

  2-1-3  106.97507948

 NUCLEAR CHARGE:                   16
 NUMBER OF PRIMITIVE AOS:         203
 NUMBER OF SYMMETRY AOS:          173
 NUMBER OF CONTRACTIONS:          171   ( 114A'  +  57A"  )
 NUMBER OF CORE ORBITALS:           2   (   2A'  +   0A"  )
 NUMBER OF VALENCE ORBITALS:        9   (   7A'  +   2A"  )


 NUCLEAR REPULSION ENERGY   30.15268496


 Eigenvalues of metric

         1 0.106E-02 0.259E-02 0.337E-02 0.641E-02 0.986E-02 0.137E-01 0.146E-01 0.232E-01
         2 0.366E-01 0.547E-01 0.710E-01 0.941E-01 0.132E+00 0.134E+00 0.140E+00 0.142E+00


 Contracted 2-electron integrals neglected if value below      1.0D-22

       46094878. INTEGRALS WRITTEN OUT IN   11257 BLOCKS ON RECORD 1290 OF FILE 1


 NUMBER OF SORTED TWO-ELECTRON INTEGRALS:   55360566.     BUFFER LENGTH:  32768
 NUMBER OF SEGMENTS:   4  SEGMENT LENGTH:   15997996      RECORD LENGTH: 524288

 Memory used in sort:      16.56 MW

 SORT1 READ    46094878. AND WROTE    46531793. INTEGRALS IN    135 RECORDS. CPU TIME:     0.66 SEC, REAL TIME:     0.98 SEC
 SORT2 READ    46531793. AND WROTE    55360566. INTEGRALS IN      4 RECORDS. CPU TIME:     0.60 SEC, REAL TIME:     0.82 SEC

 FILE SIZES:   FILE 1:   758.5 MBYTE,  FILE 4:   566.3 MBYTE,   TOTAL:   1324.7 MBYTE

 OPERATOR DM      FOR CENTER  0  COORDINATES:    0.000000    0.000000    0.000000


 **********************************************************************************************************************************
 DATASETS  * FILE   NREC   LENGTH (MB)   RECORD NAMES
              1      19      420.90       500      610      700      900      950      970     1000      129      960     1100   
                                          VAR    BASINP    GEOM    SYMINP    ZMAT    AOBASIS   BASIS     P2S    ABASIS      S 
                                         1400     1410     1200     1210     1080     1600     1650     1300     1700   
                                           T        V       H0       H01     AOSYM     SMH    MOLCAS    ERIS     OPER   

 PROGRAMS   *        TOTAL       INT
 CPU TIMES  *         3.86      3.78
 REAL TIME  *         5.37 SEC
 DISK USED  *         1.33 GB      
 **********************************************************************************************************************************


 PROGRAM * RHF-SCF (CLOSED SHELL)       Authors: W. Meyer, H.-J. Werner


 NUMBER OF ELECTRONS:       8+    8-
 CONVERGENCE THRESHOLDS:    1.00E-10 (Density)    1.00E-13 (Energy)
 MAX. NUMBER OF ITERATIONS:      500
 INTERPOLATION TYPE:            DIIS
 INTERPOLATION STEPS:              2 (START)      1 (STEP)
 LEVEL SHIFTS:                  0.00 (CLOSED)  0.00 (OPEN) 



 Orbital guess generated from atomic densities. Full valence occupancy:    9   2

 Molecular orbital dump at record        2100.2

 Initial occupancy:   7   1

 ITERATION    DDIFF          GRAD             ENERGY        2-EL.EN.            DIPOLE MOMENTS         DIIS   ORB.
    1      0.000D+00      0.000D+00      -129.78586087    153.680394    0.00000    0.56357   -1.04555    0    start
    2      0.000D+00      0.890D-02      -129.81240106    154.826462    0.00000    0.60502   -0.18463    1    diag
    3      0.370D-02      0.694D-02      -129.83716769    154.972331    0.00000    0.54659   -0.59435    2    diag
    4      0.147D-02      0.105D-02      -129.83796991    154.690580    0.00000    0.55504   -0.53048    3    diag
    5      0.334D-03      0.343D-03      -129.83809470    154.779233    0.00000    0.56095   -0.53261    4    diag
    6      0.155D-03      0.101D-03      -129.83811521    154.762960    0.00000    0.56145   -0.52828    5    diag
    7      0.612D-04      0.512D-04      -129.83812144    154.765391    0.00000    0.56275   -0.52560    6    diag
    8      0.419D-04      0.181D-04      -129.83812218    154.764501    0.00000    0.56279   -0.52461    7    diag
    9      0.154D-04      0.339D-05      -129.83812221    154.764380    0.00000    0.56274   -0.52441    8    diag
   10      0.319D-05      0.748D-06      -129.83812221    154.764366    0.00000    0.56270   -0.52438    9    orth
   11      0.893D-06      0.148D-06      -129.83812221    154.764362    0.00000    0.56270   -0.52438    9    diag
   12      0.209D-06      0.317D-07      -129.83812221    154.764362    0.00000    0.56269   -0.52438    9    diag
   13      0.520D-07      0.860D-08      -129.83812221    154.764362    0.00000    0.56269   -0.52438    9    diag
   14      0.120D-07      0.149D-08      -129.83812221    154.764361    0.00000    0.56269   -0.52438    9    diag
   15      0.141D-08      0.392D-09      -129.83812221    154.764362    0.00000    0.56269   -0.52438    9    diag
   16      0.333D-09      0.111D-09      -129.83812221    154.764362    0.00000    0.56269   -0.52438    9    diag
   17      0.657D-10      0.290D-10      -129.83812221    154.764362    0.00000    0.56269   -0.52438    9    diag
   18      0.180D-10      0.926D-11      -129.83812221    154.764362    0.00000    0.56269   -0.52438    0    orth

 Final occupancy:   7   1

 !RHF STATE 1.1 Energy               -129.838122208954
 Nuclear energy                        30.15268496
 One-electron energy                 -237.37298793
 Two-electron energy                   77.38218075
 Virial quotient                       -1.00191200
 !RHF STATE 1.1 Dipole moment           0.00000000     0.56269446    -0.52437723
 Dipole moment /Debye                   0.00000000     1.43013299    -1.33274669

 Orbital energies:

         1.1          2.1          3.1          4.1          5.1          6.1          7.1          8.1          9.1
    -20.651996   -15.712648    -1.519955    -0.994673    -0.741988    -0.660940    -0.432790     0.039667     0.192365

         1.2          2.2          3.2
     -0.589324     0.075619     0.239086

 HOMO      7.1    -0.432790 =     -11.7768eV
 LUMO      8.1     0.039667 =       1.0794eV
 LUMO-HOMO         0.472457 =      12.8562eV


 **********************************************************************************************************************************
 DATASETS  * FILE   NREC   LENGTH (MB)   RECORD NAMES
              1      19      420.90       500      610      700      900      950      970     1000      129      960     1100   
                                          VAR    BASINP    GEOM    SYMINP    ZMAT    AOBASIS   BASIS     P2S    ABASIS      S 
                                         1400     1410     1200     1210     1080     1600     1650     1300     1700   
                                           T        V       H0       H01     AOSYM     SMH    MOLCAS    ERIS     OPER   

              2       4        3.13       700     1000      520     2100   
                                         GEOM     BASIS   MCVARS     RHF  

 PROGRAMS   *        TOTAL        HF       INT
 CPU TIMES  *         8.27      4.40      3.78
 REAL TIME  *        10.70 SEC
 DISK USED  *         1.33 GB      
 **********************************************************************************************************************************


 PROGRAM * CCSD (Closed-shell coupled cluster)     Authors: C. Hampel, H.-J. Werner, 1991, M. Deegan, P.J. Knowles, 1992


 Convergence thresholds:  THRVAR = 1.00D-08  THRDEN = 1.00D-12

 CCSD(T)     terms to be evaluated (factor= 1.000)


 Number of core orbitals:           2 (   2   0 )
 Number of closed-shell orbitals:   6 (   5   1 )
 Number of external orbitals:     163 ( 107  56 )

 Molecular orbitals read from record     2100.2  Type=RHF/CANONICAL (state 1.1)

 Number of N-1 electron functions:               6
 Number of N-2 electron functions:              21
 Number of singly external CSFs:               591
 Number of doubly external CSFs:            250014
 Total number of CSFs:                      250606

 Length of J-op  integral file:               0.00 MB
 Length of K-op  integral file:               1.15 MB
 Length of 3-ext integral record:             0.00 MB

 Memory could be reduced to 19.93 Mwords without degradation in triples

 Integral transformation finished. Total CPU:   0.64 sec, npass=  1  Memory used:   5.10 MW

 Reference energy:                   -129.83812221

 MP2 singlet pair energy:              -0.28797453
 MP2 triplet pair energy:              -0.16792657
 MP2 correlation energy:               -0.45590110
 MP2 total energy:                   -130.29402331

 SCS-MP2 correlation energy:           -0.45005708   (PS=  1.200000  PT=  0.333333)
 SCS-MP2 total energy:               -130.28817929

 ITER.      SQ.NORM     CORR.ENERGY   TOTAL ENERGY   ENERGY CHANGE        DEN1      VAR(S)    VAR(P)  DIIS     TIME  TIME/IT
   1      1.11993475    -0.45762017  -130.29574238    -0.00171907     0.01549050  0.33D-02  0.32D-02  1  1     1.21     0.63
   2      1.13070676    -0.45744951  -130.29557172     0.00017066    -0.01277335  0.13D-03  0.51D-03  2  2     1.80     0.64
   3      1.13745914    -0.45783369  -130.29595590    -0.00038418    -0.00343371  0.46D-04  0.60D-04  3  3     2.36     0.65
   4      1.14043791    -0.45786761  -130.29598982    -0.00003392    -0.00097447  0.46D-05  0.10D-04  4  4     2.94     0.65
   5      1.14157188    -0.45790180  -130.29602401    -0.00003419    -0.00023258  0.14D-05  0.17D-05  5  5     3.53     0.65
   6      1.14198029    -0.45788508  -130.29600729     0.00001673    -0.00006822  0.12D-06  0.42D-06  6  6     4.11     0.65
   7      1.14205090    -0.45788668  -130.29600888    -0.00000160     0.00000924  0.16D-07  0.94D-07  6  1     4.70     0.65
   8      1.14208568    -0.45788610  -130.29600831     0.00000058    -0.00000489  0.46D-08  0.15D-07  6  2     5.28     0.65
   9      1.14209067    -0.45788598  -130.29600819     0.00000012     0.00000122  0.21D-08  0.18D-08  6  3     5.87     0.66
  10      1.14209126    -0.45788630  -130.29600851    -0.00000032    -0.00000036  0.50D-09  0.27D-09  6  4     6.46     0.66
  11      1.14208976    -0.45788644  -130.29600865    -0.00000014     0.00000035  0.12D-09  0.27D-10  6  5     7.03     0.66
  12      1.14208861    -0.45788659  -130.29600880    -0.00000015     0.00000047  0.15D-10  0.75D-11  6  6     7.62     0.66
  13      1.14208796    -0.45788661  -130.29600882    -0.00000002     0.00000012  0.56D-11  0.14D-11  6  1     8.23     0.66
  14      1.14208745    -0.45788664  -130.29600885    -0.00000003     0.00000012  0.51D-12  0.44D-12  6  3     8.80     0.66
  15      1.14208729    -0.45788664  -130.29600885     0.00000000     0.00000001  0.13D-12  0.32D-13  6  2     9.37     0.66
  16      1.14208724    -0.45788664  -130.29600885    -0.00000000     0.00000001  0.32D-13  0.76D-14  6  4     9.95     0.66
  17      1.14208721    -0.45788664  -130.29600885    -0.00000000     0.00000001  0.44D-14  0.12D-14  6  5    10.52     0.66
  18      1.14208721    -0.45788664  -130.29600885     0.00000000     0.00000000  0.50D-15  0.34D-15  6  6    11.11     0.66
  19      1.14208721    -0.45788664  -130.29600885     0.00000000    -0.00000000  0.69D-16  0.49D-16  6  1    11.71     0.66
  20      1.14208722    -0.45788664  -130.29600885     0.00000000    -0.00000000  0.34D-17  0.12D-16  6  3    12.30     0.66
  21      1.14208722    -0.45788664  -130.29600885     0.00000000    -0.00000000  0.55D-18  0.28D-17  6  4    12.89     0.66
  22      1.14208722    -0.45788664  -130.29600885     0.00000000    -0.00000000  0.37D-19  0.97D-18  6  2    13.46     0.66
  23      1.14208722    -0.45788664  -130.29600885    -0.00000000     0.00000000  0.76D-19  0.18D-18  6  5    14.04     0.66
  24      1.14208722    -0.45788664  -130.29600885    -0.00000000     0.00000000  0.45D-20  0.17D-19  6  1    14.61     0.66
  25      1.14208722    -0.45788664  -130.29600885     0.00000000    -0.00000000  0.23D-20  0.12D-20  6  6    15.17     0.66

 Norm of t1 vector:      0.07855942      S-energy:     0.00000000      T1 diagnostic:  0.01603587
                                                                       D1 diagnostic:  0.04427874

 Doubles amplitudes (print threshold =  0.500E-01):

         I         J         SYM. A    SYM. B    A         B      T(IJ, AB)

         6         6         2         2         1         1     -0.13884417


 Total CPU time for triples:      6.33 sec


 RESULTS
 =======

  Reference energy                   -129.838122208954
  CCSD singlet pair energy             -0.314724338324
  CCSD triplet pair energy             -0.143162304742
  CCSD correlation energy              -0.457886643064

  Triples (T) contribution             -0.021521841637
  Total correlation energy             -0.479408484701

  CCSD total energy                  -130.296008852018
  CCSD[T] energy                     -130.318667884307
  CCSD-T energy                      -130.317106264402
 !CCSD(T) total energy               -130.317530693655

 Timing summary (sec):

 STEP                 CPU(USER)    SYS     CPU(TOT)    WALL
 Transformation          0.65      0.14      0.79      0.79
 CCSD iterations        14.52      1.94     16.46     16.48
 Triples                 6.33      0.27      6.60      6.59

 Program statistics:

 Available memory in ccsd:               994999756
 Min. memory needed in ccsd:                887758
 Max. memory used in ccsd:                 1088212
 Max. memory used in cckext:               1535578 (25 integral passes)



 **********************************************************************************************************************************
 DATASETS  * FILE   NREC   LENGTH (MB)   RECORD NAMES
              1      20      478.86       500      610      700      900      950      970     1000      129      960     1100   
                                          VAR    BASINP    GEOM    SYMINP    ZMAT    AOBASIS   BASIS     P2S    ABASIS      S 
                                         1400     1410     1200     1210     1080     1600     1650     1300     1700     1380   
                                           T        V       H0       H01     AOSYM     SMH    MOLCAS    ERIS     OPER     JKOP   

              2       4        3.13       700     1000      520     2100   
                                         GEOM     BASIS   MCVARS     RHF  

 PROGRAMS   *        TOTAL   CCSD(T)        HF       INT
 CPU TIMES  *        29.82     21.56      4.40      3.78
 REAL TIME  *        34.66 SEC
 DISK USED  *         1.33 GB      
 **********************************************************************************************************************************

 CCSD(T)/USERDEF energy=   -130.317530693655

        CCSD(T)         HF-SCF  
   -130.31753069   -129.83812221
 **********************************************************************************************************************************
 Molpro calculation terminated
 Variable memory released
