
 Primary working directories    : /tmp/r2666/235371.maple
 Secondary working directories  : /tmp/r2666/235371.maple
 Wavefunction directory         : /ddn/home4/r2666/wfu/
 Main file repository           : /tmp/r2666/235371.maple/

 SHA1      : d5ffa45e93fdbca01ffc919aa182cfdae0147319
 NAME      : 2015.1.35
 ARCHNAME  : linux/x86_64
 FC        : /opt/intel/composer_xe_2015.1.133/bin/intel64/ifort
 BLASLIB   : -Wl,-_start-group /opt/intel/mkl/lib/intel64/libmkl_intel_ilp64.a /opt/intel/mkl/lib/intel64/libmkl_intel_thread.a /opt/intel/mkl/lib/intel64/libmkl_core.a -Wl,-_end-group
 id        : olemiss

 Nodes     nprocs
 cn023        1

 Using customized tuning parameters: mindgm=1; mindgv=20; mindgc=4; mindgr=1; noblas=0; minvec=7
 default implementation of scratch files=df  

 ***,hno CCSD(T)/TZ-F12 QFF
 memory, 995, m;
 gthresh,energy=1.d-12,zero=1.d-22,oneint=1.d-22,twoint=1.d-22;
 gthresh,optgrad=1.d-8,optstep=1.d-8;
 nocompress;
 geomtyp=xyz
 bohr
 geometry={
 3
         97        97
 N        0.0000000000       -0.1635617136       -1.1401738589
 H        0.0000000000        1.6704419361       -1.9316640523
 O        0.0000000000        0.0348875675        1.1212483202
 }
 
 basis={
 default=aug-cc-pvtz
 s,C,8236.0,1235.0,280.8, 79.27,25.59, 8.997,3.319
 s,C,0.9059,0.3643,0.1285000
 p,C,56.0,18.71,4.133,0.2827,0.3827,0.1209
 d,C,30.0,10.0,3.3,1.097,0.318
 f,C,7.0,2.3,0.7610
 s,N,11420.0,1712.0,389.3,110.0,35.57,12.54,4.644
 s,N,1.293,0.5118,0.1787
 p,N,79.89,26.63,5.948,1.742,0.555,0.1725
 d,N,45.0,15.0,5.0,1.654,0.469
 f,N,9.9,3.3,1.093
 s,O,15330.0,2299.0,522.4,147.3,47.55,16.76,6.207
 s,O,1.752,0.6882,0.2384
 p,O,103.5,34.46,7.749,2.28,0.7156,0.214
 d,O,63.0,21.0,7.0,2.314,0.645
 f,O,12.9,4.3,1.428
 s,mg,164900.0,24710.0,5628.0,1596.0,521.0;
 s,mg,188.0,73.01,29.90,12.54,4.306,1.826;
 s,mg,0.7417,0.0761,0.145,0.033,0.0129;
 p,mg,950.70,316.90,74.86,23.72,8.669,3.363;
 p,mg,1.310,0.4911,0.2364,0.08733,0.03237,0.00745;
 d,mg,1.601,0.686,0.126,0.294,0.0468;
 f,mg,1.372,0.588,0.094,0.252;
 }
   {hf,maxit=500;accu,20;}
 {ccsd(t),nocheck,maxit=250;orbital,IGNORE_ERROR;}

 Variables initialized (889), CPU time= 0.00 sec
 Commands  initialized (702), CPU time= 0.01 sec, 572 directives.
 Default parameters read. Elapsed time= 0.05 sec

 Checking input...
 Passed
1


                                         ***  PROGRAM SYSTEM MOLPRO  ***
                                       Copyright, TTI GmbH Stuttgart, 2015
                                    Version 2015.1 linked Jul  9 2018 13:16:40


 **********************************************************************************************************************************
 LABEL *   hno CCSD(T)/TZ-F12 QFF                                                        
  64 bit serial version                                                                  DATE: 08-Feb-20          TIME: 17:58:22  
 **********************************************************************************************************************************

 SHA1:             d5ffa45e93fdbca01ffc919aa182cfdae0147319
 **********************************************************************************************************************************

 THRESHOLDS:

 ZERO    =  1.00D-22  ONEINT  =  1.00D-22  TWOINT  =  1.00D-22  PREFAC  =  1.00D-14  LOCALI  =  1.00D-09  EORDER  =  1.00D-04
 ENERGY  =  1.00D-12  ETEST   =  0.00D+00  EDENS   =  0.00D+00  THRDEDEF=  1.00D-06  GRADIENT=  1.00D-02  STEP    =  1.00D-03
 ORBITAL =  1.00D-05  CIVEC   =  1.00D-05  COEFF   =  1.00D-04  PRINTCI =  5.00D-02  PUNCHCI =  9.90D+01  OPTGRAD =  3.00D-04
 OPTENERG=  1.00D-06  OPTSTEP =  3.00D-04  THRGRAD =  1.00D-10  COMPRESS=  1.00D-11  VARMIN  =  1.00D-07  VARMAX  =  1.00D-03
 THRDOUB =  0.00D+00  THRDIV  =  1.00D-05  THRRED  =  1.00D-07  THRPSP  =  1.00D+00  THRDC   =  1.00D-10  THRCS   =  1.00D-10
 THRNRM  =  1.00D-08  THREQ   =  0.00D+00  THRDE   =  1.00D+00  THRREF  =  1.00D-05  SPARFAC =  1.00D+00  THRDLP  =  1.00D-07
 THRDIA  =  1.00D-10  THRDLS  =  1.00D-07  THRGPS  =  0.00D+00  THRKEX  =  0.00D+00  THRDIS  =  2.00D-01  THRVAR  =  1.00D-10
 THRLOC  =  1.00D-06  THRGAP  =  1.00D-06  THRLOCT = -1.00D+00  THRGAPT = -1.00D+00  THRORB  =  1.00D-06  THRMLTP =  0.00D+00
 THRCPQCI=  1.00D-10  KEXTA   =  0.00D+00  THRCOARS=  0.00D+00  SYMTOL  =  1.00D-06  GRADTOL =  1.00D-06  THROVL  =  1.00D-08
 THRORTH =  1.00D-08  GRID    =  1.00D-06  GRIDMAX =  1.00D-03  DTMAX   =  0.00D+00  THROCCDE=  1.00D-01  THROCCDE=  1.00D-01



 THRESHOLDS:

 ZERO    =  1.00D-22  ONEINT  =  1.00D-22  TWOINT  =  1.00D-22  PREFAC  =  1.00D-14  LOCALI  =  1.00D-09  EORDER  =  1.00D-04
 ENERGY  =  1.00D-12  ETEST   =  0.00D+00  EDENS   =  0.00D+00  THRDEDEF=  1.00D-06  GRADIENT=  1.00D-02  STEP    =  1.00D-03
 ORBITAL =  1.00D-05  CIVEC   =  1.00D-05  COEFF   =  1.00D-04  PRINTCI =  5.00D-02  PUNCHCI =  9.90D+01  OPTGRAD =  1.00D-08
 OPTENERG=  1.00D-06  OPTSTEP =  1.00D-08  THRGRAD =  1.00D-10  COMPRESS=  1.00D-11  VARMIN  =  1.00D-07  VARMAX  =  1.00D-03
 THRDOUB =  0.00D+00  THRDIV  =  1.00D-05  THRRED  =  1.00D-07  THRPSP  =  1.00D+00  THRDC   =  1.00D-10  THRCS   =  1.00D-10
 THRNRM  =  1.00D-08  THREQ   =  0.00D+00  THRDE   =  1.00D+00  THRREF  =  1.00D-05  SPARFAC =  1.00D+00  THRDLP  =  1.00D-07
 THRDIA  =  1.00D-10  THRDLS  =  1.00D-07  THRGPS  =  0.00D+00  THRKEX  =  0.00D+00  THRDIS  =  2.00D-01  THRVAR  =  1.00D-10
 THRLOC  =  1.00D-06  THRGAP  =  1.00D-06  THRLOCT = -1.00D+00  THRGAPT = -1.00D+00  THRORB  =  1.00D-06  THRMLTP =  0.00D+00
 THRCPQCI=  1.00D-10  KEXTA   =  0.00D+00  THRCOARS=  0.00D+00  SYMTOL  =  1.00D-06  GRADTOL =  1.00D-06  THROVL  =  1.00D-08
 THRORTH =  1.00D-08  GRID    =  1.00D-06  GRIDMAX =  1.00D-03  DTMAX   =  0.00D+00  THROCCDE=  1.00D-01  THROCCDE=  1.00D-01



 Input parameters for SORTINT:

 COMPRESS =    0.000000
 C_FINAL  =    1.000000
 DEBUG    =   -1.000000
 C_SORT1  =    0.000000
 C_SEWARD =    0.000000
 THRESH   =    0.000000
 IO       =  molpro                                                          
 SPRI     =    0.000000
 SETTING GEOMTYP        =    XYZ
 ZUNIT=BOHR
 

 Variable memory set to  995000000 words,  buffer space   230000 words

 SETTING BASIS          =    USERDEF


 Recomputing integrals since basis changed


 Using spherical harmonics

 Library entry H      S aug-cc-pVTZ          selected for orbital group  2
 Library entry H      P aug-cc-pVTZ          selected for orbital group  2
 Library entry H      D aug-cc-pVTZ          selected for orbital group  2


 PROGRAM * SEWARD (Integral evaluation for generally contracted gaussian basis sets)     Author: Roland Lindh, 1990

 Geometry written to block  1 of record 700


 Point group  Cs  



 ATOMIC COORDINATES

 NR  ATOM    CHARGE       X              Y              Z

   1  N       7.00    0.000000000   -0.163561714   -1.140173859
   2  H       1.00    0.000000000    1.670441936   -1.931664052
   3  O       8.00    0.000000000    0.034887568    1.121248320

 Bond lengths in Bohr (Angstrom)

 1-2  1.997504972  1-3  2.270112858
     ( 1.057034110)     ( 1.201291991)

 Bond angles

  2-1-3  108.32819752

 NUCLEAR CHARGE:                   16
 NUMBER OF PRIMITIVE AOS:         203
 NUMBER OF SYMMETRY AOS:          173
 NUMBER OF CONTRACTIONS:          171   ( 114A'  +  57A"  )
 NUMBER OF CORE ORBITALS:           2   (   2A'  +   0A"  )
 NUMBER OF VALENCE ORBITALS:        9   (   7A'  +   2A"  )


 NUCLEAR REPULSION ENERGY   30.48260114


 Eigenvalues of metric

         1 0.104E-02 0.244E-02 0.332E-02 0.636E-02 0.100E-01 0.137E-01 0.144E-01 0.231E-01
         2 0.369E-01 0.522E-01 0.698E-01 0.941E-01 0.131E+00 0.134E+00 0.141E+00 0.142E+00


 Contracted 2-electron integrals neglected if value below      1.0D-22

       46198682. INTEGRALS WRITTEN OUT IN   11282 BLOCKS ON RECORD 1290 OF FILE 1


 NUMBER OF SORTED TWO-ELECTRON INTEGRALS:   55360566.     BUFFER LENGTH:  32768
 NUMBER OF SEGMENTS:   4  SEGMENT LENGTH:   15997996      RECORD LENGTH: 524288

 Memory used in sort:      16.56 MW

 SORT1 READ    46198682. AND WROTE    46636706. INTEGRALS IN    135 RECORDS. CPU TIME:     1.09 SEC, REAL TIME:     1.38 SEC
 SORT2 READ    46636706. AND WROTE    55360566. INTEGRALS IN      4 RECORDS. CPU TIME:     0.83 SEC, REAL TIME:     1.01 SEC

 FILE SIZES:   FILE 1:   760.1 MBYTE,  FILE 4:   566.3 MBYTE,   TOTAL:   1326.4 MBYTE

 OPERATOR DM      FOR CENTER  0  COORDINATES:    0.000000    0.000000    0.000000


 **********************************************************************************************************************************
 DATASETS  * FILE   NREC   LENGTH (MB)   RECORD NAMES
              1      19      421.61       500      610      700      900      950      970     1000      129      960     1100   
                                          VAR    BASINP    GEOM    SYMINP    ZMAT    AOBASIS   BASIS     P2S    ABASIS      S 
                                         1400     1410     1200     1210     1080     1600     1650     1300     1700   
                                           T        V       H0       H01     AOSYM     SMH    MOLCAS    ERIS     OPER   

 PROGRAMS   *        TOTAL       INT
 CPU TIMES  *         5.23      5.14
 REAL TIME  *         6.77 SEC
 DISK USED  *         1.33 GB      
 **********************************************************************************************************************************


 PROGRAM * RHF-SCF (CLOSED SHELL)       Authors: W. Meyer, H.-J. Werner


 NUMBER OF ELECTRONS:       8+    8-
 CONVERGENCE THRESHOLDS:    1.00E-10 (Density)    1.00E-13 (Energy)
 MAX. NUMBER OF ITERATIONS:      500
 INTERPOLATION TYPE:            DIIS
 INTERPOLATION STEPS:              2 (START)      1 (STEP)
 LEVEL SHIFTS:                  0.00 (CLOSED)  0.00 (OPEN) 



 Orbital guess generated from atomic densities. Full valence occupancy:    9   2

 Molecular orbital dump at record        2100.2

 Initial occupancy:   7   1

 ITERATION    DDIFF          GRAD             ENERGY        2-EL.EN.            DIPOLE MOMENTS         DIIS   ORB.
    1      0.000D+00      0.000D+00      -129.79070104    154.259267    0.00000    0.56427   -0.99301    0    start
    2      0.000D+00      0.874D-02      -129.81779806    155.453039    0.00000    0.59257   -0.19795    1    diag
    3      0.360D-02      0.655D-02      -129.83968807    155.557879    0.00000    0.54187   -0.57373    2    diag
    4      0.139D-02      0.103D-02      -129.84045876    155.287484    0.00000    0.55003   -0.51250    3    diag
    5      0.328D-03      0.334D-03      -129.84057759    155.375402    0.00000    0.55614   -0.51508    4    diag
    6      0.152D-03      0.983D-04      -129.84059699    155.359338    0.00000    0.55675   -0.51106    5    diag
    7      0.606D-04      0.489D-04      -129.84060259    155.361972    0.00000    0.55811   -0.50865    6    diag
    8      0.409D-04      0.164D-04      -129.84060317    155.361174    0.00000    0.55817   -0.50778    7    diag
    9      0.137D-04      0.305D-05      -129.84060319    155.361065    0.00000    0.55813   -0.50761    8    diag
   10      0.274D-05      0.707D-06      -129.84060319    155.361051    0.00000    0.55809   -0.50758    9    orth
   11      0.840D-06      0.142D-06      -129.84060319    155.361046    0.00000    0.55808   -0.50758    9    diag
   12      0.202D-06      0.291D-07      -129.84060319    155.361045    0.00000    0.55808   -0.50758    9    diag
   13      0.494D-07      0.764D-08      -129.84060319    155.361045    0.00000    0.55808   -0.50758    9    diag
   14      0.114D-07      0.137D-08      -129.84060319    155.361045    0.00000    0.55808   -0.50758    9    diag
   15      0.153D-08      0.378D-09      -129.84060319    155.361045    0.00000    0.55808   -0.50758    9    diag
   16      0.337D-09      0.116D-09      -129.84060319    155.361045    0.00000    0.55808   -0.50758    9    diag
   17      0.874D-10      0.338D-10      -129.84060319    155.361045    0.00000    0.55808   -0.50758    0    orth

 Final occupancy:   7   1

 !RHF STATE 1.1 Energy               -129.840603191535
 Nuclear energy                        30.48260114
 One-electron energy                 -238.00372687
 Two-electron energy                   77.68052254
 Virial quotient                       -1.00149368
 !RHF STATE 1.1 Dipole moment           0.00000000     0.55807867    -0.50757602
 Dipole moment /Debye                   0.00000000     1.41840158    -1.29004507

 Orbital energies:

         1.1          2.1          3.1          4.1          5.1          6.1          7.1          8.1          9.1
    -20.650806   -15.710144    -1.533447    -0.990214    -0.746713    -0.666213    -0.426325     0.039771     0.192693

         1.2          2.2          3.2
     -0.597480     0.081399     0.239734

 HOMO      7.1    -0.426325 =     -11.6009eV
 LUMO      8.1     0.039771 =       1.0822eV
 LUMO-HOMO         0.466095 =      12.6831eV


 **********************************************************************************************************************************
 DATASETS  * FILE   NREC   LENGTH (MB)   RECORD NAMES
              1      19      421.61       500      610      700      900      950      970     1000      129      960     1100   
                                          VAR    BASINP    GEOM    SYMINP    ZMAT    AOBASIS   BASIS     P2S    ABASIS      S 
                                         1400     1410     1200     1210     1080     1600     1650     1300     1700   
                                           T        V       H0       H01     AOSYM     SMH    MOLCAS    ERIS     OPER   

              2       4        3.13       700     1000      520     2100   
                                         GEOM     BASIS   MCVARS     RHF  

 PROGRAMS   *        TOTAL        HF       INT
 CPU TIMES  *        10.55      5.32      5.14
 REAL TIME  *        13.05 SEC
 DISK USED  *         1.33 GB      
 **********************************************************************************************************************************


 PROGRAM * CCSD (Closed-shell coupled cluster)     Authors: C. Hampel, H.-J. Werner, 1991, M. Deegan, P.J. Knowles, 1992


 Convergence thresholds:  THRVAR = 1.00D-08  THRDEN = 1.00D-12

 CCSD(T)     terms to be evaluated (factor= 1.000)


 Number of core orbitals:           2 (   2   0 )
 Number of closed-shell orbitals:   6 (   5   1 )
 Number of external orbitals:     163 ( 107  56 )

 Molecular orbitals read from record     2100.2  Type=RHF/CANONICAL (state 1.1)

 Number of N-1 electron functions:               6
 Number of N-2 electron functions:              21
 Number of singly external CSFs:               591
 Number of doubly external CSFs:            250014
 Total number of CSFs:                      250606

 Length of J-op  integral file:               0.00 MB
 Length of K-op  integral file:               1.15 MB
 Length of 3-ext integral record:             0.00 MB

 Memory could be reduced to 19.93 Mwords without degradation in triples

 Integral transformation finished. Total CPU:   0.99 sec, npass=  1  Memory used:   5.10 MW

 Reference energy:                   -129.84060319

 MP2 singlet pair energy:              -0.28631479
 MP2 triplet pair energy:              -0.16680918
 MP2 correlation energy:               -0.45312397
 MP2 total energy:                   -130.29372716

 SCS-MP2 correlation energy:           -0.44737013   (PS=  1.200000  PT=  0.333333)
 SCS-MP2 total energy:               -130.28797332

 ITER.      SQ.NORM     CORR.ENERGY   TOTAL ENERGY   ENERGY CHANGE        DEN1      VAR(S)    VAR(P)  DIIS     TIME  TIME/IT
   1      1.11826119    -0.45549451  -130.29609771    -0.00237054     0.01415056  0.31D-02  0.30D-02  1  1     1.91     0.96
   2      1.12865021    -0.45546475  -130.29606794     0.00002976    -0.01236947  0.12D-03  0.49D-03  2  2     2.84     0.98
   3      1.13511223    -0.45583189  -130.29643508    -0.00036714    -0.00333620  0.43D-04  0.56D-04  3  3     3.76     0.99
   4      1.13791481    -0.45586250  -130.29646569    -0.00003061    -0.00092893  0.43D-05  0.94D-05  4  4     4.70     0.99
   5      1.13895986    -0.45589392  -130.29649711    -0.00003142    -0.00021325  0.13D-05  0.17D-05  5  5     5.66     1.00
   6      1.13934824    -0.45587881  -130.29648201     0.00001510    -0.00006421  0.13D-06  0.42D-06  6  6     6.56     1.00
   7      1.13942238    -0.45588017  -130.29648336    -0.00000136     0.00000799  0.19D-07  0.90D-07  6  1     7.50     1.00
   8      1.13945701    -0.45587980  -130.29648299     0.00000037    -0.00000451  0.49D-08  0.14D-07  6  2     8.44     1.00
   9      1.13946267    -0.45587967  -130.29648286     0.00000013     0.00000077  0.21D-08  0.16D-08  6  3     9.39     1.00
  10      1.13946300    -0.45588000  -130.29648319    -0.00000033    -0.00000017  0.47D-09  0.24D-09  6  4    10.32     1.00
  11      1.13946149    -0.45588013  -130.29648332    -0.00000013     0.00000034  0.12D-09  0.24D-10  6  5    11.27     1.00
  12      1.13946035    -0.45588027  -130.29648347    -0.00000014     0.00000046  0.15D-10  0.72D-11  6  6    12.23     1.00
  13      1.13945971    -0.45588029  -130.29648348    -0.00000002     0.00000012  0.59D-11  0.13D-11  6  1    13.16     1.00
  14      1.13945920    -0.45588032  -130.29648351    -0.00000003     0.00000011  0.55D-12  0.42D-12  6  3    14.11     1.00
  15      1.13945905    -0.45588032  -130.29648351    -0.00000000     0.00000001  0.14D-12  0.29D-13  6  2    15.07     1.00
  16      1.13945900    -0.45588032  -130.29648351    -0.00000000     0.00000001  0.32D-13  0.73D-14  6  4    16.01     1.00
  17      1.13945898    -0.45588032  -130.29648351    -0.00000000     0.00000001  0.38D-14  0.12D-14  6  5    16.94     1.01
  18      1.13945899    -0.45588032  -130.29648351     0.00000000     0.00000000  0.41D-15  0.31D-15  6  6    17.89     1.01
  19      1.13945899    -0.45588032  -130.29648351     0.00000000    -0.00000000  0.55D-16  0.35D-16  6  1    18.83     1.01
  20      1.13945899    -0.45588032  -130.29648351     0.00000000    -0.00000000  0.30D-17  0.79D-17  6  3    19.77     1.01
  21      1.13945899    -0.45588032  -130.29648351     0.00000000    -0.00000000  0.48D-18  0.16D-17  6  4    20.69     1.01
  22      1.13945899    -0.45588032  -130.29648351     0.00000000    -0.00000000  0.15D-19  0.57D-18  6  2    21.61     1.01
  23      1.13945899    -0.45588032  -130.29648351    -0.00000000     0.00000000  0.34D-19  0.12D-18  6  5    22.56     1.01
  24      1.13945899    -0.45588032  -130.29648351    -0.00000000     0.00000000  0.43D-20  0.12D-19  6  1    23.55     1.01
  25      1.13945899    -0.45588032  -130.29648351     0.00000000    -0.00000000  0.17D-20  0.77D-21  6  6    24.48     1.01

 Norm of t1 vector:      0.07646532      S-energy:     0.00000000      T1 diagnostic:  0.01560842
                                                                       D1 diagnostic:  0.04215846

 Doubles amplitudes (print threshold =  0.500E-01):

         I         J         SYM. A    SYM. B    A         B      T(IJ, AB)

         6         6         2         2         1         1     -0.13333711


 Total CPU time for triples:     10.03 sec


 RESULTS
 =======

  Reference energy                   -129.840603191535
  CCSD singlet pair energy             -0.312971328153
  CCSD triplet pair energy             -0.142908993696
  CCSD correlation energy              -0.455880321844

  Triples (T) contribution             -0.021029797227
  Total correlation energy             -0.476910119071

  CCSD total energy                  -130.296483513379
  CCSD[T] energy                     -130.318586200654
  CCSD-T energy                      -130.317104572945
 !CCSD(T) total energy               -130.317513310606

 Timing summary (sec):

 STEP                 CPU(USER)    SYS     CPU(TOT)    WALL
 Transformation          1.00      0.11      1.11      1.12
 CCSD iterations        23.50      1.68     25.18     25.17
 Triples                10.03      0.21     10.24     10.25

 Program statistics:

 Available memory in ccsd:               994999756
 Min. memory needed in ccsd:                887758
 Max. memory used in ccsd:                 1088212
 Max. memory used in cckext:               1535578 (25 integral passes)



 **********************************************************************************************************************************
 DATASETS  * FILE   NREC   LENGTH (MB)   RECORD NAMES
              1      20      479.56       500      610      700      900      950      970     1000      129      960     1100   
                                          VAR    BASINP    GEOM    SYMINP    ZMAT    AOBASIS   BASIS     P2S    ABASIS      S 
                                         1400     1410     1200     1210     1080     1600     1650     1300     1700     1380   
                                           T        V       H0       H01     AOSYM     SMH    MOLCAS    ERIS     OPER     JKOP   

              2       4        3.13       700     1000      520     2100   
                                         GEOM     BASIS   MCVARS     RHF  

 PROGRAMS   *        TOTAL   CCSD(T)        HF       INT
 CPU TIMES  *        45.11     34.56      5.32      5.14
 REAL TIME  *        49.62 SEC
 DISK USED  *         1.33 GB      
 **********************************************************************************************************************************

 CCSD(T)/USERDEF energy=   -130.317513310606

        CCSD(T)         HF-SCF  
   -130.31751331   -129.84060319
 **********************************************************************************************************************************
 Molpro calculation terminated
 Variable memory released
