
 Primary working directories    : /tmp/r2666/235365.maple
 Secondary working directories  : /tmp/r2666/235365.maple
 Wavefunction directory         : /ddn/home4/r2666/wfu/
 Main file repository           : /tmp/r2666/235365.maple/

 SHA1      : d5ffa45e93fdbca01ffc919aa182cfdae0147319
 NAME      : 2015.1.35
 ARCHNAME  : linux/x86_64
 FC        : /opt/intel/composer_xe_2015.1.133/bin/intel64/ifort
 BLASLIB   : -Wl,-_start-group /opt/intel/mkl/lib/intel64/libmkl_intel_ilp64.a /opt/intel/mkl/lib/intel64/libmkl_intel_thread.a /opt/intel/mkl/lib/intel64/libmkl_core.a -Wl,-_end-group
 id        : olemiss

 Nodes     nprocs
 cn030        1

 Using customized tuning parameters: mindgm=1; mindgv=20; mindgc=4; mindgr=1; noblas=0; minvec=7
 default implementation of scratch files=df  

 ***,hno CCSD(T)/TZ-F12 QFF
 memory, 995, m;
 gthresh,energy=1.d-12,zero=1.d-22,oneint=1.d-22,twoint=1.d-22;
 gthresh,optgrad=1.d-8,optstep=1.d-8;
 nocompress;
 geomtyp=xyz
 bohr
 geometry={
 3
         91        91
 N        0.0000000000       -0.1647754998       -1.1377786112
 H        0.0000000000        1.6696720741       -1.9282393704
 O        0.0000000000        0.0368712156        1.1154283906
 }
 
 basis={
 default=aug-cc-pvtz
 s,C,8236.0,1235.0,280.8, 79.27,25.59, 8.997,3.319
 s,C,0.9059,0.3643,0.1285000
 p,C,56.0,18.71,4.133,0.2827,0.3827,0.1209
 d,C,30.0,10.0,3.3,1.097,0.318
 f,C,7.0,2.3,0.7610
 s,N,11420.0,1712.0,389.3,110.0,35.57,12.54,4.644
 s,N,1.293,0.5118,0.1787
 p,N,79.89,26.63,5.948,1.742,0.555,0.1725
 d,N,45.0,15.0,5.0,1.654,0.469
 f,N,9.9,3.3,1.093
 s,O,15330.0,2299.0,522.4,147.3,47.55,16.76,6.207
 s,O,1.752,0.6882,0.2384
 p,O,103.5,34.46,7.749,2.28,0.7156,0.214
 d,O,63.0,21.0,7.0,2.314,0.645
 f,O,12.9,4.3,1.428
 s,mg,164900.0,24710.0,5628.0,1596.0,521.0;
 s,mg,188.0,73.01,29.90,12.54,4.306,1.826;
 s,mg,0.7417,0.0761,0.145,0.033,0.0129;
 p,mg,950.70,316.90,74.86,23.72,8.669,3.363;
 p,mg,1.310,0.4911,0.2364,0.08733,0.03237,0.00745;
 d,mg,1.601,0.686,0.126,0.294,0.0468;
 f,mg,1.372,0.588,0.094,0.252;
 }
   {hf,maxit=500;accu,20;}
 {ccsd(t),nocheck,maxit=250;orbital,IGNORE_ERROR;}

 Variables initialized (889), CPU time= 0.00 sec
 Commands  initialized (702), CPU time= 0.01 sec, 572 directives.
 Default parameters read. Elapsed time= 0.05 sec

 Checking input...
 Passed
1


                                         ***  PROGRAM SYSTEM MOLPRO  ***
                                       Copyright, TTI GmbH Stuttgart, 2015
                                    Version 2015.1 linked Jul  9 2018 13:16:40


 **********************************************************************************************************************************
 LABEL *   hno CCSD(T)/TZ-F12 QFF                                                        
  64 bit serial version                                                                  DATE: 08-Feb-20          TIME: 17:58:20  
 **********************************************************************************************************************************

 SHA1:             d5ffa45e93fdbca01ffc919aa182cfdae0147319
 **********************************************************************************************************************************

 THRESHOLDS:

 ZERO    =  1.00D-22  ONEINT  =  1.00D-22  TWOINT  =  1.00D-22  PREFAC  =  1.00D-14  LOCALI  =  1.00D-09  EORDER  =  1.00D-04
 ENERGY  =  1.00D-12  ETEST   =  0.00D+00  EDENS   =  0.00D+00  THRDEDEF=  1.00D-06  GRADIENT=  1.00D-02  STEP    =  1.00D-03
 ORBITAL =  1.00D-05  CIVEC   =  1.00D-05  COEFF   =  1.00D-04  PRINTCI =  5.00D-02  PUNCHCI =  9.90D+01  OPTGRAD =  3.00D-04
 OPTENERG=  1.00D-06  OPTSTEP =  3.00D-04  THRGRAD =  1.00D-10  COMPRESS=  1.00D-11  VARMIN  =  1.00D-07  VARMAX  =  1.00D-03
 THRDOUB =  0.00D+00  THRDIV  =  1.00D-05  THRRED  =  1.00D-07  THRPSP  =  1.00D+00  THRDC   =  1.00D-10  THRCS   =  1.00D-10
 THRNRM  =  1.00D-08  THREQ   =  0.00D+00  THRDE   =  1.00D+00  THRREF  =  1.00D-05  SPARFAC =  1.00D+00  THRDLP  =  1.00D-07
 THRDIA  =  1.00D-10  THRDLS  =  1.00D-07  THRGPS  =  0.00D+00  THRKEX  =  0.00D+00  THRDIS  =  2.00D-01  THRVAR  =  1.00D-10
 THRLOC  =  1.00D-06  THRGAP  =  1.00D-06  THRLOCT = -1.00D+00  THRGAPT = -1.00D+00  THRORB  =  1.00D-06  THRMLTP =  0.00D+00
 THRCPQCI=  1.00D-10  KEXTA   =  0.00D+00  THRCOARS=  0.00D+00  SYMTOL  =  1.00D-06  GRADTOL =  1.00D-06  THROVL  =  1.00D-08
 THRORTH =  1.00D-08  GRID    =  1.00D-06  GRIDMAX =  1.00D-03  DTMAX   =  0.00D+00  THROCCDE=  1.00D-01  THROCCDE=  1.00D-01



 THRESHOLDS:

 ZERO    =  1.00D-22  ONEINT  =  1.00D-22  TWOINT  =  1.00D-22  PREFAC  =  1.00D-14  LOCALI  =  1.00D-09  EORDER  =  1.00D-04
 ENERGY  =  1.00D-12  ETEST   =  0.00D+00  EDENS   =  0.00D+00  THRDEDEF=  1.00D-06  GRADIENT=  1.00D-02  STEP    =  1.00D-03
 ORBITAL =  1.00D-05  CIVEC   =  1.00D-05  COEFF   =  1.00D-04  PRINTCI =  5.00D-02  PUNCHCI =  9.90D+01  OPTGRAD =  1.00D-08
 OPTENERG=  1.00D-06  OPTSTEP =  1.00D-08  THRGRAD =  1.00D-10  COMPRESS=  1.00D-11  VARMIN  =  1.00D-07  VARMAX  =  1.00D-03
 THRDOUB =  0.00D+00  THRDIV  =  1.00D-05  THRRED  =  1.00D-07  THRPSP  =  1.00D+00  THRDC   =  1.00D-10  THRCS   =  1.00D-10
 THRNRM  =  1.00D-08  THREQ   =  0.00D+00  THRDE   =  1.00D+00  THRREF  =  1.00D-05  SPARFAC =  1.00D+00  THRDLP  =  1.00D-07
 THRDIA  =  1.00D-10  THRDLS  =  1.00D-07  THRGPS  =  0.00D+00  THRKEX  =  0.00D+00  THRDIS  =  2.00D-01  THRVAR  =  1.00D-10
 THRLOC  =  1.00D-06  THRGAP  =  1.00D-06  THRLOCT = -1.00D+00  THRGAPT = -1.00D+00  THRORB  =  1.00D-06  THRMLTP =  0.00D+00
 THRCPQCI=  1.00D-10  KEXTA   =  0.00D+00  THRCOARS=  0.00D+00  SYMTOL  =  1.00D-06  GRADTOL =  1.00D-06  THROVL  =  1.00D-08
 THRORTH =  1.00D-08  GRID    =  1.00D-06  GRIDMAX =  1.00D-03  DTMAX   =  0.00D+00  THROCCDE=  1.00D-01  THROCCDE=  1.00D-01



 Input parameters for SORTINT:

 COMPRESS =    0.000000
 C_FINAL  =    1.000000
 DEBUG    =   -1.000000
 C_SORT1  =    0.000000
 C_SEWARD =    0.000000
 THRESH   =    0.000000
 IO       =  molpro                                                          
 SPRI     =    0.000000
 SETTING GEOMTYP        =    XYZ
 ZUNIT=BOHR
 

 Variable memory set to  995000000 words,  buffer space   230000 words

 SETTING BASIS          =    USERDEF


 Recomputing integrals since basis changed


 Using spherical harmonics

 Library entry H      S aug-cc-pVTZ          selected for orbital group  2
 Library entry H      P aug-cc-pVTZ          selected for orbital group  2
 Library entry H      D aug-cc-pVTZ          selected for orbital group  2


 PROGRAM * SEWARD (Integral evaluation for generally contracted gaussian basis sets)     Author: Roland Lindh, 1990

 Geometry written to block  1 of record 700


 Point group  Cs  



 ATOMIC COORDINATES

 NR  ATOM    CHARGE       X              Y              Z

   1  N       7.00    0.000000000   -0.164775500   -1.137778611
   2  H       1.00    0.000000000    1.669672074   -1.928239370
   3  O       8.00    0.000000000    0.036871216    1.115428391

 Bond lengths in Bohr (Angstrom)

 1-2  1.997504972  1-3  2.262212013
     ( 1.057034110)     ( 1.197111043)

 Bond angles

  2-1-3  108.19717958

 NUCLEAR CHARGE:                   16
 NUMBER OF PRIMITIVE AOS:         203
 NUMBER OF SYMMETRY AOS:          173
 NUMBER OF CONTRACTIONS:          171   ( 114A'  +  57A"  )
 NUMBER OF CORE ORBITALS:           2   (   2A'  +   0A"  )
 NUMBER OF VALENCE ORBITALS:        9   (   7A'  +   2A"  )


 NUCLEAR REPULSION ENERGY   30.57507500


 Eigenvalues of metric

         1 0.103E-02 0.240E-02 0.330E-02 0.634E-02 0.100E-01 0.137E-01 0.144E-01 0.230E-01
         2 0.369E-01 0.516E-01 0.696E-01 0.940E-01 0.131E+00 0.134E+00 0.141E+00 0.142E+00


 Contracted 2-electron integrals neglected if value below      1.0D-22

       46232228. INTEGRALS WRITTEN OUT IN   11290 BLOCKS ON RECORD 1290 OF FILE 1


 NUMBER OF SORTED TWO-ELECTRON INTEGRALS:   55360566.     BUFFER LENGTH:  32768
 NUMBER OF SEGMENTS:   4  SEGMENT LENGTH:   15997996      RECORD LENGTH: 524288

 Memory used in sort:      16.56 MW

 SORT1 READ    46232228. AND WROTE    46670524. INTEGRALS IN    136 RECORDS. CPU TIME:     1.33 SEC, REAL TIME:     1.62 SEC
 SORT2 READ    46670524. AND WROTE    55360566. INTEGRALS IN      4 RECORDS. CPU TIME:     0.75 SEC, REAL TIME:     1.01 SEC

 FILE SIZES:   FILE 1:   760.6 MBYTE,  FILE 4:   570.5 MBYTE,   TOTAL:   1331.1 MBYTE

 OPERATOR DM      FOR CENTER  0  COORDINATES:    0.000000    0.000000    0.000000


 **********************************************************************************************************************************
 DATASETS  * FILE   NREC   LENGTH (MB)   RECORD NAMES
              1      19      421.83       500      610      700      900      950      970     1000      129      960     1100   
                                          VAR    BASINP    GEOM    SYMINP    ZMAT    AOBASIS   BASIS     P2S    ABASIS      S 
                                         1400     1410     1200     1210     1080     1600     1650     1300     1700   
                                           T        V       H0       H01     AOSYM     SMH    MOLCAS    ERIS     OPER   

 PROGRAMS   *        TOTAL       INT
 CPU TIMES  *         5.64      5.55
 REAL TIME  *         7.32 SEC
 DISK USED  *         1.33 GB      
 **********************************************************************************************************************************


 PROGRAM * RHF-SCF (CLOSED SHELL)       Authors: W. Meyer, H.-J. Werner


 NUMBER OF ELECTRONS:       8+    8-
 CONVERGENCE THRESHOLDS:    1.00E-10 (Density)    1.00E-13 (Energy)
 MAX. NUMBER OF ITERATIONS:      500
 INTERPOLATION TYPE:            DIIS
 INTERPOLATION STEPS:              2 (START)      1 (STEP)
 LEVEL SHIFTS:                  0.00 (CLOSED)  0.00 (OPEN) 



 Orbital guess generated from atomic densities. Full valence occupancy:    9   2

 Molecular orbital dump at record        2100.2

 Initial occupancy:   7   1

 ITERATION    DDIFF          GRAD             ENERGY        2-EL.EN.            DIPOLE MOMENTS         DIIS   ORB.
    1      0.000D+00      0.000D+00      -129.79176309    154.424851    0.00000    0.56108   -0.97923    0    start
    2      0.000D+00      0.870D-02      -129.81896691    155.625622    0.00000    0.58981   -0.19912    1    diag
    3      0.358D-02      0.646D-02      -129.84020866    155.721699    0.00000    0.53919   -0.56692    2    diag
    4      0.138D-02      0.102D-02      -129.84097000    155.454486    0.00000    0.54752   -0.50648    3    diag
    5      0.326D-03      0.332D-03      -129.84108730    155.542002    0.00000    0.55361   -0.50913    4    diag
    6      0.152D-03      0.977D-04      -129.84110642    155.525996    0.00000    0.55424   -0.50519    5    diag
    7      0.604D-04      0.484D-04      -129.84111187    155.528674    0.00000    0.55562   -0.50284    6    diag
    8      0.406D-04      0.161D-04      -129.84111241    155.527894    0.00000    0.55568   -0.50201    7    diag
    9      0.133D-04      0.297D-05      -129.84111243    155.527788    0.00000    0.55563   -0.50184    8    diag
   10      0.264D-05      0.693D-06      -129.84111244    155.527774    0.00000    0.55559   -0.50181    9    orth
   11      0.824D-06      0.140D-06      -129.84111244    155.527770    0.00000    0.55559   -0.50181    9    diag
   12      0.200D-06      0.286D-07      -129.84111244    155.527769    0.00000    0.55558   -0.50180    9    diag
   13      0.490D-07      0.746D-08      -129.84111244    155.527768    0.00000    0.55558   -0.50180    9    diag
   14      0.112D-07      0.136D-08      -129.84111244    155.527768    0.00000    0.55558   -0.50180    9    diag
   15      0.155D-08      0.380D-09      -129.84111244    155.527768    0.00000    0.55558   -0.50180    9    diag
   16      0.341D-09      0.119D-09      -129.84111244    155.527768    0.00000    0.55558   -0.50180    9    diag
   17      0.932D-10      0.351D-10      -129.84111244    155.527768    0.00000    0.55558   -0.50180    0    orth

 Final occupancy:   7   1

 !RHF STATE 1.1 Energy               -129.841112436159
 Nuclear energy                        30.57507500
 One-electron energy                 -238.18007166
 Two-electron energy                   77.76388423
 Virial quotient                       -1.00135939
 !RHF STATE 1.1 Dipole moment           0.00000000     0.55558367    -0.50180380
 Dipole moment /Debye                   0.00000000     1.41206034    -1.27537451

 Orbital energies:

         1.1          2.1          3.1          4.1          5.1          6.1          7.1          8.1          9.1
    -20.650390   -15.709471    -1.537015    -0.989173    -0.748035    -0.667413    -0.425121     0.039852     0.192924

         1.2          2.2          3.2
     -0.599534     0.082903     0.239867

 HOMO      7.1    -0.425121 =     -11.5681eV
 LUMO      8.1     0.039852 =       1.0844eV
 LUMO-HOMO         0.464973 =      12.6526eV


 **********************************************************************************************************************************
 DATASETS  * FILE   NREC   LENGTH (MB)   RECORD NAMES
              1      19      421.83       500      610      700      900      950      970     1000      129      960     1100   
                                          VAR    BASINP    GEOM    SYMINP    ZMAT    AOBASIS   BASIS     P2S    ABASIS      S 
                                         1400     1410     1200     1210     1080     1600     1650     1300     1700   
                                           T        V       H0       H01     AOSYM     SMH    MOLCAS    ERIS     OPER   

              2       4        3.13       700     1000      520     2100   
                                         GEOM     BASIS   MCVARS     RHF  

 PROGRAMS   *        TOTAL        HF       INT
 CPU TIMES  *        10.73      5.09      5.55
 REAL TIME  *        13.66 SEC
 DISK USED  *         1.33 GB      
 **********************************************************************************************************************************


 PROGRAM * CCSD (Closed-shell coupled cluster)     Authors: C. Hampel, H.-J. Werner, 1991, M. Deegan, P.J. Knowles, 1992


 Convergence thresholds:  THRVAR = 1.00D-08  THRDEN = 1.00D-12

 CCSD(T)     terms to be evaluated (factor= 1.000)


 Number of core orbitals:           2 (   2   0 )
 Number of closed-shell orbitals:   6 (   5   1 )
 Number of external orbitals:     163 ( 107  56 )

 Molecular orbitals read from record     2100.2  Type=RHF/CANONICAL (state 1.1)

 Number of N-1 electron functions:               6
 Number of N-2 electron functions:              21
 Number of singly external CSFs:               591
 Number of doubly external CSFs:            250014
 Total number of CSFs:                      250606

 Length of J-op  integral file:               0.00 MB
 Length of K-op  integral file:               1.15 MB
 Length of 3-ext integral record:             0.00 MB

 Memory could be reduced to 19.93 Mwords without degradation in triples

 Integral transformation finished. Total CPU:   0.86 sec, npass=  1  Memory used:   5.10 MW

 Reference energy:                   -129.84111244

 MP2 singlet pair energy:              -0.28589908
 MP2 triplet pair energy:              -0.16653377
 MP2 correlation energy:               -0.45243285
 MP2 total energy:                   -130.29354529

 SCS-MP2 correlation energy:           -0.44669991   (PS=  1.200000  PT=  0.333333)
 SCS-MP2 total energy:               -130.28781235

 ITER.      SQ.NORM     CORR.ENERGY   TOTAL ENERGY   ENERGY CHANGE        DEN1      VAR(S)    VAR(P)  DIIS     TIME  TIME/IT
   1      1.11781562    -0.45495623  -130.29606867    -0.00252338     0.01381982  0.31D-02  0.30D-02  1  1     1.65     0.86
   2      1.12810131    -0.45496022  -130.29607266    -0.00000399    -0.01226487  0.11D-03  0.48D-03  2  2     2.47     0.88
   3      1.13448028    -0.45532155  -130.29643399    -0.00036133    -0.00330959  0.42D-04  0.55D-04  3  3     3.24     0.89
   4      1.13723395    -0.45535179  -130.29646423    -0.00003024    -0.00091587  0.42D-05  0.92D-05  4  4     4.06     0.89
   5      1.13825228    -0.45538239  -130.29649483    -0.00003060    -0.00020791  0.13D-05  0.17D-05  5  5     4.87     0.90
   6      1.13863307    -0.45536773  -130.29648017     0.00001466    -0.00006289  0.12D-06  0.42D-06  6  6     5.71     0.90
   7      1.13870707    -0.45536904  -130.29648148    -0.00000131     0.00000772  0.19D-07  0.88D-07  6  1     6.53     0.90
   8      1.13874132    -0.45536871  -130.29648115     0.00000033    -0.00000439  0.48D-08  0.13D-07  6  2     7.35     0.90
   9      1.13874692    -0.45536859  -130.29648103     0.00000012     0.00000071  0.20D-08  0.15D-08  6  3     8.14     0.90
  10      1.13874721    -0.45536891  -130.29648135    -0.00000032    -0.00000015  0.46D-09  0.23D-09  6  4     8.95     0.90
  11      1.13874573    -0.45536904  -130.29648148    -0.00000013     0.00000033  0.11D-09  0.23D-10  6  5     9.75     0.91
  12      1.13874460    -0.45536918  -130.29648162    -0.00000014     0.00000045  0.15D-10  0.69D-11  6  6    10.55     0.91
  13      1.13874398    -0.45536920  -130.29648164    -0.00000002     0.00000012  0.58D-11  0.12D-11  6  1    11.36     0.91
  14      1.13874349    -0.45536923  -130.29648166    -0.00000003     0.00000011  0.54D-12  0.40D-12  6  3    12.17     0.91
  15      1.13874334    -0.45536923  -130.29648166    -0.00000000     0.00000001  0.13D-12  0.28D-13  6  2    12.96     0.91
  16      1.13874330    -0.45536923  -130.29648166    -0.00000000     0.00000001  0.31D-13  0.70D-14  6  4    13.74     0.91
  17      1.13874328    -0.45536923  -130.29648167    -0.00000000     0.00000001  0.36D-14  0.11D-14  6  5    14.60     0.91
  18      1.13874328    -0.45536923  -130.29648167     0.00000000    -0.00000000  0.38D-15  0.29D-15  6  6    15.45     0.91
  19      1.13874328    -0.45536923  -130.29648167     0.00000000    -0.00000000  0.51D-16  0.33D-16  6  1    16.27     0.91
  20      1.13874329    -0.45536923  -130.29648166     0.00000000    -0.00000000  0.28D-17  0.72D-17  6  3    17.09     0.91
  21      1.13874329    -0.45536923  -130.29648166     0.00000000    -0.00000000  0.45D-18  0.14D-17  6  4    17.88     0.91
  22      1.13874329    -0.45536923  -130.29648166     0.00000000    -0.00000000  0.16D-19  0.50D-18  6  2    18.69     0.91
  23      1.13874329    -0.45536923  -130.29648166    -0.00000000     0.00000000  0.28D-19  0.11D-18  6  5    19.51     0.91
  24      1.13874329    -0.45536923  -130.29648166    -0.00000000     0.00000000  0.40D-20  0.10D-19  6  1    20.30     0.91
  25      1.13874329    -0.45536923  -130.29648166     0.00000000    -0.00000000  0.15D-20  0.68D-21  6  6    21.12     0.91

 Norm of t1 vector:      0.07579678      S-energy:     0.00000000      T1 diagnostic:  0.01547195
                                                                       D1 diagnostic:  0.04162090

 Doubles amplitudes (print threshold =  0.500E-01):

         I         J         SYM. A    SYM. B    A         B      T(IJ, AB)

         6         6         2         2         1         1     -0.13209307


 Total CPU time for triples:      6.76 sec


 RESULTS
 =======

  Reference energy                   -129.841112436159
  CCSD singlet pair energy             -0.312523226016
  CCSD triplet pair energy             -0.142846002677
  CCSD correlation energy              -0.455369228687

  Triples (T) contribution             -0.020903012385
  Total correlation energy             -0.476272241072

  CCSD total energy                  -130.296481664846
  CCSD[T] energy                     -130.318439299900
  CCSD-T energy                      -130.316980781294
 !CCSD(T) total energy               -130.317384677231

 Timing summary (sec):

 STEP                 CPU(USER)    SYS     CPU(TOT)    WALL
 Transformation          0.87      0.16      1.03      1.04
 CCSD iterations        20.25      2.47     22.72     22.72
 Triples                 6.76      0.20      6.96      6.96

 Program statistics:

 Available memory in ccsd:               994999756
 Min. memory needed in ccsd:                887758
 Max. memory used in ccsd:                 1088212
 Max. memory used in cckext:               1535578 (25 integral passes)



 **********************************************************************************************************************************
 DATASETS  * FILE   NREC   LENGTH (MB)   RECORD NAMES
              1      20      479.78       500      610      700      900      950      970     1000      129      960     1100   
                                          VAR    BASINP    GEOM    SYMINP    ZMAT    AOBASIS   BASIS     P2S    ABASIS      S 
                                         1400     1410     1200     1210     1080     1600     1650     1300     1700     1380   
                                           T        V       H0       H01     AOSYM     SMH    MOLCAS    ERIS     OPER     JKOP   

              2       4        3.13       700     1000      520     2100   
                                         GEOM     BASIS   MCVARS     RHF  

 PROGRAMS   *        TOTAL   CCSD(T)        HF       INT
 CPU TIMES  *        38.64     27.91      5.09      5.55
 REAL TIME  *        44.44 SEC
 DISK USED  *         1.33 GB      
 **********************************************************************************************************************************

 CCSD(T)/USERDEF energy=   -130.317384677231

        CCSD(T)         HF-SCF  
   -130.31738468   -129.84111244
 **********************************************************************************************************************************
 Molpro calculation terminated
 Variable memory released
