
 Primary working directories    : /tmp/r2666/235393.maple
 Secondary working directories  : /tmp/r2666/235393.maple
 Wavefunction directory         : /ddn/home4/r2666/wfu/
 Main file repository           : /tmp/r2666/235393.maple/

 SHA1      : d5ffa45e93fdbca01ffc919aa182cfdae0147319
 NAME      : 2015.1.35
 ARCHNAME  : linux/x86_64
 FC        : /opt/intel/composer_xe_2015.1.133/bin/intel64/ifort
 BLASLIB   : -Wl,-_start-group /opt/intel/mkl/lib/intel64/libmkl_intel_ilp64.a /opt/intel/mkl/lib/intel64/libmkl_intel_thread.a /opt/intel/mkl/lib/intel64/libmkl_core.a -Wl,-_end-group
 id        : olemiss

 Nodes     nprocs
 cn092        1

 Using customized tuning parameters: mindgm=1; mindgv=20; mindgc=4; mindgr=1; noblas=0; minvec=7
 default implementation of scratch files=df  

 ***,hno CCSD(T)/TZ-F12 QFF
 memory, 995, m;
 gthresh,energy=1.d-12,zero=1.d-22,oneint=1.d-22,twoint=1.d-22;
 gthresh,optgrad=1.d-8,optstep=1.d-8;
 nocompress;
 geomtyp=xyz
 bohr
 geometry={
 3
        119       119
 N        0.0000000000       -0.1775913438       -1.1555726639
 H        0.0000000000        1.6761514910       -1.9246632065
 O        0.0000000000        0.0432076428        1.1296462794
 }
 
 basis={
 default=aug-cc-pvtz
 s,C,8236.0,1235.0,280.8, 79.27,25.59, 8.997,3.319
 s,C,0.9059,0.3643,0.1285000
 p,C,56.0,18.71,4.133,0.2827,0.3827,0.1209
 d,C,30.0,10.0,3.3,1.097,0.318
 f,C,7.0,2.3,0.7610
 s,N,11420.0,1712.0,389.3,110.0,35.57,12.54,4.644
 s,N,1.293,0.5118,0.1787
 p,N,79.89,26.63,5.948,1.742,0.555,0.1725
 d,N,45.0,15.0,5.0,1.654,0.469
 f,N,9.9,3.3,1.093
 s,O,15330.0,2299.0,522.4,147.3,47.55,16.76,6.207
 s,O,1.752,0.6882,0.2384
 p,O,103.5,34.46,7.749,2.28,0.7156,0.214
 d,O,63.0,21.0,7.0,2.314,0.645
 f,O,12.9,4.3,1.428
 s,mg,164900.0,24710.0,5628.0,1596.0,521.0;
 s,mg,188.0,73.01,29.90,12.54,4.306,1.826;
 s,mg,0.7417,0.0761,0.145,0.033,0.0129;
 p,mg,950.70,316.90,74.86,23.72,8.669,3.363;
 p,mg,1.310,0.4911,0.2364,0.08733,0.03237,0.00745;
 d,mg,1.601,0.686,0.126,0.294,0.0468;
 f,mg,1.372,0.588,0.094,0.252;
 }
   {hf,maxit=500;accu,20;}
 {ccsd(t),nocheck,maxit=250;orbital,IGNORE_ERROR;}

 Variables initialized (889), CPU time= 0.00 sec
 Commands  initialized (702), CPU time= 0.02 sec, 572 directives.
 Default parameters read. Elapsed time= 0.06 sec

 Checking input...
 Passed
1


                                         ***  PROGRAM SYSTEM MOLPRO  ***
                                       Copyright, TTI GmbH Stuttgart, 2015
                                    Version 2015.1 linked Jul  9 2018 13:16:40


 **********************************************************************************************************************************
 LABEL *   hno CCSD(T)/TZ-F12 QFF                                                        
  64 bit serial version                                                                  DATE: 08-Feb-20          TIME: 17:58:53  
 **********************************************************************************************************************************

 SHA1:             d5ffa45e93fdbca01ffc919aa182cfdae0147319
 **********************************************************************************************************************************

 THRESHOLDS:

 ZERO    =  1.00D-22  ONEINT  =  1.00D-22  TWOINT  =  1.00D-22  PREFAC  =  1.00D-14  LOCALI  =  1.00D-09  EORDER  =  1.00D-04
 ENERGY  =  1.00D-12  ETEST   =  0.00D+00  EDENS   =  0.00D+00  THRDEDEF=  1.00D-06  GRADIENT=  1.00D-02  STEP    =  1.00D-03
 ORBITAL =  1.00D-05  CIVEC   =  1.00D-05  COEFF   =  1.00D-04  PRINTCI =  5.00D-02  PUNCHCI =  9.90D+01  OPTGRAD =  3.00D-04
 OPTENERG=  1.00D-06  OPTSTEP =  3.00D-04  THRGRAD =  1.00D-10  COMPRESS=  1.00D-11  VARMIN  =  1.00D-07  VARMAX  =  1.00D-03
 THRDOUB =  0.00D+00  THRDIV  =  1.00D-05  THRRED  =  1.00D-07  THRPSP  =  1.00D+00  THRDC   =  1.00D-10  THRCS   =  1.00D-10
 THRNRM  =  1.00D-08  THREQ   =  0.00D+00  THRDE   =  1.00D+00  THRREF  =  1.00D-05  SPARFAC =  1.00D+00  THRDLP  =  1.00D-07
 THRDIA  =  1.00D-10  THRDLS  =  1.00D-07  THRGPS  =  0.00D+00  THRKEX  =  0.00D+00  THRDIS  =  2.00D-01  THRVAR  =  1.00D-10
 THRLOC  =  1.00D-06  THRGAP  =  1.00D-06  THRLOCT = -1.00D+00  THRGAPT = -1.00D+00  THRORB  =  1.00D-06  THRMLTP =  0.00D+00
 THRCPQCI=  1.00D-10  KEXTA   =  0.00D+00  THRCOARS=  0.00D+00  SYMTOL  =  1.00D-06  GRADTOL =  1.00D-06  THROVL  =  1.00D-08
 THRORTH =  1.00D-08  GRID    =  1.00D-06  GRIDMAX =  1.00D-03  DTMAX   =  0.00D+00  THROCCDE=  1.00D-01  THROCCDE=  1.00D-01



 THRESHOLDS:

 ZERO    =  1.00D-22  ONEINT  =  1.00D-22  TWOINT  =  1.00D-22  PREFAC  =  1.00D-14  LOCALI  =  1.00D-09  EORDER  =  1.00D-04
 ENERGY  =  1.00D-12  ETEST   =  0.00D+00  EDENS   =  0.00D+00  THRDEDEF=  1.00D-06  GRADIENT=  1.00D-02  STEP    =  1.00D-03
 ORBITAL =  1.00D-05  CIVEC   =  1.00D-05  COEFF   =  1.00D-04  PRINTCI =  5.00D-02  PUNCHCI =  9.90D+01  OPTGRAD =  1.00D-08
 OPTENERG=  1.00D-06  OPTSTEP =  1.00D-08  THRGRAD =  1.00D-10  COMPRESS=  1.00D-11  VARMIN  =  1.00D-07  VARMAX  =  1.00D-03
 THRDOUB =  0.00D+00  THRDIV  =  1.00D-05  THRRED  =  1.00D-07  THRPSP  =  1.00D+00  THRDC   =  1.00D-10  THRCS   =  1.00D-10
 THRNRM  =  1.00D-08  THREQ   =  0.00D+00  THRDE   =  1.00D+00  THRREF  =  1.00D-05  SPARFAC =  1.00D+00  THRDLP  =  1.00D-07
 THRDIA  =  1.00D-10  THRDLS  =  1.00D-07  THRGPS  =  0.00D+00  THRKEX  =  0.00D+00  THRDIS  =  2.00D-01  THRVAR  =  1.00D-10
 THRLOC  =  1.00D-06  THRGAP  =  1.00D-06  THRLOCT = -1.00D+00  THRGAPT = -1.00D+00  THRORB  =  1.00D-06  THRMLTP =  0.00D+00
 THRCPQCI=  1.00D-10  KEXTA   =  0.00D+00  THRCOARS=  0.00D+00  SYMTOL  =  1.00D-06  GRADTOL =  1.00D-06  THROVL  =  1.00D-08
 THRORTH =  1.00D-08  GRID    =  1.00D-06  GRIDMAX =  1.00D-03  DTMAX   =  0.00D+00  THROCCDE=  1.00D-01  THROCCDE=  1.00D-01



 Input parameters for SORTINT:

 COMPRESS =    0.000000
 C_FINAL  =    1.000000
 DEBUG    =   -1.000000
 C_SORT1  =    0.000000
 C_SEWARD =    0.000000
 THRESH   =    0.000000
 IO       =  molpro                                                          
 SPRI     =    0.000000
 SETTING GEOMTYP        =    XYZ
 ZUNIT=BOHR
 

 Variable memory set to  995000000 words,  buffer space   230000 words

 SETTING BASIS          =    USERDEF


 Recomputing integrals since basis changed


 Using spherical harmonics

 Library entry H      S aug-cc-pVTZ          selected for orbital group  2
 Library entry H      P aug-cc-pVTZ          selected for orbital group  2
 Library entry H      D aug-cc-pVTZ          selected for orbital group  2


 PROGRAM * SEWARD (Integral evaluation for generally contracted gaussian basis sets)     Author: Roland Lindh, 1990

 Geometry written to block  1 of record 700


 Point group  Cs  



 ATOMIC COORDINATES

 NR  ATOM    CHARGE       X              Y              Z

   1  N       7.00    0.000000000   -0.177591344   -1.155572664
   2  H       1.00    0.000000000    1.676151491   -1.924663207
   3  O       8.00    0.000000000    0.043207643    1.129646279

 Bond lengths in Bohr (Angstrom)

 1-2  2.006953602  1-3  2.295861017
     ( 1.062034110)     ( 1.214917330)

 Bond angles

  2-1-3  107.01402516

 NUCLEAR CHARGE:                   16
 NUMBER OF PRIMITIVE AOS:         203
 NUMBER OF SYMMETRY AOS:          173
 NUMBER OF CONTRACTIONS:          171   ( 114A'  +  57A"  )
 NUMBER OF CORE ORBITALS:           2   (   2A'  +   0A"  )
 NUMBER OF VALENCE ORBITALS:        9   (   7A'  +   2A"  )


 NUCLEAR REPULSION ENERGY   30.18944606


 Eigenvalues of metric

         1 0.108E-02 0.256E-02 0.340E-02 0.646E-02 0.102E-01 0.138E-01 0.146E-01 0.236E-01
         2 0.377E-01 0.543E-01 0.714E-01 0.941E-01 0.132E+00 0.135E+00 0.141E+00 0.142E+00


 Contracted 2-electron integrals neglected if value below      1.0D-22

       46120293. INTEGRALS WRITTEN OUT IN   11263 BLOCKS ON RECORD 1290 OF FILE 1


 NUMBER OF SORTED TWO-ELECTRON INTEGRALS:   55360566.     BUFFER LENGTH:  32768
 NUMBER OF SEGMENTS:   4  SEGMENT LENGTH:   15997996      RECORD LENGTH: 524288

 Memory used in sort:      16.56 MW

 SORT1 READ    46120293. AND WROTE    46557527. INTEGRALS IN    135 RECORDS. CPU TIME:     0.75 SEC, REAL TIME:     1.05 SEC
 SORT2 READ    46557527. AND WROTE    55360566. INTEGRALS IN      4 RECORDS. CPU TIME:     0.63 SEC, REAL TIME:     0.86 SEC

 FILE SIZES:   FILE 1:   758.9 MBYTE,  FILE 4:   566.3 MBYTE,   TOTAL:   1325.1 MBYTE

 OPERATOR DM      FOR CENTER  0  COORDINATES:    0.000000    0.000000    0.000000


 **********************************************************************************************************************************
 DATASETS  * FILE   NREC   LENGTH (MB)   RECORD NAMES
              1      19      421.08       500      610      700      900      950      970     1000      129      960     1100   
                                          VAR    BASINP    GEOM    SYMINP    ZMAT    AOBASIS   BASIS     P2S    ABASIS      S 
                                         1400     1410     1200     1210     1080     1600     1650     1300     1700   
                                           T        V       H0       H01     AOSYM     SMH    MOLCAS    ERIS     OPER   

 PROGRAMS   *        TOTAL       INT
 CPU TIMES  *         4.20      4.09
 REAL TIME  *         5.66 SEC
 DISK USED  *         1.33 GB      
 **********************************************************************************************************************************


 PROGRAM * RHF-SCF (CLOSED SHELL)       Authors: W. Meyer, H.-J. Werner


 NUMBER OF ELECTRONS:       8+    8-
 CONVERGENCE THRESHOLDS:    1.00E-10 (Density)    1.00E-13 (Energy)
 MAX. NUMBER OF ITERATIONS:      500
 INTERPOLATION TYPE:            DIIS
 INTERPOLATION STEPS:              2 (START)      1 (STEP)
 LEVEL SHIFTS:                  0.00 (CLOSED)  0.00 (OPEN) 



 Orbital guess generated from atomic densities. Full valence occupancy:    9   2

 Molecular orbital dump at record        2100.2

 Initial occupancy:   7   1

 ITERATION    DDIFF          GRAD             ENERGY        2-EL.EN.            DIPOLE MOMENTS         DIIS   ORB.
    1      0.000D+00      0.000D+00      -129.78614734    153.738544    0.00000    0.55564   -1.03466    0    start
    2      0.000D+00      0.890D-02      -129.81281377    154.904395    0.00000    0.60185   -0.18309    1    diag
    3      0.366D-02      0.691D-02      -129.83737027    155.038855    0.00000    0.54154   -0.58801    2    diag
    4      0.146D-02      0.104D-02      -129.83816676    154.758469    0.00000    0.55000   -0.52480    3    diag
    5      0.331D-03      0.343D-03      -129.83829208    154.847601    0.00000    0.55606   -0.52705    4    diag
    6      0.155D-03      0.101D-03      -129.83831278    154.831234    0.00000    0.55657   -0.52276    5    diag
    7      0.613D-04      0.511D-04      -129.83831897    154.833757    0.00000    0.55791   -0.52014    6    diag
    8      0.418D-04      0.179D-04      -129.83831968    154.832878    0.00000    0.55796   -0.51917    7    diag
    9      0.151D-04      0.336D-05      -129.83831971    154.832757    0.00000    0.55791   -0.51897    8    diag
   10      0.311D-05      0.747D-06      -129.83831972    154.832742    0.00000    0.55787   -0.51895    9    orth
   11      0.879D-06      0.148D-06      -129.83831972    154.832738    0.00000    0.55786   -0.51894    9    diag
   12      0.208D-06      0.315D-07      -129.83831972    154.832737    0.00000    0.55786   -0.51894    9    diag
   13      0.522D-07      0.850D-08      -129.83831972    154.832737    0.00000    0.55786   -0.51894    9    diag
   14      0.122D-07      0.148D-08      -129.83831972    154.832737    0.00000    0.55786   -0.51894    9    diag
   15      0.149D-08      0.392D-09      -129.83831972    154.832737    0.00000    0.55786   -0.51894    9    diag
   16      0.337D-09      0.113D-09      -129.83831972    154.832737    0.00000    0.55786   -0.51894    9    diag
   17      0.739D-10      0.308D-10      -129.83831972    154.832737    0.00000    0.55786   -0.51894    9    diag
   18      0.221D-10      0.102D-10      -129.83831972    154.832737    0.00000    0.55786   -0.51894    9    diag
   19      0.897D-11      0.241D-11      -129.83831972    154.832737    0.00000    0.55786   -0.51894    9    fixocc
   20      0.227D-11      0.643D-12      -129.83831972    154.832737    0.00000    0.55786   -0.51894    0    orth

 Final occupancy:   7   1

 !RHF STATE 1.1 Energy               -129.838319715134
 Nuclear energy                        30.18944606
 One-electron energy                 -237.44413410
 Two-electron energy                   77.41636833
 Virial quotient                       -1.00192042
 !RHF STATE 1.1 Dipole moment           0.00000000     0.55786105    -0.51894041
 Dipole moment /Debye                   0.00000000     1.41784848    -1.31892855

 Orbital energies:

         1.1          2.1          3.1          4.1          5.1          6.1          7.1          8.1          9.1
    -20.651836   -15.713338    -1.522867    -0.991356    -0.742026    -0.662028    -0.431013     0.039658     0.191600

         1.2          2.2          3.2
     -0.591235     0.076955     0.239108

 HOMO      7.1    -0.431013 =     -11.7285eV
 LUMO      8.1     0.039658 =       1.0792eV
 LUMO-HOMO         0.470671 =      12.8076eV


 **********************************************************************************************************************************
 DATASETS  * FILE   NREC   LENGTH (MB)   RECORD NAMES
              1      19      421.08       500      610      700      900      950      970     1000      129      960     1100   
                                          VAR    BASINP    GEOM    SYMINP    ZMAT    AOBASIS   BASIS     P2S    ABASIS      S 
                                         1400     1410     1200     1210     1080     1600     1650     1300     1700   
                                           T        V       H0       H01     AOSYM     SMH    MOLCAS    ERIS     OPER   

              2       4        3.13       700     1000      520     2100   
                                         GEOM     BASIS   MCVARS     RHF  

 PROGRAMS   *        TOTAL        HF       INT
 CPU TIMES  *         9.20      4.99      4.09
 REAL TIME  *        11.74 SEC
 DISK USED  *         1.33 GB      
 **********************************************************************************************************************************


 PROGRAM * CCSD (Closed-shell coupled cluster)     Authors: C. Hampel, H.-J. Werner, 1991, M. Deegan, P.J. Knowles, 1992


 Convergence thresholds:  THRVAR = 1.00D-08  THRDEN = 1.00D-12

 CCSD(T)     terms to be evaluated (factor= 1.000)


 Number of core orbitals:           2 (   2   0 )
 Number of closed-shell orbitals:   6 (   5   1 )
 Number of external orbitals:     163 ( 107  56 )

 Molecular orbitals read from record     2100.2  Type=RHF/CANONICAL (state 1.1)

 Number of N-1 electron functions:               6
 Number of N-2 electron functions:              21
 Number of singly external CSFs:               591
 Number of doubly external CSFs:            250014
 Total number of CSFs:                      250606

 Length of J-op  integral file:               0.00 MB
 Length of K-op  integral file:               1.15 MB
 Length of 3-ext integral record:             0.00 MB

 Memory could be reduced to 19.93 Mwords without degradation in triples

 Integral transformation finished. Total CPU:   0.69 sec, npass=  1  Memory used:   5.10 MW

 Reference energy:                   -129.83831972

 MP2 singlet pair energy:              -0.28781065
 MP2 triplet pair energy:              -0.16779573
 MP2 correlation energy:               -0.45560638
 MP2 total energy:                   -130.29392610

 SCS-MP2 correlation energy:           -0.44977902   (PS=  1.200000  PT=  0.333333)
 SCS-MP2 total energy:               -130.28809873

 ITER.      SQ.NORM     CORR.ENERGY   TOTAL ENERGY   ENERGY CHANGE        DEN1      VAR(S)    VAR(P)  DIIS     TIME  TIME/IT
   1      1.11986180    -0.45745013  -130.29576985    -0.00184375     0.01528681  0.33D-02  0.32D-02  1  1     1.29     0.66
   2      1.13060256    -0.45730716  -130.29562687     0.00014298    -0.01272978  0.12D-03  0.51D-03  2  2     1.94     0.68
   3      1.13734127    -0.45769314  -130.29601286    -0.00038599    -0.00343210  0.46D-04  0.59D-04  3  3     2.56     0.68
   4      1.14029706    -0.45772546  -130.29604517    -0.00003231    -0.00097091  0.47D-05  0.99D-05  4  4     3.19     0.69
   5      1.14142162    -0.45775969  -130.29607941    -0.00003424    -0.00023020  0.14D-05  0.17D-05  5  5     3.84     0.69
   6      1.14182884    -0.45774321  -130.29606292     0.00001649    -0.00006787  0.13D-06  0.41D-06  6  6     4.46     0.69
   7      1.14190130    -0.45774462  -130.29606434    -0.00000142     0.00000887  0.19D-07  0.91D-07  6  1     5.11     0.69
   8      1.14193650    -0.45774405  -130.29606376     0.00000057    -0.00000487  0.45D-08  0.15D-07  6  2     5.74     0.69
   9      1.14194201    -0.45774390  -130.29606362     0.00000014     0.00000107  0.21D-08  0.17D-08  6  3     6.34     0.69
  10      1.14194258    -0.45774423  -130.29606394    -0.00000032    -0.00000030  0.48D-09  0.27D-09  6  4     6.98     0.69
  11      1.14194108    -0.45774437  -130.29606408    -0.00000014     0.00000034  0.12D-09  0.27D-10  6  5     7.60     0.69
  12      1.14193991    -0.45774452  -130.29606423    -0.00000015     0.00000047  0.16D-10  0.76D-11  6  6     8.25     0.70
  13      1.14193925    -0.45774454  -130.29606425    -0.00000002     0.00000012  0.59D-11  0.14D-11  6  1     8.86     0.70
  14      1.14193873    -0.45774457  -130.29606428    -0.00000003     0.00000012  0.54D-12  0.44D-12  6  3     9.51     0.70
  15      1.14193858    -0.45774457  -130.29606428     0.00000000     0.00000001  0.14D-12  0.31D-13  6  2    10.17     0.70
  16      1.14193852    -0.45774457  -130.29606428    -0.00000000     0.00000001  0.33D-13  0.77D-14  6  4    10.78     0.70
  17      1.14193850    -0.45774457  -130.29606428    -0.00000000     0.00000001  0.44D-14  0.12D-14  6  5    11.41     0.70
  18      1.14193850    -0.45774457  -130.29606428     0.00000000     0.00000000  0.48D-15  0.35D-15  6  6    12.06     0.70
  19      1.14193850    -0.45774457  -130.29606428     0.00000000    -0.00000000  0.67D-16  0.46D-16  6  1    12.67     0.70
  20      1.14193850    -0.45774457  -130.29606428     0.00000000    -0.00000000  0.34D-17  0.11D-16  6  3    13.29     0.70
  21      1.14193850    -0.45774457  -130.29606428     0.00000000    -0.00000000  0.53D-18  0.25D-17  6  4    13.90     0.70
  22      1.14193850    -0.45774457  -130.29606428     0.00000000    -0.00000000  0.19D-19  0.87D-18  6  2    14.49     0.70
  23      1.14193850    -0.45774457  -130.29606428    -0.00000000     0.00000000  0.57D-19  0.17D-18  6  5    15.13     0.70
  24      1.14193850    -0.45774457  -130.29606428    -0.00000000     0.00000000  0.44D-20  0.16D-19  6  1    15.76     0.70
  25      1.14193850    -0.45774457  -130.29606428     0.00000000    -0.00000000  0.21D-20  0.11D-20  6  6    16.39     0.70

 Norm of t1 vector:      0.07844235      S-energy:     0.00000000      T1 diagnostic:  0.01601198
                                                                       D1 diagnostic:  0.04380986

 Doubles amplitudes (print threshold =  0.500E-01):

         I         J         SYM. A    SYM. B    A         B      T(IJ, AB)

         6         6         2         2         1         1     -0.13760003


 Total CPU time for triples:      8.00 sec


 RESULTS
 =======

  Reference energy                   -129.838319715135
  CCSD singlet pair energy             -0.314596994011
  CCSD triplet pair energy             -0.143147575235
  CCSD correlation energy              -0.457744569246

  Triples (T) contribution             -0.021469604807
  Total correlation energy             -0.479214174053

  CCSD total energy                  -130.296064284381
  CCSD[T] energy                     -130.318664696850
  CCSD-T energy                      -130.317109661172
 !CCSD(T) total energy               -130.317533889188

 Timing summary (sec):

 STEP                 CPU(USER)    SYS     CPU(TOT)    WALL
 Transformation          0.70      0.14      0.84      0.83
 CCSD iterations        15.69      1.74     17.43     17.45
 Triples                 8.00      0.26      8.26      8.25

 Program statistics:

 Available memory in ccsd:               994999756
 Min. memory needed in ccsd:                887758
 Max. memory used in ccsd:                 1088212
 Max. memory used in cckext:               1535578 (25 integral passes)



 **********************************************************************************************************************************
 DATASETS  * FILE   NREC   LENGTH (MB)   RECORD NAMES
              1      20      479.03       500      610      700      900      950      970     1000      129      960     1100   
                                          VAR    BASINP    GEOM    SYMINP    ZMAT    AOBASIS   BASIS     P2S    ABASIS      S 
                                         1400     1410     1200     1210     1080     1600     1650     1300     1700     1380   
                                           T        V       H0       H01     AOSYM     SMH    MOLCAS    ERIS     OPER     JKOP   

              2       4        3.13       700     1000      520     2100   
                                         GEOM     BASIS   MCVARS     RHF  

 PROGRAMS   *        TOTAL   CCSD(T)        HF       INT
 CPU TIMES  *        33.64     24.45      4.99      4.09
 REAL TIME  *        38.83 SEC
 DISK USED  *         1.33 GB      
 **********************************************************************************************************************************

 CCSD(T)/USERDEF energy=   -130.317533889188

        CCSD(T)         HF-SCF  
   -130.31753389   -129.83831972
 **********************************************************************************************************************************
 Molpro calculation terminated
 Variable memory released
