
 Primary working directories    : /tmp/r2666/235352.maple
 Secondary working directories  : /tmp/r2666/235352.maple
 Wavefunction directory         : /ddn/home4/r2666/wfu/
 Main file repository           : /tmp/r2666/235352.maple/

 SHA1      : d5ffa45e93fdbca01ffc919aa182cfdae0147319
 NAME      : 2015.1.35
 ARCHNAME  : linux/x86_64
 FC        : /opt/intel/composer_xe_2015.1.133/bin/intel64/ifort
 BLASLIB   : -Wl,-_start-group /opt/intel/mkl/lib/intel64/libmkl_intel_ilp64.a /opt/intel/mkl/lib/intel64/libmkl_intel_thread.a /opt/intel/mkl/lib/intel64/libmkl_core.a -Wl,-_end-group
 id        : olemiss

 Nodes     nprocs
 cn033        1

 Using customized tuning parameters: mindgm=1; mindgv=20; mindgc=4; mindgr=1; noblas=0; minvec=7
 default implementation of scratch files=df  

 ***,hno CCSD(T)/TZ-F12 QFF
 memory, 995, m;
 gthresh,energy=1.d-12,zero=1.d-22,oneint=1.d-22,twoint=1.d-22;
 gthresh,optgrad=1.d-8,optstep=1.d-8;
 nocompress;
 geomtyp=xyz
 bohr
 geometry={
 3
         78        78
 N        0.0000000000       -0.1558388963       -1.1468290584
 H        0.0000000000        1.6678456551       -1.9383735464
 O        0.0000000000        0.0297610312        1.1346130138
 }
 
 basis={
 default=aug-cc-pvtz
 s,C,8236.0,1235.0,280.8, 79.27,25.59, 8.997,3.319
 s,C,0.9059,0.3643,0.1285000
 p,C,56.0,18.71,4.133,0.2827,0.3827,0.1209
 d,C,30.0,10.0,3.3,1.097,0.318
 f,C,7.0,2.3,0.7610
 s,N,11420.0,1712.0,389.3,110.0,35.57,12.54,4.644
 s,N,1.293,0.5118,0.1787
 p,N,79.89,26.63,5.948,1.742,0.555,0.1725
 d,N,45.0,15.0,5.0,1.654,0.469
 f,N,9.9,3.3,1.093
 s,O,15330.0,2299.0,522.4,147.3,47.55,16.76,6.207
 s,O,1.752,0.6882,0.2384
 p,O,103.5,34.46,7.749,2.28,0.7156,0.214
 d,O,63.0,21.0,7.0,2.314,0.645
 f,O,12.9,4.3,1.428
 s,mg,164900.0,24710.0,5628.0,1596.0,521.0;
 s,mg,188.0,73.01,29.90,12.54,4.306,1.826;
 s,mg,0.7417,0.0761,0.145,0.033,0.0129;
 p,mg,950.70,316.90,74.86,23.72,8.669,3.363;
 p,mg,1.310,0.4911,0.2364,0.08733,0.03237,0.00745;
 d,mg,1.601,0.686,0.126,0.294,0.0468;
 f,mg,1.372,0.588,0.094,0.252;
 }
   {hf,maxit=500;accu,20;}
 {ccsd(t),nocheck,maxit=250;orbital,IGNORE_ERROR;}

 Variables initialized (889), CPU time= 0.00 sec
 Commands  initialized (702), CPU time= 0.01 sec, 572 directives.
 Default parameters read. Elapsed time= 0.05 sec

 Checking input...
 Passed
1


                                         ***  PROGRAM SYSTEM MOLPRO  ***
                                       Copyright, TTI GmbH Stuttgart, 2015
                                    Version 2015.1 linked Jul  9 2018 13:16:40


 **********************************************************************************************************************************
 LABEL *   hno CCSD(T)/TZ-F12 QFF                                                        
  64 bit serial version                                                                  DATE: 08-Feb-20          TIME: 17:58:16  
 **********************************************************************************************************************************

 SHA1:             d5ffa45e93fdbca01ffc919aa182cfdae0147319
 **********************************************************************************************************************************

 THRESHOLDS:

 ZERO    =  1.00D-22  ONEINT  =  1.00D-22  TWOINT  =  1.00D-22  PREFAC  =  1.00D-14  LOCALI  =  1.00D-09  EORDER  =  1.00D-04
 ENERGY  =  1.00D-12  ETEST   =  0.00D+00  EDENS   =  0.00D+00  THRDEDEF=  1.00D-06  GRADIENT=  1.00D-02  STEP    =  1.00D-03
 ORBITAL =  1.00D-05  CIVEC   =  1.00D-05  COEFF   =  1.00D-04  PRINTCI =  5.00D-02  PUNCHCI =  9.90D+01  OPTGRAD =  3.00D-04
 OPTENERG=  1.00D-06  OPTSTEP =  3.00D-04  THRGRAD =  1.00D-10  COMPRESS=  1.00D-11  VARMIN  =  1.00D-07  VARMAX  =  1.00D-03
 THRDOUB =  0.00D+00  THRDIV  =  1.00D-05  THRRED  =  1.00D-07  THRPSP  =  1.00D+00  THRDC   =  1.00D-10  THRCS   =  1.00D-10
 THRNRM  =  1.00D-08  THREQ   =  0.00D+00  THRDE   =  1.00D+00  THRREF  =  1.00D-05  SPARFAC =  1.00D+00  THRDLP  =  1.00D-07
 THRDIA  =  1.00D-10  THRDLS  =  1.00D-07  THRGPS  =  0.00D+00  THRKEX  =  0.00D+00  THRDIS  =  2.00D-01  THRVAR  =  1.00D-10
 THRLOC  =  1.00D-06  THRGAP  =  1.00D-06  THRLOCT = -1.00D+00  THRGAPT = -1.00D+00  THRORB  =  1.00D-06  THRMLTP =  0.00D+00
 THRCPQCI=  1.00D-10  KEXTA   =  0.00D+00  THRCOARS=  0.00D+00  SYMTOL  =  1.00D-06  GRADTOL =  1.00D-06  THROVL  =  1.00D-08
 THRORTH =  1.00D-08  GRID    =  1.00D-06  GRIDMAX =  1.00D-03  DTMAX   =  0.00D+00  THROCCDE=  1.00D-01  THROCCDE=  1.00D-01



 THRESHOLDS:

 ZERO    =  1.00D-22  ONEINT  =  1.00D-22  TWOINT  =  1.00D-22  PREFAC  =  1.00D-14  LOCALI  =  1.00D-09  EORDER  =  1.00D-04
 ENERGY  =  1.00D-12  ETEST   =  0.00D+00  EDENS   =  0.00D+00  THRDEDEF=  1.00D-06  GRADIENT=  1.00D-02  STEP    =  1.00D-03
 ORBITAL =  1.00D-05  CIVEC   =  1.00D-05  COEFF   =  1.00D-04  PRINTCI =  5.00D-02  PUNCHCI =  9.90D+01  OPTGRAD =  1.00D-08
 OPTENERG=  1.00D-06  OPTSTEP =  1.00D-08  THRGRAD =  1.00D-10  COMPRESS=  1.00D-11  VARMIN  =  1.00D-07  VARMAX  =  1.00D-03
 THRDOUB =  0.00D+00  THRDIV  =  1.00D-05  THRRED  =  1.00D-07  THRPSP  =  1.00D+00  THRDC   =  1.00D-10  THRCS   =  1.00D-10
 THRNRM  =  1.00D-08  THREQ   =  0.00D+00  THRDE   =  1.00D+00  THRREF  =  1.00D-05  SPARFAC =  1.00D+00  THRDLP  =  1.00D-07
 THRDIA  =  1.00D-10  THRDLS  =  1.00D-07  THRGPS  =  0.00D+00  THRKEX  =  0.00D+00  THRDIS  =  2.00D-01  THRVAR  =  1.00D-10
 THRLOC  =  1.00D-06  THRGAP  =  1.00D-06  THRLOCT = -1.00D+00  THRGAPT = -1.00D+00  THRORB  =  1.00D-06  THRMLTP =  0.00D+00
 THRCPQCI=  1.00D-10  KEXTA   =  0.00D+00  THRCOARS=  0.00D+00  SYMTOL  =  1.00D-06  GRADTOL =  1.00D-06  THROVL  =  1.00D-08
 THRORTH =  1.00D-08  GRID    =  1.00D-06  GRIDMAX =  1.00D-03  DTMAX   =  0.00D+00  THROCCDE=  1.00D-01  THROCCDE=  1.00D-01



 Input parameters for SORTINT:

 COMPRESS =    0.000000
 C_FINAL  =    1.000000
 DEBUG    =   -1.000000
 C_SORT1  =    0.000000
 C_SEWARD =    0.000000
 THRESH   =    0.000000
 IO       =  molpro                                                          
 SPRI     =    0.000000
 SETTING GEOMTYP        =    XYZ
 ZUNIT=BOHR
 

 Variable memory set to  995000000 words,  buffer space   230000 words

 SETTING BASIS          =    USERDEF


 Recomputing integrals since basis changed


 Using spherical harmonics

 Library entry H      S aug-cc-pVTZ          selected for orbital group  2
 Library entry H      P aug-cc-pVTZ          selected for orbital group  2
 Library entry H      D aug-cc-pVTZ          selected for orbital group  2


 PROGRAM * SEWARD (Integral evaluation for generally contracted gaussian basis sets)     Author: Roland Lindh, 1990

 Geometry written to block  1 of record 700


 Point group  Cs  



 ATOMIC COORDINATES

 NR  ATOM    CHARGE       X              Y              Z

   1  N       7.00    0.000000000   -0.155838896   -1.146829058
   2  H       1.00    0.000000000    1.667845655   -1.938373546
   3  O       8.00    0.000000000    0.029761031    1.134613014

 Bond lengths in Bohr (Angstrom)

 1-2  1.988056342  1-3  2.288979087
     ( 1.052034110)     ( 1.211275569)

 Bond angles

  2-1-3  108.81168682

 NUCLEAR CHARGE:                   16
 NUMBER OF PRIMITIVE AOS:         203
 NUMBER OF SYMMETRY AOS:          173
 NUMBER OF CONTRACTIONS:          171   ( 114A'  +  57A"  )
 NUMBER OF CORE ORBITALS:           2   (   2A'  +   0A"  )
 NUMBER OF VALENCE ORBITALS:        9   (   7A'  +   2A"  )


 NUCLEAR REPULSION ENERGY   30.28339990


 Eigenvalues of metric

         1 0.105E-02 0.251E-02 0.335E-02 0.638E-02 0.984E-02 0.137E-01 0.145E-01 0.231E-01
         2 0.363E-01 0.536E-01 0.698E-01 0.942E-01 0.131E+00 0.134E+00 0.140E+00 0.142E+00


 Contracted 2-electron integrals neglected if value below      1.0D-22

       46135385. INTEGRALS WRITTEN OUT IN   11267 BLOCKS ON RECORD 1290 OF FILE 1


 NUMBER OF SORTED TWO-ELECTRON INTEGRALS:   55360566.     BUFFER LENGTH:  32768
 NUMBER OF SEGMENTS:   4  SEGMENT LENGTH:   15997996      RECORD LENGTH: 524288

 Memory used in sort:      16.56 MW

 SORT1 READ    46135385. AND WROTE    46572732. INTEGRALS IN    135 RECORDS. CPU TIME:     1.25 SEC, REAL TIME:     1.65 SEC
 SORT2 READ    46572732. AND WROTE    55360566. INTEGRALS IN      4 RECORDS. CPU TIME:     0.78 SEC, REAL TIME:     1.03 SEC

 FILE SIZES:   FILE 1:   759.1 MBYTE,  FILE 4:   566.3 MBYTE,   TOTAL:   1325.4 MBYTE

 OPERATOR DM      FOR CENTER  0  COORDINATES:    0.000000    0.000000    0.000000


 **********************************************************************************************************************************
 DATASETS  * FILE   NREC   LENGTH (MB)   RECORD NAMES
              1      19      421.18       500      610      700      900      950      970     1000      129      960     1100   
                                          VAR    BASINP    GEOM    SYMINP    ZMAT    AOBASIS   BASIS     P2S    ABASIS      S 
                                         1400     1410     1200     1210     1080     1600     1650     1300     1700   
                                           T        V       H0       H01     AOSYM     SMH    MOLCAS    ERIS     OPER   

 PROGRAMS   *        TOTAL       INT
 CPU TIMES  *         5.70      5.62
 REAL TIME  *         7.48 SEC
 DISK USED  *         1.33 GB      
 **********************************************************************************************************************************


 PROGRAM * RHF-SCF (CLOSED SHELL)       Authors: W. Meyer, H.-J. Werner


 NUMBER OF ELECTRONS:       8+    8-
 CONVERGENCE THRESHOLDS:    1.00E-10 (Density)    1.00E-13 (Energy)
 MAX. NUMBER OF ITERATIONS:      500
 INTERPOLATION TYPE:            DIIS
 INTERPOLATION STEPS:              2 (START)      1 (STEP)
 LEVEL SHIFTS:                  0.00 (CLOSED)  0.00 (OPEN) 



 Orbital guess generated from atomic densities. Full valence occupancy:    9   2

 Molecular orbital dump at record        2100.2

 Initial occupancy:   7   1

 ITERATION    DDIFF          GRAD             ENERGY        2-EL.EN.            DIPOLE MOMENTS         DIIS   ORB.
    1      0.000D+00      0.000D+00      -129.78833650    153.905745    0.00000    0.57661   -1.02582    0    start
    2      0.000D+00      0.881D-02      -129.81512457    155.076193    0.00000    0.59942   -0.19703    1    diag
    3      0.366D-02      0.674D-02      -129.83840413    155.203684    0.00000    0.55062   -0.59093    2    diag
    4      0.143D-02      0.104D-02      -129.83919614    154.926438    0.00000    0.55834   -0.52779    3    diag
    5      0.333D-03      0.338D-03      -129.83931754    155.014959    0.00000    0.56442   -0.53019    4    diag
    6      0.153D-03      0.992D-04      -129.83933734    154.998837    0.00000    0.56498   -0.52601    5    diag
    7      0.609D-04      0.499D-04      -129.83934322    155.001339    0.00000    0.56631   -0.52346    6    diag
    8      0.414D-04      0.173D-04      -129.83934388    155.000502    0.00000    0.56636   -0.52252    7    diag
    9      0.146D-04      0.324D-05      -129.83934390    155.000385    0.00000    0.56631   -0.52233    8    diag
   10      0.298D-05      0.737D-06      -129.83934391    155.000371    0.00000    0.56627   -0.52231    9    orth
   11      0.879D-06      0.146D-06      -129.83934391    155.000366    0.00000    0.56626   -0.52230    9    diag
   12      0.206D-06      0.303D-07      -129.83934391    155.000366    0.00000    0.56626   -0.52230    9    diag
   13      0.503D-07      0.809D-08      -129.83934391    155.000365    0.00000    0.56626   -0.52230    9    diag
   14      0.117D-07      0.142D-08      -129.83934391    155.000365    0.00000    0.56626   -0.52230    9    diag
   15      0.145D-08      0.377D-09      -129.83934391    155.000365    0.00000    0.56626   -0.52230    9    diag
   16      0.328D-09      0.109D-09      -129.83934391    155.000365    0.00000    0.56626   -0.52230    9    diag
   17      0.698D-10      0.289D-10      -129.83934391    155.000365    0.00000    0.56626   -0.52230    9    diag
   18      0.210D-10      0.951D-11      -129.83934391    155.000365    0.00000    0.56626   -0.52230    9    diag
   19      0.839D-11      0.216D-11      -129.83934391    155.000365    0.00000    0.56626   -0.52230    9    fixocc
   20      0.211D-11      0.740D-12      -129.83934391    155.000365    0.00000    0.56626   -0.52230    9    orth
   21      0.243D-12      0.395D-12      -129.83934391    155.000365    0.00000    0.56626   -0.52230    9    diag
   22      0.180D-12      0.268D-12      -129.83934391    155.000365    0.00000    0.56626   -0.52230    9    diag
   23      0.949D-13      0.447D-12      -129.83934391    155.000365    0.00000    0.56626   -0.52230    0    orth

 Final occupancy:   7   1

 !RHF STATE 1.1 Energy               -129.839343906083
 Nuclear energy                        30.28339990
 One-electron energy                 -237.62292644
 Two-electron energy                   77.50018264
 Virial quotient                       -1.00174908
 !RHF STATE 1.1 Dipole moment           0.00000000     0.56626150    -0.52230249
 Dipole moment /Debye                   0.00000000     1.43919891    -1.32747355

 Orbital energies:

         1.1          2.1          3.1          4.1          5.1          6.1          7.1          8.1          9.1
    -20.651735   -15.711044    -1.525016    -0.994058    -0.744158    -0.663388    -0.429325     0.039590     0.192578

         1.2          2.2          3.2
     -0.592557     0.077785     0.239486

 HOMO      7.1    -0.429325 =     -11.6825eV
 LUMO      8.1     0.039590 =       1.0773eV
 LUMO-HOMO         0.468915 =      12.7598eV


 **********************************************************************************************************************************
 DATASETS  * FILE   NREC   LENGTH (MB)   RECORD NAMES
              1      19      421.18       500      610      700      900      950      970     1000      129      960     1100   
                                          VAR    BASINP    GEOM    SYMINP    ZMAT    AOBASIS   BASIS     P2S    ABASIS      S 
                                         1400     1410     1200     1210     1080     1600     1650     1300     1700   
                                           T        V       H0       H01     AOSYM     SMH    MOLCAS    ERIS     OPER   

              2       4        3.13       700     1000      520     2100   
                                         GEOM     BASIS   MCVARS     RHF  

 PROGRAMS   *        TOTAL        HF       INT
 CPU TIMES  *        12.38      6.68      5.62
 REAL TIME  *        15.88 SEC
 DISK USED  *         1.33 GB      
 **********************************************************************************************************************************


 PROGRAM * CCSD (Closed-shell coupled cluster)     Authors: C. Hampel, H.-J. Werner, 1991, M. Deegan, P.J. Knowles, 1992


 Convergence thresholds:  THRVAR = 1.00D-08  THRDEN = 1.00D-12

 CCSD(T)     terms to be evaluated (factor= 1.000)


 Number of core orbitals:           2 (   2   0 )
 Number of closed-shell orbitals:   6 (   5   1 )
 Number of external orbitals:     163 ( 107  56 )

 Molecular orbitals read from record     2100.2  Type=RHF/CANONICAL (state 1.1)

 Number of N-1 electron functions:               6
 Number of N-2 electron functions:              21
 Number of singly external CSFs:               591
 Number of doubly external CSFs:            250014
 Total number of CSFs:                      250606

 Length of J-op  integral file:               0.00 MB
 Length of K-op  integral file:               1.15 MB
 Length of 3-ext integral record:             0.00 MB

 Memory could be reduced to 19.93 Mwords without degradation in triples

 Integral transformation finished. Total CPU:   0.79 sec, npass=  1  Memory used:   5.10 MW

 Reference energy:                   -129.83934391

 MP2 singlet pair energy:              -0.28720617
 MP2 triplet pair energy:              -0.16741086
 MP2 correlation energy:               -0.45461703
 MP2 total energy:                   -130.29396093

 SCS-MP2 correlation energy:           -0.44881416   (PS=  1.200000  PT=  0.333333)
 SCS-MP2 total energy:               -130.28815806

 ITER.      SQ.NORM     CORR.ENERGY   TOTAL ENERGY   ENERGY CHANGE        DEN1      VAR(S)    VAR(P)  DIIS     TIME  TIME/IT
   1      1.11917083    -0.45662741  -130.29597132    -0.00201039     0.01490533  0.33D-02  0.31D-02  1  1     1.58     0.85
   2      1.12978307    -0.45651597  -130.29585988     0.00011144    -0.01259932  0.12D-03  0.50D-03  2  2     2.37     0.87
   3      1.13642099    -0.45689445  -130.29623836    -0.00037848    -0.00338953  0.45D-04  0.59D-04  3  3     3.16     0.87
   4      1.13933622    -0.45692652  -130.29627043    -0.00003207    -0.00095747  0.46D-05  0.99D-05  4  4     3.96     0.88
   5      1.14044354    -0.45695969  -130.29630360    -0.00003317    -0.00022566  0.14D-05  0.18D-05  5  5     4.78     0.88
   6      1.14084970    -0.45694354  -130.29628745     0.00001615    -0.00006725  0.12D-06  0.43D-06  6  6     5.58     0.88
   7      1.14092378    -0.45694509  -130.29628899    -0.00000154     0.00000869  0.17D-07  0.96D-07  6  1     6.40     0.88
   8      1.14095910    -0.45694463  -130.29628854     0.00000046    -0.00000477  0.50D-08  0.15D-07  6  2     7.20     0.88
   9      1.14096470    -0.45694450  -130.29628840     0.00000013     0.00000096  0.22D-08  0.17D-08  6  3     8.03     0.89
  10      1.14096511    -0.45694484  -130.29628874    -0.00000034    -0.00000024  0.52D-09  0.27D-09  6  4     8.86     0.89
  11      1.14096356    -0.45694498  -130.29628888    -0.00000014     0.00000035  0.13D-09  0.27D-10  6  5     9.66     0.89
  12      1.14096237    -0.45694513  -130.29628904    -0.00000015     0.00000048  0.16D-10  0.79D-11  6  6    10.44     0.89
  13      1.14096170    -0.45694515  -130.29628906    -0.00000002     0.00000013  0.62D-11  0.14D-11  6  1    11.25     0.89
  14      1.14096117    -0.45694518  -130.29628909    -0.00000003     0.00000012  0.56D-12  0.46D-12  6  3    12.06     0.89
  15      1.14096101    -0.45694518  -130.29628909     0.00000000     0.00000001  0.14D-12  0.33D-13  6  2    12.85     0.89
  16      1.14096095    -0.45694518  -130.29628909    -0.00000000     0.00000001  0.34D-13  0.78D-14  6  4    13.66     0.89
  17      1.14096093    -0.45694518  -130.29628909    -0.00000000     0.00000001  0.43D-14  0.12D-14  6  5    14.47     0.89
  18      1.14096093    -0.45694518  -130.29628909     0.00000000     0.00000000  0.48D-15  0.33D-15  6  6    15.26     0.89
  19      1.14096093    -0.45694518  -130.29628909     0.00000000    -0.00000000  0.65D-16  0.43D-16  6  1    16.05     0.89
  20      1.14096093    -0.45694518  -130.29628909     0.00000000    -0.00000000  0.34D-17  0.10D-16  6  3    16.82     0.89
  21      1.14096094    -0.45694518  -130.29628909     0.00000000    -0.00000000  0.54D-18  0.21D-17  6  4    17.64     0.89
  22      1.14096094    -0.45694518  -130.29628909     0.00000000    -0.00000000  0.19D-19  0.75D-18  6  2    18.46     0.89
  23      1.14096093    -0.45694518  -130.29628909    -0.00000000     0.00000000  0.32D-19  0.13D-18  6  4    19.30     0.89
  24      1.14096093    -0.45694518  -130.29628909     0.00000000    -0.00000000  0.34D-20  0.67D-20  6  5    20.10     0.89
  25      1.14096093    -0.45694518  -130.29628909    -0.00000000     0.00000000  0.42D-21  0.55D-21  6  6    20.92     0.89
  26      1.14096093    -0.45694518  -130.29628909     0.00000000    -0.00000000  0.16D-21  0.63D-22  6  1    21.71     0.89
  27      1.14096093    -0.45694518  -130.29628909     0.00000000    -0.00000000  0.60D-22  0.18D-22  6  3    22.52     0.89

 Norm of t1 vector:      0.07791423      S-energy:    -0.00000000      T1 diagnostic:  0.01590417
                                                                       D1 diagnostic:  0.04347545

 Doubles amplitudes (print threshold =  0.500E-01):

         I         J         SYM. A    SYM. B    A         B      T(IJ, AB)

         6         6         2         2         1         1     -0.13633233


 Total CPU time for triples:      6.74 sec


 RESULTS
 =======

  Reference energy                   -129.839343906083
  CCSD singlet pair energy             -0.313908438576
  CCSD triplet pair energy             -0.143036744057
  CCSD correlation energy              -0.456945182633

  Triples (T) contribution             -0.021305771387
  Total correlation energy             -0.478250954020

  CCSD total energy                  -130.296289088716
  CCSD[T] energy                     -130.318708436210
  CCSD-T energy                      -130.317176324163
 !CCSD(T) total energy               -130.317594860103

 Timing summary (sec):

 STEP                 CPU(USER)    SYS     CPU(TOT)    WALL
 Transformation          0.80      0.22      1.02      1.02
 CCSD iterations        21.73      2.32     24.05     24.06
 Triples                 6.74      0.18      6.92      6.92

 Program statistics:

 Available memory in ccsd:               994999756
 Min. memory needed in ccsd:                887758
 Max. memory used in ccsd:                 1088212
 Max. memory used in cckext:               1535578 (27 integral passes)



 **********************************************************************************************************************************
 DATASETS  * FILE   NREC   LENGTH (MB)   RECORD NAMES
              1      20      479.14       500      610      700      900      950      970     1000      129      960     1100   
                                          VAR    BASINP    GEOM    SYMINP    ZMAT    AOBASIS   BASIS     P2S    ABASIS      S 
                                         1400     1410     1200     1210     1080     1600     1650     1300     1700     1380   
                                           T        V       H0       H01     AOSYM     SMH    MOLCAS    ERIS     OPER     JKOP   

              2       4        3.13       700     1000      520     2100   
                                         GEOM     BASIS   MCVARS     RHF  

 PROGRAMS   *        TOTAL   CCSD(T)        HF       INT
 CPU TIMES  *        41.68     29.30      6.68      5.62
 REAL TIME  *        47.93 SEC
 DISK USED  *         1.33 GB      
 **********************************************************************************************************************************

 CCSD(T)/USERDEF energy=   -130.317594860103

        CCSD(T)         HF-SCF  
   -130.31759486   -129.83934391
 **********************************************************************************************************************************
 Molpro calculation terminated
 Variable memory released
