
 Primary working directories    : /tmp/r2666/235313.maple
 Secondary working directories  : /tmp/r2666/235313.maple
 Wavefunction directory         : /ddn/home4/r2666/wfu/
 Main file repository           : /tmp/r2666/235313.maple/

 SHA1      : d5ffa45e93fdbca01ffc919aa182cfdae0147319
 NAME      : 2015.1.35
 ARCHNAME  : linux/x86_64
 FC        : /opt/intel/composer_xe_2015.1.133/bin/intel64/ifort
 BLASLIB   : -Wl,-_start-group /opt/intel/mkl/lib/intel64/libmkl_intel_ilp64.a /opt/intel/mkl/lib/intel64/libmkl_intel_thread.a /opt/intel/mkl/lib/intel64/libmkl_core.a -Wl,-_end-group
 id        : olemiss

 Nodes     nprocs
 cn042        1

 Using customized tuning parameters: mindgm=1; mindgv=20; mindgc=4; mindgr=1; noblas=0; minvec=7
 default implementation of scratch files=df  

 ***,hno CCSD(T)/TZ-F12 QFF
 memory, 995, m;
 gthresh,energy=1.d-12,zero=1.d-22,oneint=1.d-22,twoint=1.d-22;
 gthresh,optgrad=1.d-8,optstep=1.d-8;
 nocompress;
 geomtyp=xyz
 bohr
 geometry={
 3
         39        39
 N        0.0000000000       -0.1546592722       -1.1519403594
 H        0.0000000000        1.6634878931       -1.9324718219
 O        0.0000000000        0.0329391691        1.1338225903
 }
 
 basis={
 default=aug-cc-pvtz
 s,C,8236.0,1235.0,280.8, 79.27,25.59, 8.997,3.319
 s,C,0.9059,0.3643,0.1285000
 p,C,56.0,18.71,4.133,0.2827,0.3827,0.1209
 d,C,30.0,10.0,3.3,1.097,0.318
 f,C,7.0,2.3,0.7610
 s,N,11420.0,1712.0,389.3,110.0,35.57,12.54,4.644
 s,N,1.293,0.5118,0.1787
 p,N,79.89,26.63,5.948,1.742,0.555,0.1725
 d,N,45.0,15.0,5.0,1.654,0.469
 f,N,9.9,3.3,1.093
 s,O,15330.0,2299.0,522.4,147.3,47.55,16.76,6.207
 s,O,1.752,0.6882,0.2384
 p,O,103.5,34.46,7.749,2.28,0.7156,0.214
 d,O,63.0,21.0,7.0,2.314,0.645
 f,O,12.9,4.3,1.428
 s,mg,164900.0,24710.0,5628.0,1596.0,521.0;
 s,mg,188.0,73.01,29.90,12.54,4.306,1.826;
 s,mg,0.7417,0.0761,0.145,0.033,0.0129;
 p,mg,950.70,316.90,74.86,23.72,8.669,3.363;
 p,mg,1.310,0.4911,0.2364,0.08733,0.03237,0.00745;
 d,mg,1.601,0.686,0.126,0.294,0.0468;
 f,mg,1.372,0.588,0.094,0.252;
 }
   {hf,maxit=500;accu,20;}
 {ccsd(t),nocheck,maxit=250;orbital,IGNORE_ERROR;}

 Variables initialized (889), CPU time= 0.01 sec
 Commands  initialized (702), CPU time= 0.01 sec, 572 directives.
 Default parameters read. Elapsed time= 0.06 sec

 Checking input...
 Passed
1


                                         ***  PROGRAM SYSTEM MOLPRO  ***
                                       Copyright, TTI GmbH Stuttgart, 2015
                                    Version 2015.1 linked Jul  9 2018 13:16:40


 **********************************************************************************************************************************
 LABEL *   hno CCSD(T)/TZ-F12 QFF                                                        
  64 bit serial version                                                                  DATE: 08-Feb-20          TIME: 17:57:30  
 **********************************************************************************************************************************

 SHA1:             d5ffa45e93fdbca01ffc919aa182cfdae0147319
 **********************************************************************************************************************************

 THRESHOLDS:

 ZERO    =  1.00D-22  ONEINT  =  1.00D-22  TWOINT  =  1.00D-22  PREFAC  =  1.00D-14  LOCALI  =  1.00D-09  EORDER  =  1.00D-04
 ENERGY  =  1.00D-12  ETEST   =  0.00D+00  EDENS   =  0.00D+00  THRDEDEF=  1.00D-06  GRADIENT=  1.00D-02  STEP    =  1.00D-03
 ORBITAL =  1.00D-05  CIVEC   =  1.00D-05  COEFF   =  1.00D-04  PRINTCI =  5.00D-02  PUNCHCI =  9.90D+01  OPTGRAD =  3.00D-04
 OPTENERG=  1.00D-06  OPTSTEP =  3.00D-04  THRGRAD =  1.00D-10  COMPRESS=  1.00D-11  VARMIN  =  1.00D-07  VARMAX  =  1.00D-03
 THRDOUB =  0.00D+00  THRDIV  =  1.00D-05  THRRED  =  1.00D-07  THRPSP  =  1.00D+00  THRDC   =  1.00D-10  THRCS   =  1.00D-10
 THRNRM  =  1.00D-08  THREQ   =  0.00D+00  THRDE   =  1.00D+00  THRREF  =  1.00D-05  SPARFAC =  1.00D+00  THRDLP  =  1.00D-07
 THRDIA  =  1.00D-10  THRDLS  =  1.00D-07  THRGPS  =  0.00D+00  THRKEX  =  0.00D+00  THRDIS  =  2.00D-01  THRVAR  =  1.00D-10
 THRLOC  =  1.00D-06  THRGAP  =  1.00D-06  THRLOCT = -1.00D+00  THRGAPT = -1.00D+00  THRORB  =  1.00D-06  THRMLTP =  0.00D+00
 THRCPQCI=  1.00D-10  KEXTA   =  0.00D+00  THRCOARS=  0.00D+00  SYMTOL  =  1.00D-06  GRADTOL =  1.00D-06  THROVL  =  1.00D-08
 THRORTH =  1.00D-08  GRID    =  1.00D-06  GRIDMAX =  1.00D-03  DTMAX   =  0.00D+00  THROCCDE=  1.00D-01  THROCCDE=  1.00D-01



 THRESHOLDS:

 ZERO    =  1.00D-22  ONEINT  =  1.00D-22  TWOINT  =  1.00D-22  PREFAC  =  1.00D-14  LOCALI  =  1.00D-09  EORDER  =  1.00D-04
 ENERGY  =  1.00D-12  ETEST   =  0.00D+00  EDENS   =  0.00D+00  THRDEDEF=  1.00D-06  GRADIENT=  1.00D-02  STEP    =  1.00D-03
 ORBITAL =  1.00D-05  CIVEC   =  1.00D-05  COEFF   =  1.00D-04  PRINTCI =  5.00D-02  PUNCHCI =  9.90D+01  OPTGRAD =  1.00D-08
 OPTENERG=  1.00D-06  OPTSTEP =  1.00D-08  THRGRAD =  1.00D-10  COMPRESS=  1.00D-11  VARMIN  =  1.00D-07  VARMAX  =  1.00D-03
 THRDOUB =  0.00D+00  THRDIV  =  1.00D-05  THRRED  =  1.00D-07  THRPSP  =  1.00D+00  THRDC   =  1.00D-10  THRCS   =  1.00D-10
 THRNRM  =  1.00D-08  THREQ   =  0.00D+00  THRDE   =  1.00D+00  THRREF  =  1.00D-05  SPARFAC =  1.00D+00  THRDLP  =  1.00D-07
 THRDIA  =  1.00D-10  THRDLS  =  1.00D-07  THRGPS  =  0.00D+00  THRKEX  =  0.00D+00  THRDIS  =  2.00D-01  THRVAR  =  1.00D-10
 THRLOC  =  1.00D-06  THRGAP  =  1.00D-06  THRLOCT = -1.00D+00  THRGAPT = -1.00D+00  THRORB  =  1.00D-06  THRMLTP =  0.00D+00
 THRCPQCI=  1.00D-10  KEXTA   =  0.00D+00  THRCOARS=  0.00D+00  SYMTOL  =  1.00D-06  GRADTOL =  1.00D-06  THROVL  =  1.00D-08
 THRORTH =  1.00D-08  GRID    =  1.00D-06  GRIDMAX =  1.00D-03  DTMAX   =  0.00D+00  THROCCDE=  1.00D-01  THROCCDE=  1.00D-01



 Input parameters for SORTINT:

 COMPRESS =    0.000000
 C_FINAL  =    1.000000
 DEBUG    =   -1.000000
 C_SORT1  =    0.000000
 C_SEWARD =    0.000000
 THRESH   =    0.000000
 IO       =  molpro                                                          
 SPRI     =    0.000000
 SETTING GEOMTYP        =    XYZ
 ZUNIT=BOHR
 

 Variable memory set to  995000000 words,  buffer space   230000 words

 SETTING BASIS          =    USERDEF


 Recomputing integrals since basis changed


 Using spherical harmonics

 Library entry H      S aug-cc-pVTZ          selected for orbital group  2
 Library entry H      P aug-cc-pVTZ          selected for orbital group  2
 Library entry H      D aug-cc-pVTZ          selected for orbital group  2


 PROGRAM * SEWARD (Integral evaluation for generally contracted gaussian basis sets)     Author: Roland Lindh, 1990

 Geometry written to block  1 of record 700


 Point group  Cs  



 ATOMIC COORDINATES

 NR  ATOM    CHARGE       X              Y              Z

   1  N       7.00    0.000000000   -0.154659272   -1.151940359
   2  H       1.00    0.000000000    1.663487893   -1.932471822
   3  O       8.00    0.000000000    0.032939169    1.133822590

 Bond lengths in Bohr (Angstrom)

 1-2  1.978607712  1-3  2.293448373
     ( 1.047034111)     ( 1.213640613)

 Bond angles

  2-1-3  108.54197524

 NUCLEAR CHARGE:                   16
 NUMBER OF PRIMITIVE AOS:         203
 NUMBER OF SYMMETRY AOS:          173
 NUMBER OF CONTRACTIONS:          171   ( 114A'  +  57A"  )
 NUMBER OF CORE ORBITALS:           2   (   2A'  +   0A"  )
 NUMBER OF VALENCE ORBITALS:        9   (   7A'  +   2A"  )


 NUCLEAR REPULSION ENERGY   30.25878898


 Eigenvalues of metric

         1 0.104E-02 0.253E-02 0.334E-02 0.635E-02 0.968E-02 0.137E-01 0.145E-01 0.229E-01
         2 0.358E-01 0.539E-01 0.697E-01 0.942E-01 0.131E+00 0.134E+00 0.140E+00 0.142E+00


 Contracted 2-electron integrals neglected if value below      1.0D-22

       46125129. INTEGRALS WRITTEN OUT IN   11264 BLOCKS ON RECORD 1290 OF FILE 1


 NUMBER OF SORTED TWO-ELECTRON INTEGRALS:   55360566.     BUFFER LENGTH:  32768
 NUMBER OF SEGMENTS:   4  SEGMENT LENGTH:   15997996      RECORD LENGTH: 524288

 Memory used in sort:      16.56 MW

 SORT1 READ    46125129. AND WROTE    46562392. INTEGRALS IN    135 RECORDS. CPU TIME:     1.63 SEC, REAL TIME:     2.01 SEC
 SORT2 READ    46562392. AND WROTE    55360566. INTEGRALS IN      4 RECORDS. CPU TIME:     0.87 SEC, REAL TIME:     1.17 SEC

 FILE SIZES:   FILE 1:   758.9 MBYTE,  FILE 4:   566.3 MBYTE,   TOTAL:   1325.2 MBYTE

 OPERATOR DM      FOR CENTER  0  COORDINATES:    0.000000    0.000000    0.000000


 **********************************************************************************************************************************
 DATASETS  * FILE   NREC   LENGTH (MB)   RECORD NAMES
              1      19      421.11       500      610      700      900      950      970     1000      129      960     1100   
                                          VAR    BASINP    GEOM    SYMINP    ZMAT    AOBASIS   BASIS     P2S    ABASIS      S 
                                         1400     1410     1200     1210     1080     1600     1650     1300     1700   
                                           T        V       H0       H01     AOSYM     SMH    MOLCAS    ERIS     OPER   

 PROGRAMS   *        TOTAL       INT
 CPU TIMES  *         6.82      6.71
 REAL TIME  *         8.79 SEC
 DISK USED  *         1.33 GB      
 **********************************************************************************************************************************


 PROGRAM * RHF-SCF (CLOSED SHELL)       Authors: W. Meyer, H.-J. Werner


 NUMBER OF ELECTRONS:       8+    8-
 CONVERGENCE THRESHOLDS:    1.00E-10 (Density)    1.00E-13 (Energy)
 MAX. NUMBER OF ITERATIONS:      500
 INTERPOLATION TYPE:            DIIS
 INTERPOLATION STEPS:              2 (START)      1 (STEP)
 LEVEL SHIFTS:                  0.00 (CLOSED)  0.00 (OPEN) 



 Orbital guess generated from atomic densities. Full valence occupancy:    9   2

 Molecular orbital dump at record        2100.2

 Initial occupancy:   7   1

 ITERATION    DDIFF          GRAD             ENERGY        2-EL.EN.            DIPOLE MOMENTS         DIIS   ORB.
    1      0.000D+00      0.000D+00      -129.78802085    153.866330    0.00000    0.57853   -1.03204    0    start
    2      0.000D+00      0.882D-02      -129.81474042    155.025188    0.00000    0.60146   -0.19655    1    diag
    3      0.368D-02      0.677D-02      -129.83821772    155.159443    0.00000    0.55238   -0.59375    2    diag
    4      0.144D-02      0.105D-02      -129.83901303    154.881282    0.00000    0.56020   -0.53026    3    diag
    5      0.334D-03      0.339D-03      -129.83913444    154.969532    0.00000    0.56618   -0.53257    4    diag
    6      0.154D-03      0.991D-04      -129.83915420    154.953443    0.00000    0.56673   -0.52836    5    diag
    7      0.608D-04      0.501D-04      -129.83916013    154.955894    0.00000    0.56803   -0.52578    6    diag
    8      0.415D-04      0.174D-04      -129.83916080    154.955048    0.00000    0.56808   -0.52482    7    diag
    9      0.148D-04      0.327D-05      -129.83916083    154.954931    0.00000    0.56803   -0.52463    8    diag
   10      0.304D-05      0.737D-06      -129.83916083    154.954917    0.00000    0.56800   -0.52461    9    orth
   11      0.886D-06      0.145D-06      -129.83916083    154.954913    0.00000    0.56799   -0.52460    9    diag
   12      0.207D-06      0.305D-07      -129.83916083    154.954913    0.00000    0.56799   -0.52460    9    diag
   13      0.503D-07      0.815D-08      -129.83916083    154.954912    0.00000    0.56799   -0.52460    9    diag
   14      0.116D-07      0.143D-08      -129.83916083    154.954912    0.00000    0.56799   -0.52460    9    diag
   15      0.142D-08      0.378D-09      -129.83916083    154.954912    0.00000    0.56799   -0.52460    9    diag
   16      0.326D-09      0.108D-09      -129.83916083    154.954912    0.00000    0.56799   -0.52460    9    diag
   17      0.656D-10      0.280D-10      -129.83916083    154.954912    0.00000    0.56799   -0.52460    9    diag
   18      0.189D-10      0.901D-11      -129.83916083    154.954912    0.00000    0.56799   -0.52460    0    orth

 Final occupancy:   7   1

 !RHF STATE 1.1 Energy               -129.839160827302
 Nuclear energy                        30.25878898
 One-electron energy                 -237.57540601
 Two-electron energy                   77.47745620
 Virial quotient                       -1.00175097
 !RHF STATE 1.1 Dipole moment           0.00000000     0.56798576    -0.52460287
 Dipole moment /Debye                   0.00000000     1.44358124    -1.33332015

 Orbital energies:

         1.1          2.1          3.1          4.1          5.1          6.1          7.1          8.1          9.1
    -20.651802   -15.710825    -1.523298    -0.995718    -0.744007    -0.662663    -0.430524     0.039611     0.192936

         1.2          2.2          3.2
     -0.591411     0.077011     0.239426

 HOMO      7.1    -0.430524 =     -11.7152eV
 LUMO      8.1     0.039611 =       1.0779eV
 LUMO-HOMO         0.470135 =      12.7930eV


 **********************************************************************************************************************************
 DATASETS  * FILE   NREC   LENGTH (MB)   RECORD NAMES
              1      19      421.11       500      610      700      900      950      970     1000      129      960     1100   
                                          VAR    BASINP    GEOM    SYMINP    ZMAT    AOBASIS   BASIS     P2S    ABASIS      S 
                                         1400     1410     1200     1210     1080     1600     1650     1300     1700   
                                           T        V       H0       H01     AOSYM     SMH    MOLCAS    ERIS     OPER   

              2       4        3.13       700     1000      520     2100   
                                         GEOM     BASIS   MCVARS     RHF  

 PROGRAMS   *        TOTAL        HF       INT
 CPU TIMES  *        13.70      6.88      6.71
 REAL TIME  *        17.11 SEC
 DISK USED  *         1.33 GB      
 **********************************************************************************************************************************


 PROGRAM * CCSD (Closed-shell coupled cluster)     Authors: C. Hampel, H.-J. Werner, 1991, M. Deegan, P.J. Knowles, 1992


 Convergence thresholds:  THRVAR = 1.00D-08  THRDEN = 1.00D-12

 CCSD(T)     terms to be evaluated (factor= 1.000)


 Number of core orbitals:           2 (   2   0 )
 Number of closed-shell orbitals:   6 (   5   1 )
 Number of external orbitals:     163 ( 107  56 )

 Molecular orbitals read from record     2100.2  Type=RHF/CANONICAL (state 1.1)

 Number of N-1 electron functions:               6
 Number of N-2 electron functions:              21
 Number of singly external CSFs:               591
 Number of doubly external CSFs:            250014
 Total number of CSFs:                      250606

 Length of J-op  integral file:               0.00 MB
 Length of K-op  integral file:               1.15 MB
 Length of 3-ext integral record:             0.00 MB

 Memory could be reduced to 19.93 Mwords without degradation in triples

 Integral transformation finished. Total CPU:   1.10 sec, npass=  1  Memory used:   5.10 MW

 Reference energy:                   -129.83916083

 MP2 singlet pair energy:              -0.28733499
 MP2 triplet pair energy:              -0.16750552
 MP2 correlation energy:               -0.45484051
 MP2 total energy:                   -130.29400133

 SCS-MP2 correlation energy:           -0.44902764   (PS=  1.200000  PT=  0.333333)
 SCS-MP2 total energy:               -130.28818847

 ITER.      SQ.NORM     CORR.ENERGY   TOTAL ENERGY   ENERGY CHANGE        DEN1      VAR(S)    VAR(P)  DIIS     TIME  TIME/IT
   1      1.11925218    -0.45677252  -130.29593335    -0.00193202     0.01503710  0.33D-02  0.31D-02  1  1     2.12     1.09
   2      1.12988753    -0.45664489  -130.29580572     0.00012763    -0.01262966  0.12D-03  0.50D-03  2  2     3.16     1.11
   3      1.13653701    -0.45702255  -130.29618338    -0.00037766    -0.00339303  0.45D-04  0.59D-04  3  3     4.22     1.12
   4      1.13946580    -0.45705564  -130.29621646    -0.00003309    -0.00095985  0.45D-05  0.10D-04  4  4     5.29     1.13
   5      1.14057722    -0.45708879  -130.29624962    -0.00003316    -0.00022696  0.13D-05  0.18D-05  5  5     6.35     1.13
   6      1.14098306    -0.45707252  -130.29623335     0.00001627    -0.00006735  0.12D-06  0.43D-06  6  6     7.40     1.14
   7      1.14105571    -0.45707416  -130.29623499    -0.00000164     0.00000891  0.16D-07  0.96D-07  6  1     8.47     1.14
   8      1.14109073    -0.45707369  -130.29623452     0.00000047    -0.00000478  0.50D-08  0.15D-07  6  2     9.47     1.14
   9      1.14109600    -0.45707358  -130.29623440     0.00000012     0.00000106  0.22D-08  0.17D-08  6  3    10.55     1.14
  10      1.14109644    -0.45707391  -130.29623473    -0.00000033    -0.00000028  0.52D-09  0.27D-09  6  4    11.58     1.14
  11      1.14109491    -0.45707405  -130.29623488    -0.00000014     0.00000035  0.13D-09  0.27D-10  6  5    12.64     1.14
  12      1.14109373    -0.45707420  -130.29623503    -0.00000015     0.00000048  0.16D-10  0.78D-11  6  6    13.68     1.14
  13      1.14109307    -0.45707422  -130.29623505    -0.00000002     0.00000012  0.59D-11  0.14D-11  6  1    14.72     1.14
  14      1.14109255    -0.45707425  -130.29623508    -0.00000003     0.00000012  0.54D-12  0.46D-12  6  3    15.81     1.14
  15      1.14109239    -0.45707425  -130.29623508     0.00000000     0.00000001  0.14D-12  0.33D-13  6  2    16.84     1.14
  16      1.14109233    -0.45707425  -130.29623508    -0.00000000     0.00000001  0.32D-13  0.77D-14  6  4    17.89     1.14
  17      1.14109231    -0.45707425  -130.29623508    -0.00000000     0.00000001  0.43D-14  0.12D-14  6  5    18.95     1.14
  18      1.14109231    -0.45707425  -130.29623508     0.00000000     0.00000000  0.49D-15  0.33D-15  6  6    20.00     1.14
  19      1.14109231    -0.45707425  -130.29623508     0.00000000    -0.00000000  0.66D-16  0.44D-16  6  1    21.08     1.14
  20      1.14109231    -0.45707425  -130.29623508     0.00000000    -0.00000000  0.34D-17  0.11D-16  6  3    22.11     1.14
  21      1.14109232    -0.45707425  -130.29623508     0.00000000    -0.00000000  0.54D-18  0.23D-17  6  4    23.16     1.14
  22      1.14109232    -0.45707425  -130.29623508     0.00000000    -0.00000000  0.27D-19  0.81D-18  6  2    24.20     1.14
  23      1.14109231    -0.45707425  -130.29623508    -0.00000000     0.00000000  0.35D-19  0.14D-18  6  4    25.23     1.14
  24      1.14109231    -0.45707425  -130.29623508     0.00000000    -0.00000000  0.36D-20  0.69D-20  6  5    26.29     1.14
  25      1.14109231    -0.45707425  -130.29623508    -0.00000000     0.00000000  0.44D-21  0.58D-21  6  6    27.34     1.15
  26      1.14109231    -0.45707425  -130.29623508     0.00000000    -0.00000000  0.17D-21  0.69D-22  6  1    28.37     1.15
  27      1.14109231    -0.45707425  -130.29623508     0.00000000    -0.00000000  0.66D-22  0.20D-22  6  3    29.38     1.15

 Norm of t1 vector:      0.07796478      S-energy:     0.00000000      T1 diagnostic:  0.01591449
                                                                       D1 diagnostic:  0.04374405

 Doubles amplitudes (print threshold =  0.500E-01):

         I         J         SYM. A    SYM. B    A         B      T(IJ, AB)

         6         6         2         2         1         1     -0.13713701


 Total CPU time for triples:      9.44 sec


 RESULTS
 =======

  Reference energy                   -129.839160827302
  CCSD singlet pair energy             -0.314023320674
  CCSD triplet pair energy             -0.143050932479
  CCSD correlation energy              -0.457074253151

  Triples (T) contribution             -0.021343434352
  Total correlation energy             -0.478417687503

  CCSD total energy                  -130.296235080453
  CCSD[T] energy                     -130.318695769372
  CCSD-T energy                      -130.317159715128
 !CCSD(T) total energy               -130.317578514805

 Timing summary (sec):

 STEP                 CPU(USER)    SYS     CPU(TOT)    WALL
 Transformation          1.12      0.18      1.30      1.31
 CCSD iterations        28.27      2.67     30.94     30.94
 Triples                 9.44      0.30      9.74      9.74

 Program statistics:

 Available memory in ccsd:               994999756
 Min. memory needed in ccsd:                887758
 Max. memory used in ccsd:                 1088212
 Max. memory used in cckext:               1535578 (27 integral passes)



 **********************************************************************************************************************************
 DATASETS  * FILE   NREC   LENGTH (MB)   RECORD NAMES
              1      20      479.06       500      610      700      900      950      970     1000      129      960     1100   
                                          VAR    BASINP    GEOM    SYMINP    ZMAT    AOBASIS   BASIS     P2S    ABASIS      S 
                                         1400     1410     1200     1210     1080     1600     1650     1300     1700     1380   
                                           T        V       H0       H01     AOSYM     SMH    MOLCAS    ERIS     OPER     JKOP   

              2       4        3.13       700     1000      520     2100   
                                         GEOM     BASIS   MCVARS     RHF  

 PROGRAMS   *        TOTAL   CCSD(T)        HF       INT
 CPU TIMES  *        52.57     38.87      6.88      6.71
 REAL TIME  *        59.14 SEC
 DISK USED  *         1.33 GB      
 **********************************************************************************************************************************

 CCSD(T)/USERDEF energy=   -130.317578514805

        CCSD(T)         HF-SCF  
   -130.31757851   -129.83916083
 **********************************************************************************************************************************
 Molpro calculation terminated
 Variable memory released
