
 Primary working directories    : /tmp/r2666/235330.maple
 Secondary working directories  : /tmp/r2666/235330.maple
 Wavefunction directory         : /ddn/home4/r2666/wfu/
 Main file repository           : /tmp/r2666/235330.maple/

 SHA1      : d5ffa45e93fdbca01ffc919aa182cfdae0147319
 NAME      : 2015.1.35
 ARCHNAME  : linux/x86_64
 FC        : /opt/intel/composer_xe_2015.1.133/bin/intel64/ifort
 BLASLIB   : -Wl,-_start-group /opt/intel/mkl/lib/intel64/libmkl_intel_ilp64.a /opt/intel/mkl/lib/intel64/libmkl_intel_thread.a /opt/intel/mkl/lib/intel64/libmkl_core.a -Wl,-_end-group
 id        : olemiss

 Nodes     nprocs
 cn088        1

 Using customized tuning parameters: mindgm=1; mindgv=20; mindgc=4; mindgr=1; noblas=0; minvec=7
 default implementation of scratch files=df  

 ***,hno CCSD(T)/TZ-F12 QFF
 memory, 995, m;
 gthresh,energy=1.d-12,zero=1.d-22,oneint=1.d-22,twoint=1.d-22;
 gthresh,optgrad=1.d-8,optstep=1.d-8;
 nocompress;
 geomtyp=xyz
 bohr
 geometry={
 3
         56        56
 N        0.0000000000       -0.1565358243       -1.1339387034
 H        0.0000000000        1.6649771753       -1.9304676807
 O        0.0000000000        0.0333264390        1.1138167931
 }
 
 basis={
 default=aug-cc-pvtz
 s,C,8236.0,1235.0,280.8, 79.27,25.59, 8.997,3.319
 s,C,0.9059,0.3643,0.1285000
 p,C,56.0,18.71,4.133,0.2827,0.3827,0.1209
 d,C,30.0,10.0,3.3,1.097,0.318
 f,C,7.0,2.3,0.7610
 s,N,11420.0,1712.0,389.3,110.0,35.57,12.54,4.644
 s,N,1.293,0.5118,0.1787
 p,N,79.89,26.63,5.948,1.742,0.555,0.1725
 d,N,45.0,15.0,5.0,1.654,0.469
 f,N,9.9,3.3,1.093
 s,O,15330.0,2299.0,522.4,147.3,47.55,16.76,6.207
 s,O,1.752,0.6882,0.2384
 p,O,103.5,34.46,7.749,2.28,0.7156,0.214
 d,O,63.0,21.0,7.0,2.314,0.645
 f,O,12.9,4.3,1.428
 s,mg,164900.0,24710.0,5628.0,1596.0,521.0;
 s,mg,188.0,73.01,29.90,12.54,4.306,1.826;
 s,mg,0.7417,0.0761,0.145,0.033,0.0129;
 p,mg,950.70,316.90,74.86,23.72,8.669,3.363;
 p,mg,1.310,0.4911,0.2364,0.08733,0.03237,0.00745;
 d,mg,1.601,0.686,0.126,0.294,0.0468;
 f,mg,1.372,0.588,0.094,0.252;
 }
   {hf,maxit=500;accu,20;}
 {ccsd(t),nocheck,maxit=250;orbital,IGNORE_ERROR;}

 Variables initialized (889), CPU time= 0.00 sec
 Commands  initialized (702), CPU time= 0.01 sec, 572 directives.
 Default parameters read. Elapsed time= 0.04 sec

 Checking input...
 Passed
1


                                         ***  PROGRAM SYSTEM MOLPRO  ***
                                       Copyright, TTI GmbH Stuttgart, 2015
                                    Version 2015.1 linked Jul  9 2018 13:16:40


 **********************************************************************************************************************************
 LABEL *   hno CCSD(T)/TZ-F12 QFF                                                        
  64 bit serial version                                                                  DATE: 08-Feb-20          TIME: 17:58:07  
 **********************************************************************************************************************************

 SHA1:             d5ffa45e93fdbca01ffc919aa182cfdae0147319
 **********************************************************************************************************************************

 THRESHOLDS:

 ZERO    =  1.00D-22  ONEINT  =  1.00D-22  TWOINT  =  1.00D-22  PREFAC  =  1.00D-14  LOCALI  =  1.00D-09  EORDER  =  1.00D-04
 ENERGY  =  1.00D-12  ETEST   =  0.00D+00  EDENS   =  0.00D+00  THRDEDEF=  1.00D-06  GRADIENT=  1.00D-02  STEP    =  1.00D-03
 ORBITAL =  1.00D-05  CIVEC   =  1.00D-05  COEFF   =  1.00D-04  PRINTCI =  5.00D-02  PUNCHCI =  9.90D+01  OPTGRAD =  3.00D-04
 OPTENERG=  1.00D-06  OPTSTEP =  3.00D-04  THRGRAD =  1.00D-10  COMPRESS=  1.00D-11  VARMIN  =  1.00D-07  VARMAX  =  1.00D-03
 THRDOUB =  0.00D+00  THRDIV  =  1.00D-05  THRRED  =  1.00D-07  THRPSP  =  1.00D+00  THRDC   =  1.00D-10  THRCS   =  1.00D-10
 THRNRM  =  1.00D-08  THREQ   =  0.00D+00  THRDE   =  1.00D+00  THRREF  =  1.00D-05  SPARFAC =  1.00D+00  THRDLP  =  1.00D-07
 THRDIA  =  1.00D-10  THRDLS  =  1.00D-07  THRGPS  =  0.00D+00  THRKEX  =  0.00D+00  THRDIS  =  2.00D-01  THRVAR  =  1.00D-10
 THRLOC  =  1.00D-06  THRGAP  =  1.00D-06  THRLOCT = -1.00D+00  THRGAPT = -1.00D+00  THRORB  =  1.00D-06  THRMLTP =  0.00D+00
 THRCPQCI=  1.00D-10  KEXTA   =  0.00D+00  THRCOARS=  0.00D+00  SYMTOL  =  1.00D-06  GRADTOL =  1.00D-06  THROVL  =  1.00D-08
 THRORTH =  1.00D-08  GRID    =  1.00D-06  GRIDMAX =  1.00D-03  DTMAX   =  0.00D+00  THROCCDE=  1.00D-01  THROCCDE=  1.00D-01



 THRESHOLDS:

 ZERO    =  1.00D-22  ONEINT  =  1.00D-22  TWOINT  =  1.00D-22  PREFAC  =  1.00D-14  LOCALI  =  1.00D-09  EORDER  =  1.00D-04
 ENERGY  =  1.00D-12  ETEST   =  0.00D+00  EDENS   =  0.00D+00  THRDEDEF=  1.00D-06  GRADIENT=  1.00D-02  STEP    =  1.00D-03
 ORBITAL =  1.00D-05  CIVEC   =  1.00D-05  COEFF   =  1.00D-04  PRINTCI =  5.00D-02  PUNCHCI =  9.90D+01  OPTGRAD =  1.00D-08
 OPTENERG=  1.00D-06  OPTSTEP =  1.00D-08  THRGRAD =  1.00D-10  COMPRESS=  1.00D-11  VARMIN  =  1.00D-07  VARMAX  =  1.00D-03
 THRDOUB =  0.00D+00  THRDIV  =  1.00D-05  THRRED  =  1.00D-07  THRPSP  =  1.00D+00  THRDC   =  1.00D-10  THRCS   =  1.00D-10
 THRNRM  =  1.00D-08  THREQ   =  0.00D+00  THRDE   =  1.00D+00  THRREF  =  1.00D-05  SPARFAC =  1.00D+00  THRDLP  =  1.00D-07
 THRDIA  =  1.00D-10  THRDLS  =  1.00D-07  THRGPS  =  0.00D+00  THRKEX  =  0.00D+00  THRDIS  =  2.00D-01  THRVAR  =  1.00D-10
 THRLOC  =  1.00D-06  THRGAP  =  1.00D-06  THRLOCT = -1.00D+00  THRGAPT = -1.00D+00  THRORB  =  1.00D-06  THRMLTP =  0.00D+00
 THRCPQCI=  1.00D-10  KEXTA   =  0.00D+00  THRCOARS=  0.00D+00  SYMTOL  =  1.00D-06  GRADTOL =  1.00D-06  THROVL  =  1.00D-08
 THRORTH =  1.00D-08  GRID    =  1.00D-06  GRIDMAX =  1.00D-03  DTMAX   =  0.00D+00  THROCCDE=  1.00D-01  THROCCDE=  1.00D-01



 Input parameters for SORTINT:

 COMPRESS =    0.000000
 C_FINAL  =    1.000000
 DEBUG    =   -1.000000
 C_SORT1  =    0.000000
 C_SEWARD =    0.000000
 THRESH   =    0.000000
 IO       =  molpro                                                          
 SPRI     =    0.000000
 SETTING GEOMTYP        =    XYZ
 ZUNIT=BOHR
 

 Variable memory set to  995000000 words,  buffer space   230000 words

 SETTING BASIS          =    USERDEF


 Recomputing integrals since basis changed


 Using spherical harmonics

 Library entry H      S aug-cc-pVTZ          selected for orbital group  2
 Library entry H      P aug-cc-pVTZ          selected for orbital group  2
 Library entry H      D aug-cc-pVTZ          selected for orbital group  2


 PROGRAM * SEWARD (Integral evaluation for generally contracted gaussian basis sets)     Author: Roland Lindh, 1990

 Geometry written to block  1 of record 700


 Point group  Cs  



 ATOMIC COORDINATES

 NR  ATOM    CHARGE       X              Y              Z

   1  N       7.00    0.000000000   -0.156535824   -1.133938703
   2  H       1.00    0.000000000    1.664977175   -1.930467681
   3  O       8.00    0.000000000    0.033326439    1.113816793

 Bond lengths in Bohr (Angstrom)

 1-2  1.988056342  1-3  2.255759839
     ( 1.052034110)     ( 1.193696700)

 Bond angles

  2-1-3  108.79109639

 NUCLEAR CHARGE:                   16
 NUMBER OF PRIMITIVE AOS:         203
 NUMBER OF SYMMETRY AOS:          173
 NUMBER OF CONTRACTIONS:          171   ( 114A'  +  57A"  )
 NUMBER OF CORE ORBITALS:           2   (   2A'  +   0A"  )
 NUMBER OF VALENCE ORBITALS:        9   (   7A'  +   2A"  )


 NUCLEAR REPULSION ENERGY   30.66253587


 Eigenvalues of metric

         1 0.102E-02 0.237E-02 0.327E-02 0.629E-02 0.984E-02 0.136E-01 0.143E-01 0.228E-01
         2 0.362E-01 0.509E-01 0.689E-01 0.940E-01 0.130E+00 0.134E+00 0.140E+00 0.142E+00


 Contracted 2-electron integrals neglected if value below      1.0D-22

       46271049. INTEGRALS WRITTEN OUT IN   11300 BLOCKS ON RECORD 1290 OF FILE 1


 NUMBER OF SORTED TWO-ELECTRON INTEGRALS:   55360566.     BUFFER LENGTH:  32768
 NUMBER OF SEGMENTS:   4  SEGMENT LENGTH:   15997996      RECORD LENGTH: 524288

 Memory used in sort:      16.56 MW

 SORT1 READ    46271049. AND WROTE    46709766. INTEGRALS IN    136 RECORDS. CPU TIME:     0.71 SEC, REAL TIME:     1.00 SEC
 SORT2 READ    46709766. AND WROTE    55360566. INTEGRALS IN      4 RECORDS. CPU TIME:     0.66 SEC, REAL TIME:     0.83 SEC

 FILE SIZES:   FILE 1:   761.3 MBYTE,  FILE 4:   570.5 MBYTE,   TOTAL:   1331.7 MBYTE

 OPERATOR DM      FOR CENTER  0  COORDINATES:    0.000000    0.000000    0.000000


 **********************************************************************************************************************************
 DATASETS  * FILE   NREC   LENGTH (MB)   RECORD NAMES
              1      19      422.06       500      610      700      900      950      970     1000      129      960     1100   
                                          VAR    BASINP    GEOM    SYMINP    ZMAT    AOBASIS   BASIS     P2S    ABASIS      S 
                                         1400     1410     1200     1210     1080     1600     1650     1300     1700   
                                           T        V       H0       H01     AOSYM     SMH    MOLCAS    ERIS     OPER   

 PROGRAMS   *        TOTAL       INT
 CPU TIMES  *         4.05      3.97
 REAL TIME  *         5.48 SEC
 DISK USED  *         1.33 GB      
 **********************************************************************************************************************************


 PROGRAM * RHF-SCF (CLOSED SHELL)       Authors: W. Meyer, H.-J. Werner


 NUMBER OF ELECTRONS:       8+    8-
 CONVERGENCE THRESHOLDS:    1.00E-10 (Density)    1.00E-13 (Energy)
 MAX. NUMBER OF ITERATIONS:      500
 INTERPOLATION TYPE:            DIIS
 INTERPOLATION STEPS:              2 (START)      1 (STEP)
 LEVEL SHIFTS:                  0.00 (CLOSED)  0.00 (OPEN) 



 Orbital guess generated from atomic densities. Full valence occupancy:    9   2

 Molecular orbital dump at record        2100.2

 Initial occupancy:   7   1

 ITERATION    DDIFF          GRAD             ENERGY        2-EL.EN.            DIPOLE MOMENTS         DIIS   ORB.
    1      0.000D+00      0.000D+00      -129.79305166    154.583170    0.00000    0.56788   -0.96937    0    start
    2      0.000D+00      0.864D-02      -129.82031182    155.786122    0.00000    0.58805   -0.20494    1    diag
    3      0.357D-02      0.635D-02      -129.84077968    155.875943    0.00000    0.54172   -0.56476    2    diag
    4      0.136D-02      0.102D-02      -129.84153396    155.611762    0.00000    0.54987   -0.50477    3    diag
    5      0.326D-03      0.330D-03      -129.84164886    155.698738    0.00000    0.55594   -0.50750    4    diag
    6      0.151D-03      0.965D-04      -129.84166748    155.682856    0.00000    0.55659   -0.50364    5    diag
    7      0.602D-04      0.477D-04      -129.84167275    155.685538    0.00000    0.55796   -0.50134    6    diag
    8      0.404D-04      0.157D-04      -129.84167325    155.684779    0.00000    0.55803   -0.50053    7    diag
    9      0.130D-04      0.288D-05      -129.84167328    155.684677    0.00000    0.55798   -0.50036    8    diag
   10      0.255D-05      0.680D-06      -129.84167328    155.684664    0.00000    0.55795   -0.50034    9    orth
   11      0.816D-06      0.138D-06      -129.84167328    155.684659    0.00000    0.55794   -0.50033    9    diag
   12      0.198D-06      0.278D-07      -129.84167328    155.684659    0.00000    0.55794   -0.50033    9    diag
   13      0.479D-07      0.721D-08      -129.84167328    155.684658    0.00000    0.55794   -0.50033    9    diag
   14      0.109D-07      0.132D-08      -129.84167328    155.684658    0.00000    0.55794   -0.50033    9    diag
   15      0.153D-08      0.372D-09      -129.84167328    155.684658    0.00000    0.55794   -0.50033    9    diag
   16      0.336D-09      0.117D-09      -129.84167328    155.684658    0.00000    0.55794   -0.50033    9    diag
   17      0.928D-10      0.343D-10      -129.84167328    155.684658    0.00000    0.55794   -0.50033    0    orth

 Final occupancy:   7   1

 !RHF STATE 1.1 Energy               -129.841673276683
 Nuclear energy                        30.66253587
 One-electron energy                 -238.34653835
 Two-electron energy                   77.84232921
 Virial quotient                       -1.00120884
 !RHF STATE 1.1 Dipole moment           0.00000000     0.55793628    -0.50033191
 Dipole moment /Debye                   0.00000000     1.41803968    -1.27163358

 Orbital energies:

         1.1          2.1          3.1          4.1          5.1          6.1          7.1          8.1          9.1
    -20.650102   -15.708098    -1.539626    -0.989997    -0.749601    -0.668536    -0.423939     0.039874     0.193516

         1.2          2.2          3.2
     -0.601041     0.083960     0.240100

 HOMO      7.1    -0.423939 =     -11.5360eV
 LUMO      8.1     0.039874 =       1.0850eV
 LUMO-HOMO         0.463813 =      12.6210eV


 **********************************************************************************************************************************
 DATASETS  * FILE   NREC   LENGTH (MB)   RECORD NAMES
              1      19      422.06       500      610      700      900      950      970     1000      129      960     1100   
                                          VAR    BASINP    GEOM    SYMINP    ZMAT    AOBASIS   BASIS     P2S    ABASIS      S 
                                         1400     1410     1200     1210     1080     1600     1650     1300     1700   
                                           T        V       H0       H01     AOSYM     SMH    MOLCAS    ERIS     OPER   

              2       4        3.13       700     1000      520     2100   
                                         GEOM     BASIS   MCVARS     RHF  

 PROGRAMS   *        TOTAL        HF       INT
 CPU TIMES  *         8.25      4.21      3.97
 REAL TIME  *        10.55 SEC
 DISK USED  *         1.33 GB      
 **********************************************************************************************************************************


 PROGRAM * CCSD (Closed-shell coupled cluster)     Authors: C. Hampel, H.-J. Werner, 1991, M. Deegan, P.J. Knowles, 1992


 Convergence thresholds:  THRVAR = 1.00D-08  THRDEN = 1.00D-12

 CCSD(T)     terms to be evaluated (factor= 1.000)


 Number of core orbitals:           2 (   2   0 )
 Number of closed-shell orbitals:   6 (   5   1 )
 Number of external orbitals:     163 ( 107  56 )

 Molecular orbitals read from record     2100.2  Type=RHF/CANONICAL (state 1.1)

 Number of N-1 electron functions:               6
 Number of N-2 electron functions:              21
 Number of singly external CSFs:               591
 Number of doubly external CSFs:            250014
 Total number of CSFs:                      250606

 Length of J-op  integral file:               0.00 MB
 Length of K-op  integral file:               1.15 MB
 Length of 3-ext integral record:             0.00 MB

 Memory could be reduced to 19.93 Mwords without degradation in triples

 Integral transformation finished. Total CPU:   0.65 sec, npass=  1  Memory used:   5.10 MW

 Reference energy:                   -129.84167328

 MP2 singlet pair energy:              -0.28544727
 MP2 triplet pair energy:              -0.16624614
 MP2 correlation energy:               -0.45169341
 MP2 total energy:                   -130.29336669

 SCS-MP2 correlation energy:           -0.44597877   (PS=  1.200000  PT=  0.333333)
 SCS-MP2 total energy:               -130.28765205

 ITER.      SQ.NORM     CORR.ENERGY   TOTAL ENERGY   ENERGY CHANGE        DEN1      VAR(S)    VAR(P)  DIIS     TIME  TIME/IT
   1      1.11729895    -0.45435121  -130.29602448    -0.00265780     0.01351187  0.30D-02  0.29D-02  1  1     1.23     0.63
   2      1.12747951    -0.45438207  -130.29605535    -0.00003086    -0.01216053  0.11D-03  0.48D-03  2  2     1.83     0.65
   3      1.13377334    -0.45473705  -130.29641032    -0.00035498    -0.00327787  0.41D-04  0.54D-04  3  3     2.44     0.65
   4      1.13648625    -0.45476722  -130.29644050    -0.00003018    -0.00090366  0.41D-05  0.91D-05  4  4     3.01     0.65
   5      1.13748443    -0.45479701  -130.29647028    -0.00002978    -0.00020355  0.13D-05  0.17D-05  5  5     3.62     0.66
   6      1.13786088    -0.45478270  -130.29645598     0.00001430    -0.00006198  0.12D-06  0.42D-06  6  6     4.24     0.66
   7      1.13793524    -0.45478406  -130.29645734    -0.00000136     0.00000753  0.18D-07  0.89D-07  6  1     4.84     0.67
   8      1.13796922    -0.45478380  -130.29645708     0.00000026    -0.00000428  0.50D-08  0.13D-07  6  2     5.44     0.67
   9      1.13797475    -0.45478369  -130.29645697     0.00000011     0.00000065  0.21D-08  0.14D-08  6  3     6.03     0.67
  10      1.13797496    -0.45478401  -130.29645729    -0.00000032    -0.00000012  0.46D-09  0.22D-09  6  4     6.61     0.67
  11      1.13797347    -0.45478414  -130.29645742    -0.00000013     0.00000034  0.11D-09  0.23D-10  6  5     7.20     0.67
  12      1.13797235    -0.45478428  -130.29645755    -0.00000014     0.00000045  0.15D-10  0.68D-11  6  6     7.82     0.67
  13      1.13797174    -0.45478430  -130.29645757    -0.00000002     0.00000012  0.58D-11  0.12D-11  6  1     8.40     0.67
  14      1.13797125    -0.45478432  -130.29645760    -0.00000003     0.00000011  0.55D-12  0.40D-12  6  3     8.99     0.67
  15      1.13797110    -0.45478432  -130.29645760    -0.00000000     0.00000001  0.13D-12  0.27D-13  6  2     9.56     0.67
  16      1.13797106    -0.45478432  -130.29645760    -0.00000000     0.00000001  0.30D-13  0.69D-14  6  4    10.16     0.67
  17      1.13797104    -0.45478432  -130.29645760    -0.00000000     0.00000001  0.35D-14  0.11D-14  6  5    10.76     0.67
  18      1.13797104    -0.45478432  -130.29645760     0.00000000    -0.00000000  0.38D-15  0.28D-15  6  6    11.34     0.67
  19      1.13797105    -0.45478432  -130.29645760     0.00000000    -0.00000000  0.49D-16  0.31D-16  6  1    11.94     0.67
  20      1.13797105    -0.45478432  -130.29645760     0.00000000    -0.00000000  0.27D-17  0.65D-17  6  3    12.54     0.67
  21      1.13797105    -0.45478432  -130.29645760     0.00000000    -0.00000000  0.44D-18  0.13D-17  6  4    13.14     0.67
  22      1.13797105    -0.45478432  -130.29645760     0.00000000    -0.00000000  0.17D-19  0.44D-18  6  2    13.75     0.67
  23      1.13797105    -0.45478432  -130.29645760    -0.00000000     0.00000000  0.26D-19  0.10D-18  6  5    14.33     0.67
  24      1.13797105    -0.45478432  -130.29645760    -0.00000000     0.00000000  0.41D-20  0.96D-20  6  1    14.95     0.67
  25      1.13797105    -0.45478432  -130.29645760     0.00000000    -0.00000000  0.15D-20  0.63D-21  6  6    15.53     0.67

 Norm of t1 vector:      0.07521074      S-energy:     0.00000000      T1 diagnostic:  0.01535233
                                                                       D1 diagnostic:  0.04123670

 Doubles amplitudes (print threshold =  0.500E-01):

         I         J         SYM. A    SYM. B    A         B      T(IJ, AB)

         6         6         2         2         1         1     -0.13100917


 Total CPU time for triples:      6.66 sec


 RESULTS
 =======

  Reference energy                   -129.841673276683
  CCSD singlet pair energy             -0.312014557590
  CCSD triplet pair energy             -0.142769765892
  CCSD correlation energy              -0.454784323476

  Triples (T) contribution             -0.020773299130
  Total correlation energy             -0.475557622606

  CCSD total energy                  -130.296457600160
  CCSD[T] energy                     -130.318269240518
  CCSD-T energy                      -130.316832040705
 !CCSD(T) total energy               -130.317230899290

 Timing summary (sec):

 STEP                 CPU(USER)    SYS     CPU(TOT)    WALL
 Transformation          0.66      0.15      0.81      0.80
 CCSD iterations        14.87      1.82     16.69     16.70
 Triples                 6.66      0.23      6.89      6.89

 Program statistics:

 Available memory in ccsd:               994999756
 Min. memory needed in ccsd:                887758
 Max. memory used in ccsd:                 1088212
 Max. memory used in cckext:               1535578 (25 integral passes)



 **********************************************************************************************************************************
 DATASETS  * FILE   NREC   LENGTH (MB)   RECORD NAMES
              1      20      480.02       500      610      700      900      950      970     1000      129      960     1100   
                                          VAR    BASINP    GEOM    SYMINP    ZMAT    AOBASIS   BASIS     P2S    ABASIS      S 
                                         1400     1410     1200     1210     1080     1600     1650     1300     1700     1380   
                                           T        V       H0       H01     AOSYM     SMH    MOLCAS    ERIS     OPER     JKOP   

              2       4        3.13       700     1000      520     2100   
                                         GEOM     BASIS   MCVARS     RHF  

 PROGRAMS   *        TOTAL   CCSD(T)        HF       INT
 CPU TIMES  *        30.48     22.23      4.21      3.97
 REAL TIME  *        35.04 SEC
 DISK USED  *         1.33 GB      
 **********************************************************************************************************************************

 CCSD(T)/USERDEF energy=   -130.317230899290

        CCSD(T)         HF-SCF  
   -130.31723090   -129.84167328
 **********************************************************************************************************************************
 Molpro calculation terminated
 Variable memory released
