
 Primary working directories    : /tmp/r2666/235337.maple
 Secondary working directories  : /tmp/r2666/235337.maple
 Wavefunction directory         : /ddn/home4/r2666/wfu/
 Main file repository           : /tmp/r2666/235337.maple/

 SHA1      : d5ffa45e93fdbca01ffc919aa182cfdae0147319
 NAME      : 2015.1.35
 ARCHNAME  : linux/x86_64
 FC        : /opt/intel/composer_xe_2015.1.133/bin/intel64/ifort
 BLASLIB   : -Wl,-_start-group /opt/intel/mkl/lib/intel64/libmkl_intel_ilp64.a /opt/intel/mkl/lib/intel64/libmkl_intel_thread.a /opt/intel/mkl/lib/intel64/libmkl_core.a -Wl,-_end-group
 id        : olemiss

 Nodes     nprocs
 cn092        1

 Using customized tuning parameters: mindgm=1; mindgv=20; mindgc=4; mindgr=1; noblas=0; minvec=7
 default implementation of scratch files=df  

 ***,hno CCSD(T)/TZ-F12 QFF
 memory, 995, m;
 gthresh,energy=1.d-12,zero=1.d-22,oneint=1.d-22,twoint=1.d-22;
 gthresh,optgrad=1.d-8,optstep=1.d-8;
 nocompress;
 geomtyp=xyz
 bohr
 geometry={
 3
         63        63
 N        0.0000000000       -0.1523639759       -1.1306686812
 H        0.0000000000        1.6651666753       -1.9362432286
 O        0.0000000000        0.0289650906        1.1163223188
 }
 
 basis={
 default=aug-cc-pvtz
 s,C,8236.0,1235.0,280.8, 79.27,25.59, 8.997,3.319
 s,C,0.9059,0.3643,0.1285000
 p,C,56.0,18.71,4.133,0.2827,0.3827,0.1209
 d,C,30.0,10.0,3.3,1.097,0.318
 f,C,7.0,2.3,0.7610
 s,N,11420.0,1712.0,389.3,110.0,35.57,12.54,4.644
 s,N,1.293,0.5118,0.1787
 p,N,79.89,26.63,5.948,1.742,0.555,0.1725
 d,N,45.0,15.0,5.0,1.654,0.469
 f,N,9.9,3.3,1.093
 s,O,15330.0,2299.0,522.4,147.3,47.55,16.76,6.207
 s,O,1.752,0.6882,0.2384
 p,O,103.5,34.46,7.749,2.28,0.7156,0.214
 d,O,63.0,21.0,7.0,2.314,0.645
 f,O,12.9,4.3,1.428
 s,mg,164900.0,24710.0,5628.0,1596.0,521.0;
 s,mg,188.0,73.01,29.90,12.54,4.306,1.826;
 s,mg,0.7417,0.0761,0.145,0.033,0.0129;
 p,mg,950.70,316.90,74.86,23.72,8.669,3.363;
 p,mg,1.310,0.4911,0.2364,0.08733,0.03237,0.00745;
 d,mg,1.601,0.686,0.126,0.294,0.0468;
 f,mg,1.372,0.588,0.094,0.252;
 }
   {hf,maxit=500;accu,20;}
 {ccsd(t),nocheck,maxit=250;orbital,IGNORE_ERROR;}

 Variables initialized (889), CPU time= 0.00 sec
 Commands  initialized (702), CPU time= 0.01 sec, 572 directives.
 Default parameters read. Elapsed time= 0.04 sec

 Checking input...
 Passed
1


                                         ***  PROGRAM SYSTEM MOLPRO  ***
                                       Copyright, TTI GmbH Stuttgart, 2015
                                    Version 2015.1 linked Jul  9 2018 13:16:40


 **********************************************************************************************************************************
 LABEL *   hno CCSD(T)/TZ-F12 QFF                                                        
  64 bit serial version                                                                  DATE: 08-Feb-20          TIME: 17:58:11  
 **********************************************************************************************************************************

 SHA1:             d5ffa45e93fdbca01ffc919aa182cfdae0147319
 **********************************************************************************************************************************

 THRESHOLDS:

 ZERO    =  1.00D-22  ONEINT  =  1.00D-22  TWOINT  =  1.00D-22  PREFAC  =  1.00D-14  LOCALI  =  1.00D-09  EORDER  =  1.00D-04
 ENERGY  =  1.00D-12  ETEST   =  0.00D+00  EDENS   =  0.00D+00  THRDEDEF=  1.00D-06  GRADIENT=  1.00D-02  STEP    =  1.00D-03
 ORBITAL =  1.00D-05  CIVEC   =  1.00D-05  COEFF   =  1.00D-04  PRINTCI =  5.00D-02  PUNCHCI =  9.90D+01  OPTGRAD =  3.00D-04
 OPTENERG=  1.00D-06  OPTSTEP =  3.00D-04  THRGRAD =  1.00D-10  COMPRESS=  1.00D-11  VARMIN  =  1.00D-07  VARMAX  =  1.00D-03
 THRDOUB =  0.00D+00  THRDIV  =  1.00D-05  THRRED  =  1.00D-07  THRPSP  =  1.00D+00  THRDC   =  1.00D-10  THRCS   =  1.00D-10
 THRNRM  =  1.00D-08  THREQ   =  0.00D+00  THRDE   =  1.00D+00  THRREF  =  1.00D-05  SPARFAC =  1.00D+00  THRDLP  =  1.00D-07
 THRDIA  =  1.00D-10  THRDLS  =  1.00D-07  THRGPS  =  0.00D+00  THRKEX  =  0.00D+00  THRDIS  =  2.00D-01  THRVAR  =  1.00D-10
 THRLOC  =  1.00D-06  THRGAP  =  1.00D-06  THRLOCT = -1.00D+00  THRGAPT = -1.00D+00  THRORB  =  1.00D-06  THRMLTP =  0.00D+00
 THRCPQCI=  1.00D-10  KEXTA   =  0.00D+00  THRCOARS=  0.00D+00  SYMTOL  =  1.00D-06  GRADTOL =  1.00D-06  THROVL  =  1.00D-08
 THRORTH =  1.00D-08  GRID    =  1.00D-06  GRIDMAX =  1.00D-03  DTMAX   =  0.00D+00  THROCCDE=  1.00D-01  THROCCDE=  1.00D-01



 THRESHOLDS:

 ZERO    =  1.00D-22  ONEINT  =  1.00D-22  TWOINT  =  1.00D-22  PREFAC  =  1.00D-14  LOCALI  =  1.00D-09  EORDER  =  1.00D-04
 ENERGY  =  1.00D-12  ETEST   =  0.00D+00  EDENS   =  0.00D+00  THRDEDEF=  1.00D-06  GRADIENT=  1.00D-02  STEP    =  1.00D-03
 ORBITAL =  1.00D-05  CIVEC   =  1.00D-05  COEFF   =  1.00D-04  PRINTCI =  5.00D-02  PUNCHCI =  9.90D+01  OPTGRAD =  1.00D-08
 OPTENERG=  1.00D-06  OPTSTEP =  1.00D-08  THRGRAD =  1.00D-10  COMPRESS=  1.00D-11  VARMIN  =  1.00D-07  VARMAX  =  1.00D-03
 THRDOUB =  0.00D+00  THRDIV  =  1.00D-05  THRRED  =  1.00D-07  THRPSP  =  1.00D+00  THRDC   =  1.00D-10  THRCS   =  1.00D-10
 THRNRM  =  1.00D-08  THREQ   =  0.00D+00  THRDE   =  1.00D+00  THRREF  =  1.00D-05  SPARFAC =  1.00D+00  THRDLP  =  1.00D-07
 THRDIA  =  1.00D-10  THRDLS  =  1.00D-07  THRGPS  =  0.00D+00  THRKEX  =  0.00D+00  THRDIS  =  2.00D-01  THRVAR  =  1.00D-10
 THRLOC  =  1.00D-06  THRGAP  =  1.00D-06  THRLOCT = -1.00D+00  THRGAPT = -1.00D+00  THRORB  =  1.00D-06  THRMLTP =  0.00D+00
 THRCPQCI=  1.00D-10  KEXTA   =  0.00D+00  THRCOARS=  0.00D+00  SYMTOL  =  1.00D-06  GRADTOL =  1.00D-06  THROVL  =  1.00D-08
 THRORTH =  1.00D-08  GRID    =  1.00D-06  GRIDMAX =  1.00D-03  DTMAX   =  0.00D+00  THROCCDE=  1.00D-01  THROCCDE=  1.00D-01



 Input parameters for SORTINT:

 COMPRESS =    0.000000
 C_FINAL  =    1.000000
 DEBUG    =   -1.000000
 C_SORT1  =    0.000000
 C_SEWARD =    0.000000
 THRESH   =    0.000000
 IO       =  molpro                                                          
 SPRI     =    0.000000
 SETTING GEOMTYP        =    XYZ
 ZUNIT=BOHR
 

 Variable memory set to  995000000 words,  buffer space   230000 words

 SETTING BASIS          =    USERDEF


 Recomputing integrals since basis changed


 Using spherical harmonics

 Library entry H      S aug-cc-pVTZ          selected for orbital group  2
 Library entry H      P aug-cc-pVTZ          selected for orbital group  2
 Library entry H      D aug-cc-pVTZ          selected for orbital group  2


 PROGRAM * SEWARD (Integral evaluation for generally contracted gaussian basis sets)     Author: Roland Lindh, 1990

 Geometry written to block  1 of record 700


 Point group  Cs  



 ATOMIC COORDINATES

 NR  ATOM    CHARGE       X              Y              Z

   1  N       7.00    0.000000000   -0.152363976   -1.130668681
   2  H       1.00    0.000000000    1.665166675   -1.936243229
   3  O       8.00    0.000000000    0.028965091    1.116322319

 Bond lengths in Bohr (Angstrom)

 1-2  1.988056342  1-3  2.254295629
     ( 1.052034110)     ( 1.192921874)

 Bond angles

  2-1-3  109.29041350

 NUCLEAR CHARGE:                   16
 NUMBER OF PRIMITIVE AOS:         203
 NUMBER OF SYMMETRY AOS:          173
 NUMBER OF CONTRACTIONS:          171   ( 114A'  +  57A"  )
 NUMBER OF CORE ORBITALS:           2   (   2A'  +   0A"  )
 NUMBER OF VALENCE ORBITALS:        9   (   7A'  +   2A"  )


 NUCLEAR REPULSION ENERGY   30.67234163


 Eigenvalues of metric

         1 0.101E-02 0.236E-02 0.327E-02 0.629E-02 0.983E-02 0.136E-01 0.143E-01 0.228E-01
         2 0.361E-01 0.508E-01 0.687E-01 0.940E-01 0.130E+00 0.134E+00 0.140E+00 0.142E+00


 Contracted 2-electron integrals neglected if value below      1.0D-22

       46276571. INTEGRALS WRITTEN OUT IN   11301 BLOCKS ON RECORD 1290 OF FILE 1


 NUMBER OF SORTED TWO-ELECTRON INTEGRALS:   55360566.     BUFFER LENGTH:  32768
 NUMBER OF SEGMENTS:   4  SEGMENT LENGTH:   15997996      RECORD LENGTH: 524288

 Memory used in sort:      16.56 MW

 SORT1 READ    46276571. AND WROTE    46715289. INTEGRALS IN    136 RECORDS. CPU TIME:     0.80 SEC, REAL TIME:     1.06 SEC
 SORT2 READ    46715289. AND WROTE    55360566. INTEGRALS IN      4 RECORDS. CPU TIME:     0.65 SEC, REAL TIME:     0.85 SEC

 FILE SIZES:   FILE 1:   761.4 MBYTE,  FILE 4:   570.5 MBYTE,   TOTAL:   1331.8 MBYTE

 OPERATOR DM      FOR CENTER  0  COORDINATES:    0.000000    0.000000    0.000000


 **********************************************************************************************************************************
 DATASETS  * FILE   NREC   LENGTH (MB)   RECORD NAMES
              1      19      422.10       500      610      700      900      950      970     1000      129      960     1100   
                                          VAR    BASINP    GEOM    SYMINP    ZMAT    AOBASIS   BASIS     P2S    ABASIS      S 
                                         1400     1410     1200     1210     1080     1600     1650     1300     1700   
                                           T        V       H0       H01     AOSYM     SMH    MOLCAS    ERIS     OPER   

 PROGRAMS   *        TOTAL       INT
 CPU TIMES  *         4.24      4.17
 REAL TIME  *         5.69 SEC
 DISK USED  *         1.33 GB      
 **********************************************************************************************************************************


 PROGRAM * RHF-SCF (CLOSED SHELL)       Authors: W. Meyer, H.-J. Werner


 NUMBER OF ELECTRONS:       8+    8-
 CONVERGENCE THRESHOLDS:    1.00E-10 (Density)    1.00E-13 (Energy)
 MAX. NUMBER OF ITERATIONS:      500
 INTERPOLATION TYPE:            DIIS
 INTERPOLATION STEPS:              2 (START)      1 (STEP)
 LEVEL SHIFTS:                  0.00 (CLOSED)  0.00 (OPEN) 



 Orbital guess generated from atomic densities. Full valence occupancy:    9   2

 Molecular orbital dump at record        2100.2

 Initial occupancy:   7   1

 ITERATION    DDIFF          GRAD             ENERGY        2-EL.EN.            DIPOLE MOMENTS         DIIS   ORB.
    1      0.000D+00      0.000D+00      -129.79325897    154.598621    0.00000    0.57171   -0.96802    0    start
    2      0.000D+00      0.863D-02      -129.82052060    155.805077    0.00000    0.58739   -0.20725    1    diag
    3      0.357D-02      0.633D-02      -129.84083173    155.892756    0.00000    0.54327   -0.56550    2    diag
    4      0.135D-02      0.102D-02      -129.84158555    155.628964    0.00000    0.55120   -0.50551    3    diag
    5      0.326D-03      0.329D-03      -129.84170000    155.716008    0.00000    0.55731   -0.50829    4    diag
    6      0.151D-03      0.962D-04      -129.84171852    155.700145    0.00000    0.55798   -0.50444    5    diag
    7      0.602D-04      0.475D-04      -129.84172375    155.702833    0.00000    0.55936   -0.50216    6    diag
    8      0.403D-04      0.156D-04      -129.84172425    155.702081    0.00000    0.55942   -0.50136    7    diag
    9      0.130D-04      0.287D-05      -129.84172427    155.701980    0.00000    0.55938   -0.50119    8    diag
   10      0.253D-05      0.681D-06      -129.84172427    155.701966    0.00000    0.55934   -0.50117    9    orth
   11      0.815D-06      0.138D-06      -129.84172427    155.701962    0.00000    0.55933   -0.50116    9    diag
   12      0.198D-06      0.277D-07      -129.84172427    155.701961    0.00000    0.55933   -0.50116    9    diag
   13      0.477D-07      0.717D-08      -129.84172427    155.701960    0.00000    0.55933   -0.50116    9    diag
   14      0.108D-07      0.131D-08      -129.84172427    155.701960    0.00000    0.55933   -0.50116    9    diag
   15      0.153D-08      0.370D-09      -129.84172427    155.701960    0.00000    0.55933   -0.50116    9    diag
   16      0.335D-09      0.116D-09      -129.84172427    155.701960    0.00000    0.55933   -0.50116    9    diag
   17      0.922D-10      0.340D-10      -129.84172427    155.701960    0.00000    0.55933   -0.50116    9    diag
   18      0.311D-10      0.108D-10      -129.84172427    155.701960    0.00000    0.55933   -0.50116    9    diag
   19      0.110D-10      0.265D-11      -129.84172427    155.701960    0.00000    0.55933   -0.50116    0    orth

 Final occupancy:   7   1

 !RHF STATE 1.1 Energy               -129.841724274790
 Nuclear energy                        30.67234163
 One-electron energy                 -238.36504611
 Two-electron energy                   77.85098021
 Virial quotient                       -1.00119805
 !RHF STATE 1.1 Dipole moment           0.00000000     0.55933053    -0.50116036
 Dipole moment /Debye                   0.00000000     1.42158329    -1.27373914

 Orbital energies:

         1.1          2.1          3.1          4.1          5.1          6.1          7.1          8.1          9.1
    -20.650152   -15.707869    -1.540026    -0.990122    -0.749808    -0.668873    -0.423337     0.039836     0.193519

         1.2          2.2          3.2
     -0.601356     0.084110     0.240188

 HOMO      7.1    -0.423337 =     -11.5196eV
 LUMO      8.1     0.039836 =       1.0840eV
 LUMO-HOMO         0.463173 =      12.6036eV


 **********************************************************************************************************************************
 DATASETS  * FILE   NREC   LENGTH (MB)   RECORD NAMES
              1      19      422.10       500      610      700      900      950      970     1000      129      960     1100   
                                          VAR    BASINP    GEOM    SYMINP    ZMAT    AOBASIS   BASIS     P2S    ABASIS      S 
                                         1400     1410     1200     1210     1080     1600     1650     1300     1700   
                                           T        V       H0       H01     AOSYM     SMH    MOLCAS    ERIS     OPER   

              2       4        3.13       700     1000      520     2100   
                                         GEOM     BASIS   MCVARS     RHF  

 PROGRAMS   *        TOTAL        HF       INT
 CPU TIMES  *         9.05      4.81      4.17
 REAL TIME  *        11.49 SEC
 DISK USED  *         1.33 GB      
 **********************************************************************************************************************************


 PROGRAM * CCSD (Closed-shell coupled cluster)     Authors: C. Hampel, H.-J. Werner, 1991, M. Deegan, P.J. Knowles, 1992


 Convergence thresholds:  THRVAR = 1.00D-08  THRDEN = 1.00D-12

 CCSD(T)     terms to be evaluated (factor= 1.000)


 Number of core orbitals:           2 (   2   0 )
 Number of closed-shell orbitals:   6 (   5   1 )
 Number of external orbitals:     163 ( 107  56 )

 Molecular orbitals read from record     2100.2  Type=RHF/CANONICAL (state 1.1)

 Number of N-1 electron functions:               6
 Number of N-2 electron functions:              21
 Number of singly external CSFs:               591
 Number of doubly external CSFs:            250014
 Total number of CSFs:                      250606

 Length of J-op  integral file:               0.00 MB
 Length of K-op  integral file:               1.15 MB
 Length of 3-ext integral record:             0.00 MB

 Memory could be reduced to 19.93 Mwords without degradation in triples

 Integral transformation finished. Total CPU:   0.72 sec, npass=  1  Memory used:   5.10 MW

 Reference energy:                   -129.84172427

 MP2 singlet pair energy:              -0.28537170
 MP2 triplet pair energy:              -0.16619847
 MP2 correlation energy:               -0.45157017
 MP2 total energy:                   -130.29329445

 SCS-MP2 correlation energy:           -0.44585842   (PS=  1.200000  PT=  0.333333)
 SCS-MP2 total energy:               -130.28758270

 ITER.      SQ.NORM     CORR.ENERGY   TOTAL ENERGY   ENERGY CHANGE        DEN1      VAR(S)    VAR(P)  DIIS     TIME  TIME/IT
   1      1.11723038    -0.45425480  -130.29597908    -0.00268463     0.01346405  0.30D-02  0.29D-02  1  1     1.33     0.66
   2      1.12740106    -0.45428967  -130.29601394    -0.00003486    -0.01214759  0.11D-03  0.48D-03  2  2     1.96     0.68
   3      1.13369001    -0.45464489  -130.29636916    -0.00035522    -0.00327399  0.42D-04  0.54D-04  3  3     2.58     0.69
   4      1.13640160    -0.45467473  -130.29639901    -0.00002984    -0.00090319  0.41D-05  0.92D-05  4  4     3.23     0.69
   5      1.13740190    -0.45470455  -130.29642882    -0.00002982    -0.00020355  0.13D-05  0.17D-05  5  5     3.84     0.69
   6      1.13778053    -0.45469026  -130.29641454     0.00001429    -0.00006219  0.12D-06  0.43D-06  6  6     4.49     0.69
   7      1.13785598    -0.45469161  -130.29641589    -0.00000135     0.00000746  0.18D-07  0.89D-07  6  1     5.07     0.69
   8      1.13789021    -0.45469137  -130.29641564     0.00000024    -0.00000428  0.51D-08  0.13D-07  6  2     5.69     0.70
   9      1.13789588    -0.45469125  -130.29641553     0.00000012     0.00000061  0.21D-08  0.15D-08  6  3     6.28     0.70
  10      1.13789606    -0.45469158  -130.29641585    -0.00000033    -0.00000010  0.47D-09  0.22D-09  6  4     6.91     0.70
  11      1.13789455    -0.45469171  -130.29641599    -0.00000013     0.00000034  0.11D-09  0.23D-10  6  5     7.56     0.70
  12      1.13789342    -0.45469185  -130.29641612    -0.00000014     0.00000045  0.15D-10  0.70D-11  6  6     8.20     0.70
  13      1.13789279    -0.45469187  -130.29641614    -0.00000002     0.00000012  0.59D-11  0.13D-11  6  1     8.83     0.70
  14      1.13789230    -0.45469189  -130.29641617    -0.00000003     0.00000011  0.56D-12  0.41D-12  6  3     9.45     0.70
  15      1.13789215    -0.45469189  -130.29641617    -0.00000000     0.00000001  0.13D-12  0.28D-13  6  2    10.04     0.70
  16      1.13789210    -0.45469189  -130.29641617    -0.00000000     0.00000001  0.31D-13  0.70D-14  6  4    10.65     0.70
  17      1.13789209    -0.45469190  -130.29641617    -0.00000000     0.00000001  0.35D-14  0.11D-14  6  5    11.28     0.70
  18      1.13789209    -0.45469190  -130.29641617     0.00000000    -0.00000000  0.38D-15  0.29D-15  6  6    11.88     0.70
  19      1.13789209    -0.45469190  -130.29641617     0.00000000    -0.00000000  0.50D-16  0.31D-16  6  1    12.51     0.70
  20      1.13789209    -0.45469190  -130.29641617     0.00000000    -0.00000000  0.28D-17  0.64D-17  6  3    13.13     0.70
  21      1.13789209    -0.45469190  -130.29641617     0.00000000    -0.00000000  0.45D-18  0.12D-17  6  4    13.77     0.70
  22      1.13789209    -0.45469190  -130.29641617     0.00000000    -0.00000000  0.19D-19  0.42D-18  6  2    14.40     0.70
  23      1.13789209    -0.45469190  -130.29641617    -0.00000000     0.00000000  0.26D-19  0.10D-18  6  5    15.01     0.70
  24      1.13789209    -0.45469190  -130.29641617    -0.00000000     0.00000000  0.43D-20  0.95D-20  6  1    15.62     0.70
  25      1.13789209    -0.45469190  -130.29641617     0.00000000    -0.00000000  0.15D-20  0.63D-21  6  6    16.23     0.70

 Norm of t1 vector:      0.07524688      S-energy:     0.00000000      T1 diagnostic:  0.01535971
                                                                       D1 diagnostic:  0.04118472

 Doubles amplitudes (print threshold =  0.500E-01):

         I         J         SYM. A    SYM. B    A         B      T(IJ, AB)

         6         6         2         2         1         1     -0.13069326


 Total CPU time for triples:      8.18 sec


 RESULTS
 =======

  Reference energy                   -129.841724274790
  CCSD singlet pair energy             -0.311933654717
  CCSD triplet pair energy             -0.142758240542
  CCSD correlation energy              -0.454691895257

  Triples (T) contribution             -0.020755520905
  Total correlation energy             -0.475447416162

  CCSD total energy                  -130.296416170047
  CCSD[T] energy                     -130.318209548155
  CCSD-T energy                      -130.316772998495
 !CCSD(T) total energy               -130.317171690952

 Timing summary (sec):

 STEP                 CPU(USER)    SYS     CPU(TOT)    WALL
 Transformation          0.72      0.13      0.85      0.86
 CCSD iterations        15.51      2.01     17.52     17.54
 Triples                 8.18      0.22      8.40      8.38

 Program statistics:

 Available memory in ccsd:               994999756
 Min. memory needed in ccsd:                887758
 Max. memory used in ccsd:                 1088212
 Max. memory used in cckext:               1535578 (25 integral passes)



 **********************************************************************************************************************************
 DATASETS  * FILE   NREC   LENGTH (MB)   RECORD NAMES
              1      20      480.05       500      610      700      900      950      970     1000      129      960     1100   
                                          VAR    BASINP    GEOM    SYMINP    ZMAT    AOBASIS   BASIS     P2S    ABASIS      S 
                                         1400     1410     1200     1210     1080     1600     1650     1300     1700     1380   
                                           T        V       H0       H01     AOSYM     SMH    MOLCAS    ERIS     OPER     JKOP   

              2       4        3.13       700     1000      520     2100   
                                         GEOM     BASIS   MCVARS     RHF  

 PROGRAMS   *        TOTAL   CCSD(T)        HF       INT
 CPU TIMES  *        33.50     24.45      4.81      4.17
 REAL TIME  *        38.84 SEC
 DISK USED  *         1.33 GB      
 **********************************************************************************************************************************

 CCSD(T)/USERDEF energy=   -130.317171690952

        CCSD(T)         HF-SCF  
   -130.31717169   -129.84172427
 **********************************************************************************************************************************
 Molpro calculation terminated
 Variable memory released
