
 Primary working directories    : /tmp/r2666/214587.maple
 Secondary working directories  : /tmp/r2666/214587.maple
 Wavefunction directory         : /ddn/home4/r2666/wfu/
 Main file repository           : /tmp/r2666/214587.maple/

 SHA1      : d5ffa45e93fdbca01ffc919aa182cfdae0147319
 NAME      : 2015.1.35
 ARCHNAME  : linux/x86_64
 FC        : /opt/intel/composer_xe_2015.1.133/bin/intel64/ifort
 BLASLIB   : -Wl,-_start-group /opt/intel/mkl/lib/intel64/libmkl_intel_ilp64.a /opt/intel/mkl/lib/intel64/libmkl_intel_thread.a /opt/intel/mkl/lib/intel64/libmkl_core.a -Wl,-_end-group
 id        : olemiss

 Nodes     nprocs
 cn054        1

 Using customized tuning parameters: mindgm=1; mindgv=20; mindgc=4; mindgr=1; noblas=0; minvec=7
 default implementation of scratch files=df  

 ***,AlONC, CCSD(T)/aug-cc-pV5Z QFF
 memory, 995, m;
 gthresh,energy=1.d-12,zero=1.d-22,oneint=1.d-22,twoint=1.d-22;
 gthresh,optgrad=1.d-8,optstep=1.d-8;
 nocompress;
 geometry={
 N
 O 1 no
 H 1 nh 2 hno
 }
 
  no=1.2 ANG
  nh=0.8 ANG
  hno=105.0 DEG
 
 basis=av5z,al=aug-cc-pV(5+d)Z
   {hf,maxit=500;wf,charge=0,spin=0;accu,20;}
   {ccsd(t),maxit=250;wf,charge=0,spin=0;orbital,IGNORE_ERROR;}
  {optg,grms=1.d-8,srms=1.d-8}

 Variables initialized (889), CPU time= 0.00 sec
 Commands  initialized (702), CPU time= 0.01 sec, 572 directives.
 Default parameters read. Elapsed time= 0.05 sec

 Checking input...
 Passed
1


                                         ***  PROGRAM SYSTEM MOLPRO  ***
                                       Copyright, TTI GmbH Stuttgart, 2015
                                    Version 2015.1 linked Jul  9 2018 13:16:40


 **********************************************************************************************************************************
 LABEL *   AlONC, CCSD(T)/aug-cc-pV5Z QFF                                                
  (4 PROC) 64 bit serial version                                                         DATE: 23-Jan-20          TIME: 20:46:21  
 **********************************************************************************************************************************

 SHA1:             d5ffa45e93fdbca01ffc919aa182cfdae0147319
 **********************************************************************************************************************************

 THRESHOLDS:

 ZERO    =  1.00D-22  ONEINT  =  1.00D-22  TWOINT  =  1.00D-22  PREFAC  =  1.00D-14  LOCALI  =  1.00D-09  EORDER  =  1.00D-04
 ENERGY  =  1.00D-12  ETEST   =  0.00D+00  EDENS   =  0.00D+00  THRDEDEF=  1.00D-06  GRADIENT=  1.00D-02  STEP    =  1.00D-03
 ORBITAL =  1.00D-05  CIVEC   =  1.00D-05  COEFF   =  1.00D-04  PRINTCI =  5.00D-02  PUNCHCI =  9.90D+01  OPTGRAD =  3.00D-04
 OPTENERG=  1.00D-06  OPTSTEP =  3.00D-04  THRGRAD =  1.00D-10  COMPRESS=  1.00D-11  VARMIN  =  1.00D-07  VARMAX  =  1.00D-03
 THRDOUB =  0.00D+00  THRDIV  =  1.00D-05  THRRED  =  1.00D-07  THRPSP  =  1.00D+00  THRDC   =  1.00D-10  THRCS   =  1.00D-10
 THRNRM  =  1.00D-08  THREQ   =  0.00D+00  THRDE   =  1.00D+00  THRREF  =  1.00D-05  SPARFAC =  1.00D+00  THRDLP  =  1.00D-07
 THRDIA  =  1.00D-10  THRDLS  =  1.00D-07  THRGPS  =  0.00D+00  THRKEX  =  0.00D+00  THRDIS  =  2.00D-01  THRVAR  =  1.00D-10
 THRLOC  =  1.00D-06  THRGAP  =  1.00D-06  THRLOCT = -1.00D+00  THRGAPT = -1.00D+00  THRORB  =  1.00D-06  THRMLTP =  0.00D+00
 THRCPQCI=  1.00D-10  KEXTA   =  0.00D+00  THRCOARS=  0.00D+00  SYMTOL  =  1.00D-06  GRADTOL =  1.00D-06  THROVL  =  1.00D-08
 THRORTH =  1.00D-08  GRID    =  1.00D-06  GRIDMAX =  1.00D-03  DTMAX   =  0.00D+00  THROCCDE=  1.00D-01  THROCCDE=  1.00D-01



 THRESHOLDS:

 ZERO    =  1.00D-22  ONEINT  =  1.00D-22  TWOINT  =  1.00D-22  PREFAC  =  1.00D-14  LOCALI  =  1.00D-09  EORDER  =  1.00D-04
 ENERGY  =  1.00D-12  ETEST   =  0.00D+00  EDENS   =  0.00D+00  THRDEDEF=  1.00D-06  GRADIENT=  1.00D-02  STEP    =  1.00D-03
 ORBITAL =  1.00D-05  CIVEC   =  1.00D-05  COEFF   =  1.00D-04  PRINTCI =  5.00D-02  PUNCHCI =  9.90D+01  OPTGRAD =  1.00D-08
 OPTENERG=  1.00D-06  OPTSTEP =  1.00D-08  THRGRAD =  1.00D-10  COMPRESS=  1.00D-11  VARMIN  =  1.00D-07  VARMAX  =  1.00D-03
 THRDOUB =  0.00D+00  THRDIV  =  1.00D-05  THRRED  =  1.00D-07  THRPSP  =  1.00D+00  THRDC   =  1.00D-10  THRCS   =  1.00D-10
 THRNRM  =  1.00D-08  THREQ   =  0.00D+00  THRDE   =  1.00D+00  THRREF  =  1.00D-05  SPARFAC =  1.00D+00  THRDLP  =  1.00D-07
 THRDIA  =  1.00D-10  THRDLS  =  1.00D-07  THRGPS  =  0.00D+00  THRKEX  =  0.00D+00  THRDIS  =  2.00D-01  THRVAR  =  1.00D-10
 THRLOC  =  1.00D-06  THRGAP  =  1.00D-06  THRLOCT = -1.00D+00  THRGAPT = -1.00D+00  THRORB  =  1.00D-06  THRMLTP =  0.00D+00
 THRCPQCI=  1.00D-10  KEXTA   =  0.00D+00  THRCOARS=  0.00D+00  SYMTOL  =  1.00D-06  GRADTOL =  1.00D-06  THROVL  =  1.00D-08
 THRORTH =  1.00D-08  GRID    =  1.00D-06  GRIDMAX =  1.00D-03  DTMAX   =  0.00D+00  THROCCDE=  1.00D-01  THROCCDE=  1.00D-01



 Input parameters for SORTINT:

 COMPRESS =    0.000000
 C_FINAL  =    1.000000
 DEBUG    =   -1.000000
 C_SORT1  =    0.000000
 C_SEWARD =    0.000000
 THRESH   =    0.000000
 IO       =  molpro                                                          
 SPRI     =    0.000000
 SETTING NO             =         1.20000000  ANG                             
 SETTING NH             =         0.80000000  ANG                             
 SETTING HNO            =       105.00000000  DEG                             

 Variable memory set to  995000000 words,  buffer space   230000 words

 SETTING BASIS          =    AV5Z,AL=AUG-CC-PV(5+D)Z


 Recomputing integrals since basis changed


 Using spherical harmonics

 Library entry N      S aug-cc-pV5Z          selected for orbital group  1
 Library entry N      P aug-cc-pV5Z          selected for orbital group  1
 Library entry N      D aug-cc-pV5Z          selected for orbital group  1
 Library entry N      F aug-cc-pV5Z          selected for orbital group  1
 Library entry N      G aug-cc-pV5Z          selected for orbital group  1
 Library entry N      H aug-cc-pV5Z          selected for orbital group  1
 Library entry O      S aug-cc-pV5Z          selected for orbital group  2
 Library entry O      P aug-cc-pV5Z          selected for orbital group  2
 Library entry O      D aug-cc-pV5Z          selected for orbital group  2
 Library entry O      F aug-cc-pV5Z          selected for orbital group  2
 Library entry O      G aug-cc-pV5Z          selected for orbital group  2
 Library entry O      H aug-cc-pV5Z          selected for orbital group  2
 Library entry H      S aug-cc-pV5Z          selected for orbital group  3
 Library entry H      P aug-cc-pV5Z          selected for orbital group  3
 Library entry H      D aug-cc-pV5Z          selected for orbital group  3
 Library entry H      F aug-cc-pV5Z          selected for orbital group  3
 Library entry H      G aug-cc-pV5Z          selected for orbital group  3


 PROGRAM * SEWARD (Integral evaluation for generally contracted gaussian basis sets)     Author: Roland Lindh, 1990

 Geometry written to block  1 of record 700

 Orientation using atomic masses  
 Molecule type: Asymmetric top
 Symmetry elements: X
 Rotational constants:      41.9878831     43.9791483    927.3457377 GHz  (calculated with average atomic masses)

 Point group  Cs  



 ATOMIC COORDINATES

 NR  ATOM    CHARGE       X              Y              Z

   1  N       7.00    0.000000000   -0.114954642   -1.152374359
   2  O       8.00    0.000000000    0.017480950    1.111426463
   3  H       1.00    0.000000000    1.319969909   -1.628266177

 Bond lengths in Bohr (Angstrom)

 1-2  2.267671349  1-3  1.511780900
     ( 1.200000000)     ( 0.800000000)

 Bond angles

  2-1-3  105.00000000

 NUCLEAR CHARGE:                   16
 NUMBER OF PRIMITIVE AOS:         506
 NUMBER OF SYMMETRY AOS:          371
 NUMBER OF CONTRACTIONS:          334   ( 204A'  + 130A"  )
 NUMBER OF CORE ORBITALS:           2   (   2A'  +   0A"  )
 NUMBER OF VALENCE ORBITALS:        9   (   7A'  +   2A"  )


 NUCLEAR REPULSION ENERGY   31.96241601

 Eigenvalues of metric

         1 0.589E-05 0.156E-04 0.449E-04 0.633E-04 0.813E-04 0.933E-04 0.108E-03 0.117E-03
         2 0.809E-04 0.149E-03 0.551E-03 0.102E-02 0.118E-02 0.163E-02 0.172E-02 0.242E-02


 Contracted 2-electron integrals neglected if value below      1.0D-22

      756976844. INTEGRALS WRITTEN OUT IN  184854 BLOCKS ON RECORD 1290 OF FILE 1


 NUMBER OF SORTED TWO-ELECTRON INTEGRALS:  789027325.     BUFFER LENGTH:  32768
 NUMBER OF SEGMENTS:  25  SEGMENT LENGTH:   31997130      RECORD LENGTH: 524288

 Memory used in sort:      32.55 MW

 SORT1 READ   756976844. AND WROTE   760992762. INTEGRALS IN   2191 RECORDS. CPU TIME:    28.62 SEC, REAL TIME:    34.87 SEC
 SORT2 READ   760992762. AND WROTE   789027325. INTEGRALS IN     25 RECORDS. CPU TIME:    10.81 SEC, REAL TIME:    15.58 SEC

 FILE SIZES:   FILE 1: 12137.4 MBYTE,  FILE 4:  9189.8 MBYTE,   TOTAL:  21327.2 MBYTE

 OPERATOR DM      FOR CENTER  0  COORDINATES:    0.000000    0.000000    0.000000


 **********************************************************************************************************************************
 DATASETS  * FILE   NREC   LENGTH (MB)   RECORD NAMES
              1      19     6374.20       500      610      700      900      950      970     1000      129      960     1100   
                                          VAR    BASINP    GEOM    SYMINP    ZMAT    AOBASIS   BASIS     P2S    ABASIS      S 
                                         1400     1410     1200     1210     1080     1600     1650     1300     1700   
                                           T        V       H0       H01     AOSYM     SMH    MOLCAS    ERIS     OPER   

 PROGRAMS   *        TOTAL       INT
 CPU TIMES  *       462.73    462.62
 REAL TIME  *       166.16 SEC
 DISK USED  *        21.33 GB      
 **********************************************************************************************************************************


 PROGRAM * RHF-SCF (CLOSED SHELL)       Authors: W. Meyer, H.-J. Werner


 NUMBER OF ELECTRONS:       8+    8-
 CONVERGENCE THRESHOLDS:    1.00E-10 (Density)    1.00E-13 (Energy)
 MAX. NUMBER OF ITERATIONS:      500
 INTERPOLATION TYPE:            DIIS
 INTERPOLATION STEPS:              2 (START)      1 (STEP)
 LEVEL SHIFTS:                  0.00 (CLOSED)  0.00 (OPEN) 



 Orbital guess generated from atomic densities. Full valence occupancy:    9   2

 Molecular orbital dump at record        2100.2

 Initial occupancy:   7   1

 ITERATION    DDIFF          GRAD             ENERGY        2-EL.EN.            DIPOLE MOMENTS         DIIS   ORB.
    1      0.000D+00      0.000D+00      -129.75268502    156.709054    0.00000    0.64181   -0.83755    0    start
    2      0.000D+00      0.528D-02      -129.77763755    157.799646    0.00000    0.58967   -0.29892    1    diag
    3      0.332D-02      0.313D-02      -129.78655777    157.860881    0.00000    0.58145   -0.56243    2    diag
    4      0.146D-02      0.832D-03      -129.78739128    157.625327    0.00000    0.58905   -0.49555    3    diag
    5      0.405D-03      0.223D-03      -129.78747560    157.701262    0.00000    0.59156   -0.49920    4    diag
    6      0.133D-03      0.512D-04      -129.78748571    157.688038    0.00000    0.59173   -0.49604    5    diag
    7      0.416D-04      0.261D-04      -129.78748867    157.689755    0.00000    0.59227   -0.49388    6    diag
    8      0.282D-04      0.948D-05      -129.78748905    157.689305    0.00000    0.59227   -0.49304    7    diag
    9      0.117D-04      0.180D-05      -129.78748906    157.689313    0.00000    0.59227   -0.49288    8    diag
   10      0.240D-05      0.372D-06      -129.78748906    157.689320    0.00000    0.59227   -0.49288    9    orth
   11      0.400D-06      0.726D-07      -129.78748906    157.689320    0.00000    0.59227   -0.49288    9    diag
   12      0.700D-07      0.158D-07      -129.78748906    157.689321    0.00000    0.59227   -0.49288    9    diag
   13      0.158D-07      0.346D-08      -129.78748906    157.689321    0.00000    0.59227   -0.49288    9    diag
   14      0.338D-08      0.642D-09      -129.78748906    157.689321    0.00000    0.59227   -0.49288    9    diag
   15      0.659D-09      0.193D-09      -129.78748906    157.689321    0.00000    0.59227   -0.49288    9    diag
   16      0.251D-09      0.670D-10      -129.78748906    157.689321    0.00000    0.59227   -0.49288    9    diag
   17      0.750D-10      0.147D-10      -129.78748906    157.689321    0.00000    0.59227   -0.49288    9    diag
   18      0.355D-10      0.474D-11      -129.78748906    157.689321    0.00000    0.59227   -0.49288    9    diag
   19      0.349D-10      0.140D-11      -129.78748906    157.689321    0.00000    0.59227   -0.49288    9    fixocc
   20      0.303D-10      0.936D-12      -129.78748906    157.689321    0.00000    0.59227   -0.49288    9    orth
   21      0.217D-10      0.596D-12      -129.78748906    157.689321    0.00000    0.59227   -0.49288    9    diag
   22      0.115D-10      0.638D-12      -129.78748906    157.689321    0.00000    0.59227   -0.49288    9    diag
   23      0.537D-11      0.371D-12      -129.78748906    157.689321    0.00000    0.59227   -0.49288    9    diag
   24      0.676D-11      0.564D-12      -129.78748906    157.689321    0.00000    0.59227   -0.49288    0    orth

 Final occupancy:   7   1

 !RHF STATE 1.1 Energy               -129.787489063756
 Nuclear energy                        31.96241601
 One-electron energy                 -240.59456550
 Two-electron energy                   78.84466043
 Virial quotient                       -0.99629232
 !RHF STATE 1.1 Dipole moment           0.00000000     0.59226798    -0.49287720
 Dipole moment /Debye                   0.00000000     1.50529646    -1.25268683

 Orbital energies:

         1.1          2.1          3.1          4.1          5.1          6.1          7.1          8.1          9.1
    -20.652119   -15.677023    -1.551708    -1.079743    -0.773801    -0.671280    -0.446023     0.023481     0.065326

         1.2          2.2          3.2
     -0.600925     0.060299     0.088184

 HOMO      7.1    -0.446023 =     -12.1369eV
 LUMO      8.1     0.023481 =       0.6389eV
 LUMO-HOMO         0.469504 =      12.7759eV


 **********************************************************************************************************************************
 DATASETS  * FILE   NREC   LENGTH (MB)   RECORD NAMES
              1      19     6374.20       500      610      700      900      950      970     1000      129      960     1100   
                                          VAR    BASINP    GEOM    SYMINP    ZMAT    AOBASIS   BASIS     P2S    ABASIS      S 
                                         1400     1410     1200     1210     1080     1600     1650     1300     1700   
                                           T        V       H0       H01     AOSYM     SMH    MOLCAS    ERIS     OPER   

              2       4        4.00       700     1000      520     2100   
                                         GEOM     BASIS   MCVARS     RHF  

 PROGRAMS   *        TOTAL        HF       INT
 CPU TIMES  *      1036.46    573.73    462.62
 REAL TIME  *       324.30 SEC
 DISK USED  *        21.33 GB      
 **********************************************************************************************************************************


 PROGRAM * CCSD (Closed-shell coupled cluster)     Authors: C. Hampel, H.-J. Werner, 1991, M. Deegan, P.J. Knowles, 1992


 Convergence thresholds:  THRVAR = 1.00D-16  THRDEN = 1.00D-12

 CCSD(T)     terms to be evaluated (factor= 1.000)


 Number of core orbitals:           2 (   2   0 )
 Number of closed-shell orbitals:   6 (   5   1 )
 Number of external orbitals:     326 ( 197 129 )

 Molecular orbitals read from record     2100.2  Type=RHF/CANONICAL (state 1.1)

 Number of N-1 electron functions:               6
 Number of N-2 electron functions:              21
 Number of singly external CSFs:              1114
 Number of doubly external CSFs:            975958
 Total number of CSFs:                      977073

 Length of J-op  integral file:               0.00 MB
 Length of K-op  integral file:               4.07 MB
 Length of 3-ext integral record:             0.00 MB

 Memory could be reduced to 151.33 Mwords without degradation in triples

 Integral transformation finished. Total CPU:  57.66 sec, npass=  1  Memory used:  41.21 MW

 Reference energy:                   -129.78748906

 MP2 singlet pair energy:              -0.30643133
 MP2 triplet pair energy:              -0.16905467
 MP2 correlation energy:               -0.47548601
 MP2 total energy:                   -130.26297507

 SCS-MP2 correlation energy:           -0.47290717   (PS=  1.200000  PT=  0.333333)
 SCS-MP2 total energy:               -130.26039624

 ITER.      SQ.NORM     CORR.ENERGY   TOTAL ENERGY   ENERGY CHANGE        DEN1      VAR(S)    VAR(P)  DIIS     TIME  TIME/IT
   1      1.11335136    -0.47337635  -130.26086541     0.00210966     0.01692886  0.26D-02  0.27D-02  1  1   103.27    12.18
   2      1.12282198    -0.47346169  -130.26095075    -0.00008534    -0.01150983  0.91D-04  0.41D-03  2  2   150.43    12.42
   3      1.12808607    -0.47374826  -130.26123733    -0.00028657    -0.00263153  0.30D-04  0.51D-04  3  3   198.38    12.58
   4      1.13063340    -0.47377086  -130.26125993    -0.00002260    -0.00086005  0.22D-05  0.81D-05  4  4   246.48    12.68
   5      1.13149372    -0.47378838  -130.26127744    -0.00001751    -0.00018939  0.47D-06  0.17D-05  5  5   294.04    12.70
   6      1.13177645    -0.47378013  -130.26126920     0.00000824    -0.00003922  0.45D-07  0.44D-06  6  6   341.27    12.69
   7      1.13183213    -0.47378283  -130.26127190    -0.00000270     0.00000545  0.72D-08  0.85D-07  6  1   388.33    12.69
   8      1.13185443    -0.47378294  -130.26127201    -0.00000011    -0.00000247  0.45D-08  0.98D-08  6  2   435.29    12.68
   9      1.13185710    -0.47378288  -130.26127194     0.00000007     0.00000002  0.16D-08  0.11D-08  6  3   481.98    12.67
  10      1.13185746    -0.47378307  -130.26127214    -0.00000020     0.00000010  0.36D-09  0.19D-09  6  4   528.66    12.66
  11      1.13185674    -0.47378319  -130.26127225    -0.00000011     0.00000021  0.82D-10  0.18D-10  6  5   574.98    12.64
  12      1.13185607    -0.47378328  -130.26127235    -0.00000010     0.00000030  0.84D-11  0.48D-11  6  6   621.86    12.64
  13      1.13185562    -0.47378331  -130.26127237    -0.00000002     0.00000011  0.20D-11  0.12D-11  6  1   669.08    12.64
  14      1.13185527    -0.47378333  -130.26127239    -0.00000002     0.00000007  0.13D-12  0.24D-12  6  3   715.31    12.63
  15      1.13185515    -0.47378333  -130.26127239    -0.00000000     0.00000002  0.16D-13  0.20D-13  6  2   762.36    12.63
  16      1.13185512    -0.47378333  -130.26127239    -0.00000000     0.00000001  0.48D-14  0.34D-14  6  4   809.55    12.63
  17      1.13185510    -0.47378333  -130.26127239    -0.00000000     0.00000001  0.96D-15  0.46D-15  6  5   855.94    12.62
  18      1.13185510    -0.47378333  -130.26127239    -0.00000000     0.00000000  0.20D-15  0.10D-15  6  6   902.88    12.62
  19      1.13185510    -0.47378333  -130.26127239     0.00000000    -0.00000000  0.17D-16  0.22D-16  6  2   949.83    12.62
  20      1.13185510    -0.47378333  -130.26127239     0.00000000    -0.00000000  0.29D-17  0.43D-17  6  1   996.08    12.61
  21      1.13185510    -0.47378333  -130.26127239     0.00000000    -0.00000000  0.36D-18  0.68D-18  6  3  1042.80    12.61
  22      1.13185510    -0.47378333  -130.26127239     0.00000000    -0.00000000  0.19D-18  0.31D-18  6  6  1089.12    12.60
  23      1.13185510    -0.47378333  -130.26127239     0.00000000    -0.00000000  0.99D-19  0.18D-18  6  4  1135.37    12.60
  24      1.13185510    -0.47378333  -130.26127239     0.00000000    -0.00000000  0.65D-19  0.84D-19  6  5  1181.89    12.59
  25      1.13185510    -0.47378333  -130.26127239     0.00000000    -0.00000000  0.48D-19  0.54D-19  6  1  1228.11    12.59

 Norm of t1 vector:      0.06910595      S-energy:    -0.00000000      T1 diagnostic:  0.01410619
                                                                       D1 diagnostic:  0.04045225

 Doubles amplitudes (print threshold =  0.500E-01):

         I         J         SYM. A    SYM. B    A         B      T(IJ, AB)

         6         6         2         2         1         1     -0.07578213
         6         6         2         2         1         2      0.05450546
         6         6         2         2         2         1      0.05450546


 Total CPU time for triples:    173.75 sec


 RESULTS
 =======

  Reference energy                   -129.787489063756
  CCSD singlet pair energy             -0.327499460821
  CCSD triplet pair energy             -0.146283866960
  CCSD correlation energy              -0.473783327785

  Triples (T) contribution             -0.021416080436
  Total correlation energy             -0.495199408221

  CCSD total energy                  -130.261272391541
  CCSD[T] energy                     -130.283568129749
  CCSD-T energy                      -130.282375908547
 !CCSD(T) total energy               -130.282688471977

 Timing summary (sec):

 STEP                 CPU(USER)    SYS     CPU(TOT)    WALL
 Transformation         57.84      4.59     62.43     15.62
 CCSD iterations      1170.32     88.25   1258.57    314.68
 Triples               173.75      4.99    178.74     44.69

 Program statistics:

 Available memory in ccsd:               994999756
 Min. memory needed in ccsd:               3348832
 Max. memory used in ccsd:                 4143652
 Max. memory used in cckext:               8340089 (25 integral passes)



 **********************************************************************************************************************************
 DATASETS  * FILE   NREC   LENGTH (MB)   RECORD NAMES
              1      20     6809.39       500      610      700      900      950      970     1000      129      960     1100   
                                          VAR    BASINP    GEOM    SYMINP    ZMAT    AOBASIS   BASIS     P2S    ABASIS      S 
                                         1400     1410     1200     1210     1080     1600     1650     1300     1700     1380   
                                           T        V       H0       H01     AOSYM     SMH    MOLCAS    ERIS     OPER     JKOP   

              2       4        4.00       700     1000      520     2100   
                                         GEOM     BASIS   MCVARS     RHF  

 PROGRAMS   *        TOTAL   CCSD(T)        HF       INT
 CPU TIMES  *      2438.60   1402.12    573.73    462.62
 REAL TIME  *       699.36 SEC
 DISK USED  *        21.33 GB      
 **********************************************************************************************************************************


 PROGRAM * OPT (Geometry optimization)     Authors: F. Eckert and H.-J. Werner


 BFGS update of hessian

 *** Long output written to logfile /ddn/home4/r2666/chem/rotation/hno/opt/5Z/opt.log ***


 Geometry optimization using default procedure for command CCSD(T)

 Geometry written to block  1 of record 700

 Making model hessian for Z-matrix coordinates

 Entering Rational Function Geometry Optimization

 ITER.   ENERGY(OLD)    ENERGY(NEW)      DE          GRADMAX     GRADNORM    GRADRMS     STEPMAX     STEPLEN     STEPRMS   CPU-time
   1  -130.28268847  -130.34629249    -0.06360402  0.39319672  0.39562301  0.22841305  0.29934602  0.30000000  0.10000000  16794.37
   2  -130.34629249  -130.35114194    -0.00484945  0.07961700  0.08259622  0.04768695  0.07530005  0.08367689  0.02789230  32894.45
   3  -130.35114194  -130.35293336    -0.00179141  0.03927271  0.03957459  0.02284840  0.07291583  0.07485579  0.02495193  49383.50
   4  -130.35293336  -130.35309292    -0.00015956  0.00992735  0.01064270  0.00614457  0.02532072  0.02596300  0.00865433  65689.08
   5  -130.35309292  -130.35309956    -0.00000664  0.00172055  0.00220663  0.00127400  0.00563382  0.00602446  0.00200815  82064.12
   6  -130.35309956  -130.35309963    -0.00000007  0.00027060  0.00027849  0.00016078  0.00032467  0.00048516  0.00016172  98091.13
   7  -130.35309963  -130.35309964    -0.00000001  0.00006379  0.00006856  0.00003958  0.00008013  0.00010037  0.00003346 113997.06
   8  -130.35309964  -130.35309964    -0.00000000  0.00000850  0.00001124  0.00000649  0.00002344  0.00002608  0.00000869 129964.03
   9  -130.35309964  -130.35309964    -0.00000000  0.00000065  0.00000071  0.00000041  0.00000213  0.00000219  0.00000073 145700.76
  10  -130.35309964  -130.35309964     0.00000000  0.00000004  0.00000004  0.00000002  0.00000007  0.00000009  0.00000003 161126.63
  11  -130.35309964  -130.35309964    -0.00000000  0.00000000  0.00000000  0.00000000  0.00000000  0.00000000  0.00000000 176342.79

 END OF GEOMETRY OPTIMIZATION.

 Optimized variables
 NO=                  1.20996034 ANG
 NH=                  1.05335268 ANG
 HNO=               108.11322151 DEG

 **********************************************************************************************************************************

 Current geometry (xyz format, in Angstrom)

    3
 CCSD(T)/AV5Z,AL=AUG-CC-PV(5+D)Z  ENERGY=-130.35309964
 N          0.0000000000       -0.0853701038       -0.6084487936
 O          0.0000000000        0.0190603495        0.5969964827
 H          0.0000000000        0.8837820478       -1.0211181294

 **********************************************************************************************************************************

 Geometry written to block  1 of record 700


 **********************************************************************************************************************************
 DATASETS  * FILE   NREC   LENGTH (MB)   RECORD NAMES
              1      20     6809.39       500      610      700      900      950      970     1000      129      960     1100   
                                          VAR    BASINP    GEOM    SYMINP    ZMAT    AOBASIS   BASIS     P2S    ABASIS      S 
                                         1400     1410     1200     1210     1080     1600     1650     1300     1700     1380   
                                           T        V       H0       H01     AOSYM     SMH    MOLCAS    ERIS     OPER     JKOP   

              2       5        5.18       700     1000      520     2100     5600   
                                         GEOM     BASIS   MCVARS     RHF     GINFO   

 PROGRAMS   *        TOTAL      OPTG   CCSD(T)        HF       INT
 CPU TIMES  *    178781.39 176342.79   1402.12    573.73    462.62
 REAL TIME  *     51360.64 SEC
 DISK USED  *        21.33 GB      
 **********************************************************************************************************************************

 CCSD(T)/aug-cc-pV5Z,AL=AUG-CC-PV(5+D)Z//CCSD(T)/aug-cc-pV5Z,AL=AUG-CC-PV(5+D)Z energy=   -130.353099636377

   OPTG(CCSD(T))        CCSD(T)         HF-SCF  
   -130.35309964   -130.28268847   -129.78748906
 **********************************************************************************************************************************
 Molpro calculation terminated
 Variable memory released
