
 Primary working directories    : /tmp/r2666/281996.maple
 Secondary working directories  : /tmp/r2666/281996.maple
 Wavefunction directory         : /ddn/home4/r2666/wfu/
 Main file repository           : /tmp/r2666/281996.maple/

 SHA1      : d5ffa45e93fdbca01ffc919aa182cfdae0147319
 NAME      : 2015.1.35
 ARCHNAME  : linux/x86_64
 FC        : /opt/intel/composer_xe_2015.1.133/bin/intel64/ifort
 BLASLIB   : -Wl,-_start-group /opt/intel/mkl/lib/intel64/libmkl_intel_ilp64.a /opt/intel/mkl/lib/intel64/libmkl_intel_thread.a /opt/intel/mkl/lib/intel64/libmkl_core.a -Wl,-_end-group
 id        : olemiss

 Nodes     nprocs
 cn075        1

 Using customized tuning parameters: mindgm=1; mindgv=20; mindgc=4; mindgr=1; noblas=0; minvec=7
 default implementation of scratch files=df  

 ***,hno CCSD(T)/TZ-F12 QFF
 memory, 995, m;
 gthresh,energy=1.d-12,zero=1.d-22,oneint=1.d-22,twoint=1.d-22;
 gthresh,optgrad=1.d-8,optstep=1.d-8;
 nocompress;
 geomtyp=xyz
 bohr
 geometry={
 3
         22        22
 H        0.0000000000        1.6604700844       -1.9177242457
 N        0.0000000000       -0.1604678356       -1.1437258155
 O        0.0000000000        0.0417655412        1.1108604702
 }
 
 basis=avqz
   {hf,maxit=500;accu,20;}
 {ccsd(t),nocheck,maxit=250;orbital,IGNORE_ERROR;}

 Variables initialized (889), CPU time= 0.01 sec
 Commands  initialized (702), CPU time= 0.01 sec, 572 directives.
 Default parameters read. Elapsed time= 0.05 sec

 Checking input...
 Passed
1


                                         ***  PROGRAM SYSTEM MOLPRO  ***
                                       Copyright, TTI GmbH Stuttgart, 2015
                                    Version 2015.1 linked Jul  9 2018 13:16:40


 **********************************************************************************************************************************
 LABEL *   hno CCSD(T)/TZ-F12 QFF                                                        
  64 bit serial version                                                                  DATE: 04-Mar-20          TIME: 13:39:41  
 **********************************************************************************************************************************

 SHA1:             d5ffa45e93fdbca01ffc919aa182cfdae0147319
 **********************************************************************************************************************************

 THRESHOLDS:

 ZERO    =  1.00D-22  ONEINT  =  1.00D-22  TWOINT  =  1.00D-22  PREFAC  =  1.00D-14  LOCALI  =  1.00D-09  EORDER  =  1.00D-04
 ENERGY  =  1.00D-12  ETEST   =  0.00D+00  EDENS   =  0.00D+00  THRDEDEF=  1.00D-06  GRADIENT=  1.00D-02  STEP    =  1.00D-03
 ORBITAL =  1.00D-05  CIVEC   =  1.00D-05  COEFF   =  1.00D-04  PRINTCI =  5.00D-02  PUNCHCI =  9.90D+01  OPTGRAD =  3.00D-04
 OPTENERG=  1.00D-06  OPTSTEP =  3.00D-04  THRGRAD =  1.00D-10  COMPRESS=  1.00D-11  VARMIN  =  1.00D-07  VARMAX  =  1.00D-03
 THRDOUB =  0.00D+00  THRDIV  =  1.00D-05  THRRED  =  1.00D-07  THRPSP  =  1.00D+00  THRDC   =  1.00D-10  THRCS   =  1.00D-10
 THRNRM  =  1.00D-08  THREQ   =  0.00D+00  THRDE   =  1.00D+00  THRREF  =  1.00D-05  SPARFAC =  1.00D+00  THRDLP  =  1.00D-07
 THRDIA  =  1.00D-10  THRDLS  =  1.00D-07  THRGPS  =  0.00D+00  THRKEX  =  0.00D+00  THRDIS  =  2.00D-01  THRVAR  =  1.00D-10
 THRLOC  =  1.00D-06  THRGAP  =  1.00D-06  THRLOCT = -1.00D+00  THRGAPT = -1.00D+00  THRORB  =  1.00D-06  THRMLTP =  0.00D+00
 THRCPQCI=  1.00D-10  KEXTA   =  0.00D+00  THRCOARS=  0.00D+00  SYMTOL  =  1.00D-06  GRADTOL =  1.00D-06  THROVL  =  1.00D-08
 THRORTH =  1.00D-08  GRID    =  1.00D-06  GRIDMAX =  1.00D-03  DTMAX   =  0.00D+00  THROCCDE=  1.00D-01  THROCCDE=  1.00D-01



 THRESHOLDS:

 ZERO    =  1.00D-22  ONEINT  =  1.00D-22  TWOINT  =  1.00D-22  PREFAC  =  1.00D-14  LOCALI  =  1.00D-09  EORDER  =  1.00D-04
 ENERGY  =  1.00D-12  ETEST   =  0.00D+00  EDENS   =  0.00D+00  THRDEDEF=  1.00D-06  GRADIENT=  1.00D-02  STEP    =  1.00D-03
 ORBITAL =  1.00D-05  CIVEC   =  1.00D-05  COEFF   =  1.00D-04  PRINTCI =  5.00D-02  PUNCHCI =  9.90D+01  OPTGRAD =  1.00D-08
 OPTENERG=  1.00D-06  OPTSTEP =  1.00D-08  THRGRAD =  1.00D-10  COMPRESS=  1.00D-11  VARMIN  =  1.00D-07  VARMAX  =  1.00D-03
 THRDOUB =  0.00D+00  THRDIV  =  1.00D-05  THRRED  =  1.00D-07  THRPSP  =  1.00D+00  THRDC   =  1.00D-10  THRCS   =  1.00D-10
 THRNRM  =  1.00D-08  THREQ   =  0.00D+00  THRDE   =  1.00D+00  THRREF  =  1.00D-05  SPARFAC =  1.00D+00  THRDLP  =  1.00D-07
 THRDIA  =  1.00D-10  THRDLS  =  1.00D-07  THRGPS  =  0.00D+00  THRKEX  =  0.00D+00  THRDIS  =  2.00D-01  THRVAR  =  1.00D-10
 THRLOC  =  1.00D-06  THRGAP  =  1.00D-06  THRLOCT = -1.00D+00  THRGAPT = -1.00D+00  THRORB  =  1.00D-06  THRMLTP =  0.00D+00
 THRCPQCI=  1.00D-10  KEXTA   =  0.00D+00  THRCOARS=  0.00D+00  SYMTOL  =  1.00D-06  GRADTOL =  1.00D-06  THROVL  =  1.00D-08
 THRORTH =  1.00D-08  GRID    =  1.00D-06  GRIDMAX =  1.00D-03  DTMAX   =  0.00D+00  THROCCDE=  1.00D-01  THROCCDE=  1.00D-01



 Input parameters for SORTINT:

 COMPRESS =    0.000000
 C_FINAL  =    1.000000
 DEBUG    =   -1.000000
 C_SORT1  =    0.000000
 C_SEWARD =    0.000000
 THRESH   =    0.000000
 IO       =  molpro                                                          
 SPRI     =    0.000000
 SETTING GEOMTYP        =    XYZ
 ZUNIT=BOHR
 

 Variable memory set to  995000000 words,  buffer space   230000 words

 SETTING BASIS          =    AVQZ


 Recomputing integrals since basis changed


 Using spherical harmonics

 Library entry H      S aug-cc-pVQZ          selected for orbital group  1
 Library entry H      P aug-cc-pVQZ          selected for orbital group  1
 Library entry H      D aug-cc-pVQZ          selected for orbital group  1
 Library entry H      F aug-cc-pVQZ          selected for orbital group  1
 Library entry N      S aug-cc-pVQZ          selected for orbital group  2
 Library entry N      P aug-cc-pVQZ          selected for orbital group  2
 Library entry N      D aug-cc-pVQZ          selected for orbital group  2
 Library entry N      F aug-cc-pVQZ          selected for orbital group  2
 Library entry N      G aug-cc-pVQZ          selected for orbital group  2
 Library entry O      S aug-cc-pVQZ          selected for orbital group  3
 Library entry O      P aug-cc-pVQZ          selected for orbital group  3
 Library entry O      D aug-cc-pVQZ          selected for orbital group  3
 Library entry O      F aug-cc-pVQZ          selected for orbital group  3
 Library entry O      G aug-cc-pVQZ          selected for orbital group  3


 PROGRAM * SEWARD (Integral evaluation for generally contracted gaussian basis sets)     Author: Roland Lindh, 1990

 Geometry written to block  1 of record 700


 Point group  Cs  



 ATOMIC COORDINATES

 NR  ATOM    CHARGE       X              Y              Z

   1  H       1.00    0.000000000    1.660470084   -1.917724246
   2  N       7.00    0.000000000   -0.160467836   -1.143725816
   3  O       8.00    0.000000000    0.041765541    1.110860470

 Bond lengths in Bohr (Angstrom)

 1-2  1.978607712  2-3  2.263638147
     ( 1.047034111)     ( 1.197865721)

 Bond angles

  1-2-3  107.90251460

 NUCLEAR CHARGE:                   16
 NUMBER OF PRIMITIVE AOS:         293
 NUMBER OF SYMMETRY AOS:          234
 NUMBER OF CONTRACTIONS:          206   ( 130A'  +  76A"  )
 NUMBER OF CORE ORBITALS:           2   (   2A'  +   0A"  )
 NUMBER OF VALENCE ORBITALS:        9   (   7A'  +   2A"  )


 NUCLEAR REPULSION ENERGY   30.60640516

 Eigenvalues of metric

         1 0.581E-04 0.143E-03 0.313E-03 0.433E-03 0.571E-03 0.671E-03 0.986E-03 0.106E-02
         2 0.795E-03 0.160E-02 0.481E-02 0.888E-02 0.100E-01 0.119E-01 0.123E-01 0.181E-01


 Contracted 2-electron integrals neglected if value below      1.0D-22

      109945103. INTEGRALS WRITTEN OUT IN   26849 BLOCKS ON RECORD 1290 OF FILE 1


 NUMBER OF SORTED TWO-ELECTRON INTEGRALS:  115283741.     BUFFER LENGTH:  32768
 NUMBER OF SEGMENTS:   8  SEGMENT LENGTH:   15998004      RECORD LENGTH: 524288

 Memory used in sort:      16.56 MW

 SORT1 READ   109945103. AND WROTE   110865270. INTEGRALS IN    322 RECORDS. CPU TIME:     1.94 SEC, REAL TIME:     2.72 SEC
 SORT2 READ   110865270. AND WROTE   115283741. INTEGRALS IN      8 RECORDS. CPU TIME:     1.31 SEC, REAL TIME:     1.85 SEC

 FILE SIZES:   FILE 1:  1780.6 MBYTE,  FILE 4:  1350.6 MBYTE,   TOTAL:   3131.2 MBYTE

 OPERATOR DM      FOR CENTER  0  COORDINATES:    0.000000    0.000000    0.000000


 **********************************************************************************************************************************
 DATASETS  * FILE   NREC   LENGTH (MB)   RECORD NAMES
              1      19      944.14       500      610      700      900      950      970     1000      129      960     1100   
                                          VAR    BASINP    GEOM    SYMINP    ZMAT    AOBASIS   BASIS     P2S    ABASIS      S 
                                         1400     1410     1200     1210     1080     1600     1650     1300     1700   
                                           T        V       H0       H01     AOSYM     SMH    MOLCAS    ERIS     OPER   

 PROGRAMS   *        TOTAL       INT
 CPU TIMES  *        11.07     10.98
 REAL TIME  *        14.13 SEC
 DISK USED  *         3.13 GB      
 **********************************************************************************************************************************


 PROGRAM * RHF-SCF (CLOSED SHELL)       Authors: W. Meyer, H.-J. Werner


 NUMBER OF ELECTRONS:       8+    8-
 CONVERGENCE THRESHOLDS:    1.00E-10 (Density)    1.00E-13 (Energy)
 MAX. NUMBER OF ITERATIONS:      500
 INTERPOLATION TYPE:            DIIS
 INTERPOLATION STEPS:              2 (START)      1 (STEP)
 LEVEL SHIFTS:                  0.00 (CLOSED)  0.00 (OPEN) 



 Orbital guess generated from atomic densities. Full valence occupancy:    9   2

 Molecular orbital dump at record        2100.2

 Initial occupancy:   7   1

 ITERATION    DDIFF          GRAD             ENERGY        2-EL.EN.            DIPOLE MOMENTS         DIIS   ORB.
    1      0.000D+00      0.000D+00      -129.79972947    154.392324    0.00000    0.59068   -0.99275    0    start
    2      0.000D+00      0.801D-02      -129.82728987    155.636201    0.00000    0.60465   -0.21291    1    diag
    3      0.639D-02      0.596D-02      -129.84837920    155.738365    0.00000    0.55249   -0.57799    2    diag
    4      0.323D-02      0.958D-03      -129.84915848    155.461896    0.00000    0.56030   -0.51848    3    diag
    5      0.597D-03      0.311D-03      -129.84927999    155.554073    0.00000    0.56552   -0.52119    4    diag
    6      0.247D-03      0.896D-04      -129.84929926    155.538107    0.00000    0.56586   -0.51721    5    diag
    7      0.941D-04      0.442D-04      -129.84930474    155.540937    0.00000    0.56710   -0.51473    6    diag
    8      0.645D-04      0.150D-04      -129.84930531    155.540279    0.00000    0.56714   -0.51379    7    diag
    9      0.237D-04      0.283D-05      -129.84930533    155.540173    0.00000    0.56711   -0.51358    8    diag
   10      0.460D-05      0.656D-06      -129.84930533    155.540156    0.00000    0.56708   -0.51355    9    orth
   11      0.944D-06      0.133D-06      -129.84930533    155.540152    0.00000    0.56707   -0.51355    9    diag
   12      0.179D-06      0.268D-07      -129.84930533    155.540152    0.00000    0.56707   -0.51355    9    diag
   13      0.387D-07      0.680D-08      -129.84930533    155.540152    0.00000    0.56707   -0.51355    9    diag
   14      0.102D-07      0.136D-08      -129.84930533    155.540152    0.00000    0.56707   -0.51355    9    diag
   15      0.191D-08      0.396D-09      -129.84930533    155.540152    0.00000    0.56707   -0.51355    9    diag
   16      0.568D-09      0.123D-09      -129.84930533    155.540152    0.00000    0.56707   -0.51355    9    diag
   17      0.113D-09      0.336D-10      -129.84930533    155.540152    0.00000    0.56707   -0.51355    9    diag
   18      0.342D-10      0.113D-10      -129.84930533    155.540152    0.00000    0.56707   -0.51355    9    diag
   19      0.158D-10      0.279D-11      -129.84930533    155.540152    0.00000    0.56707   -0.51355    9    fixocc
   20      0.596D-11      0.494D-12      -129.84930533    155.540152    0.00000    0.56707   -0.51355    9    orth
   21      0.412D-11      0.299D-12      -129.84930533    155.540152    0.00000    0.56707   -0.51355    0    orth

 Final occupancy:   7   1

 !RHF STATE 1.1 Energy               -129.849305334771
 Nuclear energy                        30.60640516
 One-electron energy                 -238.22578648
 Two-electron energy                   77.77007598
 Virial quotient                       -1.00136787
 !RHF STATE 1.1 Dipole moment           0.00000000     0.56706591    -0.51355127
 Dipole moment /Debye                   0.00000000     1.44124338    -1.30523163

 Orbital energies:

         1.1          2.1          3.1          4.1          5.1          6.1          7.1          8.1          9.1
    -20.652525   -15.710276    -1.538146    -0.993257    -0.750885    -0.668949    -0.427890     0.026514     0.079515

         1.2          2.2          3.2
     -0.600890     0.065852     0.110870

 HOMO      7.1    -0.427890 =     -11.6435eV
 LUMO      8.1     0.026514 =       0.7215eV
 LUMO-HOMO         0.454404 =      12.3650eV


 **********************************************************************************************************************************
 DATASETS  * FILE   NREC   LENGTH (MB)   RECORD NAMES
              1      19      944.14       500      610      700      900      950      970     1000      129      960     1100   
                                          VAR    BASINP    GEOM    SYMINP    ZMAT    AOBASIS   BASIS     P2S    ABASIS      S 
                                         1400     1410     1200     1210     1080     1600     1650     1300     1700   
                                           T        V       H0       H01     AOSYM     SMH    MOLCAS    ERIS     OPER   

              2       4        3.27       700     1000      520     2100   
                                         GEOM     BASIS   MCVARS     RHF  

 PROGRAMS   *        TOTAL        HF       INT
 CPU TIMES  *        21.40     10.33     10.98
 REAL TIME  *        27.02 SEC
 DISK USED  *         3.13 GB      
 **********************************************************************************************************************************


 PROGRAM * CCSD (Closed-shell coupled cluster)     Authors: C. Hampel, H.-J. Werner, 1991, M. Deegan, P.J. Knowles, 1992


 Convergence thresholds:  THRVAR = 1.00D-08  THRDEN = 1.00D-12

 CCSD(T)     terms to be evaluated (factor= 1.000)


 Number of core orbitals:           2 (   2   0 )
 Number of closed-shell orbitals:   6 (   5   1 )
 Number of external orbitals:     198 ( 123  75 )

 Molecular orbitals read from record     2100.2  Type=RHF/CANONICAL (state 1.1)

 Number of N-1 electron functions:               6
 Number of N-2 electron functions:              21
 Number of singly external CSFs:               690
 Number of doubly external CSFs:            362646
 Total number of CSFs:                      363337

 Length of J-op  integral file:               0.00 MB
 Length of K-op  integral file:               1.60 MB
 Length of 3-ext integral record:             0.00 MB

 Memory could be reduced to 34.67 Mwords without degradation in triples

 Integral transformation finished. Total CPU:   1.40 sec, npass=  1  Memory used:   9.53 MW

 Reference energy:                   -129.84930533

 MP2 singlet pair energy:              -0.30047846
 MP2 triplet pair energy:              -0.16968259
 MP2 correlation energy:               -0.47016104
 MP2 total energy:                   -130.31946638

 SCS-MP2 correlation energy:           -0.46615442   (PS=  1.200000  PT=  0.333333)
 SCS-MP2 total energy:               -130.31545976

 ITER.      SQ.NORM     CORR.ENERGY   TOTAL ENERGY   ENERGY CHANGE        DEN1      VAR(S)    VAR(P)  DIIS     TIME  TIME/IT
   1      1.11977674    -0.47060330  -130.31990864    -0.00044226     0.01549464  0.30D-02  0.31D-02  1  1     2.63     1.30
   2      1.13019605    -0.47064817  -130.31995351    -0.00004487    -0.01221746  0.98D-04  0.47D-03  2  2     3.84     1.34
   3      1.13627495    -0.47100732  -130.32031265    -0.00035914    -0.00297468  0.45D-04  0.51D-04  3  3     5.02     1.34
   4      1.13890389    -0.47101464  -130.32031997    -0.00000732    -0.00090185  0.39D-05  0.91D-05  4  4     6.19     1.34
   5      1.13992305    -0.47104194  -130.32034727    -0.00002730    -0.00022322  0.10D-05  0.16D-05  5  5     7.40     1.35
   6      1.14025708    -0.47102835  -130.32033369     0.00001359    -0.00004784  0.10D-06  0.39D-06  6  6     8.60     1.35
   7      1.14032829    -0.47102879  -130.32033412    -0.00000044     0.00000215  0.16D-07  0.86D-07  6  1     9.76     1.35
   8      1.14035015    -0.47102922  -130.32033455    -0.00000043    -0.00000098  0.35D-08  0.16D-07  6  2    10.92     1.35
   9      1.14035496    -0.47102887  -130.32033421     0.00000035     0.00000084  0.24D-08  0.18D-08  6  4    12.10     1.35
  10      1.14035722    -0.47102923  -130.32033457    -0.00000036    -0.00000068  0.42D-09  0.21D-09  6  3    13.28     1.35
  11      1.14035690    -0.47102929  -130.32033463    -0.00000006    -0.00000009  0.13D-09  0.30D-10  6  5    14.46     1.35
  12      1.14035600    -0.47102942  -130.32033476    -0.00000013     0.00000034  0.16D-10  0.93D-11  6  6    15.59     1.35
  13      1.14035522    -0.47102946  -130.32033479    -0.00000004     0.00000020  0.51D-11  0.20D-11  6  1    16.79     1.35
  14      1.14035462    -0.47102949  -130.32033482    -0.00000003     0.00000014  0.37D-12  0.40D-12  6  4    17.96     1.35
  15      1.14035443    -0.47102949  -130.32033483    -0.00000001     0.00000003  0.78D-13  0.31D-13  6  2    19.12     1.35
  16      1.14035439    -0.47102949  -130.32033483    -0.00000000     0.00000001  0.22D-13  0.60D-14  6  3    20.27     1.35
  17      1.14035437    -0.47102950  -130.32033483    -0.00000000     0.00000001  0.38D-14  0.94D-15  6  5    21.43     1.34
  18      1.14035436    -0.47102950  -130.32033483     0.00000000     0.00000000  0.73D-15  0.24D-15  6  6    22.64     1.34
  19      1.14035436    -0.47102950  -130.32033483     0.00000000    -0.00000000  0.79D-16  0.47D-16  6  1    23.80     1.34
  20      1.14035437    -0.47102950  -130.32033483     0.00000000    -0.00000000  0.82D-17  0.69D-17  6  4    24.98     1.34
  21      1.14035437    -0.47102950  -130.32033483     0.00000000    -0.00000000  0.45D-18  0.58D-18  6  3    26.10     1.34
  22      1.14035437    -0.47102950  -130.32033483     0.00000000    -0.00000000  0.11D-18  0.13D-18  6  2    27.29     1.34
  23      1.14035437    -0.47102950  -130.32033483     0.00000000    -0.00000000  0.88D-20  0.27D-19  6  1    28.46     1.34
  24      1.14035437    -0.47102950  -130.32033483    -0.00000000     0.00000000  0.13D-20  0.52D-20  6  5    29.63     1.34

 Norm of t1 vector:      0.07486084      S-energy:     0.00000000      T1 diagnostic:  0.01528091
                                                                       D1 diagnostic:  0.04082442

 Doubles amplitudes (print threshold =  0.500E-01):

         I         J         SYM. A    SYM. B    A         B      T(IJ, AB)

         6         6         2         2         1         1     -0.09298747


 Total CPU time for triples:     14.83 sec


 RESULTS
 =======

  Reference energy                   -129.849305334771
  CCSD singlet pair energy             -0.325353559808
  CCSD triplet pair energy             -0.145675935775
  CCSD correlation energy              -0.471029495582

  Triples (T) contribution             -0.022008376795
  Total correlation energy             -0.493037872377

  CCSD total energy                  -130.320334830353
  CCSD[T] energy                     -130.343367237277
  CCSD-T energy                      -130.341970576054
 !CCSD(T) total energy               -130.342343207148

 Timing summary (sec):

 STEP                 CPU(USER)    SYS     CPU(TOT)    WALL
 Transformation          1.41      0.29      1.70      1.71
 CCSD iterations        28.22      4.02     32.24     32.24
 Triples                14.83      0.44     15.27     15.26

 Program statistics:

 Available memory in ccsd:               994999756
 Min. memory needed in ccsd:               1265322
 Max. memory used in ccsd:                 1555950
 Max. memory used in cckext:               2415326 (24 integral passes)



 **********************************************************************************************************************************
 DATASETS  * FILE   NREC   LENGTH (MB)   RECORD NAMES
              1      20     1044.69       500      610      700      900      950      970     1000      129      960     1100   
                                          VAR    BASINP    GEOM    SYMINP    ZMAT    AOBASIS   BASIS     P2S    ABASIS      S 
                                         1400     1410     1200     1210     1080     1600     1650     1300     1700     1380   
                                           T        V       H0       H01     AOSYM     SMH    MOLCAS    ERIS     OPER     JKOP   

              2       4        3.27       700     1000      520     2100   
                                         GEOM     BASIS   MCVARS     RHF  

 PROGRAMS   *        TOTAL   CCSD(T)        HF       INT
 CPU TIMES  *        65.88     44.48     10.33     10.98
 REAL TIME  *        76.26 SEC
 DISK USED  *         3.13 GB      
 **********************************************************************************************************************************

 CCSD(T)/aug-cc-pVQZ energy=   -130.342343207148

        CCSD(T)         HF-SCF  
   -130.34234321   -129.84930533
 **********************************************************************************************************************************
 Molpro calculation terminated
 Variable memory released
