
 Primary working directories    : /tmp/r2666/282094.maple
 Secondary working directories  : /tmp/r2666/282094.maple
 Wavefunction directory         : /ddn/home4/r2666/wfu/
 Main file repository           : /tmp/r2666/282094.maple/

 SHA1      : d5ffa45e93fdbca01ffc919aa182cfdae0147319
 NAME      : 2015.1.35
 ARCHNAME  : linux/x86_64
 FC        : /opt/intel/composer_xe_2015.1.133/bin/intel64/ifort
 BLASLIB   : -Wl,-_start-group /opt/intel/mkl/lib/intel64/libmkl_intel_ilp64.a /opt/intel/mkl/lib/intel64/libmkl_intel_thread.a /opt/intel/mkl/lib/intel64/libmkl_core.a -Wl,-_end-group
 id        : olemiss

 Nodes     nprocs
 cn094        1

 Using customized tuning parameters: mindgm=1; mindgv=20; mindgc=4; mindgr=1; noblas=0; minvec=7
 default implementation of scratch files=df  

 ***,hno CCSD(T)/TZ-F12 QFF
 memory, 995, m;
 gthresh,energy=1.d-12,zero=1.d-22,oneint=1.d-22,twoint=1.d-22;
 gthresh,optgrad=1.d-8,optstep=1.d-8;
 nocompress;
 geomtyp=xyz
 bohr
 geometry={
 3
        120       120
 H        0.0000000000        1.6765478477       -1.9349523979
 N        0.0000000000       -0.1701900929       -1.1491905134
 O        0.0000000000        0.0354100351        1.1335533203
 }
 
 basis=avqz
   {hf,maxit=500;accu,20;}
 {ccsd(t),nocheck,maxit=250;orbital,IGNORE_ERROR;}

 Variables initialized (889), CPU time= 0.00 sec
 Commands  initialized (702), CPU time= 0.02 sec, 572 directives.
 Default parameters read. Elapsed time= 0.07 sec

 Checking input...
 Passed
1


                                         ***  PROGRAM SYSTEM MOLPRO  ***
                                       Copyright, TTI GmbH Stuttgart, 2015
                                    Version 2015.1 linked Jul  9 2018 13:16:40


 **********************************************************************************************************************************
 LABEL *   hno CCSD(T)/TZ-F12 QFF                                                        
  64 bit serial version                                                                  DATE: 04-Mar-20          TIME: 13:45:15  
 **********************************************************************************************************************************

 SHA1:             d5ffa45e93fdbca01ffc919aa182cfdae0147319
 **********************************************************************************************************************************

 THRESHOLDS:

 ZERO    =  1.00D-22  ONEINT  =  1.00D-22  TWOINT  =  1.00D-22  PREFAC  =  1.00D-14  LOCALI  =  1.00D-09  EORDER  =  1.00D-04
 ENERGY  =  1.00D-12  ETEST   =  0.00D+00  EDENS   =  0.00D+00  THRDEDEF=  1.00D-06  GRADIENT=  1.00D-02  STEP    =  1.00D-03
 ORBITAL =  1.00D-05  CIVEC   =  1.00D-05  COEFF   =  1.00D-04  PRINTCI =  5.00D-02  PUNCHCI =  9.90D+01  OPTGRAD =  3.00D-04
 OPTENERG=  1.00D-06  OPTSTEP =  3.00D-04  THRGRAD =  1.00D-10  COMPRESS=  1.00D-11  VARMIN  =  1.00D-07  VARMAX  =  1.00D-03
 THRDOUB =  0.00D+00  THRDIV  =  1.00D-05  THRRED  =  1.00D-07  THRPSP  =  1.00D+00  THRDC   =  1.00D-10  THRCS   =  1.00D-10
 THRNRM  =  1.00D-08  THREQ   =  0.00D+00  THRDE   =  1.00D+00  THRREF  =  1.00D-05  SPARFAC =  1.00D+00  THRDLP  =  1.00D-07
 THRDIA  =  1.00D-10  THRDLS  =  1.00D-07  THRGPS  =  0.00D+00  THRKEX  =  0.00D+00  THRDIS  =  2.00D-01  THRVAR  =  1.00D-10
 THRLOC  =  1.00D-06  THRGAP  =  1.00D-06  THRLOCT = -1.00D+00  THRGAPT = -1.00D+00  THRORB  =  1.00D-06  THRMLTP =  0.00D+00
 THRCPQCI=  1.00D-10  KEXTA   =  0.00D+00  THRCOARS=  0.00D+00  SYMTOL  =  1.00D-06  GRADTOL =  1.00D-06  THROVL  =  1.00D-08
 THRORTH =  1.00D-08  GRID    =  1.00D-06  GRIDMAX =  1.00D-03  DTMAX   =  0.00D+00  THROCCDE=  1.00D-01  THROCCDE=  1.00D-01



 THRESHOLDS:

 ZERO    =  1.00D-22  ONEINT  =  1.00D-22  TWOINT  =  1.00D-22  PREFAC  =  1.00D-14  LOCALI  =  1.00D-09  EORDER  =  1.00D-04
 ENERGY  =  1.00D-12  ETEST   =  0.00D+00  EDENS   =  0.00D+00  THRDEDEF=  1.00D-06  GRADIENT=  1.00D-02  STEP    =  1.00D-03
 ORBITAL =  1.00D-05  CIVEC   =  1.00D-05  COEFF   =  1.00D-04  PRINTCI =  5.00D-02  PUNCHCI =  9.90D+01  OPTGRAD =  1.00D-08
 OPTENERG=  1.00D-06  OPTSTEP =  1.00D-08  THRGRAD =  1.00D-10  COMPRESS=  1.00D-11  VARMIN  =  1.00D-07  VARMAX  =  1.00D-03
 THRDOUB =  0.00D+00  THRDIV  =  1.00D-05  THRRED  =  1.00D-07  THRPSP  =  1.00D+00  THRDC   =  1.00D-10  THRCS   =  1.00D-10
 THRNRM  =  1.00D-08  THREQ   =  0.00D+00  THRDE   =  1.00D+00  THRREF  =  1.00D-05  SPARFAC =  1.00D+00  THRDLP  =  1.00D-07
 THRDIA  =  1.00D-10  THRDLS  =  1.00D-07  THRGPS  =  0.00D+00  THRKEX  =  0.00D+00  THRDIS  =  2.00D-01  THRVAR  =  1.00D-10
 THRLOC  =  1.00D-06  THRGAP  =  1.00D-06  THRLOCT = -1.00D+00  THRGAPT = -1.00D+00  THRORB  =  1.00D-06  THRMLTP =  0.00D+00
 THRCPQCI=  1.00D-10  KEXTA   =  0.00D+00  THRCOARS=  0.00D+00  SYMTOL  =  1.00D-06  GRADTOL =  1.00D-06  THROVL  =  1.00D-08
 THRORTH =  1.00D-08  GRID    =  1.00D-06  GRIDMAX =  1.00D-03  DTMAX   =  0.00D+00  THROCCDE=  1.00D-01  THROCCDE=  1.00D-01



 Input parameters for SORTINT:

 COMPRESS =    0.000000
 C_FINAL  =    1.000000
 DEBUG    =   -1.000000
 C_SORT1  =    0.000000
 C_SEWARD =    0.000000
 THRESH   =    0.000000
 IO       =  molpro                                                          
 SPRI     =    0.000000
 SETTING GEOMTYP        =    XYZ
 ZUNIT=BOHR
 

 Variable memory set to  995000000 words,  buffer space   230000 words

 SETTING BASIS          =    AVQZ


 Recomputing integrals since basis changed


 Using spherical harmonics

 Library entry H      S aug-cc-pVQZ          selected for orbital group  1
 Library entry H      P aug-cc-pVQZ          selected for orbital group  1
 Library entry H      D aug-cc-pVQZ          selected for orbital group  1
 Library entry H      F aug-cc-pVQZ          selected for orbital group  1
 Library entry N      S aug-cc-pVQZ          selected for orbital group  2
 Library entry N      P aug-cc-pVQZ          selected for orbital group  2
 Library entry N      D aug-cc-pVQZ          selected for orbital group  2
 Library entry N      F aug-cc-pVQZ          selected for orbital group  2
 Library entry N      G aug-cc-pVQZ          selected for orbital group  2
 Library entry O      S aug-cc-pVQZ          selected for orbital group  3
 Library entry O      P aug-cc-pVQZ          selected for orbital group  3
 Library entry O      D aug-cc-pVQZ          selected for orbital group  3
 Library entry O      F aug-cc-pVQZ          selected for orbital group  3
 Library entry O      G aug-cc-pVQZ          selected for orbital group  3


 PROGRAM * SEWARD (Integral evaluation for generally contracted gaussian basis sets)     Author: Roland Lindh, 1990

 Geometry written to block  1 of record 700


 Point group  Cs  



 ATOMIC COORDINATES

 NR  ATOM    CHARGE       X              Y              Z

   1  H       1.00    0.000000000    1.676547848   -1.934952398
   2  N       7.00    0.000000000   -0.170190093   -1.149190513
   3  O       8.00    0.000000000    0.035410035    1.133553320

 Bond lengths in Bohr (Angstrom)

 1-2  2.006953602  2-3  2.291984036
     ( 1.062034110)     ( 1.212865720)

 Bond angles

  1-2-3  107.90251459

 NUCLEAR CHARGE:                   16
 NUMBER OF PRIMITIVE AOS:         293
 NUMBER OF SYMMETRY AOS:          234
 NUMBER OF CONTRACTIONS:          206   ( 130A'  +  76A"  )
 NUMBER OF CORE ORBITALS:           2   (   2A'  +   0A"  )
 NUMBER OF VALENCE ORBITALS:        9   (   7A'  +   2A"  )


 NUCLEAR REPULSION ENERGY   30.21983101

 Eigenvalues of metric

         1 0.608E-04 0.148E-03 0.321E-03 0.437E-03 0.599E-03 0.698E-03 0.103E-02 0.109E-02
         2 0.839E-03 0.168E-02 0.506E-02 0.898E-02 0.103E-01 0.125E-01 0.127E-01 0.194E-01


 Contracted 2-electron integrals neglected if value below      1.0D-22

      109945084. INTEGRALS WRITTEN OUT IN   26849 BLOCKS ON RECORD 1290 OF FILE 1


 NUMBER OF SORTED TWO-ELECTRON INTEGRALS:  115283741.     BUFFER LENGTH:  32768
 NUMBER OF SEGMENTS:   8  SEGMENT LENGTH:   15998004      RECORD LENGTH: 524288

 Memory used in sort:      16.56 MW

 SORT1 READ   109945084. AND WROTE   110865251. INTEGRALS IN    322 RECORDS. CPU TIME:     1.76 SEC, REAL TIME:     2.49 SEC
 SORT2 READ   110865251. AND WROTE   115283741. INTEGRALS IN      8 RECORDS. CPU TIME:     1.33 SEC, REAL TIME:     1.74 SEC

 FILE SIZES:   FILE 1:  1780.6 MBYTE,  FILE 4:  1350.6 MBYTE,   TOTAL:   3131.2 MBYTE

 OPERATOR DM      FOR CENTER  0  COORDINATES:    0.000000    0.000000    0.000000


 **********************************************************************************************************************************
 DATASETS  * FILE   NREC   LENGTH (MB)   RECORD NAMES
              1      19      944.14       500      610      700      900      950      970     1000      129      960     1100   
                                          VAR    BASINP    GEOM    SYMINP    ZMAT    AOBASIS   BASIS     P2S    ABASIS      S 
                                         1400     1410     1200     1210     1080     1600     1650     1300     1700   
                                           T        V       H0       H01     AOSYM     SMH    MOLCAS    ERIS     OPER   

 PROGRAMS   *        TOTAL       INT
 CPU TIMES  *        10.47     10.35
 REAL TIME  *        13.02 SEC
 DISK USED  *         3.13 GB      
 **********************************************************************************************************************************


 PROGRAM * RHF-SCF (CLOSED SHELL)       Authors: W. Meyer, H.-J. Werner


 NUMBER OF ELECTRONS:       8+    8-
 CONVERGENCE THRESHOLDS:    1.00E-10 (Density)    1.00E-13 (Energy)
 MAX. NUMBER OF ITERATIONS:      500
 INTERPOLATION TYPE:            DIIS
 INTERPOLATION STEPS:              2 (START)      1 (STEP)
 LEVEL SHIFTS:                  0.00 (CLOSED)  0.00 (OPEN) 



 Orbital guess generated from atomic densities. Full valence occupancy:    9   2

 Molecular orbital dump at record        2100.2

 Initial occupancy:   7   1

 ITERATION    DDIFF          GRAD             ENERGY        2-EL.EN.            DIPOLE MOMENTS         DIIS   ORB.
    1      0.000D+00      0.000D+00      -129.79430305    153.687845    0.00000    0.58764   -1.04301    0    start
    2      0.000D+00      0.820D-02      -129.82140040    154.920965    0.00000    0.61295   -0.20000    1    diag
    3      0.664D-02      0.635D-02      -129.84563476    155.052495    0.00000    0.55432   -0.59893    2    diag
    4      0.341D-02      0.976D-03      -129.84645126    154.761983    0.00000    0.56168   -0.53684    3    diag
    5      0.610D-03      0.320D-03      -129.84658184    154.856805    0.00000    0.56711   -0.53936    4    diag
    6      0.257D-03      0.931D-04      -129.84660285    154.840409    0.00000    0.56737   -0.53505    5    diag
    7      0.985D-04      0.465D-04      -129.84660902    154.843177    0.00000    0.56862   -0.53236    6    diag
    8      0.681D-04      0.165D-04      -129.84660975    154.842452    0.00000    0.56866   -0.53129    7    diag
    9      0.269D-04      0.320D-05      -129.84660978    154.842327    0.00000    0.56862   -0.53106    8    diag
   10      0.543D-05      0.720D-06      -129.84660978    154.842308    0.00000    0.56859   -0.53103    9    orth
   11      0.104D-05      0.143D-06      -129.84660978    154.842304    0.00000    0.56858   -0.53103    9    diag
   12      0.189D-06      0.295D-07      -129.84660978    154.842304    0.00000    0.56858   -0.53103    9    diag
   13      0.411D-07      0.773D-08      -129.84660978    154.842304    0.00000    0.56858   -0.53103    9    diag
   14      0.114D-07      0.152D-08      -129.84660978    154.842304    0.00000    0.56858   -0.53103    9    diag
   15      0.207D-08      0.433D-09      -129.84660978    154.842304    0.00000    0.56858   -0.53103    9    diag
   16      0.620D-09      0.128D-09      -129.84660978    154.842304    0.00000    0.56858   -0.53103    9    diag
   17      0.114D-09      0.336D-10      -129.84660978    154.842304    0.00000    0.56858   -0.53103    9    diag
   18      0.311D-10      0.114D-10      -129.84660978    154.842304    0.00000    0.56858   -0.53103    9    diag
   19      0.161D-10      0.269D-11      -129.84660978    154.842304    0.00000    0.56858   -0.53103    9    fixocc
   20      0.556D-11      0.483D-12      -129.84660978    154.842304    0.00000    0.56858   -0.53103    9    orth
   21      0.338D-11      0.230D-12      -129.84660978    154.842304    0.00000    0.56858   -0.53103    9    diag
   22      0.284D-11      0.143D-12      -129.84660978    154.842304    0.00000    0.56858   -0.53103    9    diag
   23      0.929D-12      0.145D-12      -129.84660978    154.842304    0.00000    0.56858   -0.53103    9    diag
   24      0.128D-11      0.837D-13      -129.84660978    154.842304    0.00000    0.56858   -0.53103    9    diag
   25      0.686D-12      0.127D-12      -129.84660978    154.842304    0.00000    0.56858   -0.53103    9    diag
   26      0.579D-12      0.110D-12      -129.84660978    154.842304    0.00000    0.56858   -0.53103    9    diag
   27      0.264D-12      0.102D-12      -129.84660978    154.842304    0.00000    0.56858   -0.53103    9    diag
   28      0.245D-12      0.107D-12      -129.84660978    154.842304    0.00000    0.56858   -0.53103    0    orth

 Final occupancy:   7   1

 !RHF STATE 1.1 Energy               -129.846609782161
 Nuclear energy                        30.21983101
 One-electron energy                 -237.48759278
 Two-electron energy                   77.42115198
 Virial quotient                       -1.00200029
 !RHF STATE 1.1 Dipole moment           0.00000000     0.56857533    -0.53102657
 Dipole moment /Debye                   0.00000000     1.44507969    -1.34964651

 Orbital energies:

         1.1          2.1          3.1          4.1          5.1          6.1          7.1          8.1          9.1
    -20.654267   -15.714887    -1.525629    -0.993018    -0.744623    -0.664654    -0.431626     0.026310     0.079467

         1.2          2.2          3.2
     -0.593940     0.062106     0.110451

 HOMO      7.1    -0.431626 =     -11.7451eV
 LUMO      8.1     0.026310 =       0.7159eV
 LUMO-HOMO         0.457936 =      12.4611eV


 **********************************************************************************************************************************
 DATASETS  * FILE   NREC   LENGTH (MB)   RECORD NAMES
              1      19      944.14       500      610      700      900      950      970     1000      129      960     1100   
                                          VAR    BASINP    GEOM    SYMINP    ZMAT    AOBASIS   BASIS     P2S    ABASIS      S 
                                         1400     1410     1200     1210     1080     1600     1650     1300     1700   
                                           T        V       H0       H01     AOSYM     SMH    MOLCAS    ERIS     OPER   

              2       4        3.27       700     1000      520     2100   
                                         GEOM     BASIS   MCVARS     RHF  

 PROGRAMS   *        TOTAL        HF       INT
 CPU TIMES  *        23.80     13.33     10.35
 REAL TIME  *        29.35 SEC
 DISK USED  *         3.13 GB      
 **********************************************************************************************************************************


 PROGRAM * CCSD (Closed-shell coupled cluster)     Authors: C. Hampel, H.-J. Werner, 1991, M. Deegan, P.J. Knowles, 1992


 Convergence thresholds:  THRVAR = 1.00D-08  THRDEN = 1.00D-12

 CCSD(T)     terms to be evaluated (factor= 1.000)


 Number of core orbitals:           2 (   2   0 )
 Number of closed-shell orbitals:   6 (   5   1 )
 Number of external orbitals:     198 ( 123  75 )

 Molecular orbitals read from record     2100.2  Type=RHF/CANONICAL (state 1.1)

 Number of N-1 electron functions:               6
 Number of N-2 electron functions:              21
 Number of singly external CSFs:               690
 Number of doubly external CSFs:            362646
 Total number of CSFs:                      363337

 Length of J-op  integral file:               0.00 MB
 Length of K-op  integral file:               1.60 MB
 Length of 3-ext integral record:             0.00 MB

 Memory could be reduced to 34.67 Mwords without degradation in triples

 Integral transformation finished. Total CPU:   1.36 sec, npass=  1  Memory used:   9.53 MW

 Reference energy:                   -129.84660978

 MP2 singlet pair energy:              -0.30234664
 MP2 triplet pair energy:              -0.17091027
 MP2 correlation energy:               -0.47325691
 MP2 total energy:                   -130.31986669

 SCS-MP2 correlation energy:           -0.46916013   (PS=  1.200000  PT=  0.333333)
 SCS-MP2 total energy:               -130.31576991

 ITER.      SQ.NORM     CORR.ENERGY   TOTAL ENERGY   ENERGY CHANGE        DEN1      VAR(S)    VAR(P)  DIIS     TIME  TIME/IT
   1      1.12189246    -0.47306534  -130.31967512     0.00019157     0.01690662  0.32D-02  0.33D-02  1  1     2.46     1.26
   2      1.13277836    -0.47297511  -130.31958489     0.00009023    -0.01268197  0.11D-03  0.50D-03  2  2     3.66     1.29
   3      1.13923949    -0.47336670  -130.31997649    -0.00039160    -0.00309896  0.51D-04  0.55D-04  3  3     4.88     1.31
   4      1.14206921    -0.47337248  -130.31998227    -0.00000578    -0.00095867  0.47D-05  0.99D-05  4  4     6.02     1.31
   5      1.14320973    -0.47340354  -130.32001332    -0.00003105    -0.00024860  0.12D-05  0.16D-05  5  5     7.15     1.31
   6      1.14357521    -0.47338805  -130.31999783     0.00001549    -0.00005261  0.12D-06  0.39D-06  6  6     8.32     1.31
   7      1.14364957    -0.47338837  -130.31999815    -0.00000032     0.00000260  0.18D-07  0.89D-07  6  1     9.50     1.32
   8      1.14367295    -0.47338862  -130.31999840    -0.00000025    -0.00000128  0.34D-08  0.18D-07  6  2    10.67     1.33
   9      1.14367829    -0.47338818  -130.31999796     0.00000044     0.00000102  0.25D-08  0.21D-08  6  4    11.84     1.32
  10      1.14368087    -0.47338856  -130.31999835    -0.00000038    -0.00000078  0.47D-09  0.26D-09  6  3    13.05     1.33
  11      1.14368062    -0.47338863  -130.31999841    -0.00000006    -0.00000012  0.16D-09  0.37D-10  6  5    14.21     1.33
  12      1.14367963    -0.47338877  -130.31999855    -0.00000015     0.00000036  0.20D-10  0.11D-10  6  6    15.38     1.33
  13      1.14367875    -0.47338881  -130.31999860    -0.00000004     0.00000022  0.61D-11  0.24D-11  6  1    16.57     1.33
  14      1.14367805    -0.47338885  -130.31999863    -0.00000003     0.00000016  0.39D-12  0.50D-12  6  4    17.74     1.33
  15      1.14367784    -0.47338886  -130.31999864    -0.00000001     0.00000003  0.92D-13  0.38D-13  6  2    18.87     1.33
  16      1.14367779    -0.47338886  -130.31999864    -0.00000000     0.00000001  0.25D-13  0.73D-14  6  3    20.04     1.33
  17      1.14367776    -0.47338886  -130.31999864    -0.00000000     0.00000001  0.45D-14  0.11D-14  6  5    21.20     1.33
  18      1.14367776    -0.47338886  -130.31999864    -0.00000000     0.00000000  0.90D-15  0.29D-15  6  6    22.36     1.33
  19      1.14367776    -0.47338886  -130.31999864    -0.00000000     0.00000000  0.10D-15  0.57D-16  6  1    23.56     1.33
  20      1.14367776    -0.47338886  -130.31999864     0.00000000    -0.00000000  0.10D-16  0.82D-17  6  4    24.75     1.33
  21      1.14367776    -0.47338886  -130.31999864     0.00000000    -0.00000000  0.57D-18  0.66D-18  6  3    25.91     1.33
  22      1.14367776    -0.47338886  -130.31999864     0.00000000    -0.00000000  0.14D-18  0.14D-18  6  2    27.09     1.33
  23      1.14367776    -0.47338886  -130.31999864     0.00000000     0.00000000  0.44D-19  0.51D-19  6  5    28.25     1.33
  24      1.14367776    -0.47338886  -130.31999864    -0.00000000     0.00000000  0.36D-20  0.11D-19  6  1    29.37     1.33

 Norm of t1 vector:      0.07794116      S-energy:    -0.00000000      T1 diagnostic:  0.01590967
                                                                       D1 diagnostic:  0.04281422

 Doubles amplitudes (print threshold =  0.500E-01):

         I         J         SYM. A    SYM. B    A         B      T(IJ, AB)

         6         6         2         2         1         1     -0.10122666


 Total CPU time for triples:     14.19 sec


 RESULTS
 =======

  Reference energy                   -129.846609782161
  CCSD singlet pair energy             -0.327390020325
  CCSD triplet pair energy             -0.145998837824
  CCSD correlation energy              -0.473388858151

  Triples (T) contribution             -0.022583958883
  Total correlation energy             -0.495972817034

  CCSD total energy                  -130.319998640312
  CCSD[T] energy                     -130.343687003696
  CCSD-T energy                      -130.342188531975
 !CCSD(T) total energy               -130.342582599195

 Timing summary (sec):

 STEP                 CPU(USER)    SYS     CPU(TOT)    WALL
 Transformation          1.38      0.22      1.60      1.60
 CCSD iterations        28.00      3.83     31.83     31.85
 Triples                14.19      0.39     14.58     14.59

 Program statistics:

 Available memory in ccsd:               994999756
 Min. memory needed in ccsd:               1265322
 Max. memory used in ccsd:                 1555950
 Max. memory used in cckext:               2415326 (24 integral passes)



 **********************************************************************************************************************************
 DATASETS  * FILE   NREC   LENGTH (MB)   RECORD NAMES
              1      20     1044.69       500      610      700      900      950      970     1000      129      960     1100   
                                          VAR    BASINP    GEOM    SYMINP    ZMAT    AOBASIS   BASIS     P2S    ABASIS      S 
                                         1400     1410     1200     1210     1080     1600     1650     1300     1700     1380   
                                           T        V       H0       H01     AOSYM     SMH    MOLCAS    ERIS     OPER     JKOP   

              2       4        3.27       700     1000      520     2100   
                                         GEOM     BASIS   MCVARS     RHF  

 PROGRAMS   *        TOTAL   CCSD(T)        HF       INT
 CPU TIMES  *        67.39     43.59     13.33     10.35
 REAL TIME  *        77.42 SEC
 DISK USED  *         3.13 GB      
 **********************************************************************************************************************************

 CCSD(T)/aug-cc-pVQZ energy=   -130.342582599195

        CCSD(T)         HF-SCF  
   -130.34258260   -129.84660978
 **********************************************************************************************************************************
 Molpro calculation terminated
 Variable memory released
