
 Primary working directories    : /tmp/r2666/282028.maple
 Secondary working directories  : /tmp/r2666/282028.maple
 Wavefunction directory         : /ddn/home4/r2666/wfu/
 Main file repository           : /tmp/r2666/282028.maple/

 SHA1      : d5ffa45e93fdbca01ffc919aa182cfdae0147319
 NAME      : 2015.1.35
 ARCHNAME  : linux/x86_64
 FC        : /opt/intel/composer_xe_2015.1.133/bin/intel64/ifort
 BLASLIB   : -Wl,-_start-group /opt/intel/mkl/lib/intel64/libmkl_intel_ilp64.a /opt/intel/mkl/lib/intel64/libmkl_intel_thread.a /opt/intel/mkl/lib/intel64/libmkl_core.a -Wl,-_end-group
 id        : olemiss

 Nodes     nprocs
 cn089        1

 Using customized tuning parameters: mindgm=1; mindgv=20; mindgc=4; mindgr=1; noblas=0; minvec=7
 default implementation of scratch files=df  

 ***,hno CCSD(T)/TZ-F12 QFF
 memory, 995, m;
 gthresh,energy=1.d-12,zero=1.d-22,oneint=1.d-22,twoint=1.d-22;
 gthresh,optgrad=1.d-8,optstep=1.d-8;
 nocompress;
 geomtyp=xyz
 bohr
 geometry={
 3
         54        54
 H        0.0000000000        1.6656352333       -1.9319196047
 N        0.0000000000       -0.1566605258       -1.1371830535
 O        0.0000000000        0.0327930825        1.1185130672
 }
 
 basis=avqz
   {hf,maxit=500;accu,20;}
 {ccsd(t),nocheck,maxit=250;orbital,IGNORE_ERROR;}

 Variables initialized (889), CPU time= 0.00 sec
 Commands  initialized (702), CPU time= 0.01 sec, 572 directives.
 Default parameters read. Elapsed time= 0.04 sec

 Checking input...
 Passed
1


                                         ***  PROGRAM SYSTEM MOLPRO  ***
                                       Copyright, TTI GmbH Stuttgart, 2015
                                    Version 2015.1 linked Jul  9 2018 13:16:40


 **********************************************************************************************************************************
 LABEL *   hno CCSD(T)/TZ-F12 QFF                                                        
  64 bit serial version                                                                  DATE: 04-Mar-20          TIME: 13:41:59  
 **********************************************************************************************************************************

 SHA1:             d5ffa45e93fdbca01ffc919aa182cfdae0147319
 **********************************************************************************************************************************

 THRESHOLDS:

 ZERO    =  1.00D-22  ONEINT  =  1.00D-22  TWOINT  =  1.00D-22  PREFAC  =  1.00D-14  LOCALI  =  1.00D-09  EORDER  =  1.00D-04
 ENERGY  =  1.00D-12  ETEST   =  0.00D+00  EDENS   =  0.00D+00  THRDEDEF=  1.00D-06  GRADIENT=  1.00D-02  STEP    =  1.00D-03
 ORBITAL =  1.00D-05  CIVEC   =  1.00D-05  COEFF   =  1.00D-04  PRINTCI =  5.00D-02  PUNCHCI =  9.90D+01  OPTGRAD =  3.00D-04
 OPTENERG=  1.00D-06  OPTSTEP =  3.00D-04  THRGRAD =  1.00D-10  COMPRESS=  1.00D-11  VARMIN  =  1.00D-07  VARMAX  =  1.00D-03
 THRDOUB =  0.00D+00  THRDIV  =  1.00D-05  THRRED  =  1.00D-07  THRPSP  =  1.00D+00  THRDC   =  1.00D-10  THRCS   =  1.00D-10
 THRNRM  =  1.00D-08  THREQ   =  0.00D+00  THRDE   =  1.00D+00  THRREF  =  1.00D-05  SPARFAC =  1.00D+00  THRDLP  =  1.00D-07
 THRDIA  =  1.00D-10  THRDLS  =  1.00D-07  THRGPS  =  0.00D+00  THRKEX  =  0.00D+00  THRDIS  =  2.00D-01  THRVAR  =  1.00D-10
 THRLOC  =  1.00D-06  THRGAP  =  1.00D-06  THRLOCT = -1.00D+00  THRGAPT = -1.00D+00  THRORB  =  1.00D-06  THRMLTP =  0.00D+00
 THRCPQCI=  1.00D-10  KEXTA   =  0.00D+00  THRCOARS=  0.00D+00  SYMTOL  =  1.00D-06  GRADTOL =  1.00D-06  THROVL  =  1.00D-08
 THRORTH =  1.00D-08  GRID    =  1.00D-06  GRIDMAX =  1.00D-03  DTMAX   =  0.00D+00  THROCCDE=  1.00D-01  THROCCDE=  1.00D-01



 THRESHOLDS:

 ZERO    =  1.00D-22  ONEINT  =  1.00D-22  TWOINT  =  1.00D-22  PREFAC  =  1.00D-14  LOCALI  =  1.00D-09  EORDER  =  1.00D-04
 ENERGY  =  1.00D-12  ETEST   =  0.00D+00  EDENS   =  0.00D+00  THRDEDEF=  1.00D-06  GRADIENT=  1.00D-02  STEP    =  1.00D-03
 ORBITAL =  1.00D-05  CIVEC   =  1.00D-05  COEFF   =  1.00D-04  PRINTCI =  5.00D-02  PUNCHCI =  9.90D+01  OPTGRAD =  1.00D-08
 OPTENERG=  1.00D-06  OPTSTEP =  1.00D-08  THRGRAD =  1.00D-10  COMPRESS=  1.00D-11  VARMIN  =  1.00D-07  VARMAX  =  1.00D-03
 THRDOUB =  0.00D+00  THRDIV  =  1.00D-05  THRRED  =  1.00D-07  THRPSP  =  1.00D+00  THRDC   =  1.00D-10  THRCS   =  1.00D-10
 THRNRM  =  1.00D-08  THREQ   =  0.00D+00  THRDE   =  1.00D+00  THRREF  =  1.00D-05  SPARFAC =  1.00D+00  THRDLP  =  1.00D-07
 THRDIA  =  1.00D-10  THRDLS  =  1.00D-07  THRGPS  =  0.00D+00  THRKEX  =  0.00D+00  THRDIS  =  2.00D-01  THRVAR  =  1.00D-10
 THRLOC  =  1.00D-06  THRGAP  =  1.00D-06  THRLOCT = -1.00D+00  THRGAPT = -1.00D+00  THRORB  =  1.00D-06  THRMLTP =  0.00D+00
 THRCPQCI=  1.00D-10  KEXTA   =  0.00D+00  THRCOARS=  0.00D+00  SYMTOL  =  1.00D-06  GRADTOL =  1.00D-06  THROVL  =  1.00D-08
 THRORTH =  1.00D-08  GRID    =  1.00D-06  GRIDMAX =  1.00D-03  DTMAX   =  0.00D+00  THROCCDE=  1.00D-01  THROCCDE=  1.00D-01



 Input parameters for SORTINT:

 COMPRESS =    0.000000
 C_FINAL  =    1.000000
 DEBUG    =   -1.000000
 C_SORT1  =    0.000000
 C_SEWARD =    0.000000
 THRESH   =    0.000000
 IO       =  molpro                                                          
 SPRI     =    0.000000
 SETTING GEOMTYP        =    XYZ
 ZUNIT=BOHR
 

 Variable memory set to  995000000 words,  buffer space   230000 words

 SETTING BASIS          =    AVQZ


 Recomputing integrals since basis changed


 Using spherical harmonics

 Library entry H      S aug-cc-pVQZ          selected for orbital group  1
 Library entry H      P aug-cc-pVQZ          selected for orbital group  1
 Library entry H      D aug-cc-pVQZ          selected for orbital group  1
 Library entry H      F aug-cc-pVQZ          selected for orbital group  1
 Library entry N      S aug-cc-pVQZ          selected for orbital group  2
 Library entry N      P aug-cc-pVQZ          selected for orbital group  2
 Library entry N      D aug-cc-pVQZ          selected for orbital group  2
 Library entry N      F aug-cc-pVQZ          selected for orbital group  2
 Library entry N      G aug-cc-pVQZ          selected for orbital group  2
 Library entry O      S aug-cc-pVQZ          selected for orbital group  3
 Library entry O      P aug-cc-pVQZ          selected for orbital group  3
 Library entry O      D aug-cc-pVQZ          selected for orbital group  3
 Library entry O      F aug-cc-pVQZ          selected for orbital group  3
 Library entry O      G aug-cc-pVQZ          selected for orbital group  3


 PROGRAM * SEWARD (Integral evaluation for generally contracted gaussian basis sets)     Author: Roland Lindh, 1990

 Geometry written to block  1 of record 700


 Point group  Cs  



 ATOMIC COORDINATES

 NR  ATOM    CHARGE       X              Y              Z

   1  H       1.00    0.000000000    1.665635233   -1.931919605
   2  N       7.00    0.000000000   -0.156660526   -1.137183054
   3  O       8.00    0.000000000    0.032793083    1.118513067

 Bond lengths in Bohr (Angstrom)

 1-2  1.988056342  2-3  2.263638147
     ( 1.052034110)     ( 1.197865721)

 Bond angles

  1-2-3  108.76195128

 NUCLEAR CHARGE:                   16
 NUMBER OF PRIMITIVE AOS:         293
 NUMBER OF SYMMETRY AOS:          234
 NUMBER OF CONTRACTIONS:          206   ( 130A'  +  76A"  )
 NUMBER OF CORE ORBITALS:           2   (   2A'  +   0A"  )
 NUMBER OF VALENCE ORBITALS:        9   (   7A'  +   2A"  )


 NUCLEAR REPULSION ENERGY   30.57212975

 Eigenvalues of metric

         1 0.585E-04 0.143E-03 0.314E-03 0.433E-03 0.569E-03 0.674E-03 0.995E-03 0.106E-02
         2 0.797E-03 0.162E-02 0.481E-02 0.889E-02 0.101E-01 0.119E-01 0.123E-01 0.184E-01


 Contracted 2-electron integrals neglected if value below      1.0D-22

      109945083. INTEGRALS WRITTEN OUT IN   26849 BLOCKS ON RECORD 1290 OF FILE 1


 NUMBER OF SORTED TWO-ELECTRON INTEGRALS:  115283741.     BUFFER LENGTH:  32768
 NUMBER OF SEGMENTS:   8  SEGMENT LENGTH:   15998004      RECORD LENGTH: 524288

 Memory used in sort:      16.56 MW

 SORT1 READ   109945083. AND WROTE   110865250. INTEGRALS IN    322 RECORDS. CPU TIME:     1.83 SEC, REAL TIME:     2.49 SEC
 SORT2 READ   110865250. AND WROTE   115283741. INTEGRALS IN      8 RECORDS. CPU TIME:     1.33 SEC, REAL TIME:     1.75 SEC

 FILE SIZES:   FILE 1:  1780.6 MBYTE,  FILE 4:  1350.6 MBYTE,   TOTAL:   3131.2 MBYTE

 OPERATOR DM      FOR CENTER  0  COORDINATES:    0.000000    0.000000    0.000000


 **********************************************************************************************************************************
 DATASETS  * FILE   NREC   LENGTH (MB)   RECORD NAMES
              1      19      944.14       500      610      700      900      950      970     1000      129      960     1100   
                                          VAR    BASINP    GEOM    SYMINP    ZMAT    AOBASIS   BASIS     P2S    ABASIS      S 
                                         1400     1410     1200     1210     1080     1600     1650     1300     1700   
                                           T        V       H0       H01     AOSYM     SMH    MOLCAS    ERIS     OPER   

 PROGRAMS   *        TOTAL       INT
 CPU TIMES  *        10.71     10.61
 REAL TIME  *        13.10 SEC
 DISK USED  *         3.13 GB      
 **********************************************************************************************************************************


 PROGRAM * RHF-SCF (CLOSED SHELL)       Authors: W. Meyer, H.-J. Werner


 NUMBER OF ELECTRONS:       8+    8-
 CONVERGENCE THRESHOLDS:    1.00E-10 (Density)    1.00E-13 (Energy)
 MAX. NUMBER OF ITERATIONS:      500
 INTERPOLATION TYPE:            DIIS
 INTERPOLATION STEPS:              2 (START)      1 (STEP)
 LEVEL SHIFTS:                  0.00 (CLOSED)  0.00 (OPEN) 



 Orbital guess generated from atomic densities. Full valence occupancy:    9   2

 Molecular orbital dump at record        2100.2

 Initial occupancy:   7   1

 ITERATION    DDIFF          GRAD             ENERGY        2-EL.EN.            DIPOLE MOMENTS         DIIS   ORB.
    1      0.000D+00      0.000D+00      -129.79944241    154.322551    0.00000    0.59471   -0.99508    0    start
    2      0.000D+00      0.802D-02      -129.82698566    155.576875    0.00000    0.60360   -0.21430    1    diag
    3      0.639D-02      0.597D-02      -129.84821794    155.676559    0.00000    0.55395   -0.58066    2    diag
    4      0.324D-02      0.961D-03      -129.84900031    155.398981    0.00000    0.56131   -0.52092    3    diag
    5      0.598D-03      0.311D-03      -129.84912250    155.491826    0.00000    0.56668   -0.52374    4    diag
    6      0.248D-03      0.898D-04      -129.84914190    155.475808    0.00000    0.56703   -0.51975    5    diag
    7      0.945D-04      0.443D-04      -129.84914740    155.478661    0.00000    0.56829   -0.51729    6    diag
    8      0.646D-04      0.150D-04      -129.84914798    155.478005    0.00000    0.56834   -0.51635    7    diag
    9      0.238D-04      0.285D-05      -129.84914800    155.477896    0.00000    0.56831   -0.51614    8    diag
   10      0.464D-05      0.665D-06      -129.84914800    155.477878    0.00000    0.56827   -0.51611    9    orth
   11      0.961D-06      0.135D-06      -129.84914800    155.477874    0.00000    0.56827   -0.51611    9    diag
   12      0.182D-06      0.270D-07      -129.84914800    155.477874    0.00000    0.56826   -0.51611    9    diag
   13      0.391D-07      0.687D-08      -129.84914800    155.477874    0.00000    0.56826   -0.51611    9    diag
   14      0.104D-07      0.138D-08      -129.84914800    155.477874    0.00000    0.56826   -0.51611    9    diag
   15      0.195D-08      0.402D-09      -129.84914800    155.477874    0.00000    0.56826   -0.51611    9    diag
   16      0.579D-09      0.124D-09      -129.84914800    155.477874    0.00000    0.56826   -0.51611    9    diag
   17      0.115D-09      0.339D-10      -129.84914800    155.477874    0.00000    0.56826   -0.51611    9    diag
   18      0.321D-10      0.115D-10      -129.84914800    155.477874    0.00000    0.56826   -0.51611    9    diag
   19      0.156D-10      0.285D-11      -129.84914800    155.477874    0.00000    0.56826   -0.51611    9    fixocc
   20      0.516D-11      0.472D-12      -129.84914800    155.477874    0.00000    0.56826   -0.51611    9    orth
   21      0.404D-11      0.214D-12      -129.84914800    155.477874    0.00000    0.56826   -0.51611    0    orth

 Final occupancy:   7   1

 !RHF STATE 1.1 Energy               -129.849148002243
 Nuclear energy                        30.57212975
 One-electron energy                 -238.16021480
 Two-electron energy                   77.73893704
 Virial quotient                       -1.00145375
 !RHF STATE 1.1 Dipole moment           0.00000000     0.56826433    -0.51610845
 Dipole moment /Debye                   0.00000000     1.44428926    -1.31173092

 Orbital energies:

         1.1          2.1          3.1          4.1          5.1          6.1          7.1          8.1          9.1
    -20.652859   -15.710808    -1.537659    -0.992527    -0.750293    -0.669148    -0.427014     0.026445     0.079490

         1.2          2.2          3.2
     -0.600861     0.065727     0.110926

 HOMO      7.1    -0.427014 =     -11.6196eV
 LUMO      8.1     0.026445 =       0.7196eV
 LUMO-HOMO         0.453459 =      12.3393eV


 **********************************************************************************************************************************
 DATASETS  * FILE   NREC   LENGTH (MB)   RECORD NAMES
              1      19      944.14       500      610      700      900      950      970     1000      129      960     1100   
                                          VAR    BASINP    GEOM    SYMINP    ZMAT    AOBASIS   BASIS     P2S    ABASIS      S 
                                         1400     1410     1200     1210     1080     1600     1650     1300     1700   
                                           T        V       H0       H01     AOSYM     SMH    MOLCAS    ERIS     OPER   

              2       4        3.27       700     1000      520     2100   
                                         GEOM     BASIS   MCVARS     RHF  

 PROGRAMS   *        TOTAL        HF       INT
 CPU TIMES  *        20.68      9.97     10.61
 REAL TIME  *        25.38 SEC
 DISK USED  *         3.13 GB      
 **********************************************************************************************************************************


 PROGRAM * CCSD (Closed-shell coupled cluster)     Authors: C. Hampel, H.-J. Werner, 1991, M. Deegan, P.J. Knowles, 1992


 Convergence thresholds:  THRVAR = 1.00D-08  THRDEN = 1.00D-12

 CCSD(T)     terms to be evaluated (factor= 1.000)


 Number of core orbitals:           2 (   2   0 )
 Number of closed-shell orbitals:   6 (   5   1 )
 Number of external orbitals:     198 ( 123  75 )

 Molecular orbitals read from record     2100.2  Type=RHF/CANONICAL (state 1.1)

 Number of N-1 electron functions:               6
 Number of N-2 electron functions:              21
 Number of singly external CSFs:               690
 Number of doubly external CSFs:            362646
 Total number of CSFs:                      363337

 Length of J-op  integral file:               0.00 MB
 Length of K-op  integral file:               1.60 MB
 Length of 3-ext integral record:             0.00 MB

 Memory could be reduced to 34.67 Mwords without degradation in triples

 Integral transformation finished. Total CPU:   1.34 sec, npass=  1  Memory used:   9.53 MW

 Reference energy:                   -129.84914800

 MP2 singlet pair energy:              -0.30059201
 MP2 triplet pair energy:              -0.16975476
 MP2 correlation energy:               -0.47034678
 MP2 total energy:                   -130.31949478

 SCS-MP2 correlation energy:           -0.46633560   (PS=  1.200000  PT=  0.333333)
 SCS-MP2 total energy:               -130.31548360

 ITER.      SQ.NORM     CORR.ENERGY   TOTAL ENERGY   ENERGY CHANGE        DEN1      VAR(S)    VAR(P)  DIIS     TIME  TIME/IT
   1      1.11997089    -0.47077322  -130.31992122    -0.00042644     0.01557224  0.30D-02  0.31D-02  1  1     2.45     1.26
   2      1.13043486    -0.47081110  -130.31995911    -0.00003789    -0.01225408  0.98D-04  0.48D-03  2  2     3.57     1.28
   3      1.13655637    -0.47117533  -130.32032333    -0.00036422    -0.00298649  0.46D-04  0.51D-04  3  3     4.73     1.29
   4      1.13920435    -0.47118147  -130.32032947    -0.00000614    -0.00090768  0.41D-05  0.93D-05  4  4     5.89     1.30
   5      1.14024250    -0.47120923  -130.32035724    -0.00002777    -0.00022698  0.11D-05  0.16D-05  5  5     7.05     1.30
   6      1.14058323    -0.47119555  -130.32034355     0.00001369    -0.00004853  0.11D-06  0.40D-06  6  6     8.24     1.30
   7      1.14065701    -0.47119587  -130.32034387    -0.00000032     0.00000197  0.17D-07  0.88D-07  6  1     9.38     1.31
   8      1.14067961    -0.47119631  -130.32034431    -0.00000044    -0.00000108  0.37D-08  0.17D-07  6  2    10.53     1.31
   9      1.14068794    -0.47119581  -130.32034381     0.00000051    -0.00000042  0.22D-08  0.16D-08  6  3    11.70     1.31
  10      1.14068342    -0.47119654  -130.32034454    -0.00000074     0.00000150  0.30D-09  0.26D-09  6  5    12.85     1.31
  11      1.14068504    -0.47119650  -130.32034451     0.00000004    -0.00000029  0.89D-10  0.23D-10  6  4    14.01     1.31
  12      1.14068463    -0.47119657  -130.32034457    -0.00000007     0.00000003  0.17D-10  0.57D-11  6  6    15.13     1.31
  13      1.14068446    -0.47119657  -130.32034457    -0.00000000    -0.00000004  0.31D-11  0.79D-12  6  1    16.32     1.31
  14      1.14068420    -0.47119658  -130.32034458    -0.00000001     0.00000004  0.43D-12  0.15D-12  6  3    17.47     1.31
  15      1.14068413    -0.47119658  -130.32034459    -0.00000000     0.00000001  0.11D-12  0.20D-13  6  2    18.62     1.31
  16      1.14068412    -0.47119658  -130.32034459     0.00000000     0.00000000  0.28D-13  0.90D-14  6  4    19.75     1.31
  17      1.14068412    -0.47119658  -130.32034459    -0.00000000    -0.00000000  0.13D-14  0.98D-15  6  5    20.89     1.31
  18      1.14068413    -0.47119658  -130.32034459     0.00000000    -0.00000000  0.23D-15  0.23D-15  6  6    22.04     1.31
  19      1.14068413    -0.47119658  -130.32034459     0.00000000    -0.00000000  0.46D-16  0.24D-16  6  1    23.21     1.31
  20      1.14068413    -0.47119658  -130.32034459     0.00000000    -0.00000000  0.79D-17  0.47D-17  6  2    24.36     1.31
  21      1.14068413    -0.47119658  -130.32034459    -0.00000000     0.00000000  0.10D-17  0.64D-18  6  3    25.53     1.31
  22      1.14068413    -0.47119658  -130.32034459    -0.00000000     0.00000000  0.15D-18  0.12D-18  6  5    26.70     1.31
  23      1.14068413    -0.47119658  -130.32034459    -0.00000000     0.00000000  0.22D-19  0.17D-19  6  4    27.83     1.31
  24      1.14068413    -0.47119658  -130.32034459    -0.00000000     0.00000000  0.50D-20  0.22D-20  6  1    28.96     1.31
  25      1.14068413    -0.47119658  -130.32034459     0.00000000    -0.00000000  0.11D-20  0.53D-21  6  6    30.13     1.31
  26      1.14068413    -0.47119658  -130.32034459     0.00000000    -0.00000000  0.20D-21  0.16D-21  6  2    31.28     1.31

 Norm of t1 vector:      0.07529899      S-energy:     0.00000000      T1 diagnostic:  0.01537034
                                                                       D1 diagnostic:  0.04090562

 Doubles amplitudes (print threshold =  0.500E-01):

         I         J         SYM. A    SYM. B    A         B      T(IJ, AB)

         6         6         2         2         1         1     -0.09301114


 Total CPU time for triples:     14.13 sec


 RESULTS
 =======

  Reference energy                   -129.849148002243
  CCSD singlet pair energy             -0.325496304834
  CCSD triplet pair energy             -0.145700278810
  CCSD correlation energy              -0.471196583644

  Triples (T) contribution             -0.022052303985
  Total correlation energy             -0.493248887629

  CCSD total energy                  -130.320344585886
  CCSD[T] energy                     -130.343430305792
  CCSD-T energy                      -130.342021318895
 !CCSD(T) total energy               -130.342396889871

 Timing summary (sec):

 STEP                 CPU(USER)    SYS     CPU(TOT)    WALL
 Transformation          1.36      0.26      1.62      1.63
 CCSD iterations        29.94      4.21     34.15     34.14
 Triples                14.13      0.39     14.52     14.53

 Program statistics:

 Available memory in ccsd:               994999756
 Min. memory needed in ccsd:               1265322
 Max. memory used in ccsd:                 1555950
 Max. memory used in cckext:               2415326 (26 integral passes)



 **********************************************************************************************************************************
 DATASETS  * FILE   NREC   LENGTH (MB)   RECORD NAMES
              1      20     1044.69       500      610      700      900      950      970     1000      129      960     1100   
                                          VAR    BASINP    GEOM    SYMINP    ZMAT    AOBASIS   BASIS     P2S    ABASIS      S 
                                         1400     1410     1200     1210     1080     1600     1650     1300     1700     1380   
                                           T        V       H0       H01     AOSYM     SMH    MOLCAS    ERIS     OPER     JKOP   

              2       4        3.27       700     1000      520     2100   
                                         GEOM     BASIS   MCVARS     RHF  

 PROGRAMS   *        TOTAL   CCSD(T)        HF       INT
 CPU TIMES  *        66.13     45.44      9.97     10.61
 REAL TIME  *        75.71 SEC
 DISK USED  *         3.13 GB      
 **********************************************************************************************************************************

 CCSD(T)/aug-cc-pVQZ energy=   -130.342396889871

        CCSD(T)         HF-SCF  
   -130.34239689   -129.84914800
 **********************************************************************************************************************************
 Molpro calculation terminated
 Variable memory released
