
 Primary working directories    : /tmp/r2666/281981.maple
 Secondary working directories  : /tmp/r2666/281981.maple
 Wavefunction directory         : /ddn/home4/r2666/wfu/
 Main file repository           : /tmp/r2666/281981.maple/

 SHA1      : d5ffa45e93fdbca01ffc919aa182cfdae0147319
 NAME      : 2015.1.35
 ARCHNAME  : linux/x86_64
 FC        : /opt/intel/composer_xe_2015.1.133/bin/intel64/ifort
 BLASLIB   : -Wl,-_start-group /opt/intel/mkl/lib/intel64/libmkl_intel_ilp64.a /opt/intel/mkl/lib/intel64/libmkl_intel_thread.a /opt/intel/mkl/lib/intel64/libmkl_core.a -Wl,-_end-group
 id        : olemiss

 Nodes     nprocs
 cn086        1

 Using customized tuning parameters: mindgm=1; mindgv=20; mindgc=4; mindgr=1; noblas=0; minvec=7
 default implementation of scratch files=df  

 ***,hno CCSD(T)/TZ-F12 QFF
 memory, 995, m;
 gthresh,energy=1.d-12,zero=1.d-22,oneint=1.d-22,twoint=1.d-22;
 gthresh,optgrad=1.d-8,optstep=1.d-8;
 nocompress;
 geomtyp=xyz
 bohr
 geometry={
 3
          7         7
 H        0.0000000000        1.6539914510       -1.9206087434
 N        0.0000000000       -0.1508514330       -1.1570596483
 O        0.0000000000        0.0386277721        1.1270788007
 }
 
 basis=avqz
   {hf,maxit=500;accu,20;}
 {ccsd(t),nocheck,maxit=250;orbital,IGNORE_ERROR;}

 Variables initialized (889), CPU time= 0.01 sec
 Commands  initialized (702), CPU time= 0.01 sec, 572 directives.
 Default parameters read. Elapsed time= 0.05 sec

 Checking input...
 Passed
1


                                         ***  PROGRAM SYSTEM MOLPRO  ***
                                       Copyright, TTI GmbH Stuttgart, 2015
                                    Version 2015.1 linked Jul  9 2018 13:16:40


 **********************************************************************************************************************************
 LABEL *   hno CCSD(T)/TZ-F12 QFF                                                        
  64 bit serial version                                                                  DATE: 04-Mar-20          TIME: 13:38:28  
 **********************************************************************************************************************************

 SHA1:             d5ffa45e93fdbca01ffc919aa182cfdae0147319
 **********************************************************************************************************************************

 THRESHOLDS:

 ZERO    =  1.00D-22  ONEINT  =  1.00D-22  TWOINT  =  1.00D-22  PREFAC  =  1.00D-14  LOCALI  =  1.00D-09  EORDER  =  1.00D-04
 ENERGY  =  1.00D-12  ETEST   =  0.00D+00  EDENS   =  0.00D+00  THRDEDEF=  1.00D-06  GRADIENT=  1.00D-02  STEP    =  1.00D-03
 ORBITAL =  1.00D-05  CIVEC   =  1.00D-05  COEFF   =  1.00D-04  PRINTCI =  5.00D-02  PUNCHCI =  9.90D+01  OPTGRAD =  3.00D-04
 OPTENERG=  1.00D-06  OPTSTEP =  3.00D-04  THRGRAD =  1.00D-10  COMPRESS=  1.00D-11  VARMIN  =  1.00D-07  VARMAX  =  1.00D-03
 THRDOUB =  0.00D+00  THRDIV  =  1.00D-05  THRRED  =  1.00D-07  THRPSP  =  1.00D+00  THRDC   =  1.00D-10  THRCS   =  1.00D-10
 THRNRM  =  1.00D-08  THREQ   =  0.00D+00  THRDE   =  1.00D+00  THRREF  =  1.00D-05  SPARFAC =  1.00D+00  THRDLP  =  1.00D-07
 THRDIA  =  1.00D-10  THRDLS  =  1.00D-07  THRGPS  =  0.00D+00  THRKEX  =  0.00D+00  THRDIS  =  2.00D-01  THRVAR  =  1.00D-10
 THRLOC  =  1.00D-06  THRGAP  =  1.00D-06  THRLOCT = -1.00D+00  THRGAPT = -1.00D+00  THRORB  =  1.00D-06  THRMLTP =  0.00D+00
 THRCPQCI=  1.00D-10  KEXTA   =  0.00D+00  THRCOARS=  0.00D+00  SYMTOL  =  1.00D-06  GRADTOL =  1.00D-06  THROVL  =  1.00D-08
 THRORTH =  1.00D-08  GRID    =  1.00D-06  GRIDMAX =  1.00D-03  DTMAX   =  0.00D+00  THROCCDE=  1.00D-01  THROCCDE=  1.00D-01



 THRESHOLDS:

 ZERO    =  1.00D-22  ONEINT  =  1.00D-22  TWOINT  =  1.00D-22  PREFAC  =  1.00D-14  LOCALI  =  1.00D-09  EORDER  =  1.00D-04
 ENERGY  =  1.00D-12  ETEST   =  0.00D+00  EDENS   =  0.00D+00  THRDEDEF=  1.00D-06  GRADIENT=  1.00D-02  STEP    =  1.00D-03
 ORBITAL =  1.00D-05  CIVEC   =  1.00D-05  COEFF   =  1.00D-04  PRINTCI =  5.00D-02  PUNCHCI =  9.90D+01  OPTGRAD =  1.00D-08
 OPTENERG=  1.00D-06  OPTSTEP =  1.00D-08  THRGRAD =  1.00D-10  COMPRESS=  1.00D-11  VARMIN  =  1.00D-07  VARMAX  =  1.00D-03
 THRDOUB =  0.00D+00  THRDIV  =  1.00D-05  THRRED  =  1.00D-07  THRPSP  =  1.00D+00  THRDC   =  1.00D-10  THRCS   =  1.00D-10
 THRNRM  =  1.00D-08  THREQ   =  0.00D+00  THRDE   =  1.00D+00  THRREF  =  1.00D-05  SPARFAC =  1.00D+00  THRDLP  =  1.00D-07
 THRDIA  =  1.00D-10  THRDLS  =  1.00D-07  THRGPS  =  0.00D+00  THRKEX  =  0.00D+00  THRDIS  =  2.00D-01  THRVAR  =  1.00D-10
 THRLOC  =  1.00D-06  THRGAP  =  1.00D-06  THRLOCT = -1.00D+00  THRGAPT = -1.00D+00  THRORB  =  1.00D-06  THRMLTP =  0.00D+00
 THRCPQCI=  1.00D-10  KEXTA   =  0.00D+00  THRCOARS=  0.00D+00  SYMTOL  =  1.00D-06  GRADTOL =  1.00D-06  THROVL  =  1.00D-08
 THRORTH =  1.00D-08  GRID    =  1.00D-06  GRIDMAX =  1.00D-03  DTMAX   =  0.00D+00  THROCCDE=  1.00D-01  THROCCDE=  1.00D-01



 Input parameters for SORTINT:

 COMPRESS =    0.000000
 C_FINAL  =    1.000000
 DEBUG    =   -1.000000
 C_SORT1  =    0.000000
 C_SEWARD =    0.000000
 THRESH   =    0.000000
 IO       =  molpro                                                          
 SPRI     =    0.000000
 SETTING GEOMTYP        =    XYZ
 ZUNIT=BOHR
 

 Variable memory set to  995000000 words,  buffer space   230000 words

 SETTING BASIS          =    AVQZ


 Recomputing integrals since basis changed


 Using spherical harmonics

 Library entry H      S aug-cc-pVQZ          selected for orbital group  1
 Library entry H      P aug-cc-pVQZ          selected for orbital group  1
 Library entry H      D aug-cc-pVQZ          selected for orbital group  1
 Library entry H      F aug-cc-pVQZ          selected for orbital group  1
 Library entry N      S aug-cc-pVQZ          selected for orbital group  2
 Library entry N      P aug-cc-pVQZ          selected for orbital group  2
 Library entry N      D aug-cc-pVQZ          selected for orbital group  2
 Library entry N      F aug-cc-pVQZ          selected for orbital group  2
 Library entry N      G aug-cc-pVQZ          selected for orbital group  2
 Library entry O      S aug-cc-pVQZ          selected for orbital group  3
 Library entry O      P aug-cc-pVQZ          selected for orbital group  3
 Library entry O      D aug-cc-pVQZ          selected for orbital group  3
 Library entry O      F aug-cc-pVQZ          selected for orbital group  3
 Library entry O      G aug-cc-pVQZ          selected for orbital group  3


 PROGRAM * SEWARD (Integral evaluation for generally contracted gaussian basis sets)     Author: Roland Lindh, 1990

 Geometry written to block  1 of record 700


 Point group  Cs  



 ATOMIC COORDINATES

 NR  ATOM    CHARGE       X              Y              Z

   1  H       1.00    0.000000000    1.653991451   -1.920608743
   2  N       7.00    0.000000000   -0.150851433   -1.157059648
   3  O       8.00    0.000000000    0.038627772    1.127078801

 Bond lengths in Bohr (Angstrom)

 1-2  1.959710452  2-3  2.291984036
     ( 1.037034111)     ( 1.212865720)

 Bond angles

  1-2-3  108.18899349

 NUCLEAR CHARGE:                   16
 NUMBER OF PRIMITIVE AOS:         293
 NUMBER OF SYMMETRY AOS:          234
 NUMBER OF CONTRACTIONS:          206   ( 130A'  +  76A"  )
 NUMBER OF CORE ORBITALS:           2   (   2A'  +   0A"  )
 NUMBER OF VALENCE ORBITALS:        9   (   7A'  +   2A"  )


 NUCLEAR REPULSION ENERGY   30.32423482

 Eigenvalues of metric

         1 0.584E-04 0.144E-03 0.317E-03 0.435E-03 0.591E-03 0.664E-03 0.988E-03 0.108E-02
         2 0.830E-03 0.155E-02 0.491E-02 0.893E-02 0.992E-02 0.123E-01 0.125E-01 0.182E-01


 Contracted 2-electron integrals neglected if value below      1.0D-22

      109945078. INTEGRALS WRITTEN OUT IN   26849 BLOCKS ON RECORD 1290 OF FILE 1


 NUMBER OF SORTED TWO-ELECTRON INTEGRALS:  115283741.     BUFFER LENGTH:  32768
 NUMBER OF SEGMENTS:   8  SEGMENT LENGTH:   15998004      RECORD LENGTH: 524288

 Memory used in sort:      16.56 MW

 SORT1 READ   109945078. AND WROTE   110865245. INTEGRALS IN    322 RECORDS. CPU TIME:     1.84 SEC, REAL TIME:     2.53 SEC
 SORT2 READ   110865245. AND WROTE   115283741. INTEGRALS IN      8 RECORDS. CPU TIME:     1.25 SEC, REAL TIME:     1.77 SEC

 FILE SIZES:   FILE 1:  1780.6 MBYTE,  FILE 4:  1350.6 MBYTE,   TOTAL:   3131.2 MBYTE

 OPERATOR DM      FOR CENTER  0  COORDINATES:    0.000000    0.000000    0.000000


 **********************************************************************************************************************************
 DATASETS  * FILE   NREC   LENGTH (MB)   RECORD NAMES
              1      19      944.14       500      610      700      900      950      970     1000      129      960     1100   
                                          VAR    BASINP    GEOM    SYMINP    ZMAT    AOBASIS   BASIS     P2S    ABASIS      S 
                                         1400     1410     1200     1210     1080     1600     1650     1300     1700   
                                           T        V       H0       H01     AOSYM     SMH    MOLCAS    ERIS     OPER   

 PROGRAMS   *        TOTAL       INT
 CPU TIMES  *        10.54     10.45
 REAL TIME  *        13.78 SEC
 DISK USED  *         3.13 GB      
 **********************************************************************************************************************************


 PROGRAM * RHF-SCF (CLOSED SHELL)       Authors: W. Meyer, H.-J. Werner


 NUMBER OF ELECTRONS:       8+    8-
 CONVERGENCE THRESHOLDS:    1.00E-10 (Density)    1.00E-13 (Energy)
 MAX. NUMBER OF ITERATIONS:      500
 INTERPOLATION TYPE:            DIIS
 INTERPOLATION STEPS:              2 (START)      1 (STEP)
 LEVEL SHIFTS:                  0.00 (CLOSED)  0.00 (OPEN) 



 Orbital guess generated from atomic densities. Full valence occupancy:    9   2

 Molecular orbital dump at record        2100.2

 Initial occupancy:   7   1

 ITERATION    DDIFF          GRAD             ENERGY        2-EL.EN.            DIPOLE MOMENTS         DIIS   ORB.
    1      0.000D+00      0.000D+00      -129.79636943    153.890368    0.00000    0.60569   -1.03963    0    start
    2      0.000D+00      0.810D-02      -129.82350865    155.096760    0.00000    0.61427   -0.21155    1    diag
    3      0.655D-02      0.620D-02      -129.84652091    155.234643    0.00000    0.56357   -0.60250    2    diag
    4      0.334D-02      0.979D-03      -129.84733420    154.947450    0.00000    0.57095   -0.54025    3    diag
    5      0.610D-03      0.316D-03      -129.84745990    155.040324    0.00000    0.57607   -0.54267    4    diag
    6      0.252D-03      0.907D-04      -129.84747978    155.024295    0.00000    0.57633   -0.53844    5    diag
    7      0.957D-04      0.455D-04      -129.84748567    155.026935    0.00000    0.57751   -0.53575    6    diag
    8      0.664D-04      0.161D-04      -129.84748636    155.026233    0.00000    0.57754   -0.53469    7    diag
    9      0.263D-04      0.309D-05      -129.84748639    155.026119    0.00000    0.57751   -0.53447    8    diag
   10      0.526D-05      0.695D-06      -129.84748639    155.026102    0.00000    0.57747   -0.53444    9    orth
   11      0.100D-05      0.137D-06      -129.84748639    155.026099    0.00000    0.57747   -0.53444    9    diag
   12      0.179D-06      0.282D-07      -129.84748639    155.026099    0.00000    0.57747   -0.53444    9    diag
   13      0.384D-07      0.733D-08      -129.84748639    155.026099    0.00000    0.57746   -0.53444    9    diag
   14      0.105D-07      0.143D-08      -129.84748639    155.026099    0.00000    0.57746   -0.53444    9    diag
   15      0.190D-08      0.405D-09      -129.84748639    155.026099    0.00000    0.57746   -0.53444    9    diag
   16      0.573D-09      0.120D-09      -129.84748639    155.026099    0.00000    0.57746   -0.53444    9    diag
   17      0.106D-09      0.298D-10      -129.84748639    155.026099    0.00000    0.57746   -0.53444    9    diag
   18      0.267D-10      0.966D-11      -129.84748639    155.026099    0.00000    0.57746   -0.53444    9    diag
   19      0.131D-10      0.219D-11      -129.84748639    155.026099    0.00000    0.57746   -0.53444    9    fixocc
   20      0.514D-11      0.413D-12      -129.84748639    155.026099    0.00000    0.57746   -0.53444    9    orth
   21      0.325D-11      0.235D-12      -129.84748639    155.026099    0.00000    0.57746   -0.53444    0    orth

 Final occupancy:   7   1

 !RHF STATE 1.1 Energy               -129.847486393910
 Nuclear energy                        30.32423482
 One-electron energy                 -237.68477082
 Two-electron energy                   77.51304961
 Virial quotient                       -1.00170822
 !RHF STATE 1.1 Dipole moment           0.00000000     0.57746475    -0.53443848
 Dipole moment /Debye                   0.00000000     1.46767287    -1.35831815

 Orbital energies:

         1.1          2.1          3.1          4.1          5.1          6.1          7.1          8.1          9.1
    -20.653894   -15.711468    -1.525824    -0.999551    -0.747382    -0.664727    -0.432926     0.026309     0.079467

         1.2          2.2          3.2
     -0.593564     0.062008     0.109912

 HOMO      7.1    -0.432926 =     -11.7805eV
 LUMO      8.1     0.026309 =       0.7159eV
 LUMO-HOMO         0.459235 =      12.4964eV


 **********************************************************************************************************************************
 DATASETS  * FILE   NREC   LENGTH (MB)   RECORD NAMES
              1      19      944.14       500      610      700      900      950      970     1000      129      960     1100   
                                          VAR    BASINP    GEOM    SYMINP    ZMAT    AOBASIS   BASIS     P2S    ABASIS      S 
                                         1400     1410     1200     1210     1080     1600     1650     1300     1700   
                                           T        V       H0       H01     AOSYM     SMH    MOLCAS    ERIS     OPER   

              2       4        3.27       700     1000      520     2100   
                                         GEOM     BASIS   MCVARS     RHF  

 PROGRAMS   *        TOTAL        HF       INT
 CPU TIMES  *        20.55     10.01     10.45
 REAL TIME  *        26.24 SEC
 DISK USED  *         3.13 GB      
 **********************************************************************************************************************************


 PROGRAM * CCSD (Closed-shell coupled cluster)     Authors: C. Hampel, H.-J. Werner, 1991, M. Deegan, P.J. Knowles, 1992


 Convergence thresholds:  THRVAR = 1.00D-08  THRDEN = 1.00D-12

 CCSD(T)     terms to be evaluated (factor= 1.000)


 Number of core orbitals:           2 (   2   0 )
 Number of closed-shell orbitals:   6 (   5   1 )
 Number of external orbitals:     198 ( 123  75 )

 Molecular orbitals read from record     2100.2  Type=RHF/CANONICAL (state 1.1)

 Number of N-1 electron functions:               6
 Number of N-2 electron functions:              21
 Number of singly external CSFs:               690
 Number of doubly external CSFs:            362646
 Total number of CSFs:                      363337

 Length of J-op  integral file:               0.00 MB
 Length of K-op  integral file:               1.60 MB
 Length of 3-ext integral record:             0.00 MB

 Memory could be reduced to 34.67 Mwords without degradation in triples

 Integral transformation finished. Total CPU:   1.37 sec, npass=  1  Memory used:   9.53 MW

 Reference energy:                   -129.84748639

 MP2 singlet pair energy:              -0.30178860
 MP2 triplet pair energy:              -0.17056993
 MP2 correlation energy:               -0.47235853
 MP2 total energy:                   -130.31984493

 SCS-MP2 correlation energy:           -0.46827872   (PS=  1.200000  PT=  0.333333)
 SCS-MP2 total energy:               -130.31576512

 ITER.      SQ.NORM     CORR.ENERGY   TOTAL ENERGY   ENERGY CHANGE        DEN1      VAR(S)    VAR(P)  DIIS     TIME  TIME/IT
   1      1.12106461    -0.47223395  -130.31972034     0.00012459     0.01662484  0.32D-02  0.32D-02  1  1     2.49     1.27
   2      1.13180063    -0.47216078  -130.31964717     0.00007317    -0.01254829  0.11D-03  0.49D-03  2  2     3.68     1.29
   3      1.13812933    -0.47253732  -130.32002371    -0.00037653    -0.00304842  0.48D-04  0.54D-04  3  3     4.86     1.30
   4      1.14091879    -0.47254646  -130.32003286    -0.00000915    -0.00094222  0.43D-05  0.97D-05  4  4     6.01     1.31
   5      1.14202503    -0.47257598  -130.32006237    -0.00002952    -0.00024083  0.11D-05  0.17D-05  5  5     7.20     1.31
   6      1.14238180    -0.47256073  -130.32004713     0.00001525    -0.00005156  0.10D-06  0.40D-06  6  6     8.35     1.32
   7      1.14245271    -0.47256153  -130.32004793    -0.00000080     0.00000300  0.15D-07  0.92D-07  6  1     9.53     1.32
   8      1.14247481    -0.47256186  -130.32004825    -0.00000032    -0.00000101  0.34D-08  0.18D-07  6  2    10.67     1.32
   9      1.14247939    -0.47256150  -130.32004789     0.00000036     0.00000095  0.26D-08  0.21D-08  6  4    11.85     1.32
  10      1.14248183    -0.47256187  -130.32004826    -0.00000037    -0.00000075  0.49D-09  0.25D-09  6  3    13.01     1.32
  11      1.14248158    -0.47256193  -130.32004832    -0.00000006    -0.00000013  0.15D-09  0.35D-10  6  5    14.19     1.32
  12      1.14248064    -0.47256207  -130.32004847    -0.00000014     0.00000036  0.18D-10  0.11D-10  6  6    15.31     1.32
  13      1.14247980    -0.47256211  -130.32004851    -0.00000004     0.00000021  0.56D-11  0.24D-11  6  1    16.46     1.32
  14      1.14247913    -0.47256215  -130.32004854    -0.00000003     0.00000016  0.35D-12  0.51D-12  6  4    17.62     1.32
  15      1.14247891    -0.47256215  -130.32004855    -0.00000001     0.00000004  0.73D-13  0.40D-13  6  2    18.76     1.33
  16      1.14247886    -0.47256216  -130.32004855    -0.00000000     0.00000001  0.20D-13  0.72D-14  6  3    19.89     1.33
  17      1.14247883    -0.47256216  -130.32004855    -0.00000000     0.00000001  0.36D-14  0.92D-15  6  5    21.08     1.33
  18      1.14247883    -0.47256216  -130.32004855    -0.00000000     0.00000000  0.79D-15  0.23D-15  6  6    22.26     1.33
  19      1.14247883    -0.47256216  -130.32004855    -0.00000000     0.00000000  0.11D-15  0.46D-16  6  1    23.39     1.33
  20      1.14247883    -0.47256216  -130.32004855     0.00000000    -0.00000000  0.95D-17  0.70D-17  6  4    24.59     1.33
  21      1.14247883    -0.47256216  -130.32004855     0.00000000    -0.00000000  0.43D-18  0.61D-18  6  3    25.72     1.33
  22      1.14247883    -0.47256216  -130.32004855     0.00000000    -0.00000000  0.11D-18  0.12D-18  6  2    26.88     1.33
  23      1.14247883    -0.47256216  -130.32004855     0.00000000     0.00000000  0.30D-19  0.45D-19  6  5    28.00     1.33
  24      1.14247883    -0.47256216  -130.32004855    -0.00000000     0.00000000  0.22D-20  0.92D-20  6  1    29.17     1.33

 Norm of t1 vector:      0.07700089      S-energy:    -0.00000000      T1 diagnostic:  0.01571774
                                                                       D1 diagnostic:  0.04278592

 Doubles amplitudes (print threshold =  0.500E-01):

         I         J         SYM. A    SYM. B    A         B      T(IJ, AB)

         6         6         2         2         1         1     -0.10132095


 Total CPU time for triples:     14.18 sec


 RESULTS
 =======

  Reference energy                   -129.847486393910
  CCSD singlet pair energy             -0.326687300900
  CCSD triplet pair energy             -0.145874856467
  CCSD correlation energy              -0.472562157368

  Triples (T) contribution             -0.022419628402
  Total correlation energy             -0.494981785769

  CCSD total energy                  -130.320048551277
  CCSD[T] energy                     -130.343548631783
  CCSD-T energy                      -130.342083039960
 !CCSD(T) total energy               -130.342468179679

 Timing summary (sec):

 STEP                 CPU(USER)    SYS     CPU(TOT)    WALL
 Transformation          1.37      0.25      1.62      1.62
 CCSD iterations        27.81      4.05     31.86     31.85
 Triples                14.18      0.40     14.58     14.59

 Program statistics:

 Available memory in ccsd:               994999756
 Min. memory needed in ccsd:               1265322
 Max. memory used in ccsd:                 1555950
 Max. memory used in cckext:               2415326 (24 integral passes)



 **********************************************************************************************************************************
 DATASETS  * FILE   NREC   LENGTH (MB)   RECORD NAMES
              1      20     1044.69       500      610      700      900      950      970     1000      129      960     1100   
                                          VAR    BASINP    GEOM    SYMINP    ZMAT    AOBASIS   BASIS     P2S    ABASIS      S 
                                         1400     1410     1200     1210     1080     1600     1650     1300     1700     1380   
                                           T        V       H0       H01     AOSYM     SMH    MOLCAS    ERIS     OPER     JKOP   

              2       4        3.27       700     1000      520     2100   
                                         GEOM     BASIS   MCVARS     RHF  

 PROGRAMS   *        TOTAL   CCSD(T)        HF       INT
 CPU TIMES  *        63.93     43.38     10.01     10.45
 REAL TIME  *        74.33 SEC
 DISK USED  *         3.13 GB      
 **********************************************************************************************************************************

 CCSD(T)/aug-cc-pVQZ energy=   -130.342468179679

        CCSD(T)         HF-SCF  
   -130.34246818   -129.84748639
 **********************************************************************************************************************************
 Molpro calculation terminated
 Variable memory released
