
 Primary working directories    : /tmp/r2666/282038.maple
 Secondary working directories  : /tmp/r2666/282038.maple
 Wavefunction directory         : /ddn/home4/r2666/wfu/
 Main file repository           : /tmp/r2666/282038.maple/

 SHA1      : d5ffa45e93fdbca01ffc919aa182cfdae0147319
 NAME      : 2015.1.35
 ARCHNAME  : linux/x86_64
 FC        : /opt/intel/composer_xe_2015.1.133/bin/intel64/ifort
 BLASLIB   : -Wl,-_start-group /opt/intel/mkl/lib/intel64/libmkl_intel_ilp64.a /opt/intel/mkl/lib/intel64/libmkl_intel_thread.a /opt/intel/mkl/lib/intel64/libmkl_core.a -Wl,-_end-group
 id        : olemiss

 Nodes     nprocs
 cn078        1

 Using customized tuning parameters: mindgm=1; mindgv=20; mindgc=4; mindgr=1; noblas=0; minvec=7
 default implementation of scratch files=df  

 ***,hno CCSD(T)/TZ-F12 QFF
 memory, 995, m;
 gthresh,energy=1.d-12,zero=1.d-22,oneint=1.d-22,twoint=1.d-22;
 gthresh,optgrad=1.d-8,optstep=1.d-8;
 nocompress;
 geomtyp=xyz
 bohr
 geometry={
 3
         64        64
 H        0.0000000000        1.6664088021       -1.9220564628
 N        0.0000000000       -0.1659560456       -1.1508190905
 O        0.0000000000        0.0413150335        1.1222859623
 }
 
 basis=avqz
   {hf,maxit=500;accu,20;}
 {ccsd(t),nocheck,maxit=250;orbital,IGNORE_ERROR;}

 Variables initialized (889), CPU time= 0.01 sec
 Commands  initialized (702), CPU time= 0.02 sec, 572 directives.
 Default parameters read. Elapsed time= 0.07 sec

 Checking input...
 Passed
1


                                         ***  PROGRAM SYSTEM MOLPRO  ***
                                       Copyright, TTI GmbH Stuttgart, 2015
                                    Version 2015.1 linked Jul  9 2018 13:16:40


 **********************************************************************************************************************************
 LABEL *   hno CCSD(T)/TZ-F12 QFF                                                        
  64 bit serial version                                                                  DATE: 04-Mar-20          TIME: 13:42:40  
 **********************************************************************************************************************************

 SHA1:             d5ffa45e93fdbca01ffc919aa182cfdae0147319
 **********************************************************************************************************************************

 THRESHOLDS:

 ZERO    =  1.00D-22  ONEINT  =  1.00D-22  TWOINT  =  1.00D-22  PREFAC  =  1.00D-14  LOCALI  =  1.00D-09  EORDER  =  1.00D-04
 ENERGY  =  1.00D-12  ETEST   =  0.00D+00  EDENS   =  0.00D+00  THRDEDEF=  1.00D-06  GRADIENT=  1.00D-02  STEP    =  1.00D-03
 ORBITAL =  1.00D-05  CIVEC   =  1.00D-05  COEFF   =  1.00D-04  PRINTCI =  5.00D-02  PUNCHCI =  9.90D+01  OPTGRAD =  3.00D-04
 OPTENERG=  1.00D-06  OPTSTEP =  3.00D-04  THRGRAD =  1.00D-10  COMPRESS=  1.00D-11  VARMIN  =  1.00D-07  VARMAX  =  1.00D-03
 THRDOUB =  0.00D+00  THRDIV  =  1.00D-05  THRRED  =  1.00D-07  THRPSP  =  1.00D+00  THRDC   =  1.00D-10  THRCS   =  1.00D-10
 THRNRM  =  1.00D-08  THREQ   =  0.00D+00  THRDE   =  1.00D+00  THRREF  =  1.00D-05  SPARFAC =  1.00D+00  THRDLP  =  1.00D-07
 THRDIA  =  1.00D-10  THRDLS  =  1.00D-07  THRGPS  =  0.00D+00  THRKEX  =  0.00D+00  THRDIS  =  2.00D-01  THRVAR  =  1.00D-10
 THRLOC  =  1.00D-06  THRGAP  =  1.00D-06  THRLOCT = -1.00D+00  THRGAPT = -1.00D+00  THRORB  =  1.00D-06  THRMLTP =  0.00D+00
 THRCPQCI=  1.00D-10  KEXTA   =  0.00D+00  THRCOARS=  0.00D+00  SYMTOL  =  1.00D-06  GRADTOL =  1.00D-06  THROVL  =  1.00D-08
 THRORTH =  1.00D-08  GRID    =  1.00D-06  GRIDMAX =  1.00D-03  DTMAX   =  0.00D+00  THROCCDE=  1.00D-01  THROCCDE=  1.00D-01



 THRESHOLDS:

 ZERO    =  1.00D-22  ONEINT  =  1.00D-22  TWOINT  =  1.00D-22  PREFAC  =  1.00D-14  LOCALI  =  1.00D-09  EORDER  =  1.00D-04
 ENERGY  =  1.00D-12  ETEST   =  0.00D+00  EDENS   =  0.00D+00  THRDEDEF=  1.00D-06  GRADIENT=  1.00D-02  STEP    =  1.00D-03
 ORBITAL =  1.00D-05  CIVEC   =  1.00D-05  COEFF   =  1.00D-04  PRINTCI =  5.00D-02  PUNCHCI =  9.90D+01  OPTGRAD =  1.00D-08
 OPTENERG=  1.00D-06  OPTSTEP =  1.00D-08  THRGRAD =  1.00D-10  COMPRESS=  1.00D-11  VARMIN  =  1.00D-07  VARMAX  =  1.00D-03
 THRDOUB =  0.00D+00  THRDIV  =  1.00D-05  THRRED  =  1.00D-07  THRPSP  =  1.00D+00  THRDC   =  1.00D-10  THRCS   =  1.00D-10
 THRNRM  =  1.00D-08  THREQ   =  0.00D+00  THRDE   =  1.00D+00  THRREF  =  1.00D-05  SPARFAC =  1.00D+00  THRDLP  =  1.00D-07
 THRDIA  =  1.00D-10  THRDLS  =  1.00D-07  THRGPS  =  0.00D+00  THRKEX  =  0.00D+00  THRDIS  =  2.00D-01  THRVAR  =  1.00D-10
 THRLOC  =  1.00D-06  THRGAP  =  1.00D-06  THRLOCT = -1.00D+00  THRGAPT = -1.00D+00  THRORB  =  1.00D-06  THRMLTP =  0.00D+00
 THRCPQCI=  1.00D-10  KEXTA   =  0.00D+00  THRCOARS=  0.00D+00  SYMTOL  =  1.00D-06  GRADTOL =  1.00D-06  THROVL  =  1.00D-08
 THRORTH =  1.00D-08  GRID    =  1.00D-06  GRIDMAX =  1.00D-03  DTMAX   =  0.00D+00  THROCCDE=  1.00D-01  THROCCDE=  1.00D-01



 Input parameters for SORTINT:

 COMPRESS =    0.000000
 C_FINAL  =    1.000000
 DEBUG    =   -1.000000
 C_SORT1  =    0.000000
 C_SEWARD =    0.000000
 THRESH   =    0.000000
 IO       =  molpro                                                          
 SPRI     =    0.000000
 SETTING GEOMTYP        =    XYZ
 ZUNIT=BOHR
 

 Variable memory set to  995000000 words,  buffer space   230000 words

 SETTING BASIS          =    AVQZ


 Recomputing integrals since basis changed


 Using spherical harmonics

 Library entry H      S aug-cc-pVQZ          selected for orbital group  1
 Library entry H      P aug-cc-pVQZ          selected for orbital group  1
 Library entry H      D aug-cc-pVQZ          selected for orbital group  1
 Library entry H      F aug-cc-pVQZ          selected for orbital group  1
 Library entry N      S aug-cc-pVQZ          selected for orbital group  2
 Library entry N      P aug-cc-pVQZ          selected for orbital group  2
 Library entry N      D aug-cc-pVQZ          selected for orbital group  2
 Library entry N      F aug-cc-pVQZ          selected for orbital group  2
 Library entry N      G aug-cc-pVQZ          selected for orbital group  2
 Library entry O      S aug-cc-pVQZ          selected for orbital group  3
 Library entry O      P aug-cc-pVQZ          selected for orbital group  3
 Library entry O      D aug-cc-pVQZ          selected for orbital group  3
 Library entry O      F aug-cc-pVQZ          selected for orbital group  3
 Library entry O      G aug-cc-pVQZ          selected for orbital group  3


 PROGRAM * SEWARD (Integral evaluation for generally contracted gaussian basis sets)     Author: Roland Lindh, 1990

 Geometry written to block  1 of record 700


 Point group  Cs  



 ATOMIC COORDINATES

 NR  ATOM    CHARGE       X              Y              Z

   1  H       1.00    0.000000000    1.666408802   -1.922056463
   2  N       7.00    0.000000000   -0.165956046   -1.150819090
   3  O       8.00    0.000000000    0.041315034    1.122285962

 Bond lengths in Bohr (Angstrom)

 1-2  1.988056342  2-3  2.282535406
     ( 1.052034110)     ( 1.207865720)

 Bond angles

  1-2-3  107.61603570

 NUCLEAR CHARGE:                   16
 NUMBER OF PRIMITIVE AOS:         293
 NUMBER OF SYMMETRY AOS:          234
 NUMBER OF CONTRACTIONS:          206   ( 130A'  +  76A"  )
 NUMBER OF CORE ORBITALS:           2   (   2A'  +   0A"  )
 NUMBER OF VALENCE ORBITALS:        9   (   7A'  +   2A"  )


 NUCLEAR REPULSION ENERGY   30.37336053

 Eigenvalues of metric

         1 0.594E-04 0.146E-03 0.318E-03 0.436E-03 0.590E-03 0.683E-03 0.101E-02 0.108E-02
         2 0.823E-03 0.163E-02 0.495E-02 0.893E-02 0.101E-01 0.123E-01 0.125E-01 0.187E-01


 Contracted 2-electron integrals neglected if value below      1.0D-22

      109945098. INTEGRALS WRITTEN OUT IN   26849 BLOCKS ON RECORD 1290 OF FILE 1


 NUMBER OF SORTED TWO-ELECTRON INTEGRALS:  115283741.     BUFFER LENGTH:  32768
 NUMBER OF SEGMENTS:   8  SEGMENT LENGTH:   15998004      RECORD LENGTH: 524288

 Memory used in sort:      16.56 MW

 SORT1 READ   109945098. AND WROTE   110865265. INTEGRALS IN    322 RECORDS. CPU TIME:     1.73 SEC, REAL TIME:     2.49 SEC
 SORT2 READ   110865265. AND WROTE   115283741. INTEGRALS IN      8 RECORDS. CPU TIME:     1.25 SEC, REAL TIME:     1.76 SEC

 FILE SIZES:   FILE 1:  1780.6 MBYTE,  FILE 4:  1350.6 MBYTE,   TOTAL:   3131.2 MBYTE

 OPERATOR DM      FOR CENTER  0  COORDINATES:    0.000000    0.000000    0.000000


 **********************************************************************************************************************************
 DATASETS  * FILE   NREC   LENGTH (MB)   RECORD NAMES
              1      19      944.13       500      610      700      900      950      970     1000      129      960     1100   
                                          VAR    BASINP    GEOM    SYMINP    ZMAT    AOBASIS   BASIS     P2S    ABASIS      S 
                                         1400     1410     1200     1210     1080     1600     1650     1300     1700   
                                           T        V       H0       H01     AOSYM     SMH    MOLCAS    ERIS     OPER   

 PROGRAMS   *        TOTAL       INT
 CPU TIMES  *        10.53     10.40
 REAL TIME  *        13.48 SEC
 DISK USED  *         3.13 GB      
 **********************************************************************************************************************************


 PROGRAM * RHF-SCF (CLOSED SHELL)       Authors: W. Meyer, H.-J. Werner


 NUMBER OF ELECTRONS:       8+    8-
 CONVERGENCE THRESHOLDS:    1.00E-10 (Density)    1.00E-13 (Energy)
 MAX. NUMBER OF ITERATIONS:      500
 INTERPOLATION TYPE:            DIIS
 INTERPOLATION STEPS:              2 (START)      1 (STEP)
 LEVEL SHIFTS:                  0.00 (CLOSED)  0.00 (OPEN) 



 Orbital guess generated from atomic densities. Full valence occupancy:    9   2

 Molecular orbital dump at record        2100.2

 Initial occupancy:   7   1

 ITERATION    DDIFF          GRAD             ENERGY        2-EL.EN.            DIPOLE MOMENTS         DIIS   ORB.
    1      0.000D+00      0.000D+00      -129.79662839    153.971852    0.00000    0.58942   -1.02485    0    start
    2      0.000D+00      0.812D-02      -129.82392438    155.201962    0.00000    0.61072   -0.20554    1    diag
    3      0.654D-02      0.619D-02      -129.84685865    155.325283    0.00000    0.55430   -0.59142    2    diag
    4      0.334D-02      0.970D-03      -129.84766127    155.040252    0.00000    0.56199   -0.53024    3    diag
    5      0.605D-03      0.316D-03      -129.84778794    155.133687    0.00000    0.56725   -0.53277    4    diag
    6      0.253D-03      0.916D-04      -129.84780818    155.117502    0.00000    0.56753   -0.52858    5    diag
    7      0.965D-04      0.456D-04      -129.84781407    155.120267    0.00000    0.56876   -0.52596    6    diag
    8      0.666D-04      0.159D-04      -129.84781474    155.119567    0.00000    0.56880   -0.52493    7    diag
    9      0.257D-04      0.305D-05      -129.84781477    155.119451    0.00000    0.56876   -0.52471    8    diag
   10      0.510D-05      0.691D-06      -129.84781477    155.119434    0.00000    0.56873   -0.52468    9    orth
   11      0.995D-06      0.138D-06      -129.84781477    155.119430    0.00000    0.56872   -0.52468    9    diag
   12      0.183D-06      0.282D-07      -129.84781477    155.119430    0.00000    0.56872   -0.52468    9    diag
   13      0.397D-07      0.730D-08      -129.84781477    155.119430    0.00000    0.56872   -0.52468    9    diag
   14      0.108D-07      0.143D-08      -129.84781477    155.119430    0.00000    0.56872   -0.52468    9    diag
   15      0.197D-08      0.411D-09      -129.84781477    155.119430    0.00000    0.56872   -0.52468    9    diag
   16      0.589D-09      0.124D-09      -129.84781477    155.119430    0.00000    0.56872   -0.52468    9    diag
   17      0.112D-09      0.328D-10      -129.84781477    155.119430    0.00000    0.56872   -0.52468    9    diag
   18      0.306D-10      0.111D-10      -129.84781477    155.119430    0.00000    0.56872   -0.52468    9    diag
   19      0.154D-10      0.270D-11      -129.84781477    155.119430    0.00000    0.56872   -0.52468    9    fixocc
   20      0.666D-11      0.496D-12      -129.84781477    155.119430    0.00000    0.56872   -0.52468    9    orth
   21      0.313D-11      0.188D-12      -129.84781477    155.119430    0.00000    0.56872   -0.52468    9    diag
   22      0.111D-11      0.131D-12      -129.84781477    155.119430    0.00000    0.56872   -0.52468    9    diag
   23      0.120D-11      0.117D-12      -129.84781477    155.119430    0.00000    0.56872   -0.52468    9    diag
   24      0.921D-12      0.138D-12      -129.84781477    155.119430    0.00000    0.56872   -0.52468    9    diag
   25      0.592D-12      0.816D-13      -129.84781477    155.119430    0.00000    0.56872   -0.52468    9    diag
   26      0.474D-12      0.790D-13      -129.84781477    155.119430    0.00000    0.56872   -0.52468    9    diag
   27      0.371D-12      0.102D-12      -129.84781477    155.119430    0.00000    0.56872   -0.52468    0    orth

 Final occupancy:   7   1

 !RHF STATE 1.1 Energy               -129.847814770945
 Nuclear energy                        30.37336053
 One-electron energy                 -237.78089027
 Two-electron energy                   77.55971498
 Virial quotient                       -1.00172687
 !RHF STATE 1.1 Dipole moment           0.00000000     0.56871940    -0.52467885
 Dipole moment /Debye                   0.00000000     1.44544586    -1.33351327

 Orbital energies:

         1.1          2.1          3.1          4.1          5.1          6.1          7.1          8.1          9.1
    -20.653521   -15.712730    -1.529966    -0.994143    -0.747272    -0.666019    -0.430884     0.026405     0.079493

         1.2          2.2          3.2
     -0.596194     0.063408     0.110484

 HOMO      7.1    -0.430884 =     -11.7249eV
 LUMO      8.1     0.026405 =       0.7185eV
 LUMO-HOMO         0.457289 =      12.4435eV


 **********************************************************************************************************************************
 DATASETS  * FILE   NREC   LENGTH (MB)   RECORD NAMES
              1      19      944.13       500      610      700      900      950      970     1000      129      960     1100   
                                          VAR    BASINP    GEOM    SYMINP    ZMAT    AOBASIS   BASIS     P2S    ABASIS      S 
                                         1400     1410     1200     1210     1080     1600     1650     1300     1700   
                                           T        V       H0       H01     AOSYM     SMH    MOLCAS    ERIS     OPER   

              2       4        3.27       700     1000      520     2100   
                                         GEOM     BASIS   MCVARS     RHF  

 PROGRAMS   *        TOTAL        HF       INT
 CPU TIMES  *        23.15     12.62     10.40
 REAL TIME  *        29.37 SEC
 DISK USED  *         3.13 GB      
 **********************************************************************************************************************************


 PROGRAM * CCSD (Closed-shell coupled cluster)     Authors: C. Hampel, H.-J. Werner, 1991, M. Deegan, P.J. Knowles, 1992


 Convergence thresholds:  THRVAR = 1.00D-08  THRDEN = 1.00D-12

 CCSD(T)     terms to be evaluated (factor= 1.000)


 Number of core orbitals:           2 (   2   0 )
 Number of closed-shell orbitals:   6 (   5   1 )
 Number of external orbitals:     198 ( 123  75 )

 Molecular orbitals read from record     2100.2  Type=RHF/CANONICAL (state 1.1)

 Number of N-1 electron functions:               6
 Number of N-2 electron functions:              21
 Number of singly external CSFs:               690
 Number of doubly external CSFs:            362646
 Total number of CSFs:                      363337

 Length of J-op  integral file:               0.00 MB
 Length of K-op  integral file:               1.60 MB
 Length of 3-ext integral record:             0.00 MB

 Memory could be reduced to 34.67 Mwords without degradation in triples

 Integral transformation finished. Total CPU:   1.36 sec, npass=  1  Memory used:   9.53 MW

 Reference energy:                   -129.84781477

 MP2 singlet pair energy:              -0.30160623
 MP2 triplet pair energy:              -0.17042781
 MP2 correlation energy:               -0.47203404
 MP2 total energy:                   -130.31984882

 SCS-MP2 correlation energy:           -0.46797145   (PS=  1.200000  PT=  0.333333)
 SCS-MP2 total energy:               -130.31578622

 ITER.      SQ.NORM     CORR.ENERGY   TOTAL ENERGY   ENERGY CHANGE        DEN1      VAR(S)    VAR(P)  DIIS     TIME  TIME/IT
   1      1.12100506    -0.47207022  -130.31988499    -0.00003618     0.01636362  0.31D-02  0.32D-02  1  1     2.51     1.27
   2      1.13169667    -0.47203147  -130.31984624     0.00003875    -0.01249369  0.10D-03  0.49D-03  2  2     3.68     1.29
   3      1.13799447    -0.47240804  -130.32022281    -0.00037657    -0.00304622  0.48D-04  0.53D-04  3  3     4.87     1.30
   4      1.14074263    -0.47241521  -130.32022998    -0.00000717    -0.00093494  0.43D-05  0.95D-05  4  4     6.02     1.31
   5      1.14182903    -0.47244457  -130.32025934    -0.00002936    -0.00023734  0.11D-05  0.16D-05  5  5     7.21     1.32
   6      1.14217974    -0.47242981  -130.32024458     0.00001476    -0.00005055  0.11D-06  0.39D-06  6  6     8.37     1.32
   7      1.14225154    -0.47243027  -130.32024504    -0.00000046     0.00000257  0.17D-07  0.88D-07  6  1     9.54     1.32
   8      1.14227395    -0.47243059  -130.32024536    -0.00000031    -0.00000110  0.34D-08  0.17D-07  6  2    10.71     1.32
   9      1.14227888    -0.47243020  -130.32024497     0.00000038     0.00000094  0.25D-08  0.20D-08  6  4    11.87     1.32
  10      1.14228130    -0.47243057  -130.32024534    -0.00000037    -0.00000073  0.45D-09  0.24D-09  6  3    13.01     1.32
  11      1.14228103    -0.47243063  -130.32024541    -0.00000006    -0.00000011  0.14D-09  0.34D-10  6  5    14.21     1.32
  12      1.14228008    -0.47243077  -130.32024554    -0.00000014     0.00000035  0.18D-10  0.10D-10  6  6    15.34     1.32
  13      1.14227926    -0.47243081  -130.32024558    -0.00000004     0.00000021  0.56D-11  0.22D-11  6  1    16.51     1.32
  14      1.14227860    -0.47243084  -130.32024562    -0.00000003     0.00000015  0.37D-12  0.46D-12  6  4    17.68     1.32
  15      1.14227840    -0.47243085  -130.32024562    -0.00000001     0.00000003  0.82D-13  0.36D-13  6  2    18.84     1.32
  16      1.14227835    -0.47243085  -130.32024562    -0.00000000     0.00000001  0.23D-13  0.67D-14  6  3    19.99     1.32
  17      1.14227833    -0.47243085  -130.32024562    -0.00000000     0.00000001  0.40D-14  0.10D-14  6  5    21.14     1.32
  18      1.14227833    -0.47243085  -130.32024562    -0.00000000     0.00000000  0.81D-15  0.26D-15  6  6    22.35     1.33
  19      1.14227833    -0.47243085  -130.32024562    -0.00000000     0.00000000  0.93D-16  0.50D-16  6  1    23.55     1.33
  20      1.14227833    -0.47243085  -130.32024562     0.00000000    -0.00000000  0.91D-17  0.73D-17  6  4    24.69     1.33
  21      1.14227833    -0.47243085  -130.32024562     0.00000000    -0.00000000  0.48D-18  0.60D-18  6  3    25.88     1.33
  22      1.14227833    -0.47243085  -130.32024562     0.00000000    -0.00000000  0.12D-18  0.13D-18  6  2    27.05     1.33
  23      1.14227833    -0.47243085  -130.32024562     0.00000000     0.00000000  0.37D-19  0.46D-19  6  5    28.21     1.33
  24      1.14227833    -0.47243085  -130.32024562    -0.00000000     0.00000000  0.28D-20  0.99D-20  6  1    29.44     1.33

 Norm of t1 vector:      0.07660960      S-energy:    -0.00000000      T1 diagnostic:  0.01563787
                                                                       D1 diagnostic:  0.04210347

 Doubles amplitudes (print threshold =  0.500E-01):

         I         J         SYM. A    SYM. B    A         B      T(IJ, AB)

         6         6         2         2         1         1     -0.09854894


 Total CPU time for triples:     14.06 sec


 RESULTS
 =======

  Reference energy                   -129.847814770945
  CCSD singlet pair energy             -0.326563997622
  CCSD triplet pair energy             -0.145866855821
  CCSD correlation energy              -0.472430853445

  Triples (T) contribution             -0.022352766774
  Total correlation energy             -0.494783620219

  CCSD total energy                  -130.320245624390
  CCSD[T] energy                     -130.343668653793
  CCSD-T energy                      -130.342213767921
 !CCSD(T) total energy               -130.342598391164

 Timing summary (sec):

 STEP                 CPU(USER)    SYS     CPU(TOT)    WALL
 Transformation          1.38      0.23      1.61      1.62
 CCSD iterations        28.06      3.79     31.85     31.85
 Triples                14.06      0.40     14.46     14.47

 Program statistics:

 Available memory in ccsd:               994999756
 Min. memory needed in ccsd:               1265322
 Max. memory used in ccsd:                 1555950
 Max. memory used in cckext:               2415326 (24 integral passes)



 **********************************************************************************************************************************
 DATASETS  * FILE   NREC   LENGTH (MB)   RECORD NAMES
              1      20     1044.69       500      610      700      900      950      970     1000      129      960     1100   
                                          VAR    BASINP    GEOM    SYMINP    ZMAT    AOBASIS   BASIS     P2S    ABASIS      S 
                                         1400     1410     1200     1210     1080     1600     1650     1300     1700     1380   
                                           T        V       H0       H01     AOSYM     SMH    MOLCAS    ERIS     OPER     JKOP   

              2       4        3.27       700     1000      520     2100   
                                         GEOM     BASIS   MCVARS     RHF  

 PROGRAMS   *        TOTAL   CCSD(T)        HF       INT
 CPU TIMES  *        66.68     43.52     12.62     10.40
 REAL TIME  *        77.34 SEC
 DISK USED  *         3.13 GB      
 **********************************************************************************************************************************

 CCSD(T)/aug-cc-pVQZ energy=   -130.342598391164

        CCSD(T)         HF-SCF  
   -130.34259839   -129.84781477
 **********************************************************************************************************************************
 Molpro calculation terminated
 Variable memory released
