
 Primary working directories    : /tmp/r2666/282016.maple
 Secondary working directories  : /tmp/r2666/282016.maple
 Wavefunction directory         : /ddn/home4/r2666/wfu/
 Main file repository           : /tmp/r2666/282016.maple/

 SHA1      : d5ffa45e93fdbca01ffc919aa182cfdae0147319
 NAME      : 2015.1.35
 ARCHNAME  : linux/x86_64
 FC        : /opt/intel/composer_xe_2015.1.133/bin/intel64/ifort
 BLASLIB   : -Wl,-_start-group /opt/intel/mkl/lib/intel64/libmkl_intel_ilp64.a /opt/intel/mkl/lib/intel64/libmkl_intel_thread.a /opt/intel/mkl/lib/intel64/libmkl_core.a -Wl,-_end-group
 id        : olemiss

 Nodes     nprocs
 cn079        1

 Using customized tuning parameters: mindgm=1; mindgv=20; mindgc=4; mindgr=1; noblas=0; minvec=7
 default implementation of scratch files=df  

 ***,hno CCSD(T)/TZ-F12 QFF
 memory, 995, m;
 gthresh,energy=1.d-12,zero=1.d-22,oneint=1.d-22,twoint=1.d-22;
 gthresh,optgrad=1.d-8,optstep=1.d-8;
 nocompress;
 geomtyp=xyz
 bohr
 geometry={
 3
         42        42
 H        0.0000000000        1.6636847993       -1.9263750735
 N        0.0000000000       -0.1598709410       -1.1585645887
 O        0.0000000000        0.0379539317        1.1343500712
 }
 
 basis=avqz
   {hf,maxit=500;accu,20;}
 {ccsd(t),nocheck,maxit=250;orbital,IGNORE_ERROR;}

 Variables initialized (889), CPU time= 0.00 sec
 Commands  initialized (702), CPU time= 0.01 sec, 572 directives.
 Default parameters read. Elapsed time= 0.06 sec

 Checking input...
 Passed
1


                                         ***  PROGRAM SYSTEM MOLPRO  ***
                                       Copyright, TTI GmbH Stuttgart, 2015
                                    Version 2015.1 linked Jul  9 2018 13:16:40


 **********************************************************************************************************************************
 LABEL *   hno CCSD(T)/TZ-F12 QFF                                                        
  64 bit serial version                                                                  DATE: 04-Mar-20          TIME: 13:41:18  
 **********************************************************************************************************************************

 SHA1:             d5ffa45e93fdbca01ffc919aa182cfdae0147319
 **********************************************************************************************************************************

 THRESHOLDS:

 ZERO    =  1.00D-22  ONEINT  =  1.00D-22  TWOINT  =  1.00D-22  PREFAC  =  1.00D-14  LOCALI  =  1.00D-09  EORDER  =  1.00D-04
 ENERGY  =  1.00D-12  ETEST   =  0.00D+00  EDENS   =  0.00D+00  THRDEDEF=  1.00D-06  GRADIENT=  1.00D-02  STEP    =  1.00D-03
 ORBITAL =  1.00D-05  CIVEC   =  1.00D-05  COEFF   =  1.00D-04  PRINTCI =  5.00D-02  PUNCHCI =  9.90D+01  OPTGRAD =  3.00D-04
 OPTENERG=  1.00D-06  OPTSTEP =  3.00D-04  THRGRAD =  1.00D-10  COMPRESS=  1.00D-11  VARMIN  =  1.00D-07  VARMAX  =  1.00D-03
 THRDOUB =  0.00D+00  THRDIV  =  1.00D-05  THRRED  =  1.00D-07  THRPSP  =  1.00D+00  THRDC   =  1.00D-10  THRCS   =  1.00D-10
 THRNRM  =  1.00D-08  THREQ   =  0.00D+00  THRDE   =  1.00D+00  THRREF  =  1.00D-05  SPARFAC =  1.00D+00  THRDLP  =  1.00D-07
 THRDIA  =  1.00D-10  THRDLS  =  1.00D-07  THRGPS  =  0.00D+00  THRKEX  =  0.00D+00  THRDIS  =  2.00D-01  THRVAR  =  1.00D-10
 THRLOC  =  1.00D-06  THRGAP  =  1.00D-06  THRLOCT = -1.00D+00  THRGAPT = -1.00D+00  THRORB  =  1.00D-06  THRMLTP =  0.00D+00
 THRCPQCI=  1.00D-10  KEXTA   =  0.00D+00  THRCOARS=  0.00D+00  SYMTOL  =  1.00D-06  GRADTOL =  1.00D-06  THROVL  =  1.00D-08
 THRORTH =  1.00D-08  GRID    =  1.00D-06  GRIDMAX =  1.00D-03  DTMAX   =  0.00D+00  THROCCDE=  1.00D-01  THROCCDE=  1.00D-01



 THRESHOLDS:

 ZERO    =  1.00D-22  ONEINT  =  1.00D-22  TWOINT  =  1.00D-22  PREFAC  =  1.00D-14  LOCALI  =  1.00D-09  EORDER  =  1.00D-04
 ENERGY  =  1.00D-12  ETEST   =  0.00D+00  EDENS   =  0.00D+00  THRDEDEF=  1.00D-06  GRADIENT=  1.00D-02  STEP    =  1.00D-03
 ORBITAL =  1.00D-05  CIVEC   =  1.00D-05  COEFF   =  1.00D-04  PRINTCI =  5.00D-02  PUNCHCI =  9.90D+01  OPTGRAD =  1.00D-08
 OPTENERG=  1.00D-06  OPTSTEP =  1.00D-08  THRGRAD =  1.00D-10  COMPRESS=  1.00D-11  VARMIN  =  1.00D-07  VARMAX  =  1.00D-03
 THRDOUB =  0.00D+00  THRDIV  =  1.00D-05  THRRED  =  1.00D-07  THRPSP  =  1.00D+00  THRDC   =  1.00D-10  THRCS   =  1.00D-10
 THRNRM  =  1.00D-08  THREQ   =  0.00D+00  THRDE   =  1.00D+00  THRREF  =  1.00D-05  SPARFAC =  1.00D+00  THRDLP  =  1.00D-07
 THRDIA  =  1.00D-10  THRDLS  =  1.00D-07  THRGPS  =  0.00D+00  THRKEX  =  0.00D+00  THRDIS  =  2.00D-01  THRVAR  =  1.00D-10
 THRLOC  =  1.00D-06  THRGAP  =  1.00D-06  THRLOCT = -1.00D+00  THRGAPT = -1.00D+00  THRORB  =  1.00D-06  THRMLTP =  0.00D+00
 THRCPQCI=  1.00D-10  KEXTA   =  0.00D+00  THRCOARS=  0.00D+00  SYMTOL  =  1.00D-06  GRADTOL =  1.00D-06  THROVL  =  1.00D-08
 THRORTH =  1.00D-08  GRID    =  1.00D-06  GRIDMAX =  1.00D-03  DTMAX   =  0.00D+00  THROCCDE=  1.00D-01  THROCCDE=  1.00D-01



 Input parameters for SORTINT:

 COMPRESS =    0.000000
 C_FINAL  =    1.000000
 DEBUG    =   -1.000000
 C_SORT1  =    0.000000
 C_SEWARD =    0.000000
 THRESH   =    0.000000
 IO       =  molpro                                                          
 SPRI     =    0.000000
 SETTING GEOMTYP        =    XYZ
 ZUNIT=BOHR
 

 Variable memory set to  995000000 words,  buffer space   230000 words

 SETTING BASIS          =    AVQZ


 Recomputing integrals since basis changed


 Using spherical harmonics

 Library entry H      S aug-cc-pVQZ          selected for orbital group  1
 Library entry H      P aug-cc-pVQZ          selected for orbital group  1
 Library entry H      D aug-cc-pVQZ          selected for orbital group  1
 Library entry H      F aug-cc-pVQZ          selected for orbital group  1
 Library entry N      S aug-cc-pVQZ          selected for orbital group  2
 Library entry N      P aug-cc-pVQZ          selected for orbital group  2
 Library entry N      D aug-cc-pVQZ          selected for orbital group  2
 Library entry N      F aug-cc-pVQZ          selected for orbital group  2
 Library entry N      G aug-cc-pVQZ          selected for orbital group  2
 Library entry O      S aug-cc-pVQZ          selected for orbital group  3
 Library entry O      P aug-cc-pVQZ          selected for orbital group  3
 Library entry O      D aug-cc-pVQZ          selected for orbital group  3
 Library entry O      F aug-cc-pVQZ          selected for orbital group  3
 Library entry O      G aug-cc-pVQZ          selected for orbital group  3


 PROGRAM * SEWARD (Integral evaluation for generally contracted gaussian basis sets)     Author: Roland Lindh, 1990

 Geometry written to block  1 of record 700


 Point group  Cs  



 ATOMIC COORDINATES

 NR  ATOM    CHARGE       X              Y              Z

   1  H       1.00    0.000000000    1.663684799   -1.926375074
   2  N       7.00    0.000000000   -0.159870941   -1.158564589
   3  O       8.00    0.000000000    0.037953932    1.134350071

 Bond lengths in Bohr (Angstrom)

 1-2  1.978607712  2-3  2.301432666
     ( 1.047034111)     ( 1.217865720)

 Bond angles

  1-2-3  107.90251459

 NUCLEAR CHARGE:                   16
 NUMBER OF PRIMITIVE AOS:         293
 NUMBER OF SYMMETRY AOS:          234
 NUMBER OF CONTRACTIONS:          206   ( 130A'  +  76A"  )
 NUMBER OF CORE ORBITALS:           2   (   2A'  +   0A"  )
 NUMBER OF VALENCE ORBITALS:        9   (   7A'  +   2A"  )


 NUCLEAR REPULSION ENERGY   30.17885012

 Eigenvalues of metric

         1 0.598E-04 0.147E-03 0.320E-03 0.437E-03 0.603E-03 0.681E-03 0.101E-02 0.110E-02
         2 0.847E-03 0.160E-02 0.503E-02 0.897E-02 0.101E-01 0.125E-01 0.127E-01 0.189E-01


 Contracted 2-electron integrals neglected if value below      1.0D-22

      109945083. INTEGRALS WRITTEN OUT IN   26849 BLOCKS ON RECORD 1290 OF FILE 1


 NUMBER OF SORTED TWO-ELECTRON INTEGRALS:  115283741.     BUFFER LENGTH:  32768
 NUMBER OF SEGMENTS:   8  SEGMENT LENGTH:   15998004      RECORD LENGTH: 524288

 Memory used in sort:      16.56 MW

 SORT1 READ   109945083. AND WROTE   110865250. INTEGRALS IN    322 RECORDS. CPU TIME:     1.80 SEC, REAL TIME:     2.53 SEC
 SORT2 READ   110865250. AND WROTE   115283741. INTEGRALS IN      8 RECORDS. CPU TIME:     1.28 SEC, REAL TIME:     1.75 SEC

 FILE SIZES:   FILE 1:  1780.6 MBYTE,  FILE 4:  1350.6 MBYTE,   TOTAL:   3131.2 MBYTE

 OPERATOR DM      FOR CENTER  0  COORDINATES:    0.000000    0.000000    0.000000


 **********************************************************************************************************************************
 DATASETS  * FILE   NREC   LENGTH (MB)   RECORD NAMES
              1      19      944.14       500      610      700      900      950      970     1000      129      960     1100   
                                          VAR    BASINP    GEOM    SYMINP    ZMAT    AOBASIS   BASIS     P2S    ABASIS      S 
                                         1400     1410     1200     1210     1080     1600     1650     1300     1700   
                                           T        V       H0       H01     AOSYM     SMH    MOLCAS    ERIS     OPER   

 PROGRAMS   *        TOTAL       INT
 CPU TIMES  *        10.52     10.41
 REAL TIME  *        13.13 SEC
 DISK USED  *         3.13 GB      
 **********************************************************************************************************************************


 PROGRAM * RHF-SCF (CLOSED SHELL)       Authors: W. Meyer, H.-J. Werner


 NUMBER OF ELECTRONS:       8+    8-
 CONVERGENCE THRESHOLDS:    1.00E-10 (Density)    1.00E-13 (Energy)
 MAX. NUMBER OF ITERATIONS:      500
 INTERPOLATION TYPE:            DIIS
 INTERPOLATION STEPS:              2 (START)      1 (STEP)
 LEVEL SHIFTS:                  0.00 (CLOSED)  0.00 (OPEN) 



 Orbital guess generated from atomic densities. Full valence occupancy:    9   2

 Molecular orbital dump at record        2100.2

 Initial occupancy:   7   1

 ITERATION    DDIFF          GRAD             ENERGY        2-EL.EN.            DIPOLE MOMENTS         DIIS   ORB.
    1      0.000D+00      0.000D+00      -129.79407310    153.625033    0.00000    0.59926   -1.05708    0    start
    2      0.000D+00      0.819D-02      -129.82101602    154.830212    0.00000    0.61693   -0.20340    1    diag
    3      0.666D-02      0.637D-02      -129.84541234    154.977613    0.00000    0.56149   -0.60786    2    diag
    4      0.342D-02      0.984D-03      -129.84623744    154.685304    0.00000    0.56882   -0.54489    3    diag
    5      0.614D-03      0.320D-03      -129.84636715    154.779372    0.00000    0.57405   -0.54724    4    diag
    6      0.256D-03      0.924D-04      -129.84638785    154.763124    0.00000    0.57429   -0.54289    5    diag
    7      0.977D-04      0.465D-04      -129.84639404    154.765769    0.00000    0.57548   -0.54013    6    diag
    8      0.680D-04      0.167D-04      -129.84639480    154.765037    0.00000    0.57551   -0.53902    7    diag
    9      0.276D-04      0.324D-05      -129.84639483    154.764915    0.00000    0.57548   -0.53878    8    diag
   10      0.559D-05      0.720D-06      -129.84639483    154.764897    0.00000    0.57544   -0.53876    9    orth
   11      0.104D-05      0.142D-06      -129.84639483    154.764894    0.00000    0.57544   -0.53875    9    diag
   12      0.185D-06      0.295D-07      -129.84639483    154.764894    0.00000    0.57543   -0.53875    9    diag
   13      0.399D-07      0.781D-08      -129.84639483    154.764894    0.00000    0.57543   -0.53875    9    diag
   14      0.112D-07      0.152D-08      -129.84639483    154.764894    0.00000    0.57543   -0.53875    9    diag
   15      0.201D-08      0.432D-09      -129.84639483    154.764894    0.00000    0.57543   -0.53875    9    diag
   16      0.608D-09      0.126D-09      -129.84639483    154.764894    0.00000    0.57543   -0.53875    9    diag
   17      0.109D-09      0.316D-10      -129.84639483    154.764894    0.00000    0.57543   -0.53875    9    diag
   18      0.301D-10      0.103D-10      -129.84639483    154.764894    0.00000    0.57543   -0.53875    9    diag
   19      0.146D-10      0.234D-11      -129.84639483    154.764894    0.00000    0.57543   -0.53875    9    fixocc
   20      0.544D-11      0.343D-12      -129.84639483    154.764894    0.00000    0.57543   -0.53875    9    orth
   21      0.235D-11      0.155D-12      -129.84639483    154.764894    0.00000    0.57543   -0.53875    0    orth

 Final occupancy:   7   1

 !RHF STATE 1.1 Energy               -129.846394833679
 Nuclear energy                        30.17885012
 One-electron energy                 -237.40769177
 Two-electron energy                   77.38244681
 Virial quotient                       -1.00196779
 !RHF STATE 1.1 Dipole moment           0.00000000     0.57543358    -0.53875324
 Dipole moment /Debye                   0.00000000     1.46251048    -1.36928447

 Orbital energies:

         1.1          2.1          3.1          4.1          5.1          6.1          7.1          8.1          9.1
    -20.654471   -15.713735    -1.521794    -0.997934    -0.744788    -0.663242    -0.434040     0.026260     0.079456

         1.2          2.2          3.2
     -0.591396     0.060786     0.109932

 HOMO      7.1    -0.434040 =     -11.8108eV
 LUMO      8.1     0.026260 =       0.7146eV
 LUMO-HOMO         0.460300 =      12.5254eV


 **********************************************************************************************************************************
 DATASETS  * FILE   NREC   LENGTH (MB)   RECORD NAMES
              1      19      944.14       500      610      700      900      950      970     1000      129      960     1100   
                                          VAR    BASINP    GEOM    SYMINP    ZMAT    AOBASIS   BASIS     P2S    ABASIS      S 
                                         1400     1410     1200     1210     1080     1600     1650     1300     1700   
                                           T        V       H0       H01     AOSYM     SMH    MOLCAS    ERIS     OPER   

              2       4        3.27       700     1000      520     2100   
                                         GEOM     BASIS   MCVARS     RHF  

 PROGRAMS   *        TOTAL        HF       INT
 CPU TIMES  *        20.31      9.78     10.41
 REAL TIME  *        25.71 SEC
 DISK USED  *         3.13 GB      
 **********************************************************************************************************************************


 PROGRAM * CCSD (Closed-shell coupled cluster)     Authors: C. Hampel, H.-J. Werner, 1991, M. Deegan, P.J. Knowles, 1992


 Convergence thresholds:  THRVAR = 1.00D-08  THRDEN = 1.00D-12

 CCSD(T)     terms to be evaluated (factor= 1.000)


 Number of core orbitals:           2 (   2   0 )
 Number of closed-shell orbitals:   6 (   5   1 )
 Number of external orbitals:     198 ( 123  75 )

 Molecular orbitals read from record     2100.2  Type=RHF/CANONICAL (state 1.1)

 Number of N-1 electron functions:               6
 Number of N-2 electron functions:              21
 Number of singly external CSFs:               690
 Number of doubly external CSFs:            362646
 Total number of CSFs:                      363337

 Length of J-op  integral file:               0.00 MB
 Length of K-op  integral file:               1.60 MB
 Length of 3-ext integral record:             0.00 MB

 Memory could be reduced to 34.67 Mwords without degradation in triples

 Integral transformation finished. Total CPU:   1.32 sec, npass=  1  Memory used:   9.53 MW

 Reference energy:                   -129.84639483

 MP2 singlet pair energy:              -0.30252598
 MP2 triplet pair energy:              -0.17105211
 MP2 correlation energy:               -0.47357810
 MP2 total energy:                   -130.31997293

 SCS-MP2 correlation energy:           -0.46946361   (PS=  1.200000  PT=  0.333333)
 SCS-MP2 total energy:               -130.31585844

 ITER.      SQ.NORM     CORR.ENERGY   TOTAL ENERGY   ENERGY CHANGE        DEN1      VAR(S)    VAR(P)  DIIS     TIME  TIME/IT
   1      1.12192805    -0.47322327  -130.31961810     0.00035483     0.01715906  0.33D-02  0.33D-02  1  1     2.51     1.31
   2      1.13284803    -0.47309974  -130.31949458     0.00012352    -0.01273059  0.11D-03  0.50D-03  2  2     3.74     1.33
   3      1.13932743    -0.47348958  -130.31988441    -0.00038984    -0.00309931  0.51D-04  0.56D-04  3  3     4.86     1.33
   4      1.14219040    -0.47349769  -130.31989253    -0.00000811    -0.00096391  0.46D-05  0.10D-04  4  4     6.06     1.33
   5      1.14334318    -0.47352881  -130.31992364    -0.00003112    -0.00025071  0.12D-05  0.17D-05  5  5     7.27     1.34
   6      1.14371165    -0.47351285  -130.31990768     0.00001596    -0.00005335  0.11D-06  0.40D-06  6  6     8.48     1.34
   7      1.14378385    -0.47351352  -130.31990835    -0.00000067     0.00000311  0.16D-07  0.92D-07  6  1     9.65     1.35
   8      1.14380655    -0.47351376  -130.31990859    -0.00000024    -0.00000115  0.33D-08  0.19D-07  6  2    10.81     1.35
   9      1.14381137    -0.47351336  -130.31990819     0.00000040     0.00000103  0.26D-08  0.22D-08  6  4    11.98     1.35
  10      1.14381392    -0.47351374  -130.31990857    -0.00000038    -0.00000078  0.50D-09  0.27D-09  6  3    13.20     1.35
  11      1.14381369    -0.47351380  -130.31990863    -0.00000006    -0.00000014  0.16D-09  0.38D-10  6  5    14.47     1.35
  12      1.14381272    -0.47351395  -130.31990878    -0.00000015     0.00000037  0.19D-10  0.11D-10  6  6    15.69     1.36
  13      1.14381184    -0.47351399  -130.31990882    -0.00000004     0.00000022  0.60D-11  0.25D-11  6  1    16.88     1.36
  14      1.14381113    -0.47351402  -130.31990886    -0.00000004     0.00000016  0.36D-12  0.54D-12  6  4    18.13     1.36
  15      1.14381091    -0.47351403  -130.31990886    -0.00000001     0.00000004  0.80D-13  0.42D-13  6  2    19.37     1.36
  16      1.14381086    -0.47351403  -130.31990887    -0.00000000     0.00000001  0.21D-13  0.77D-14  6  3    20.55     1.36
  17      1.14381083    -0.47351403  -130.31990887    -0.00000000     0.00000001  0.40D-14  0.10D-14  6  5    21.77     1.36
  18      1.14381082    -0.47351403  -130.31990887    -0.00000000     0.00000000  0.86D-15  0.25D-15  6  6    22.95     1.36
  19      1.14381082    -0.47351403  -130.31990887    -0.00000000     0.00000000  0.11D-15  0.51D-16  6  1    24.17     1.36
  20      1.14381082    -0.47351403  -130.31990887     0.00000000    -0.00000000  0.10D-16  0.75D-17  6  4    25.36     1.36
  21      1.14381083    -0.47351403  -130.31990887     0.00000000    -0.00000000  0.50D-18  0.62D-18  6  3    26.56     1.36
  22      1.14381083    -0.47351403  -130.31990887     0.00000000    -0.00000000  0.12D-18  0.11D-18  6  2    27.75     1.36
  23      1.14381083    -0.47351403  -130.31990887     0.00000000     0.00000000  0.36D-19  0.42D-19  6  5    28.99     1.36
  24      1.14381083    -0.47351403  -130.31990887    -0.00000000     0.00000000  0.29D-20  0.93D-20  6  1    30.20     1.36

 Norm of t1 vector:      0.07817299      S-energy:    -0.00000000      T1 diagnostic:  0.01595699
                                                                       D1 diagnostic:  0.04345531

 Doubles amplitudes (print threshold =  0.500E-01):

         I         J         SYM. A    SYM. B    A         B      T(IJ, AB)

         6         6         2         2         1         1     -0.10392327


 Total CPU time for triples:     15.46 sec


 RESULTS
 =======

  Reference energy                   -129.846394833679
  CCSD singlet pair energy             -0.327506072704
  CCSD triplet pair energy             -0.146007960938
  CCSD correlation energy              -0.473514033642

  Triples (T) contribution             -0.022643644004
  Total correlation energy             -0.496157677646

  CCSD total energy                  -130.319908867321
  CCSD[T] energy                     -130.343664215967
  CCSD-T energy                      -130.342158784321
 !CCSD(T) total energy               -130.342552511325

 Timing summary (sec):

 STEP                 CPU(USER)    SYS     CPU(TOT)    WALL
 Transformation          1.34      0.31      1.65      1.65
 CCSD iterations        28.87      3.73     32.60     32.61
 Triples                15.46      0.43     15.89     15.89

 Program statistics:

 Available memory in ccsd:               994999756
 Min. memory needed in ccsd:               1265322
 Max. memory used in ccsd:                 1555950
 Max. memory used in cckext:               2415326 (24 integral passes)



 **********************************************************************************************************************************
 DATASETS  * FILE   NREC   LENGTH (MB)   RECORD NAMES
              1      20     1044.69       500      610      700      900      950      970     1000      129      960     1100   
                                          VAR    BASINP    GEOM    SYMINP    ZMAT    AOBASIS   BASIS     P2S    ABASIS      S 
                                         1400     1410     1200     1210     1080     1600     1650     1300     1700     1380   
                                           T        V       H0       H01     AOSYM     SMH    MOLCAS    ERIS     OPER     JKOP   

              2       4        3.27       700     1000      520     2100   
                                         GEOM     BASIS   MCVARS     RHF  

 PROGRAMS   *        TOTAL   CCSD(T)        HF       INT
 CPU TIMES  *        66.00     45.70      9.78     10.41
 REAL TIME  *        75.91 SEC
 DISK USED  *         3.13 GB      
 **********************************************************************************************************************************

 CCSD(T)/aug-cc-pVQZ energy=   -130.342552511325

        CCSD(T)         HF-SCF  
   -130.34255251   -129.84639483
 **********************************************************************************************************************************
 Molpro calculation terminated
 Variable memory released
