
 Primary working directories    : /tmp/r2666/281988.maple
 Secondary working directories  : /tmp/r2666/281988.maple
 Wavefunction directory         : /ddn/home4/r2666/wfu/
 Main file repository           : /tmp/r2666/281988.maple/

 SHA1      : d5ffa45e93fdbca01ffc919aa182cfdae0147319
 NAME      : 2015.1.35
 ARCHNAME  : linux/x86_64
 FC        : /opt/intel/composer_xe_2015.1.133/bin/intel64/ifort
 BLASLIB   : -Wl,-_start-group /opt/intel/mkl/lib/intel64/libmkl_intel_ilp64.a /opt/intel/mkl/lib/intel64/libmkl_intel_thread.a /opt/intel/mkl/lib/intel64/libmkl_core.a -Wl,-_end-group
 id        : olemiss

 Nodes     nprocs
 cn075        1

 Using customized tuning parameters: mindgm=1; mindgv=20; mindgc=4; mindgr=1; noblas=0; minvec=7
 default implementation of scratch files=df  

 ***,hno CCSD(T)/TZ-F12 QFF
 memory, 995, m;
 gthresh,energy=1.d-12,zero=1.d-22,oneint=1.d-22,twoint=1.d-22;
 gthresh,optgrad=1.d-8,optstep=1.d-8;
 nocompress;
 geomtyp=xyz
 bohr
 geometry={
 3
         14        14
 H        0.0000000000        1.6577422462       -1.9220063741
 N        0.0000000000       -0.1544043873       -1.1514792367
 O        0.0000000000        0.0384299311        1.1228960198
 }
 
 basis=avqz
   {hf,maxit=500;accu,20;}
 {ccsd(t),nocheck,maxit=250;orbital,IGNORE_ERROR;}

 Variables initialized (889), CPU time= 0.01 sec
 Commands  initialized (702), CPU time= 0.01 sec, 572 directives.
 Default parameters read. Elapsed time= 0.04 sec

 Checking input...
 Passed
1


                                         ***  PROGRAM SYSTEM MOLPRO  ***
                                       Copyright, TTI GmbH Stuttgart, 2015
                                    Version 2015.1 linked Jul  9 2018 13:16:40


 **********************************************************************************************************************************
 LABEL *   hno CCSD(T)/TZ-F12 QFF                                                        
  64 bit serial version                                                                  DATE: 04-Mar-20          TIME: 13:39:06  
 **********************************************************************************************************************************

 SHA1:             d5ffa45e93fdbca01ffc919aa182cfdae0147319
 **********************************************************************************************************************************

 THRESHOLDS:

 ZERO    =  1.00D-22  ONEINT  =  1.00D-22  TWOINT  =  1.00D-22  PREFAC  =  1.00D-14  LOCALI  =  1.00D-09  EORDER  =  1.00D-04
 ENERGY  =  1.00D-12  ETEST   =  0.00D+00  EDENS   =  0.00D+00  THRDEDEF=  1.00D-06  GRADIENT=  1.00D-02  STEP    =  1.00D-03
 ORBITAL =  1.00D-05  CIVEC   =  1.00D-05  COEFF   =  1.00D-04  PRINTCI =  5.00D-02  PUNCHCI =  9.90D+01  OPTGRAD =  3.00D-04
 OPTENERG=  1.00D-06  OPTSTEP =  3.00D-04  THRGRAD =  1.00D-10  COMPRESS=  1.00D-11  VARMIN  =  1.00D-07  VARMAX  =  1.00D-03
 THRDOUB =  0.00D+00  THRDIV  =  1.00D-05  THRRED  =  1.00D-07  THRPSP  =  1.00D+00  THRDC   =  1.00D-10  THRCS   =  1.00D-10
 THRNRM  =  1.00D-08  THREQ   =  0.00D+00  THRDE   =  1.00D+00  THRREF  =  1.00D-05  SPARFAC =  1.00D+00  THRDLP  =  1.00D-07
 THRDIA  =  1.00D-10  THRDLS  =  1.00D-07  THRGPS  =  0.00D+00  THRKEX  =  0.00D+00  THRDIS  =  2.00D-01  THRVAR  =  1.00D-10
 THRLOC  =  1.00D-06  THRGAP  =  1.00D-06  THRLOCT = -1.00D+00  THRGAPT = -1.00D+00  THRORB  =  1.00D-06  THRMLTP =  0.00D+00
 THRCPQCI=  1.00D-10  KEXTA   =  0.00D+00  THRCOARS=  0.00D+00  SYMTOL  =  1.00D-06  GRADTOL =  1.00D-06  THROVL  =  1.00D-08
 THRORTH =  1.00D-08  GRID    =  1.00D-06  GRIDMAX =  1.00D-03  DTMAX   =  0.00D+00  THROCCDE=  1.00D-01  THROCCDE=  1.00D-01



 THRESHOLDS:

 ZERO    =  1.00D-22  ONEINT  =  1.00D-22  TWOINT  =  1.00D-22  PREFAC  =  1.00D-14  LOCALI  =  1.00D-09  EORDER  =  1.00D-04
 ENERGY  =  1.00D-12  ETEST   =  0.00D+00  EDENS   =  0.00D+00  THRDEDEF=  1.00D-06  GRADIENT=  1.00D-02  STEP    =  1.00D-03
 ORBITAL =  1.00D-05  CIVEC   =  1.00D-05  COEFF   =  1.00D-04  PRINTCI =  5.00D-02  PUNCHCI =  9.90D+01  OPTGRAD =  1.00D-08
 OPTENERG=  1.00D-06  OPTSTEP =  1.00D-08  THRGRAD =  1.00D-10  COMPRESS=  1.00D-11  VARMIN  =  1.00D-07  VARMAX  =  1.00D-03
 THRDOUB =  0.00D+00  THRDIV  =  1.00D-05  THRRED  =  1.00D-07  THRPSP  =  1.00D+00  THRDC   =  1.00D-10  THRCS   =  1.00D-10
 THRNRM  =  1.00D-08  THREQ   =  0.00D+00  THRDE   =  1.00D+00  THRREF  =  1.00D-05  SPARFAC =  1.00D+00  THRDLP  =  1.00D-07
 THRDIA  =  1.00D-10  THRDLS  =  1.00D-07  THRGPS  =  0.00D+00  THRKEX  =  0.00D+00  THRDIS  =  2.00D-01  THRVAR  =  1.00D-10
 THRLOC  =  1.00D-06  THRGAP  =  1.00D-06  THRLOCT = -1.00D+00  THRGAPT = -1.00D+00  THRORB  =  1.00D-06  THRMLTP =  0.00D+00
 THRCPQCI=  1.00D-10  KEXTA   =  0.00D+00  THRCOARS=  0.00D+00  SYMTOL  =  1.00D-06  GRADTOL =  1.00D-06  THROVL  =  1.00D-08
 THRORTH =  1.00D-08  GRID    =  1.00D-06  GRIDMAX =  1.00D-03  DTMAX   =  0.00D+00  THROCCDE=  1.00D-01  THROCCDE=  1.00D-01



 Input parameters for SORTINT:

 COMPRESS =    0.000000
 C_FINAL  =    1.000000
 DEBUG    =   -1.000000
 C_SORT1  =    0.000000
 C_SEWARD =    0.000000
 THRESH   =    0.000000
 IO       =  molpro                                                          
 SPRI     =    0.000000
 SETTING GEOMTYP        =    XYZ
 ZUNIT=BOHR
 

 Variable memory set to  995000000 words,  buffer space   230000 words

 SETTING BASIS          =    AVQZ


 Recomputing integrals since basis changed


 Using spherical harmonics

 Library entry H      S aug-cc-pVQZ          selected for orbital group  1
 Library entry H      P aug-cc-pVQZ          selected for orbital group  1
 Library entry H      D aug-cc-pVQZ          selected for orbital group  1
 Library entry H      F aug-cc-pVQZ          selected for orbital group  1
 Library entry N      S aug-cc-pVQZ          selected for orbital group  2
 Library entry N      P aug-cc-pVQZ          selected for orbital group  2
 Library entry N      D aug-cc-pVQZ          selected for orbital group  2
 Library entry N      F aug-cc-pVQZ          selected for orbital group  2
 Library entry N      G aug-cc-pVQZ          selected for orbital group  2
 Library entry O      S aug-cc-pVQZ          selected for orbital group  3
 Library entry O      P aug-cc-pVQZ          selected for orbital group  3
 Library entry O      D aug-cc-pVQZ          selected for orbital group  3
 Library entry O      F aug-cc-pVQZ          selected for orbital group  3
 Library entry O      G aug-cc-pVQZ          selected for orbital group  3


 PROGRAM * SEWARD (Integral evaluation for generally contracted gaussian basis sets)     Author: Roland Lindh, 1990

 Geometry written to block  1 of record 700


 Point group  Cs  



 ATOMIC COORDINATES

 NR  ATOM    CHARGE       X              Y              Z

   1  H       1.00    0.000000000    1.657742246   -1.922006374
   2  N       7.00    0.000000000   -0.154404387   -1.151479237
   3  O       8.00    0.000000000    0.038429931    1.122896020

 Bond lengths in Bohr (Angstrom)

 1-2  1.969159082  2-3  2.282535406
     ( 1.042034111)     ( 1.207865720)

 Bond angles

  1-2-3  108.18899349

 NUCLEAR CHARGE:                   16
 NUMBER OF PRIMITIVE AOS:         293
 NUMBER OF SYMMETRY AOS:          234
 NUMBER OF CONTRACTIONS:          206   ( 130A'  +  76A"  )
 NUMBER OF CORE ORBITALS:           2   (   2A'  +   0A"  )
 NUMBER OF VALENCE ORBITALS:        9   (   7A'  +   2A"  )


 NUCLEAR REPULSION ENERGY   30.40864570

 Eigenvalues of metric

         1 0.584E-04 0.143E-03 0.316E-03 0.435E-03 0.584E-03 0.668E-03 0.991E-03 0.108E-02
         2 0.819E-03 0.157E-02 0.489E-02 0.892E-02 0.997E-02 0.122E-01 0.124E-01 0.183E-01


 Contracted 2-electron integrals neglected if value below      1.0D-22

      109945088. INTEGRALS WRITTEN OUT IN   26849 BLOCKS ON RECORD 1290 OF FILE 1


 NUMBER OF SORTED TWO-ELECTRON INTEGRALS:  115283741.     BUFFER LENGTH:  32768
 NUMBER OF SEGMENTS:   8  SEGMENT LENGTH:   15998004      RECORD LENGTH: 524288

 Memory used in sort:      16.56 MW

 SORT1 READ   109945088. AND WROTE   110865255. INTEGRALS IN    322 RECORDS. CPU TIME:     1.84 SEC, REAL TIME:     2.59 SEC
 SORT2 READ   110865255. AND WROTE   115283741. INTEGRALS IN      8 RECORDS. CPU TIME:     1.32 SEC, REAL TIME:     1.78 SEC

 FILE SIZES:   FILE 1:  1780.6 MBYTE,  FILE 4:  1350.6 MBYTE,   TOTAL:   3131.2 MBYTE

 OPERATOR DM      FOR CENTER  0  COORDINATES:    0.000000    0.000000    0.000000


 **********************************************************************************************************************************
 DATASETS  * FILE   NREC   LENGTH (MB)   RECORD NAMES
              1      19      944.14       500      610      700      900      950      970     1000      129      960     1100   
                                          VAR    BASINP    GEOM    SYMINP    ZMAT    AOBASIS   BASIS     P2S    ABASIS      S 
                                         1400     1410     1200     1210     1080     1600     1650     1300     1700   
                                           T        V       H0       H01     AOSYM     SMH    MOLCAS    ERIS     OPER   

 PROGRAMS   *        TOTAL       INT
 CPU TIMES  *        10.72     10.63
 REAL TIME  *        13.66 SEC
 DISK USED  *         3.13 GB      
 **********************************************************************************************************************************


 PROGRAM * RHF-SCF (CLOSED SHELL)       Authors: W. Meyer, H.-J. Werner


 NUMBER OF ELECTRONS:       8+    8-
 CONVERGENCE THRESHOLDS:    1.00E-10 (Density)    1.00E-13 (Energy)
 MAX. NUMBER OF ITERATIONS:      500
 INTERPOLATION TYPE:            DIIS
 INTERPOLATION STEPS:              2 (START)      1 (STEP)
 LEVEL SHIFTS:                  0.00 (CLOSED)  0.00 (OPEN) 



 Orbital guess generated from atomic densities. Full valence occupancy:    9   2

 Molecular orbital dump at record        2100.2

 Initial occupancy:   7   1

 ITERATION    DDIFF          GRAD             ENERGY        2-EL.EN.            DIPOLE MOMENTS         DIIS   ORB.
    1      0.000D+00      0.000D+00      -129.79746917    154.039302    0.00000    0.60062   -1.02464    0    start
    2      0.000D+00      0.808D-02      -129.82476379    155.260763    0.00000    0.61106   -0.21207    1    diag
    3      0.650D-02      0.613D-02      -129.84718620    155.386116    0.00000    0.55984   -0.59472    2    diag
    4      0.331D-02      0.973D-03      -129.84798868    155.102191    0.00000    0.56730   -0.53335    3    diag
    5      0.606D-03      0.315D-03      -129.84811329    155.194992    0.00000    0.57248   -0.53588    4    diag
    6      0.251D-03      0.905D-04      -129.84813303    155.178960    0.00000    0.57278   -0.53173    5    diag
    7      0.953D-04      0.452D-04      -129.84813880    155.181670    0.00000    0.57398   -0.52912    6    diag
    8      0.659D-04      0.157D-04      -129.84813945    155.180983    0.00000    0.57402   -0.52809    7    diag
    9      0.254D-04      0.301D-05      -129.84813948    155.180871    0.00000    0.57398   -0.52787    8    diag
   10      0.504D-05      0.684D-06      -129.84813948    155.180854    0.00000    0.57395   -0.52785    9    orth
   11      0.987D-06      0.136D-06      -129.84813948    155.180850    0.00000    0.57394   -0.52784    9    diag
   12      0.180D-06      0.277D-07      -129.84813948    155.180850    0.00000    0.57394   -0.52784    9    diag
   13      0.386D-07      0.713D-08      -129.84813948    155.180850    0.00000    0.57394   -0.52784    9    diag
   14      0.104D-07      0.139D-08      -129.84813948    155.180850    0.00000    0.57394   -0.52784    9    diag
   15      0.191D-08      0.398D-09      -129.84813948    155.180850    0.00000    0.57394   -0.52784    9    diag
   16      0.569D-09      0.120D-09      -129.84813948    155.180850    0.00000    0.57394   -0.52784    9    diag
   17      0.107D-09      0.307D-10      -129.84813948    155.180850    0.00000    0.57394   -0.52784    9    diag
   18      0.290D-10      0.102D-10      -129.84813948    155.180850    0.00000    0.57394   -0.52784    9    diag
   19      0.144D-10      0.245D-11      -129.84813948    155.180850    0.00000    0.57394   -0.52784    9    fixocc
   20      0.391D-11      0.442D-12      -129.84813948    155.180850    0.00000    0.57394   -0.52784    9    orth
   21      0.293D-11      0.222D-12      -129.84813948    155.180850    0.00000    0.57394   -0.52784    9    diag
   22      0.236D-11      0.139D-12      -129.84813948    155.180850    0.00000    0.57394   -0.52784    9    diag
   23      0.214D-11      0.127D-12      -129.84813948    155.180850    0.00000    0.57394   -0.52784    0    orth

 Final occupancy:   7   1

 !RHF STATE 1.1 Energy               -129.848139483181
 Nuclear energy                        30.40864570
 One-electron energy                 -237.84721034
 Two-electron energy                   77.59042516
 Virial quotient                       -1.00162243
 !RHF STATE 1.1 Dipole moment           0.00000000     0.57393858    -0.52784348
 Dipole moment /Debye                   0.00000000     1.45871083    -1.34155643

 Orbital energies:

         1.1          2.1          3.1          4.1          5.1          6.1          7.1          8.1          9.1
    -20.653483   -15.711273    -1.529803    -0.997065    -0.748338    -0.666139    -0.431099     0.026367     0.079482

         1.2          2.2          3.2
     -0.595980     0.063300     0.110247

 HOMO      7.1    -0.431099 =     -11.7308eV
 LUMO      8.1     0.026367 =       0.7175eV
 LUMO-HOMO         0.457466 =      12.4483eV


 **********************************************************************************************************************************
 DATASETS  * FILE   NREC   LENGTH (MB)   RECORD NAMES
              1      19      944.14       500      610      700      900      950      970     1000      129      960     1100   
                                          VAR    BASINP    GEOM    SYMINP    ZMAT    AOBASIS   BASIS     P2S    ABASIS      S 
                                         1400     1410     1200     1210     1080     1600     1650     1300     1700   
                                           T        V       H0       H01     AOSYM     SMH    MOLCAS    ERIS     OPER   

              2       4        3.27       700     1000      520     2100   
                                         GEOM     BASIS   MCVARS     RHF  

 PROGRAMS   *        TOTAL        HF       INT
 CPU TIMES  *        21.68     10.96     10.63
 REAL TIME  *        27.42 SEC
 DISK USED  *         3.13 GB      
 **********************************************************************************************************************************


 PROGRAM * CCSD (Closed-shell coupled cluster)     Authors: C. Hampel, H.-J. Werner, 1991, M. Deegan, P.J. Knowles, 1992


 Convergence thresholds:  THRVAR = 1.00D-08  THRDEN = 1.00D-12

 CCSD(T)     terms to be evaluated (factor= 1.000)


 Number of core orbitals:           2 (   2   0 )
 Number of closed-shell orbitals:   6 (   5   1 )
 Number of external orbitals:     198 ( 123  75 )

 Molecular orbitals read from record     2100.2  Type=RHF/CANONICAL (state 1.1)

 Number of N-1 electron functions:               6
 Number of N-2 electron functions:              21
 Number of singly external CSFs:               690
 Number of doubly external CSFs:            362646
 Total number of CSFs:                      363337

 Length of J-op  integral file:               0.00 MB
 Length of K-op  integral file:               1.60 MB
 Length of 3-ext integral record:             0.00 MB

 Memory could be reduced to 34.67 Mwords without degradation in triples

 Integral transformation finished. Total CPU:   1.41 sec, npass=  1  Memory used:   9.53 MW

 Reference energy:                   -129.84813948

 MP2 singlet pair energy:              -0.30138385
 MP2 triplet pair energy:              -0.17029267
 MP2 correlation energy:               -0.47167653
 MP2 total energy:                   -130.31981601

 SCS-MP2 correlation energy:           -0.46762051   (PS=  1.200000  PT=  0.333333)
 SCS-MP2 total energy:               -130.31575999

 ITER.      SQ.NORM     CORR.ENERGY   TOTAL ENERGY   ENERGY CHANGE        DEN1      VAR(S)    VAR(P)  DIIS     TIME  TIME/IT
   1      1.12068770    -0.47173903  -130.31987852    -0.00006251     0.01626176  0.31D-02  0.32D-02  1  1     2.58     1.30
   2      1.13132685    -0.47170487  -130.31984436     0.00003416    -0.01244549  0.10D-03  0.49D-03  2  2     3.77     1.32
   3      1.13758048    -0.47207665  -130.32021613    -0.00037177    -0.00302697  0.48D-04  0.53D-04  3  3     4.96     1.34
   4      1.14031857    -0.47208489  -130.32022438    -0.00000825    -0.00092980  0.42D-05  0.95D-05  4  4     6.14     1.34
   5      1.14139788    -0.47211375  -130.32025323    -0.00002886    -0.00023544  0.11D-05  0.17D-05  5  5     7.35     1.36
   6      1.14174773    -0.47209905  -130.32023854     0.00001470    -0.00005039  0.10D-06  0.40D-06  6  6     8.61     1.37
   7      1.14181909    -0.47209970  -130.32023918    -0.00000064     0.00000268  0.15D-07  0.90D-07  6  1     9.85     1.38
   8      1.14184122    -0.47210006  -130.32023954    -0.00000036    -0.00000102  0.34D-08  0.18D-07  6  2    11.13     1.39
   9      1.14184595    -0.47209970  -130.32023918     0.00000036     0.00000092  0.25D-08  0.20D-08  6  4    12.45     1.39
  10      1.14184834    -0.47210007  -130.32023955    -0.00000037    -0.00000073  0.47D-09  0.24D-09  6  3    13.74     1.40
  11      1.14184807    -0.47210013  -130.32023961    -0.00000006    -0.00000012  0.15D-09  0.34D-10  6  5    14.97     1.40
  12      1.14184713    -0.47210027  -130.32023975    -0.00000014     0.00000035  0.18D-10  0.10D-10  6  6    16.27     1.41
  13      1.14184631    -0.47210031  -130.32023979    -0.00000004     0.00000021  0.55D-11  0.23D-11  6  1    17.53     1.41
  14      1.14184565    -0.47210034  -130.32023982    -0.00000003     0.00000015  0.36D-12  0.47D-12  6  4    18.77     1.41
  15      1.14184545    -0.47210035  -130.32023983    -0.00000001     0.00000003  0.77D-13  0.37D-13  6  2    19.98     1.41
  16      1.14184540    -0.47210035  -130.32023983    -0.00000000     0.00000001  0.21D-13  0.68D-14  6  3    21.22     1.41
  17      1.14184537    -0.47210035  -130.32023983    -0.00000000     0.00000001  0.38D-14  0.94D-15  6  5    22.52     1.42
  18      1.14184537    -0.47210035  -130.32023983    -0.00000000     0.00000000  0.80D-15  0.24D-15  6  6    23.80     1.42
  19      1.14184537    -0.47210035  -130.32023983    -0.00000000     0.00000000  0.97D-16  0.48D-16  6  1    25.11     1.42
  20      1.14184537    -0.47210035  -130.32023983     0.00000000    -0.00000000  0.91D-17  0.71D-17  6  4    26.34     1.42
  21      1.14184537    -0.47210035  -130.32023983     0.00000000    -0.00000000  0.44D-18  0.62D-18  6  3    27.55     1.42
  22      1.14184537    -0.47210035  -130.32023983     0.00000000    -0.00000000  0.11D-18  0.13D-18  6  2    28.75     1.42
  23      1.14184537    -0.47210035  -130.32023983     0.00000000     0.00000000  0.32D-19  0.48D-19  6  5    29.91     1.42
  24      1.14184537    -0.47210035  -130.32023983    -0.00000000     0.00000000  0.24D-20  0.10D-19  6  1    31.13     1.41

 Norm of t1 vector:      0.07635706      S-energy:    -0.00000000      T1 diagnostic:  0.01558632
                                                                       D1 diagnostic:  0.04213446

 Doubles amplitudes (print threshold =  0.500E-01):

         I         J         SYM. A    SYM. B    A         B      T(IJ, AB)

         6         6         2         2         1         1     -0.09858646


 Total CPU time for triples:     15.10 sec


 RESULTS
 =======

  Reference energy                   -129.848139483181
  CCSD singlet pair energy             -0.326284623631
  CCSD triplet pair energy             -0.145815724623
  CCSD correlation energy              -0.472100348255

  Triples (T) contribution             -0.022292434919
  Total correlation energy             -0.494392783174

  CCSD total energy                  -130.320239831436
  CCSD[T] energy                     -130.343595454636
  CCSD-T energy                      -130.342150624075
 !CCSD(T) total energy               -130.342532266355

 Timing summary (sec):

 STEP                 CPU(USER)    SYS     CPU(TOT)    WALL
 Transformation          1.42      0.24      1.66      1.67
 CCSD iterations        29.71      4.23     33.94     33.95
 Triples                15.10      0.42     15.52     15.53

 Program statistics:

 Available memory in ccsd:               994999756
 Min. memory needed in ccsd:               1265322
 Max. memory used in ccsd:                 1555950
 Max. memory used in cckext:               2415326 (24 integral passes)



 **********************************************************************************************************************************
 DATASETS  * FILE   NREC   LENGTH (MB)   RECORD NAMES
              1      20     1044.69       500      610      700      900      950      970     1000      129      960     1100   
                                          VAR    BASINP    GEOM    SYMINP    ZMAT    AOBASIS   BASIS     P2S    ABASIS      S 
                                         1400     1410     1200     1210     1080     1600     1650     1300     1700     1380   
                                           T        V       H0       H01     AOSYM     SMH    MOLCAS    ERIS     OPER     JKOP   

              2       4        3.27       700     1000      520     2100   
                                         GEOM     BASIS   MCVARS     RHF  

 PROGRAMS   *        TOTAL   CCSD(T)        HF       INT
 CPU TIMES  *        67.93     46.25     10.96     10.63
 REAL TIME  *        78.59 SEC
 DISK USED  *         3.13 GB      
 **********************************************************************************************************************************

 CCSD(T)/aug-cc-pVQZ energy=   -130.342532266355

        CCSD(T)         HF-SCF  
   -130.34253227   -129.84813948
 **********************************************************************************************************************************
 Molpro calculation terminated
 Variable memory released
