
 Primary working directories    : /tmp/r2666/282035.maple
 Secondary working directories  : /tmp/r2666/282035.maple
 Wavefunction directory         : /ddn/home4/r2666/wfu/
 Main file repository           : /tmp/r2666/282035.maple/

 SHA1      : d5ffa45e93fdbca01ffc919aa182cfdae0147319
 NAME      : 2015.1.35
 ARCHNAME  : linux/x86_64
 FC        : /opt/intel/composer_xe_2015.1.133/bin/intel64/ifort
 BLASLIB   : -Wl,-_start-group /opt/intel/mkl/lib/intel64/libmkl_intel_ilp64.a /opt/intel/mkl/lib/intel64/libmkl_intel_thread.a /opt/intel/mkl/lib/intel64/libmkl_core.a -Wl,-_end-group
 id        : olemiss

 Nodes     nprocs
 cn075        1

 Using customized tuning parameters: mindgm=1; mindgv=20; mindgc=4; mindgr=1; noblas=0; minvec=7
 default implementation of scratch files=df  

 ***,hno CCSD(T)/TZ-F12 QFF
 memory, 995, m;
 gthresh,energy=1.d-12,zero=1.d-22,oneint=1.d-22,twoint=1.d-22;
 gthresh,optgrad=1.d-8,optstep=1.d-8;
 nocompress;
 geomtyp=xyz
 bohr
 geometry={
 3
         61        61
 H        0.0000000000        1.6666363018       -1.9376186812
 N        0.0000000000       -0.1541043842       -1.1393258942
 O        0.0000000000        0.0292358723        1.1263549844
 }
 
 basis=avqz
   {hf,maxit=500;accu,20;}
 {ccsd(t),nocheck,maxit=250;orbital,IGNORE_ERROR;}

 Variables initialized (889), CPU time= 0.00 sec
 Commands  initialized (702), CPU time= 0.01 sec, 572 directives.
 Default parameters read. Elapsed time= 0.05 sec

 Checking input...
 Passed
1


                                         ***  PROGRAM SYSTEM MOLPRO  ***
                                       Copyright, TTI GmbH Stuttgart, 2015
                                    Version 2015.1 linked Jul  9 2018 13:16:40


 **********************************************************************************************************************************
 LABEL *   hno CCSD(T)/TZ-F12 QFF                                                        
  64 bit serial version                                                                  DATE: 04-Mar-20          TIME: 13:42:26  
 **********************************************************************************************************************************

 SHA1:             d5ffa45e93fdbca01ffc919aa182cfdae0147319
 **********************************************************************************************************************************

 THRESHOLDS:

 ZERO    =  1.00D-22  ONEINT  =  1.00D-22  TWOINT  =  1.00D-22  PREFAC  =  1.00D-14  LOCALI  =  1.00D-09  EORDER  =  1.00D-04
 ENERGY  =  1.00D-12  ETEST   =  0.00D+00  EDENS   =  0.00D+00  THRDEDEF=  1.00D-06  GRADIENT=  1.00D-02  STEP    =  1.00D-03
 ORBITAL =  1.00D-05  CIVEC   =  1.00D-05  COEFF   =  1.00D-04  PRINTCI =  5.00D-02  PUNCHCI =  9.90D+01  OPTGRAD =  3.00D-04
 OPTENERG=  1.00D-06  OPTSTEP =  3.00D-04  THRGRAD =  1.00D-10  COMPRESS=  1.00D-11  VARMIN  =  1.00D-07  VARMAX  =  1.00D-03
 THRDOUB =  0.00D+00  THRDIV  =  1.00D-05  THRRED  =  1.00D-07  THRPSP  =  1.00D+00  THRDC   =  1.00D-10  THRCS   =  1.00D-10
 THRNRM  =  1.00D-08  THREQ   =  0.00D+00  THRDE   =  1.00D+00  THRREF  =  1.00D-05  SPARFAC =  1.00D+00  THRDLP  =  1.00D-07
 THRDIA  =  1.00D-10  THRDLS  =  1.00D-07  THRGPS  =  0.00D+00  THRKEX  =  0.00D+00  THRDIS  =  2.00D-01  THRVAR  =  1.00D-10
 THRLOC  =  1.00D-06  THRGAP  =  1.00D-06  THRLOCT = -1.00D+00  THRGAPT = -1.00D+00  THRORB  =  1.00D-06  THRMLTP =  0.00D+00
 THRCPQCI=  1.00D-10  KEXTA   =  0.00D+00  THRCOARS=  0.00D+00  SYMTOL  =  1.00D-06  GRADTOL =  1.00D-06  THROVL  =  1.00D-08
 THRORTH =  1.00D-08  GRID    =  1.00D-06  GRIDMAX =  1.00D-03  DTMAX   =  0.00D+00  THROCCDE=  1.00D-01  THROCCDE=  1.00D-01



 THRESHOLDS:

 ZERO    =  1.00D-22  ONEINT  =  1.00D-22  TWOINT  =  1.00D-22  PREFAC  =  1.00D-14  LOCALI  =  1.00D-09  EORDER  =  1.00D-04
 ENERGY  =  1.00D-12  ETEST   =  0.00D+00  EDENS   =  0.00D+00  THRDEDEF=  1.00D-06  GRADIENT=  1.00D-02  STEP    =  1.00D-03
 ORBITAL =  1.00D-05  CIVEC   =  1.00D-05  COEFF   =  1.00D-04  PRINTCI =  5.00D-02  PUNCHCI =  9.90D+01  OPTGRAD =  1.00D-08
 OPTENERG=  1.00D-06  OPTSTEP =  1.00D-08  THRGRAD =  1.00D-10  COMPRESS=  1.00D-11  VARMIN  =  1.00D-07  VARMAX  =  1.00D-03
 THRDOUB =  0.00D+00  THRDIV  =  1.00D-05  THRRED  =  1.00D-07  THRPSP  =  1.00D+00  THRDC   =  1.00D-10  THRCS   =  1.00D-10
 THRNRM  =  1.00D-08  THREQ   =  0.00D+00  THRDE   =  1.00D+00  THRREF  =  1.00D-05  SPARFAC =  1.00D+00  THRDLP  =  1.00D-07
 THRDIA  =  1.00D-10  THRDLS  =  1.00D-07  THRGPS  =  0.00D+00  THRKEX  =  0.00D+00  THRDIS  =  2.00D-01  THRVAR  =  1.00D-10
 THRLOC  =  1.00D-06  THRGAP  =  1.00D-06  THRLOCT = -1.00D+00  THRGAPT = -1.00D+00  THRORB  =  1.00D-06  THRMLTP =  0.00D+00
 THRCPQCI=  1.00D-10  KEXTA   =  0.00D+00  THRCOARS=  0.00D+00  SYMTOL  =  1.00D-06  GRADTOL =  1.00D-06  THROVL  =  1.00D-08
 THRORTH =  1.00D-08  GRID    =  1.00D-06  GRIDMAX =  1.00D-03  DTMAX   =  0.00D+00  THROCCDE=  1.00D-01  THROCCDE=  1.00D-01



 Input parameters for SORTINT:

 COMPRESS =    0.000000
 C_FINAL  =    1.000000
 DEBUG    =   -1.000000
 C_SORT1  =    0.000000
 C_SEWARD =    0.000000
 THRESH   =    0.000000
 IO       =  molpro                                                          
 SPRI     =    0.000000
 SETTING GEOMTYP        =    XYZ
 ZUNIT=BOHR
 

 Variable memory set to  995000000 words,  buffer space   230000 words

 SETTING BASIS          =    AVQZ


 Recomputing integrals since basis changed


 Using spherical harmonics

 Library entry H      S aug-cc-pVQZ          selected for orbital group  1
 Library entry H      P aug-cc-pVQZ          selected for orbital group  1
 Library entry H      D aug-cc-pVQZ          selected for orbital group  1
 Library entry H      F aug-cc-pVQZ          selected for orbital group  1
 Library entry N      S aug-cc-pVQZ          selected for orbital group  2
 Library entry N      P aug-cc-pVQZ          selected for orbital group  2
 Library entry N      D aug-cc-pVQZ          selected for orbital group  2
 Library entry N      F aug-cc-pVQZ          selected for orbital group  2
 Library entry N      G aug-cc-pVQZ          selected for orbital group  2
 Library entry O      S aug-cc-pVQZ          selected for orbital group  3
 Library entry O      P aug-cc-pVQZ          selected for orbital group  3
 Library entry O      D aug-cc-pVQZ          selected for orbital group  3
 Library entry O      F aug-cc-pVQZ          selected for orbital group  3
 Library entry O      G aug-cc-pVQZ          selected for orbital group  3


 PROGRAM * SEWARD (Integral evaluation for generally contracted gaussian basis sets)     Author: Roland Lindh, 1990

 Geometry written to block  1 of record 700


 Point group  Cs  



 ATOMIC COORDINATES

 NR  ATOM    CHARGE       X              Y              Z

   1  H       1.00    0.000000000    1.666636302   -1.937618681
   2  N       7.00    0.000000000   -0.154104384   -1.139325894
   3  O       8.00    0.000000000    0.029235872    1.126354984

 Bond lengths in Bohr (Angstrom)

 1-2  1.988056342  2-3  2.273086776
     ( 1.052034110)     ( 1.202865721)

 Bond angles

  1-2-3  109.04843018

 NUCLEAR CHARGE:                   16
 NUMBER OF PRIMITIVE AOS:         293
 NUMBER OF SYMMETRY AOS:          234
 NUMBER OF CONTRACTIONS:          206   ( 130A'  +  76A"  )
 NUMBER OF CORE ORBITALS:           2   (   2A'  +   0A"  )
 NUMBER OF VALENCE ORBITALS:        9   (   7A'  +   2A"  )


 NUCLEAR REPULSION ENERGY   30.45991863

 Eigenvalues of metric

         1 0.589E-04 0.143E-03 0.316E-03 0.434E-03 0.576E-03 0.676E-03 0.100E-02 0.107E-02
         2 0.809E-03 0.162E-02 0.486E-02 0.891E-02 0.101E-01 0.121E-01 0.124E-01 0.186E-01


 Contracted 2-electron integrals neglected if value below      1.0D-22

      109945066. INTEGRALS WRITTEN OUT IN   26849 BLOCKS ON RECORD 1290 OF FILE 1


 NUMBER OF SORTED TWO-ELECTRON INTEGRALS:  115283741.     BUFFER LENGTH:  32768
 NUMBER OF SEGMENTS:   8  SEGMENT LENGTH:   15998004      RECORD LENGTH: 524288

 Memory used in sort:      16.56 MW

 SORT1 READ   109945066. AND WROTE   110865233. INTEGRALS IN    322 RECORDS. CPU TIME:     1.83 SEC, REAL TIME:     2.64 SEC
 SORT2 READ   110865233. AND WROTE   115283741. INTEGRALS IN      8 RECORDS. CPU TIME:     1.30 SEC, REAL TIME:     1.85 SEC

 FILE SIZES:   FILE 1:  1780.6 MBYTE,  FILE 4:  1350.6 MBYTE,   TOTAL:   3131.2 MBYTE

 OPERATOR DM      FOR CENTER  0  COORDINATES:    0.000000    0.000000    0.000000


 **********************************************************************************************************************************
 DATASETS  * FILE   NREC   LENGTH (MB)   RECORD NAMES
              1      19      944.13       500      610      700      900      950      970     1000      129      960     1100   
                                          VAR    BASINP    GEOM    SYMINP    ZMAT    AOBASIS   BASIS     P2S    ABASIS      S 
                                         1400     1410     1200     1210     1080     1600     1650     1300     1700   
                                           T        V       H0       H01     AOSYM     SMH    MOLCAS    ERIS     OPER   

 PROGRAMS   *        TOTAL       INT
 CPU TIMES  *        10.85     10.76
 REAL TIME  *        13.58 SEC
 DISK USED  *         3.13 GB      
 **********************************************************************************************************************************


 PROGRAM * RHF-SCF (CLOSED SHELL)       Authors: W. Meyer, H.-J. Werner


 NUMBER OF ELECTRONS:       8+    8-
 CONVERGENCE THRESHOLDS:    1.00E-10 (Density)    1.00E-13 (Energy)
 MAX. NUMBER OF ITERATIONS:      500
 INTERPOLATION TYPE:            DIIS
 INTERPOLATION STEPS:              2 (START)      1 (STEP)
 LEVEL SHIFTS:                  0.00 (CLOSED)  0.00 (OPEN) 



 Orbital guess generated from atomic densities. Full valence occupancy:    9   2

 Molecular orbital dump at record        2100.2

 Initial occupancy:   7   1

 ITERATION    DDIFF          GRAD             ENERGY        2-EL.EN.            DIPOLE MOMENTS         DIIS   ORB.
    1      0.000D+00      0.000D+00      -129.79814198    154.120098    0.00000    0.59954   -1.01182    0    start
    2      0.000D+00      0.806D-02      -129.82555580    155.366809    0.00000    0.60660   -0.21366    1    diag
    3      0.646D-02      0.607D-02      -129.84754894    155.477238    0.00000    0.55745   -0.58946    2    diag
    4      0.328D-02      0.968D-03      -129.84834372    155.195495    0.00000    0.56455   -0.52876    3    diag
    5      0.603D-03      0.313D-03      -129.84846787    155.288900    0.00000    0.56995   -0.53151    4    diag
    6      0.250D-03      0.904D-04      -129.84848760    155.272815    0.00000    0.57028   -0.52743    5    diag
    7      0.953D-04      0.448D-04      -129.84849327    155.275620    0.00000    0.57153   -0.52491    6    diag
    8      0.654D-04      0.154D-04      -129.84849388    155.274949    0.00000    0.57158   -0.52392    7    diag
    9      0.246D-04      0.295D-05      -129.84849391    155.274836    0.00000    0.57154   -0.52371    8    diag
   10      0.487D-05      0.684D-06      -129.84849391    155.274818    0.00000    0.57151   -0.52368    9    orth
   11      0.990D-06      0.137D-06      -129.84849391    155.274814    0.00000    0.57150   -0.52368    9    diag
   12      0.185D-06      0.276D-07      -129.84849391    155.274814    0.00000    0.57150   -0.52367    9    diag
   13      0.393D-07      0.706D-08      -129.84849391    155.274814    0.00000    0.57150   -0.52367    9    diag
   14      0.105D-07      0.140D-08      -129.84849391    155.274814    0.00000    0.57150   -0.52367    9    diag
   15      0.197D-08      0.405D-09      -129.84849391    155.274814    0.00000    0.57150   -0.52367    9    diag
   16      0.583D-09      0.123D-09      -129.84849391    155.274814    0.00000    0.57150   -0.52367    9    diag
   17      0.113D-09      0.328D-10      -129.84849391    155.274814    0.00000    0.57150   -0.52367    9    diag
   18      0.306D-10      0.112D-10      -129.84849391    155.274814    0.00000    0.57150   -0.52367    9    diag
   19      0.148D-10      0.275D-11      -129.84849391    155.274814    0.00000    0.57150   -0.52367    9    fixocc
   20      0.567D-11      0.490D-12      -129.84849391    155.274814    0.00000    0.57150   -0.52367    9    orth
   21      0.347D-11      0.226D-12      -129.84849391    155.274814    0.00000    0.57150   -0.52367    0    orth

 Final occupancy:   7   1

 !RHF STATE 1.1 Energy               -129.848493911339
 Nuclear energy                        30.45991863
 One-electron energy                 -237.94581951
 Two-electron energy                   77.63740697
 Virial quotient                       -1.00161701
 !RHF STATE 1.1 Dipole moment           0.00000000     0.57149775    -0.52367355
 Dipole moment /Debye                   0.00000000     1.45250725    -1.33095821

 Orbital energies:

         1.1          2.1          3.1          4.1          5.1          6.1          7.1          8.1          9.1
    -20.653411   -15.711611    -1.533356    -0.993864    -0.748734    -0.667752    -0.428370     0.026357     0.079470

         1.2          2.2          3.2
     -0.598404     0.064448     0.110653

 HOMO      7.1    -0.428370 =     -11.6565eV
 LUMO      8.1     0.026357 =       0.7172eV
 LUMO-HOMO         0.454727 =      12.3738eV


 **********************************************************************************************************************************
 DATASETS  * FILE   NREC   LENGTH (MB)   RECORD NAMES
              1      19      944.13       500      610      700      900      950      970     1000      129      960     1100   
                                          VAR    BASINP    GEOM    SYMINP    ZMAT    AOBASIS   BASIS     P2S    ABASIS      S 
                                         1400     1410     1200     1210     1080     1600     1650     1300     1700   
                                           T        V       H0       H01     AOSYM     SMH    MOLCAS    ERIS     OPER   

              2       4        3.27       700     1000      520     2100   
                                         GEOM     BASIS   MCVARS     RHF  

 PROGRAMS   *        TOTAL        HF       INT
 CPU TIMES  *        21.04     10.19     10.76
 REAL TIME  *        26.43 SEC
 DISK USED  *         3.13 GB      
 **********************************************************************************************************************************


 PROGRAM * CCSD (Closed-shell coupled cluster)     Authors: C. Hampel, H.-J. Werner, 1991, M. Deegan, P.J. Knowles, 1992


 Convergence thresholds:  THRVAR = 1.00D-08  THRDEN = 1.00D-12

 CCSD(T)     terms to be evaluated (factor= 1.000)


 Number of core orbitals:           2 (   2   0 )
 Number of closed-shell orbitals:   6 (   5   1 )
 Number of external orbitals:     198 ( 123  75 )

 Molecular orbitals read from record     2100.2  Type=RHF/CANONICAL (state 1.1)

 Number of N-1 electron functions:               6
 Number of N-2 electron functions:              21
 Number of singly external CSFs:               690
 Number of doubly external CSFs:            362646
 Total number of CSFs:                      363337

 Length of J-op  integral file:               0.00 MB
 Length of K-op  integral file:               1.60 MB
 Length of 3-ext integral record:             0.00 MB

 Memory could be reduced to 34.67 Mwords without degradation in triples

 Integral transformation finished. Total CPU:   1.41 sec, npass=  1  Memory used:   9.53 MW

 Reference energy:                   -129.84849391

 MP2 singlet pair energy:              -0.30109841
 MP2 triplet pair energy:              -0.17009240
 MP2 correlation energy:               -0.47119081
 MP2 total energy:                   -130.31968472

 SCS-MP2 correlation energy:           -0.46715337   (PS=  1.200000  PT=  0.333333)
 SCS-MP2 total energy:               -130.31564728

 ITER.      SQ.NORM     CORR.ENERGY   TOTAL ENERGY   ENERGY CHANGE        DEN1      VAR(S)    VAR(P)  DIIS     TIME  TIME/IT
   1      1.12051161    -0.47142210  -130.31991602    -0.00023129     0.01598389  0.31D-02  0.31D-02  1  1     2.57     1.29
   2      1.13110186    -0.47141868  -130.31991259     0.00000342    -0.01238206  0.10D-03  0.49D-03  2  2     3.79     1.33
   3      1.13732613    -0.47179109  -130.32028500    -0.00037241    -0.00301784  0.48D-04  0.52D-04  3  3     4.98     1.33
   4      1.14003416    -0.47179726  -130.32029117    -0.00000616    -0.00092365  0.42D-05  0.95D-05  4  4     6.12     1.34
   5      1.14110768    -0.47182598  -130.32031989    -0.00002872    -0.00023419  0.11D-05  0.17D-05  5  5     7.31     1.34
   6      1.14145799    -0.47181170  -130.32030562     0.00001427    -0.00004998  0.11D-06  0.40D-06  6  6     8.51     1.34
   7      1.14153252    -0.47181208  -130.32030599    -0.00000037     0.00000218  0.17D-07  0.90D-07  6  1     9.72     1.34
   8      1.14155546    -0.47181249  -130.32030640    -0.00000041    -0.00000114  0.36D-08  0.18D-07  6  2    10.90     1.34
   9      1.14156397    -0.47181196  -130.32030587     0.00000053    -0.00000041  0.23D-08  0.17D-08  6  3    12.13     1.35
  10      1.14155928    -0.47181272  -130.32030663    -0.00000076     0.00000155  0.32D-09  0.28D-09  6  5    13.41     1.36
  11      1.14156100    -0.47181268  -130.32030659     0.00000004    -0.00000031  0.95D-10  0.25D-10  6  4    14.70     1.36
  12      1.14156059    -0.47181275  -130.32030666    -0.00000007     0.00000003  0.17D-10  0.61D-11  6  6    15.97     1.37
  13      1.14156041    -0.47181275  -130.32030666    -0.00000000    -0.00000004  0.32D-11  0.84D-12  6  1    17.24     1.38
  14      1.14156014    -0.47181276  -130.32030667    -0.00000001     0.00000004  0.44D-12  0.16D-12  6  3    18.52     1.38
  15      1.14156006    -0.47181276  -130.32030667    -0.00000000     0.00000001  0.12D-12  0.21D-13  6  2    19.82     1.38
  16      1.14156005    -0.47181276  -130.32030667     0.00000000     0.00000000  0.30D-13  0.92D-14  6  4    21.10     1.39
  17      1.14156006    -0.47181276  -130.32030667    -0.00000000    -0.00000000  0.14D-14  0.10D-14  6  5    22.39     1.39
  18      1.14156006    -0.47181276  -130.32030667     0.00000000    -0.00000000  0.23D-15  0.23D-15  6  6    23.68     1.39
  19      1.14156007    -0.47181276  -130.32030667     0.00000000    -0.00000000  0.30D-16  0.27D-16  6  5    24.95     1.39
  20      1.14156007    -0.47181276  -130.32030667     0.00000000    -0.00000000  0.59D-17  0.38D-17  6  1    26.17     1.39
  21      1.14156007    -0.47181276  -130.32030667    -0.00000000     0.00000000  0.77D-18  0.54D-18  6  3    27.43     1.39
  22      1.14156007    -0.47181276  -130.32030667    -0.00000000     0.00000000  0.10D-18  0.58D-19  6  2    28.69     1.40
  23      1.14156007    -0.47181276  -130.32030667    -0.00000000     0.00000000  0.22D-19  0.11D-19  6  4    29.92     1.40
  24      1.14156007    -0.47181276  -130.32030667    -0.00000000     0.00000000  0.80D-20  0.18D-20  6  6    31.21     1.40
  25      1.14156007    -0.47181276  -130.32030667     0.00000000    -0.00000000  0.23D-20  0.59D-21  6  5    32.42     1.40

 Norm of t1 vector:      0.07617970      S-energy:    -0.00000000      T1 diagnostic:  0.01555012
                                                                       D1 diagnostic:  0.04157714

 Doubles amplitudes (print threshold =  0.500E-01):

         I         J         SYM. A    SYM. B    A         B      T(IJ, AB)

         6         6         2         2         1         1     -0.09582137


 Total CPU time for triples:     15.24 sec


 RESULTS
 =======

  Reference energy                   -129.848493911339
  CCSD singlet pair energy             -0.326030553938
  CCSD triplet pair energy             -0.145782208030
  CCSD correlation energy              -0.471812761969

  Triples (T) contribution             -0.022211724681
  Total correlation energy             -0.494024486650

  CCSD total energy                  -130.320306673307
  CCSD[T] energy                     -130.343574451561
  CCSD-T energy                      -130.342137250061
 !CCSD(T) total energy               -130.342518397989

 Timing summary (sec):

 STEP                 CPU(USER)    SYS     CPU(TOT)    WALL
 Transformation          1.43      0.29      1.72      1.90
 CCSD iterations        30.99      3.97     34.96     34.97
 Triples                15.24      0.40     15.64     15.65

 Program statistics:

 Available memory in ccsd:               994999756
 Min. memory needed in ccsd:               1265322
 Max. memory used in ccsd:                 1555950
 Max. memory used in cckext:               2415326 (25 integral passes)



 **********************************************************************************************************************************
 DATASETS  * FILE   NREC   LENGTH (MB)   RECORD NAMES
              1      20     1044.69       500      610      700      900      950      970     1000      129      960     1100   
                                          VAR    BASINP    GEOM    SYMINP    ZMAT    AOBASIS   BASIS     P2S    ABASIS      S 
                                         1400     1410     1200     1210     1080     1600     1650     1300     1700     1380   
                                           T        V       H0       H01     AOSYM     SMH    MOLCAS    ERIS     OPER     JKOP   

              2       4        3.27       700     1000      520     2100   
                                         GEOM     BASIS   MCVARS     RHF  

 PROGRAMS   *        TOTAL   CCSD(T)        HF       INT
 CPU TIMES  *        68.74     47.68     10.19     10.76
 REAL TIME  *        78.99 SEC
 DISK USED  *         3.13 GB      
 **********************************************************************************************************************************

 CCSD(T)/aug-cc-pVQZ energy=   -130.342518397989

        CCSD(T)         HF-SCF  
   -130.34251840   -129.84849391
 **********************************************************************************************************************************
 Molpro calculation terminated
 Variable memory released
