
 Primary working directories    : /tmp/r2666/282080.maple
 Secondary working directories  : /tmp/r2666/282080.maple
 Wavefunction directory         : /ddn/home4/r2666/wfu/
 Main file repository           : /tmp/r2666/282080.maple/

 SHA1      : d5ffa45e93fdbca01ffc919aa182cfdae0147319
 NAME      : 2015.1.35
 ARCHNAME  : linux/x86_64
 FC        : /opt/intel/composer_xe_2015.1.133/bin/intel64/ifort
 BLASLIB   : -Wl,-_start-group /opt/intel/mkl/lib/intel64/libmkl_intel_ilp64.a /opt/intel/mkl/lib/intel64/libmkl_intel_thread.a /opt/intel/mkl/lib/intel64/libmkl_core.a -Wl,-_end-group
 id        : olemiss

 Nodes     nprocs
 cn089        1

 Using customized tuning parameters: mindgm=1; mindgv=20; mindgc=4; mindgr=1; noblas=0; minvec=7
 default implementation of scratch files=df  

 ***,hno CCSD(T)/TZ-F12 QFF
 memory, 995, m;
 gthresh,energy=1.d-12,zero=1.d-22,oneint=1.d-22,twoint=1.d-22;
 gthresh,optgrad=1.d-8,optstep=1.d-8;
 nocompress;
 geomtyp=xyz
 bohr
 geometry={
 3
        106       106
 H        0.0000000000        1.6726198301       -1.9420607780
 N        0.0000000000       -0.1595708507       -1.1463828140
 O        0.0000000000        0.0287188106        1.1378540009
 }
 
 basis=avqz
   {hf,maxit=500;accu,20;}
 {ccsd(t),nocheck,maxit=250;orbital,IGNORE_ERROR;}

 Variables initialized (889), CPU time= 0.01 sec
 Commands  initialized (702), CPU time= 0.01 sec, 572 directives.
 Default parameters read. Elapsed time= 0.05 sec

 Checking input...
 Passed
1


                                         ***  PROGRAM SYSTEM MOLPRO  ***
                                       Copyright, TTI GmbH Stuttgart, 2015
                                    Version 2015.1 linked Jul  9 2018 13:16:40


 **********************************************************************************************************************************
 LABEL *   hno CCSD(T)/TZ-F12 QFF                                                        
  64 bit serial version                                                                  DATE: 04-Mar-20          TIME: 13:44:32  
 **********************************************************************************************************************************

 SHA1:             d5ffa45e93fdbca01ffc919aa182cfdae0147319
 **********************************************************************************************************************************

 THRESHOLDS:

 ZERO    =  1.00D-22  ONEINT  =  1.00D-22  TWOINT  =  1.00D-22  PREFAC  =  1.00D-14  LOCALI  =  1.00D-09  EORDER  =  1.00D-04
 ENERGY  =  1.00D-12  ETEST   =  0.00D+00  EDENS   =  0.00D+00  THRDEDEF=  1.00D-06  GRADIENT=  1.00D-02  STEP    =  1.00D-03
 ORBITAL =  1.00D-05  CIVEC   =  1.00D-05  COEFF   =  1.00D-04  PRINTCI =  5.00D-02  PUNCHCI =  9.90D+01  OPTGRAD =  3.00D-04
 OPTENERG=  1.00D-06  OPTSTEP =  3.00D-04  THRGRAD =  1.00D-10  COMPRESS=  1.00D-11  VARMIN  =  1.00D-07  VARMAX  =  1.00D-03
 THRDOUB =  0.00D+00  THRDIV  =  1.00D-05  THRRED  =  1.00D-07  THRPSP  =  1.00D+00  THRDC   =  1.00D-10  THRCS   =  1.00D-10
 THRNRM  =  1.00D-08  THREQ   =  0.00D+00  THRDE   =  1.00D+00  THRREF  =  1.00D-05  SPARFAC =  1.00D+00  THRDLP  =  1.00D-07
 THRDIA  =  1.00D-10  THRDLS  =  1.00D-07  THRGPS  =  0.00D+00  THRKEX  =  0.00D+00  THRDIS  =  2.00D-01  THRVAR  =  1.00D-10
 THRLOC  =  1.00D-06  THRGAP  =  1.00D-06  THRLOCT = -1.00D+00  THRGAPT = -1.00D+00  THRORB  =  1.00D-06  THRMLTP =  0.00D+00
 THRCPQCI=  1.00D-10  KEXTA   =  0.00D+00  THRCOARS=  0.00D+00  SYMTOL  =  1.00D-06  GRADTOL =  1.00D-06  THROVL  =  1.00D-08
 THRORTH =  1.00D-08  GRID    =  1.00D-06  GRIDMAX =  1.00D-03  DTMAX   =  0.00D+00  THROCCDE=  1.00D-01  THROCCDE=  1.00D-01



 THRESHOLDS:

 ZERO    =  1.00D-22  ONEINT  =  1.00D-22  TWOINT  =  1.00D-22  PREFAC  =  1.00D-14  LOCALI  =  1.00D-09  EORDER  =  1.00D-04
 ENERGY  =  1.00D-12  ETEST   =  0.00D+00  EDENS   =  0.00D+00  THRDEDEF=  1.00D-06  GRADIENT=  1.00D-02  STEP    =  1.00D-03
 ORBITAL =  1.00D-05  CIVEC   =  1.00D-05  COEFF   =  1.00D-04  PRINTCI =  5.00D-02  PUNCHCI =  9.90D+01  OPTGRAD =  1.00D-08
 OPTENERG=  1.00D-06  OPTSTEP =  1.00D-08  THRGRAD =  1.00D-10  COMPRESS=  1.00D-11  VARMIN  =  1.00D-07  VARMAX  =  1.00D-03
 THRDOUB =  0.00D+00  THRDIV  =  1.00D-05  THRRED  =  1.00D-07  THRPSP  =  1.00D+00  THRDC   =  1.00D-10  THRCS   =  1.00D-10
 THRNRM  =  1.00D-08  THREQ   =  0.00D+00  THRDE   =  1.00D+00  THRREF  =  1.00D-05  SPARFAC =  1.00D+00  THRDLP  =  1.00D-07
 THRDIA  =  1.00D-10  THRDLS  =  1.00D-07  THRGPS  =  0.00D+00  THRKEX  =  0.00D+00  THRDIS  =  2.00D-01  THRVAR  =  1.00D-10
 THRLOC  =  1.00D-06  THRGAP  =  1.00D-06  THRLOCT = -1.00D+00  THRGAPT = -1.00D+00  THRORB  =  1.00D-06  THRMLTP =  0.00D+00
 THRCPQCI=  1.00D-10  KEXTA   =  0.00D+00  THRCOARS=  0.00D+00  SYMTOL  =  1.00D-06  GRADTOL =  1.00D-06  THROVL  =  1.00D-08
 THRORTH =  1.00D-08  GRID    =  1.00D-06  GRIDMAX =  1.00D-03  DTMAX   =  0.00D+00  THROCCDE=  1.00D-01  THROCCDE=  1.00D-01



 Input parameters for SORTINT:

 COMPRESS =    0.000000
 C_FINAL  =    1.000000
 DEBUG    =   -1.000000
 C_SORT1  =    0.000000
 C_SEWARD =    0.000000
 THRESH   =    0.000000
 IO       =  molpro                                                          
 SPRI     =    0.000000
 SETTING GEOMTYP        =    XYZ
 ZUNIT=BOHR
 

 Variable memory set to  995000000 words,  buffer space   230000 words

 SETTING BASIS          =    AVQZ


 Recomputing integrals since basis changed


 Using spherical harmonics

 Library entry H      S aug-cc-pVQZ          selected for orbital group  1
 Library entry H      P aug-cc-pVQZ          selected for orbital group  1
 Library entry H      D aug-cc-pVQZ          selected for orbital group  1
 Library entry H      F aug-cc-pVQZ          selected for orbital group  1
 Library entry N      S aug-cc-pVQZ          selected for orbital group  2
 Library entry N      P aug-cc-pVQZ          selected for orbital group  2
 Library entry N      D aug-cc-pVQZ          selected for orbital group  2
 Library entry N      F aug-cc-pVQZ          selected for orbital group  2
 Library entry N      G aug-cc-pVQZ          selected for orbital group  2
 Library entry O      S aug-cc-pVQZ          selected for orbital group  3
 Library entry O      P aug-cc-pVQZ          selected for orbital group  3
 Library entry O      D aug-cc-pVQZ          selected for orbital group  3
 Library entry O      F aug-cc-pVQZ          selected for orbital group  3
 Library entry O      G aug-cc-pVQZ          selected for orbital group  3


 PROGRAM * SEWARD (Integral evaluation for generally contracted gaussian basis sets)     Author: Roland Lindh, 1990

 Geometry written to block  1 of record 700


 Point group  Cs  



 ATOMIC COORDINATES

 NR  ATOM    CHARGE       X              Y              Z

   1  H       1.00    0.000000000    1.672619830   -1.942060778
   2  N       7.00    0.000000000   -0.159570851   -1.146382814
   3  O       8.00    0.000000000    0.028718811    1.137854001

 Bond lengths in Bohr (Angstrom)

 1-2  1.997504972  2-3  2.291984036
     ( 1.057034110)     ( 1.212865720)

 Bond angles

  1-2-3  108.76195129

 NUCLEAR CHARGE:                   16
 NUMBER OF PRIMITIVE AOS:         293
 NUMBER OF SYMMETRY AOS:          234
 NUMBER OF CONTRACTIONS:          206   ( 130A'  +  76A"  )
 NUMBER OF CORE ORBITALS:           2   (   2A'  +   0A"  )
 NUMBER OF VALENCE ORBITALS:        9   (   7A'  +   2A"  )


 NUCLEAR REPULSION ENERGY   30.22884544

 Eigenvalues of metric

         1 0.603E-04 0.146E-03 0.320E-03 0.436E-03 0.594E-03 0.689E-03 0.102E-02 0.109E-02
         2 0.837E-03 0.165E-02 0.500E-02 0.897E-02 0.102E-01 0.124E-01 0.127E-01 0.192E-01


 Contracted 2-electron integrals neglected if value below      1.0D-22

      109945078. INTEGRALS WRITTEN OUT IN   26849 BLOCKS ON RECORD 1290 OF FILE 1


 NUMBER OF SORTED TWO-ELECTRON INTEGRALS:  115283741.     BUFFER LENGTH:  32768
 NUMBER OF SEGMENTS:   8  SEGMENT LENGTH:   15998004      RECORD LENGTH: 524288

 Memory used in sort:      16.56 MW

 SORT1 READ   109945078. AND WROTE   110865245. INTEGRALS IN    322 RECORDS. CPU TIME:     1.70 SEC, REAL TIME:     2.51 SEC
 SORT2 READ   110865245. AND WROTE   115283741. INTEGRALS IN      8 RECORDS. CPU TIME:     1.22 SEC, REAL TIME:     1.73 SEC

 FILE SIZES:   FILE 1:  1780.6 MBYTE,  FILE 4:  1350.6 MBYTE,   TOTAL:   3131.2 MBYTE

 OPERATOR DM      FOR CENTER  0  COORDINATES:    0.000000    0.000000    0.000000


 **********************************************************************************************************************************
 DATASETS  * FILE   NREC   LENGTH (MB)   RECORD NAMES
              1      19      944.14       500      610      700      900      950      970     1000      129      960     1100   
                                          VAR    BASINP    GEOM    SYMINP    ZMAT    AOBASIS   BASIS     P2S    ABASIS      S 
                                         1400     1410     1200     1210     1080     1600     1650     1300     1700   
                                           T        V       H0       H01     AOSYM     SMH    MOLCAS    ERIS     OPER   

 PROGRAMS   *        TOTAL       INT
 CPU TIMES  *        10.38     10.29
 REAL TIME  *        12.97 SEC
 DISK USED  *         3.13 GB      
 **********************************************************************************************************************************


 PROGRAM * RHF-SCF (CLOSED SHELL)       Authors: W. Meyer, H.-J. Werner


 NUMBER OF ELECTRONS:       8+    8-
 CONVERGENCE THRESHOLDS:    1.00E-10 (Density)    1.00E-13 (Energy)
 MAX. NUMBER OF ITERATIONS:      500
 INTERPOLATION TYPE:            DIIS
 INTERPOLATION STEPS:              2 (START)      1 (STEP)
 LEVEL SHIFTS:                  0.00 (CLOSED)  0.00 (OPEN) 



 Orbital guess generated from atomic densities. Full valence occupancy:    9   2

 Molecular orbital dump at record        2100.2

 Initial occupancy:   7   1

 ITERATION    DDIFF          GRAD             ENERGY        2-EL.EN.            DIPOLE MOMENTS         DIIS   ORB.
    1      0.000D+00      0.000D+00      -129.79482348    153.703736    0.00000    0.59849   -1.04430    0    start
    2      0.000D+00      0.817D-02      -129.82191890    154.935090    0.00000    0.61260   -0.20574    1    diag
    3      0.662D-02      0.631D-02      -129.84583776    155.067206    0.00000    0.55936   -0.60293    2    diag
    4      0.339D-02      0.979D-03      -129.84665561    154.776956    0.00000    0.56631   -0.54059    3    diag
    5      0.611D-03      0.319D-03      -129.84678491    154.871638    0.00000    0.57176   -0.54316    4    diag
    6      0.256D-03      0.923D-04      -129.84680560    154.855335    0.00000    0.57203   -0.53888    5    diag
    7      0.977D-04      0.462D-04      -129.84681167    154.858074    0.00000    0.57327   -0.53620    6    diag
    8      0.675D-04      0.164D-04      -129.84681239    154.857360    0.00000    0.57331   -0.53514    7    diag
    9      0.267D-04      0.318D-05      -129.84681242    154.857237    0.00000    0.57328   -0.53490    8    diag
   10      0.541D-05      0.721D-06      -129.84681243    154.857217    0.00000    0.57324   -0.53487    9    orth
   11      0.105D-05      0.143D-06      -129.84681243    154.857214    0.00000    0.57323   -0.53487    9    diag
   12      0.189D-06      0.292D-07      -129.84681243    154.857214    0.00000    0.57323   -0.53487    9    diag
   13      0.405D-07      0.765D-08      -129.84681243    154.857214    0.00000    0.57323   -0.53487    9    diag
   14      0.112D-07      0.151D-08      -129.84681243    154.857213    0.00000    0.57323   -0.53487    9    diag
   15      0.205D-08      0.428D-09      -129.84681243    154.857213    0.00000    0.57323   -0.53487    9    diag
   16      0.612D-09      0.126D-09      -129.84681243    154.857213    0.00000    0.57323   -0.53487    9    diag
   17      0.112D-09      0.324D-10      -129.84681243    154.857213    0.00000    0.57323   -0.53487    9    diag
   18      0.293D-10      0.108D-10      -129.84681243    154.857213    0.00000    0.57323   -0.53487    9    diag
   19      0.146D-10      0.254D-11      -129.84681243    154.857213    0.00000    0.57323   -0.53487    9    fixocc
   20      0.486D-11      0.434D-12      -129.84681243    154.857213    0.00000    0.57323   -0.53487    9    orth
   21      0.349D-11      0.320D-12      -129.84681243    154.857213    0.00000    0.57323   -0.53487    9    diag
   22      0.322D-11      0.129D-12      -129.84681243    154.857213    0.00000    0.57323   -0.53487    9    diag
   23      0.193D-11      0.116D-12      -129.84681243    154.857213    0.00000    0.57323   -0.53487    9    diag
   24      0.108D-11      0.124D-12      -129.84681243    154.857213    0.00000    0.57323   -0.53487    0    orth

 Final occupancy:   7   1

 !RHF STATE 1.1 Energy               -129.846812425394
 Nuclear energy                        30.22884544
 One-electron energy                 -237.50426460
 Two-electron energy                   77.42860673
 Virial quotient                       -1.00196683
 !RHF STATE 1.1 Dipole moment           0.00000000     0.57323075    -0.53487051
 Dipole moment /Debye                   0.00000000     1.45691182    -1.35941619

 Orbital energies:

         1.1          2.1          3.1          4.1          5.1          6.1          7.1          8.1          9.1
    -20.654387   -15.714057    -1.525255    -0.994763    -0.745149    -0.664810    -0.431348     0.026245     0.079448

         1.2          2.2          3.2
     -0.593757     0.061971     0.110308

 HOMO      7.1    -0.431348 =     -11.7376eV
 LUMO      8.1     0.026245 =       0.7142eV
 LUMO-HOMO         0.457593 =      12.4517eV


 **********************************************************************************************************************************
 DATASETS  * FILE   NREC   LENGTH (MB)   RECORD NAMES
              1      19      944.14       500      610      700      900      950      970     1000      129      960     1100   
                                          VAR    BASINP    GEOM    SYMINP    ZMAT    AOBASIS   BASIS     P2S    ABASIS      S 
                                         1400     1410     1200     1210     1080     1600     1650     1300     1700   
                                           T        V       H0       H01     AOSYM     SMH    MOLCAS    ERIS     OPER   

              2       4        3.27       700     1000      520     2100   
                                         GEOM     BASIS   MCVARS     RHF  

 PROGRAMS   *        TOTAL        HF       INT
 CPU TIMES  *        21.69     11.31     10.29
 REAL TIME  *        26.88 SEC
 DISK USED  *         3.13 GB      
 **********************************************************************************************************************************


 PROGRAM * CCSD (Closed-shell coupled cluster)     Authors: C. Hampel, H.-J. Werner, 1991, M. Deegan, P.J. Knowles, 1992


 Convergence thresholds:  THRVAR = 1.00D-08  THRDEN = 1.00D-12

 CCSD(T)     terms to be evaluated (factor= 1.000)


 Number of core orbitals:           2 (   2   0 )
 Number of closed-shell orbitals:   6 (   5   1 )
 Number of external orbitals:     198 ( 123  75 )

 Molecular orbitals read from record     2100.2  Type=RHF/CANONICAL (state 1.1)

 Number of N-1 electron functions:               6
 Number of N-2 electron functions:              21
 Number of singly external CSFs:               690
 Number of doubly external CSFs:            362646
 Total number of CSFs:                      363337

 Length of J-op  integral file:               0.00 MB
 Length of K-op  integral file:               1.60 MB
 Length of 3-ext integral record:             0.00 MB

 Memory could be reduced to 34.67 Mwords without degradation in triples

 Integral transformation finished. Total CPU:   1.33 sec, npass=  1  Memory used:   9.53 MW

 Reference energy:                   -129.84681243

 MP2 singlet pair energy:              -0.30223341
 MP2 triplet pair energy:              -0.17084304
 MP2 correlation energy:               -0.47307645
 MP2 total energy:                   -130.31988887

 SCS-MP2 correlation energy:           -0.46898242   (PS=  1.200000  PT=  0.333333)
 SCS-MP2 total energy:               -130.31579485

 ITER.      SQ.NORM     CORR.ENERGY   TOTAL ENERGY   ENERGY CHANGE        DEN1      VAR(S)    VAR(P)  DIIS     TIME  TIME/IT
   1      1.12174677    -0.47289770  -130.31971012     0.00017875     0.01686678  0.32D-02  0.33D-02  1  1     2.46     1.26
   2      1.13261431    -0.47280739  -130.31961982     0.00009030    -0.01266327  0.11D-03  0.50D-03  2  2     3.62     1.28
   3      1.13906250    -0.47319785  -130.32001027    -0.00039046    -0.00309006  0.51D-04  0.55D-04  3  3     4.75     1.30
   4      1.14189364    -0.47320383  -130.32001625    -0.00000598    -0.00095753  0.46D-05  0.10D-04  4  4     5.90     1.30
   5      1.14303852    -0.47323473  -130.32004716    -0.00003091    -0.00024906  0.12D-05  0.17D-05  5  5     7.07     1.30
   6      1.14340671    -0.47321923  -130.32003166     0.00001550    -0.00005284  0.12D-06  0.40D-06  6  6     8.25     1.30
   7      1.14348197    -0.47321963  -130.32003205    -0.00000040     0.00000260  0.18D-07  0.92D-07  6  1     9.42     1.30
   8      1.14350548    -0.47321992  -130.32003235    -0.00000029    -0.00000127  0.35D-08  0.19D-07  6  2    10.56     1.31
   9      1.14351084    -0.47321949  -130.32003192     0.00000043     0.00000103  0.26D-08  0.22D-08  6  4    11.70     1.31
  10      1.14351342    -0.47321988  -130.32003231    -0.00000039    -0.00000079  0.50D-09  0.26D-09  6  3    12.84     1.31
  11      1.14351316    -0.47321994  -130.32003237    -0.00000006    -0.00000012  0.16D-09  0.38D-10  6  5    13.98     1.31
  12      1.14351215    -0.47322009  -130.32003252    -0.00000015     0.00000037  0.20D-10  0.12D-10  6  6    15.18     1.31
  13      1.14351127    -0.47322013  -130.32003256    -0.00000004     0.00000022  0.63D-11  0.25D-11  6  1    16.33     1.31
  14      1.14351056    -0.47322017  -130.32003259    -0.00000003     0.00000016  0.41D-12  0.51D-12  6  4    17.53     1.31
  15      1.14351034    -0.47322018  -130.32003260    -0.00000001     0.00000004  0.92D-13  0.40D-13  6  2    18.71     1.31
  16      1.14351028    -0.47322018  -130.32003260    -0.00000000     0.00000001  0.25D-13  0.76D-14  6  3    19.86     1.31
  17      1.14351026    -0.47322018  -130.32003261    -0.00000000     0.00000001  0.45D-14  0.11D-14  6  5    21.03     1.31
  18      1.14351025    -0.47322018  -130.32003261    -0.00000000     0.00000000  0.91D-15  0.29D-15  6  6    22.19     1.31
  19      1.14351025    -0.47322018  -130.32003261    -0.00000000     0.00000000  0.11D-15  0.58D-16  6  1    23.33     1.31
  20      1.14351025    -0.47322018  -130.32003260     0.00000000    -0.00000000  0.11D-16  0.84D-17  6  4    24.45     1.31
  21      1.14351026    -0.47322018  -130.32003260     0.00000000    -0.00000000  0.56D-18  0.71D-18  6  3    25.61     1.31
  22      1.14351026    -0.47322018  -130.32003260     0.00000000    -0.00000000  0.14D-18  0.16D-18  6  2    26.76     1.31
  23      1.14351026    -0.47322018  -130.32003260     0.00000000     0.00000000  0.42D-19  0.60D-19  6  5    27.94     1.31
  24      1.14351026    -0.47322018  -130.32003260    -0.00000000     0.00000000  0.34D-20  0.13D-19  6  1    29.10     1.31

 Norm of t1 vector:      0.07796966      S-energy:    -0.00000000      T1 diagnostic:  0.01591549
                                                                       D1 diagnostic:  0.04288490

 Doubles amplitudes (print threshold =  0.500E-01):

         I         J         SYM. A    SYM. B    A         B      T(IJ, AB)

         6         6         2         2         1         1     -0.10124761


 Total CPU time for triples:     14.03 sec


 RESULTS
 =======

  Reference energy                   -129.846812425395
  CCSD singlet pair energy             -0.327247921020
  CCSD triplet pair energy             -0.145972258421
  CCSD correlation energy              -0.473220179443

  Triples (T) contribution             -0.022559646491
  Total correlation energy             -0.495779825934

  CCSD total energy                  -130.320032604838
  CCSD[T] energy                     -130.343696071666
  CCSD-T energy                      -130.342199015261
 !CCSD(T) total energy               -130.342592251329

 Timing summary (sec):

 STEP                 CPU(USER)    SYS     CPU(TOT)    WALL
 Transformation          1.34      0.27      1.61      1.62
 CCSD iterations        27.77      3.67     31.44     31.44
 Triples                14.03      0.40     14.43     14.44

 Program statistics:

 Available memory in ccsd:               994999756
 Min. memory needed in ccsd:               1265322
 Max. memory used in ccsd:                 1555950
 Max. memory used in cckext:               2415326 (24 integral passes)



 **********************************************************************************************************************************
 DATASETS  * FILE   NREC   LENGTH (MB)   RECORD NAMES
              1      20     1044.69       500      610      700      900      950      970     1000      129      960     1100   
                                          VAR    BASINP    GEOM    SYMINP    ZMAT    AOBASIS   BASIS     P2S    ABASIS      S 
                                         1400     1410     1200     1210     1080     1600     1650     1300     1700     1380   
                                           T        V       H0       H01     AOSYM     SMH    MOLCAS    ERIS     OPER     JKOP   

              2       4        3.27       700     1000      520     2100   
                                         GEOM     BASIS   MCVARS     RHF  

 PROGRAMS   *        TOTAL   CCSD(T)        HF       INT
 CPU TIMES  *        64.85     43.16     11.31     10.29
 REAL TIME  *        74.40 SEC
 DISK USED  *         3.13 GB      
 **********************************************************************************************************************************

 CCSD(T)/aug-cc-pVQZ energy=   -130.342592251329

        CCSD(T)         HF-SCF  
   -130.34259225   -129.84681243
 **********************************************************************************************************************************
 Molpro calculation terminated
 Variable memory released
