
 Primary working directories    : /tmp/r2666/282063.maple
 Secondary working directories  : /tmp/r2666/282063.maple
 Wavefunction directory         : /ddn/home4/r2666/wfu/
 Main file repository           : /tmp/r2666/282063.maple/

 SHA1      : d5ffa45e93fdbca01ffc919aa182cfdae0147319
 NAME      : 2015.1.35
 ARCHNAME  : linux/x86_64
 FC        : /opt/intel/composer_xe_2015.1.133/bin/intel64/ifort
 BLASLIB   : -Wl,-_start-group /opt/intel/mkl/lib/intel64/libmkl_intel_ilp64.a /opt/intel/mkl/lib/intel64/libmkl_intel_thread.a /opt/intel/mkl/lib/intel64/libmkl_core.a -Wl,-_end-group
 id        : olemiss

 Nodes     nprocs
 cn063        1

 Using customized tuning parameters: mindgm=1; mindgv=20; mindgc=4; mindgr=1; noblas=0; minvec=7
 default implementation of scratch files=df  

 ***,hno CCSD(T)/TZ-F12 QFF
 memory, 995, m;
 gthresh,energy=1.d-12,zero=1.d-22,oneint=1.d-22,twoint=1.d-22;
 gthresh,optgrad=1.d-8,optstep=1.d-8;
 nocompress;
 geomtyp=xyz
 bohr
 geometry={
 3
         89        89
 H        0.0000000000        1.6699902840       -1.9320060870
 N        0.0000000000       -0.1624196859       -1.1368332659
 O        0.0000000000        0.0341971920        1.1182497618
 }
 
 basis=avqz
   {hf,maxit=500;accu,20;}
 {ccsd(t),nocheck,maxit=250;orbital,IGNORE_ERROR;}

 Variables initialized (889), CPU time= 0.00 sec
 Commands  initialized (702), CPU time= 0.01 sec, 572 directives.
 Default parameters read. Elapsed time= 0.05 sec

 Checking input...
 Passed
1


                                         ***  PROGRAM SYSTEM MOLPRO  ***
                                       Copyright, TTI GmbH Stuttgart, 2015
                                    Version 2015.1 linked Jul  9 2018 13:16:40


 **********************************************************************************************************************************
 LABEL *   hno CCSD(T)/TZ-F12 QFF                                                        
  64 bit serial version                                                                  DATE: 04-Mar-20          TIME: 13:43:53  
 **********************************************************************************************************************************

 SHA1:             d5ffa45e93fdbca01ffc919aa182cfdae0147319
 **********************************************************************************************************************************

 THRESHOLDS:

 ZERO    =  1.00D-22  ONEINT  =  1.00D-22  TWOINT  =  1.00D-22  PREFAC  =  1.00D-14  LOCALI  =  1.00D-09  EORDER  =  1.00D-04
 ENERGY  =  1.00D-12  ETEST   =  0.00D+00  EDENS   =  0.00D+00  THRDEDEF=  1.00D-06  GRADIENT=  1.00D-02  STEP    =  1.00D-03
 ORBITAL =  1.00D-05  CIVEC   =  1.00D-05  COEFF   =  1.00D-04  PRINTCI =  5.00D-02  PUNCHCI =  9.90D+01  OPTGRAD =  3.00D-04
 OPTENERG=  1.00D-06  OPTSTEP =  3.00D-04  THRGRAD =  1.00D-10  COMPRESS=  1.00D-11  VARMIN  =  1.00D-07  VARMAX  =  1.00D-03
 THRDOUB =  0.00D+00  THRDIV  =  1.00D-05  THRRED  =  1.00D-07  THRPSP  =  1.00D+00  THRDC   =  1.00D-10  THRCS   =  1.00D-10
 THRNRM  =  1.00D-08  THREQ   =  0.00D+00  THRDE   =  1.00D+00  THRREF  =  1.00D-05  SPARFAC =  1.00D+00  THRDLP  =  1.00D-07
 THRDIA  =  1.00D-10  THRDLS  =  1.00D-07  THRGPS  =  0.00D+00  THRKEX  =  0.00D+00  THRDIS  =  2.00D-01  THRVAR  =  1.00D-10
 THRLOC  =  1.00D-06  THRGAP  =  1.00D-06  THRLOCT = -1.00D+00  THRGAPT = -1.00D+00  THRORB  =  1.00D-06  THRMLTP =  0.00D+00
 THRCPQCI=  1.00D-10  KEXTA   =  0.00D+00  THRCOARS=  0.00D+00  SYMTOL  =  1.00D-06  GRADTOL =  1.00D-06  THROVL  =  1.00D-08
 THRORTH =  1.00D-08  GRID    =  1.00D-06  GRIDMAX =  1.00D-03  DTMAX   =  0.00D+00  THROCCDE=  1.00D-01  THROCCDE=  1.00D-01



 THRESHOLDS:

 ZERO    =  1.00D-22  ONEINT  =  1.00D-22  TWOINT  =  1.00D-22  PREFAC  =  1.00D-14  LOCALI  =  1.00D-09  EORDER  =  1.00D-04
 ENERGY  =  1.00D-12  ETEST   =  0.00D+00  EDENS   =  0.00D+00  THRDEDEF=  1.00D-06  GRADIENT=  1.00D-02  STEP    =  1.00D-03
 ORBITAL =  1.00D-05  CIVEC   =  1.00D-05  COEFF   =  1.00D-04  PRINTCI =  5.00D-02  PUNCHCI =  9.90D+01  OPTGRAD =  1.00D-08
 OPTENERG=  1.00D-06  OPTSTEP =  1.00D-08  THRGRAD =  1.00D-10  COMPRESS=  1.00D-11  VARMIN  =  1.00D-07  VARMAX  =  1.00D-03
 THRDOUB =  0.00D+00  THRDIV  =  1.00D-05  THRRED  =  1.00D-07  THRPSP  =  1.00D+00  THRDC   =  1.00D-10  THRCS   =  1.00D-10
 THRNRM  =  1.00D-08  THREQ   =  0.00D+00  THRDE   =  1.00D+00  THRREF  =  1.00D-05  SPARFAC =  1.00D+00  THRDLP  =  1.00D-07
 THRDIA  =  1.00D-10  THRDLS  =  1.00D-07  THRGPS  =  0.00D+00  THRKEX  =  0.00D+00  THRDIS  =  2.00D-01  THRVAR  =  1.00D-10
 THRLOC  =  1.00D-06  THRGAP  =  1.00D-06  THRLOCT = -1.00D+00  THRGAPT = -1.00D+00  THRORB  =  1.00D-06  THRMLTP =  0.00D+00
 THRCPQCI=  1.00D-10  KEXTA   =  0.00D+00  THRCOARS=  0.00D+00  SYMTOL  =  1.00D-06  GRADTOL =  1.00D-06  THROVL  =  1.00D-08
 THRORTH =  1.00D-08  GRID    =  1.00D-06  GRIDMAX =  1.00D-03  DTMAX   =  0.00D+00  THROCCDE=  1.00D-01  THROCCDE=  1.00D-01



 Input parameters for SORTINT:

 COMPRESS =    0.000000
 C_FINAL  =    1.000000
 DEBUG    =   -1.000000
 C_SORT1  =    0.000000
 C_SEWARD =    0.000000
 THRESH   =    0.000000
 IO       =  molpro                                                          
 SPRI     =    0.000000
 SETTING GEOMTYP        =    XYZ
 ZUNIT=BOHR
 

 Variable memory set to  995000000 words,  buffer space   230000 words

 SETTING BASIS          =    AVQZ


 Recomputing integrals since basis changed


 Using spherical harmonics

 Library entry H      S aug-cc-pVQZ          selected for orbital group  1
 Library entry H      P aug-cc-pVQZ          selected for orbital group  1
 Library entry H      D aug-cc-pVQZ          selected for orbital group  1
 Library entry H      F aug-cc-pVQZ          selected for orbital group  1
 Library entry N      S aug-cc-pVQZ          selected for orbital group  2
 Library entry N      P aug-cc-pVQZ          selected for orbital group  2
 Library entry N      D aug-cc-pVQZ          selected for orbital group  2
 Library entry N      F aug-cc-pVQZ          selected for orbital group  2
 Library entry N      G aug-cc-pVQZ          selected for orbital group  2
 Library entry O      S aug-cc-pVQZ          selected for orbital group  3
 Library entry O      P aug-cc-pVQZ          selected for orbital group  3
 Library entry O      D aug-cc-pVQZ          selected for orbital group  3
 Library entry O      F aug-cc-pVQZ          selected for orbital group  3
 Library entry O      G aug-cc-pVQZ          selected for orbital group  3


 PROGRAM * SEWARD (Integral evaluation for generally contracted gaussian basis sets)     Author: Roland Lindh, 1990

 Geometry written to block  1 of record 700


 Point group  Cs  



 ATOMIC COORDINATES

 NR  ATOM    CHARGE       X              Y              Z

   1  H       1.00    0.000000000    1.669990284   -1.932006087
   2  N       7.00    0.000000000   -0.162419686   -1.136833266
   3  O       8.00    0.000000000    0.034197192    1.118249762

 Bond lengths in Bohr (Angstrom)

 1-2  1.997504972  2-3  2.263638147
     ( 1.057034110)     ( 1.197865721)

 Bond angles

  1-2-3  108.47547239

 NUCLEAR CHARGE:                   16
 NUMBER OF PRIMITIVE AOS:         293
 NUMBER OF SYMMETRY AOS:          234
 NUMBER OF CONTRACTIONS:          206   ( 130A'  +  76A"  )
 NUMBER OF CORE ORBITALS:           2   (   2A'  +   0A"  )
 NUMBER OF VALENCE ORBITALS:        9   (   7A'  +   2A"  )


 NUCLEAR REPULSION ENERGY   30.55464767

 Eigenvalues of metric

         1 0.590E-04 0.144E-03 0.315E-03 0.433E-03 0.571E-03 0.681E-03 0.100E-02 0.107E-02
         2 0.799E-03 0.165E-02 0.484E-02 0.889E-02 0.102E-01 0.120E-01 0.123E-01 0.186E-01


 Contracted 2-electron integrals neglected if value below      1.0D-22

      109945067. INTEGRALS WRITTEN OUT IN   26849 BLOCKS ON RECORD 1290 OF FILE 1


 NUMBER OF SORTED TWO-ELECTRON INTEGRALS:  115283741.     BUFFER LENGTH:  32768
 NUMBER OF SEGMENTS:   8  SEGMENT LENGTH:   15998004      RECORD LENGTH: 524288

 Memory used in sort:      16.56 MW

 SORT1 READ   109945067. AND WROTE   110865234. INTEGRALS IN    322 RECORDS. CPU TIME:     3.17 SEC, REAL TIME:     4.02 SEC
 SORT2 READ   110865234. AND WROTE   115283741. INTEGRALS IN      8 RECORDS. CPU TIME:     1.47 SEC, REAL TIME:     2.08 SEC

 FILE SIZES:   FILE 1:  1780.6 MBYTE,  FILE 4:  1350.6 MBYTE,   TOTAL:   3131.2 MBYTE

 OPERATOR DM      FOR CENTER  0  COORDINATES:    0.000000    0.000000    0.000000


 **********************************************************************************************************************************
 DATASETS  * FILE   NREC   LENGTH (MB)   RECORD NAMES
              1      19      944.14       500      610      700      900      950      970     1000      129      960     1100   
                                          VAR    BASINP    GEOM    SYMINP    ZMAT    AOBASIS   BASIS     P2S    ABASIS      S 
                                         1400     1410     1200     1210     1080     1600     1650     1300     1700   
                                           T        V       H0       H01     AOSYM     SMH    MOLCAS    ERIS     OPER   

 PROGRAMS   *        TOTAL       INT
 CPU TIMES  *        15.90     15.82
 REAL TIME  *        18.96 SEC
 DISK USED  *         3.13 GB      
 **********************************************************************************************************************************


 PROGRAM * RHF-SCF (CLOSED SHELL)       Authors: W. Meyer, H.-J. Werner


 NUMBER OF ELECTRONS:       8+    8-
 CONVERGENCE THRESHOLDS:    1.00E-10 (Density)    1.00E-13 (Energy)
 MAX. NUMBER OF ITERATIONS:      500
 INTERPOLATION TYPE:            DIIS
 INTERPOLATION STEPS:              2 (START)      1 (STEP)
 LEVEL SHIFTS:                  0.00 (CLOSED)  0.00 (OPEN) 



 Orbital guess generated from atomic densities. Full valence occupancy:    9   2

 Molecular orbital dump at record        2100.2

 Initial occupancy:   7   1

 ITERATION    DDIFF          GRAD             ENERGY        2-EL.EN.            DIPOLE MOMENTS         DIIS   ORB.
    1      0.000D+00      0.000D+00      -129.79901382    154.288113    0.00000    0.58896   -0.99482    0    start
    2      0.000D+00      0.804D-02      -129.82656230    155.547437    0.00000    0.60318   -0.21098    1    diag
    3      0.641D-02      0.601D-02      -129.84802940    155.645908    0.00000    0.55102   -0.57885    2    diag
    4      0.325D-02      0.960D-03      -129.84881209    155.367743    0.00000    0.55849   -0.51919    3    diag
    5      0.598D-03      0.312D-03      -129.84893529    155.460913    0.00000    0.56390   -0.52202    4    diag
    6      0.249D-03      0.903D-04      -129.84895493    155.444823    0.00000    0.56425   -0.51801    5    diag
    7      0.951D-04      0.445D-04      -129.84896050    155.447705    0.00000    0.56553   -0.51555    6    diag
    8      0.650D-04      0.151D-04      -129.84896108    155.447044    0.00000    0.56558   -0.51461    7    diag
    9      0.239D-04      0.287D-05      -129.84896110    155.446934    0.00000    0.56554   -0.51440    8    diag
   10      0.466D-05      0.669D-06      -129.84896111    155.446915    0.00000    0.56551   -0.51437    9    orth
   11      0.965D-06      0.136D-06      -129.84896111    155.446911    0.00000    0.56550   -0.51436    9    diag
   12      0.184D-06      0.273D-07      -129.84896111    155.446911    0.00000    0.56550   -0.51436    9    diag
   13      0.397D-07      0.696D-08      -129.84896111    155.446911    0.00000    0.56550   -0.51436    9    diag
   14      0.106D-07      0.140D-08      -129.84896111    155.446911    0.00000    0.56550   -0.51436    9    diag
   15      0.199D-08      0.410D-09      -129.84896111    155.446911    0.00000    0.56550   -0.51436    9    diag
   16      0.590D-09      0.127D-09      -129.84896111    155.446911    0.00000    0.56550   -0.51436    9    diag
   17      0.116D-09      0.351D-10      -129.84896111    155.446911    0.00000    0.56550   -0.51436    9    diag
   18      0.351D-10      0.119D-10      -129.84896111    155.446911    0.00000    0.56550   -0.51436    9    diag
   19      0.162D-10      0.294D-11      -129.84896111    155.446911    0.00000    0.56550   -0.51436    0    orth

 Final occupancy:   7   1

 !RHF STATE 1.1 Energy               -129.848961105849
 Nuclear energy                        30.55464767
 One-electron energy                 -238.12706434
 Two-electron energy                   77.72345556
 Virial quotient                       -1.00150466
 !RHF STATE 1.1 Dipole moment           0.00000000     0.56550049    -0.51436319
 Dipole moment /Debye                   0.00000000     1.43726473    -1.30729521

 Orbital energies:

         1.1          2.1          3.1          4.1          5.1          6.1          7.1          8.1          9.1
    -20.652899   -15.711547    -1.537763    -0.991099    -0.749773    -0.669095    -0.426919     0.026467     0.079495

         1.2          2.2          3.2
     -0.600982     0.065776     0.111040

 HOMO      7.1    -0.426919 =     -11.6170eV
 LUMO      8.1     0.026467 =       0.7202eV
 LUMO-HOMO         0.453385 =      12.3372eV


 **********************************************************************************************************************************
 DATASETS  * FILE   NREC   LENGTH (MB)   RECORD NAMES
              1      19      944.14       500      610      700      900      950      970     1000      129      960     1100   
                                          VAR    BASINP    GEOM    SYMINP    ZMAT    AOBASIS   BASIS     P2S    ABASIS      S 
                                         1400     1410     1200     1210     1080     1600     1650     1300     1700   
                                           T        V       H0       H01     AOSYM     SMH    MOLCAS    ERIS     OPER   

              2       4        3.27       700     1000      520     2100   
                                         GEOM     BASIS   MCVARS     RHF  

 PROGRAMS   *        TOTAL        HF       INT
 CPU TIMES  *        26.99     11.09     15.82
 REAL TIME  *        33.33 SEC
 DISK USED  *         3.13 GB      
 **********************************************************************************************************************************


 PROGRAM * CCSD (Closed-shell coupled cluster)     Authors: C. Hampel, H.-J. Werner, 1991, M. Deegan, P.J. Knowles, 1992


 Convergence thresholds:  THRVAR = 1.00D-08  THRDEN = 1.00D-12

 CCSD(T)     terms to be evaluated (factor= 1.000)


 Number of core orbitals:           2 (   2   0 )
 Number of closed-shell orbitals:   6 (   5   1 )
 Number of external orbitals:     198 ( 123  75 )

 Molecular orbitals read from record     2100.2  Type=RHF/CANONICAL (state 1.1)

 Number of N-1 electron functions:               6
 Number of N-2 electron functions:              21
 Number of singly external CSFs:               690
 Number of doubly external CSFs:            362646
 Total number of CSFs:                      363337

 Length of J-op  integral file:               0.00 MB
 Length of K-op  integral file:               1.60 MB
 Length of 3-ext integral record:             0.00 MB

 Memory could be reduced to 34.67 Mwords without degradation in triples

 Integral transformation finished. Total CPU:   1.81 sec, npass=  1  Memory used:   9.53 MW

 Reference energy:                   -129.84896111

 MP2 singlet pair energy:              -0.30070472
 MP2 triplet pair energy:              -0.16982239
 MP2 correlation energy:               -0.47052710
 MP2 total energy:                   -130.31948821

 SCS-MP2 correlation energy:           -0.46651292   (PS=  1.200000  PT=  0.333333)
 SCS-MP2 total energy:               -130.31547403

 ITER.      SQ.NORM     CORR.ENERGY   TOTAL ENERGY   ENERGY CHANGE        DEN1      VAR(S)    VAR(P)  DIIS     TIME  TIME/IT
   1      1.12013344    -0.47094093  -130.31990204    -0.00041383     0.01562341  0.30D-02  0.31D-02  1  1     3.32     1.74
   2      1.13062494    -0.47097676  -130.31993787    -0.00003583    -0.01227873  0.99D-04  0.48D-03  2  2     4.96     1.78
   3      1.13676983    -0.47134347  -130.32030457    -0.00036670    -0.00299643  0.47D-04  0.51D-04  3  3     6.63     1.79
   4      1.13942352    -0.47134905  -130.32031016    -0.00000558    -0.00091041  0.41D-05  0.93D-05  4  4     8.27     1.80
   5      1.14046549    -0.47137706  -130.32033816    -0.00002801    -0.00022798  0.11D-05  0.16D-05  5  5     9.89     1.80
   6      1.14080671    -0.47136333  -130.32032444     0.00001372    -0.00004861  0.11D-06  0.39D-06  6  6    11.52     1.81
   7      1.14088075    -0.47136357  -130.32032467    -0.00000023     0.00000192  0.18D-07  0.87D-07  6  1    13.17     1.81
   8      1.14090352    -0.47136398  -130.32032509    -0.00000042    -0.00000112  0.36D-08  0.17D-07  6  2    14.80     1.81
   9      1.14091196    -0.47136347  -130.32032457     0.00000052    -0.00000041  0.21D-08  0.16D-08  6  3    16.39     1.81
  10      1.14090748    -0.47136420  -130.32032531    -0.00000073     0.00000149  0.30D-09  0.26D-09  6  5    17.98     1.81
  11      1.14090909    -0.47136416  -130.32032527     0.00000004    -0.00000029  0.88D-10  0.23D-10  6  4    19.60     1.81
  12      1.14090869    -0.47136423  -130.32032534    -0.00000007     0.00000003  0.17D-10  0.57D-11  6  6    21.24     1.82
  13      1.14090851    -0.47136423  -130.32032534    -0.00000000    -0.00000004  0.31D-11  0.79D-12  6  1    22.87     1.82
  14      1.14090825    -0.47136424  -130.32032535    -0.00000001     0.00000004  0.43D-12  0.15D-12  6  3    24.52     1.82
  15      1.14090818    -0.47136424  -130.32032535    -0.00000000     0.00000001  0.11D-12  0.21D-13  6  2    26.14     1.82
  16      1.14090816    -0.47136424  -130.32032535     0.00000000     0.00000000  0.28D-13  0.92D-14  6  4    27.72     1.82
  17      1.14090817    -0.47136424  -130.32032535    -0.00000000    -0.00000000  0.13D-14  0.10D-14  6  5    29.39     1.82
  18      1.14090817    -0.47136424  -130.32032535     0.00000000    -0.00000000  0.23D-15  0.23D-15  6  6    31.08     1.82
  19      1.14090818    -0.47136424  -130.32032535     0.00000000    -0.00000000  0.30D-16  0.27D-16  6  5    32.67     1.82
  20      1.14090818    -0.47136424  -130.32032535     0.00000000    -0.00000000  0.58D-17  0.36D-17  6  1    34.31     1.82
  21      1.14090818    -0.47136424  -130.32032535    -0.00000000     0.00000000  0.75D-18  0.51D-18  6  3    35.94     1.82
  22      1.14090818    -0.47136424  -130.32032535    -0.00000000     0.00000000  0.10D-18  0.55D-19  6  2    37.58     1.82
  23      1.14090818    -0.47136424  -130.32032535    -0.00000000     0.00000000  0.22D-19  0.11D-19  6  4    39.17     1.82
  24      1.14090818    -0.47136424  -130.32032535    -0.00000000     0.00000000  0.78D-20  0.18D-20  6  6    40.78     1.82
  25      1.14090818    -0.47136424  -130.32032535     0.00000000    -0.00000000  0.23D-20  0.62D-21  6  5    42.38     1.81

 Norm of t1 vector:      0.07543727      S-energy:     0.00000000      T1 diagnostic:  0.01539857
                                                                       D1 diagnostic:  0.04088902

 Doubles amplitudes (print threshold =  0.500E-01):

         I         J         SYM. A    SYM. B    A         B      T(IJ, AB)

         6         6         2         2         1         1     -0.09300863


 Total CPU time for triples:     16.55 sec


 RESULTS
 =======

  Reference energy                   -129.848961105849
  CCSD singlet pair energy             -0.325638347389
  CCSD triplet pair energy             -0.145725895991
  CCSD correlation energy              -0.471364243379

  Triples (T) contribution             -0.022083253320
  Total correlation energy             -0.493447496699

  CCSD total energy                  -130.320325349228
  CCSD[T] energy                     -130.343445691572
  CCSD-T energy                      -130.342031473060
 !CCSD(T) total energy               -130.342408602549

 Timing summary (sec):

 STEP                 CPU(USER)    SYS     CPU(TOT)    WALL
 Transformation          1.83      0.33      2.16      2.29
 CCSD iterations        40.56      4.77     45.33     45.36
 Triples                16.55      0.47     17.02     17.02

 Program statistics:

 Available memory in ccsd:               994999756
 Min. memory needed in ccsd:               1265322
 Max. memory used in ccsd:                 1555950
 Max. memory used in cckext:               2415326 (25 integral passes)



 **********************************************************************************************************************************
 DATASETS  * FILE   NREC   LENGTH (MB)   RECORD NAMES
              1      20     1044.69       500      610      700      900      950      970     1000      129      960     1100   
                                          VAR    BASINP    GEOM    SYMINP    ZMAT    AOBASIS   BASIS     P2S    ABASIS      S 
                                         1400     1410     1200     1210     1080     1600     1650     1300     1700     1380   
                                           T        V       H0       H01     AOSYM     SMH    MOLCAS    ERIS     OPER     JKOP   

              2       4        3.27       700     1000      520     2100   
                                         GEOM     BASIS   MCVARS     RHF  

 PROGRAMS   *        TOTAL   CCSD(T)        HF       INT
 CPU TIMES  *        85.96     58.96     11.09     15.82
 REAL TIME  *        98.05 SEC
 DISK USED  *         3.13 GB      
 **********************************************************************************************************************************

 CCSD(T)/aug-cc-pVQZ energy=   -130.342408602549

        CCSD(T)         HF-SCF  
   -130.34240860   -129.84896111
 **********************************************************************************************************************************
 Molpro calculation terminated
 Variable memory released
