
 Primary working directories    : /tmp/r2666/282759.maple
 Secondary working directories  : /tmp/r2666/282759.maple
 Wavefunction directory         : /ddn/home4/r2666/wfu/
 Main file repository           : /tmp/r2666/282759.maple/

 SHA1      : d5ffa45e93fdbca01ffc919aa182cfdae0147319
 NAME      : 2015.1.35
 ARCHNAME  : linux/x86_64
 FC        : /opt/intel/composer_xe_2015.1.133/bin/intel64/ifort
 BLASLIB   : -Wl,-_start-group /opt/intel/mkl/lib/intel64/libmkl_intel_ilp64.a /opt/intel/mkl/lib/intel64/libmkl_intel_thread.a /opt/intel/mkl/lib/intel64/libmkl_core.a -Wl,-_end-group
 id        : olemiss

 Nodes     nprocs
 cn065        1

 Using customized tuning parameters: mindgm=1; mindgv=20; mindgc=4; mindgr=1; noblas=0; minvec=7
 default implementation of scratch files=df  

 ***,hno CCSD(T)/TZ-F12 QFF
 memory, 995, m;
 gthresh,energy=1.d-12,zero=1.d-22,oneint=1.d-22,twoint=1.d-22;
 gthresh,optgrad=1.d-8,optstep=1.d-8;
 nocompress;
 geomtyp=xyz
 bohr
 geometry={
 3
         37        37
 H        0.0000000000        1.6626528405       -1.9206412104
 N        0.0000000000       -0.1624103316       -1.1564207603
 O        0.0000000000        0.0415252811        1.1264723797
 }
 
 basis=avqz
   {hf,maxit=500;accu,20;}
 {ccsd(t),nocheck,maxit=250;orbital,IGNORE_ERROR;}

 Variables initialized (889), CPU time= 0.01 sec
 Commands  initialized (702), CPU time= 0.00 sec, 572 directives.
 Default parameters read. Elapsed time= 0.06 sec

 Checking input...
 Passed
1


                                         ***  PROGRAM SYSTEM MOLPRO  ***
                                       Copyright, TTI GmbH Stuttgart, 2015
                                    Version 2015.1 linked Jul  9 2018 13:16:40


 **********************************************************************************************************************************
 LABEL *   hno CCSD(T)/TZ-F12 QFF                                                        
  64 bit serial version                                                                  DATE: 04-Mar-20          TIME: 15:44:36  
 **********************************************************************************************************************************

 SHA1:             d5ffa45e93fdbca01ffc919aa182cfdae0147319
 **********************************************************************************************************************************

 THRESHOLDS:

 ZERO    =  1.00D-22  ONEINT  =  1.00D-22  TWOINT  =  1.00D-22  PREFAC  =  1.00D-14  LOCALI  =  1.00D-09  EORDER  =  1.00D-04
 ENERGY  =  1.00D-12  ETEST   =  0.00D+00  EDENS   =  0.00D+00  THRDEDEF=  1.00D-06  GRADIENT=  1.00D-02  STEP    =  1.00D-03
 ORBITAL =  1.00D-05  CIVEC   =  1.00D-05  COEFF   =  1.00D-04  PRINTCI =  5.00D-02  PUNCHCI =  9.90D+01  OPTGRAD =  3.00D-04
 OPTENERG=  1.00D-06  OPTSTEP =  3.00D-04  THRGRAD =  1.00D-10  COMPRESS=  1.00D-11  VARMIN  =  1.00D-07  VARMAX  =  1.00D-03
 THRDOUB =  0.00D+00  THRDIV  =  1.00D-05  THRRED  =  1.00D-07  THRPSP  =  1.00D+00  THRDC   =  1.00D-10  THRCS   =  1.00D-10
 THRNRM  =  1.00D-08  THREQ   =  0.00D+00  THRDE   =  1.00D+00  THRREF  =  1.00D-05  SPARFAC =  1.00D+00  THRDLP  =  1.00D-07
 THRDIA  =  1.00D-10  THRDLS  =  1.00D-07  THRGPS  =  0.00D+00  THRKEX  =  0.00D+00  THRDIS  =  2.00D-01  THRVAR  =  1.00D-10
 THRLOC  =  1.00D-06  THRGAP  =  1.00D-06  THRLOCT = -1.00D+00  THRGAPT = -1.00D+00  THRORB  =  1.00D-06  THRMLTP =  0.00D+00
 THRCPQCI=  1.00D-10  KEXTA   =  0.00D+00  THRCOARS=  0.00D+00  SYMTOL  =  1.00D-06  GRADTOL =  1.00D-06  THROVL  =  1.00D-08
 THRORTH =  1.00D-08  GRID    =  1.00D-06  GRIDMAX =  1.00D-03  DTMAX   =  0.00D+00  THROCCDE=  1.00D-01  THROCCDE=  1.00D-01



 THRESHOLDS:

 ZERO    =  1.00D-22  ONEINT  =  1.00D-22  TWOINT  =  1.00D-22  PREFAC  =  1.00D-14  LOCALI  =  1.00D-09  EORDER  =  1.00D-04
 ENERGY  =  1.00D-12  ETEST   =  0.00D+00  EDENS   =  0.00D+00  THRDEDEF=  1.00D-06  GRADIENT=  1.00D-02  STEP    =  1.00D-03
 ORBITAL =  1.00D-05  CIVEC   =  1.00D-05  COEFF   =  1.00D-04  PRINTCI =  5.00D-02  PUNCHCI =  9.90D+01  OPTGRAD =  1.00D-08
 OPTENERG=  1.00D-06  OPTSTEP =  1.00D-08  THRGRAD =  1.00D-10  COMPRESS=  1.00D-11  VARMIN  =  1.00D-07  VARMAX  =  1.00D-03
 THRDOUB =  0.00D+00  THRDIV  =  1.00D-05  THRRED  =  1.00D-07  THRPSP  =  1.00D+00  THRDC   =  1.00D-10  THRCS   =  1.00D-10
 THRNRM  =  1.00D-08  THREQ   =  0.00D+00  THRDE   =  1.00D+00  THRREF  =  1.00D-05  SPARFAC =  1.00D+00  THRDLP  =  1.00D-07
 THRDIA  =  1.00D-10  THRDLS  =  1.00D-07  THRGPS  =  0.00D+00  THRKEX  =  0.00D+00  THRDIS  =  2.00D-01  THRVAR  =  1.00D-10
 THRLOC  =  1.00D-06  THRGAP  =  1.00D-06  THRLOCT = -1.00D+00  THRGAPT = -1.00D+00  THRORB  =  1.00D-06  THRMLTP =  0.00D+00
 THRCPQCI=  1.00D-10  KEXTA   =  0.00D+00  THRCOARS=  0.00D+00  SYMTOL  =  1.00D-06  GRADTOL =  1.00D-06  THROVL  =  1.00D-08
 THRORTH =  1.00D-08  GRID    =  1.00D-06  GRIDMAX =  1.00D-03  DTMAX   =  0.00D+00  THROCCDE=  1.00D-01  THROCCDE=  1.00D-01



 Input parameters for SORTINT:

 COMPRESS =    0.000000
 C_FINAL  =    1.000000
 DEBUG    =   -1.000000
 C_SORT1  =    0.000000
 C_SEWARD =    0.000000
 THRESH   =    0.000000
 IO       =  molpro                                                          
 SPRI     =    0.000000
 SETTING GEOMTYP        =    XYZ
 ZUNIT=BOHR
 

 Variable memory set to  995000000 words,  buffer space   230000 words

 SETTING BASIS          =    AVQZ


 Recomputing integrals since basis changed


 Using spherical harmonics

 Library entry H      S aug-cc-pVQZ          selected for orbital group  1
 Library entry H      P aug-cc-pVQZ          selected for orbital group  1
 Library entry H      D aug-cc-pVQZ          selected for orbital group  1
 Library entry H      F aug-cc-pVQZ          selected for orbital group  1
 Library entry N      S aug-cc-pVQZ          selected for orbital group  2
 Library entry N      P aug-cc-pVQZ          selected for orbital group  2
 Library entry N      D aug-cc-pVQZ          selected for orbital group  2
 Library entry N      F aug-cc-pVQZ          selected for orbital group  2
 Library entry N      G aug-cc-pVQZ          selected for orbital group  2
 Library entry O      S aug-cc-pVQZ          selected for orbital group  3
 Library entry O      P aug-cc-pVQZ          selected for orbital group  3
 Library entry O      D aug-cc-pVQZ          selected for orbital group  3
 Library entry O      F aug-cc-pVQZ          selected for orbital group  3
 Library entry O      G aug-cc-pVQZ          selected for orbital group  3


 PROGRAM * SEWARD (Integral evaluation for generally contracted gaussian basis sets)     Author: Roland Lindh, 1990

 Geometry written to block  1 of record 700


 Point group  Cs  



 ATOMIC COORDINATES

 NR  ATOM    CHARGE       X              Y              Z

   1  H       1.00    0.000000000    1.662652841   -1.920641210
   2  N       7.00    0.000000000   -0.162410332   -1.156420760
   3  O       8.00    0.000000000    0.041525281    1.126472380

 Bond lengths in Bohr (Angstrom)

 1-2  1.978607712  2-3  2.291984036
     ( 1.047034111)     ( 1.212865720)

 Bond angles

  1-2-3  107.61603570

 NUCLEAR CHARGE:                   16
 NUMBER OF PRIMITIVE AOS:         293
 NUMBER OF SYMMETRY AOS:          234
 NUMBER OF CONTRACTIONS:          206   ( 130A'  +  76A"  )
 NUMBER OF CORE ORBITALS:           2   (   2A'  +   0A"  )
 NUMBER OF VALENCE ORBITALS:        9   (   7A'  +   2A"  )


 NUCLEAR REPULSION ENERGY   30.28864396

 Eigenvalues of metric

         1 0.594E-04 0.146E-03 0.319E-03 0.436E-03 0.596E-03 0.679E-03 0.101E-02 0.109E-02
         2 0.834E-03 0.160E-02 0.498E-02 0.895E-02 0.101E-01 0.124E-01 0.126E-01 0.187E-01


 Contracted 2-electron integrals neglected if value below      1.0D-22

      109945084. INTEGRALS WRITTEN OUT IN   26849 BLOCKS ON RECORD 1290 OF FILE 1


 NUMBER OF SORTED TWO-ELECTRON INTEGRALS:  115283741.     BUFFER LENGTH:  32768
 NUMBER OF SEGMENTS:   8  SEGMENT LENGTH:   15998004      RECORD LENGTH: 524288

 Memory used in sort:      16.56 MW

 SORT1 READ   109945084. AND WROTE   110865251. INTEGRALS IN    322 RECORDS. CPU TIME:     3.65 SEC, REAL TIME:     4.53 SEC
 SORT2 READ   110865251. AND WROTE   115283741. INTEGRALS IN      8 RECORDS. CPU TIME:     1.59 SEC, REAL TIME:     2.24 SEC

 FILE SIZES:   FILE 1:  1780.6 MBYTE,  FILE 4:  1350.6 MBYTE,   TOTAL:   3131.2 MBYTE

 OPERATOR DM      FOR CENTER  0  COORDINATES:    0.000000    0.000000    0.000000


 **********************************************************************************************************************************
 DATASETS  * FILE   NREC   LENGTH (MB)   RECORD NAMES
              1      19      944.14       500      610      700      900      950      970     1000      129      960     1100   
                                          VAR    BASINP    GEOM    SYMINP    ZMAT    AOBASIS   BASIS     P2S    ABASIS      S 
                                         1400     1410     1200     1210     1080     1600     1650     1300     1700   
                                           T        V       H0       H01     AOSYM     SMH    MOLCAS    ERIS     OPER   

 PROGRAMS   *        TOTAL       INT
 CPU TIMES  *        16.91     16.80
 REAL TIME  *        20.19 SEC
 DISK USED  *         3.13 GB      
 **********************************************************************************************************************************


 PROGRAM * RHF-SCF (CLOSED SHELL)       Authors: W. Meyer, H.-J. Werner


 NUMBER OF ELECTRONS:       8+    8-
 CONVERGENCE THRESHOLDS:    1.00E-10 (Density)    1.00E-13 (Energy)
 MAX. NUMBER OF ITERATIONS:      500
 INTERPOLATION TYPE:            DIIS
 INTERPOLATION STEPS:              2 (START)      1 (STEP)
 LEVEL SHIFTS:                  0.00 (CLOSED)  0.00 (OPEN) 



 Orbital guess generated from atomic densities. Full valence occupancy:    9   2

 Molecular orbital dump at record        2100.2

 Initial occupancy:   7   1

 ITERATION    DDIFF          GRAD             ENERGY        2-EL.EN.            DIPOLE MOMENTS         DIIS   ORB.
    1      0.000D+00      0.000D+00      -129.79557641    153.823386    0.00000    0.59467   -1.04026    0    start
    2      0.000D+00      0.814D-02      -129.82271239    155.037710    0.00000    0.61413   -0.20509    1    diag
    3      0.659D-02      0.627D-02      -129.84625820    155.173829    0.00000    0.55819   -0.59939    2    diag
    4      0.337D-02      0.977D-03      -129.84707135    154.885552    0.00000    0.56579   -0.53734    3    diag
    5      0.609D-03      0.318D-03      -129.84719913    154.979054    0.00000    0.57099   -0.53975    4    diag
    6      0.254D-03      0.918D-04      -129.84721951    154.962869    0.00000    0.57124   -0.53549    5    diag
    7      0.969D-04      0.460D-04      -129.84722553    154.965562    0.00000    0.57244   -0.53279    6    diag
    8      0.672D-04      0.163D-04      -129.84722624    154.964848    0.00000    0.57248   -0.53173    7    diag
    9      0.266D-04      0.313D-05      -129.84722627    154.964730    0.00000    0.57244   -0.53150    8    diag
   10      0.532D-05      0.702D-06      -129.84722627    154.964712    0.00000    0.57241   -0.53147    9    orth
   11      0.101D-05      0.139D-06      -129.84722627    154.964709    0.00000    0.57240   -0.53147    9    diag
   12      0.182D-06      0.287D-07      -129.84722627    154.964709    0.00000    0.57240   -0.53147    9    diag
   13      0.395D-07      0.748D-08      -129.84722627    154.964709    0.00000    0.57240   -0.53147    9    diag
   14      0.109D-07      0.146D-08      -129.84722627    154.964709    0.00000    0.57240   -0.53147    9    diag
   15      0.196D-08      0.414D-09      -129.84722627    154.964709    0.00000    0.57240   -0.53147    9    diag
   16      0.589D-09      0.122D-09      -129.84722627    154.964709    0.00000    0.57240   -0.53147    9    diag
   17      0.109D-09      0.312D-10      -129.84722627    154.964709    0.00000    0.57240   -0.53147    9    diag
   18      0.294D-10      0.103D-10      -129.84722627    154.964709    0.00000    0.57240   -0.53147    9    diag
   19      0.143D-10      0.240D-11      -129.84722627    154.964709    0.00000    0.57240   -0.53147    9    fixocc
   20      0.621D-11      0.417D-12      -129.84722627    154.964709    0.00000    0.57240   -0.53147    9    orth
   21      0.268D-11      0.212D-12      -129.84722627    154.964709    0.00000    0.57240   -0.53147    0    orth

 Final occupancy:   7   1

 !RHF STATE 1.1 Energy               -129.847226269469
 Nuclear energy                        30.28864396
 One-electron energy                 -237.61822475
 Two-electron energy                   77.48235452
 Virial quotient                       -1.00181485
 !RHF STATE 1.1 Dipole moment           0.00000000     0.57239875    -0.53146823
 Dipole moment /Debye                   0.00000000     1.45479720    -1.35076902

 Orbital energies:

         1.1          2.1          3.1          4.1          5.1          6.1          7.1          8.1          9.1
    -20.653913   -15.712918    -1.525966    -0.996581    -0.746302    -0.664600    -0.432714     0.026346     0.079479

         1.2          2.2          3.2
     -0.593764     0.062121     0.110155

 HOMO      7.1    -0.432714 =     -11.7747eV
 LUMO      8.1     0.026346 =       0.7169eV
 LUMO-HOMO         0.459060 =      12.4917eV


 **********************************************************************************************************************************
 DATASETS  * FILE   NREC   LENGTH (MB)   RECORD NAMES
              1      19      944.14       500      610      700      900      950      970     1000      129      960     1100   
                                          VAR    BASINP    GEOM    SYMINP    ZMAT    AOBASIS   BASIS     P2S    ABASIS      S 
                                         1400     1410     1200     1210     1080     1600     1650     1300     1700   
                                           T        V       H0       H01     AOSYM     SMH    MOLCAS    ERIS     OPER   

              2       4        3.27       700     1000      520     2100   
                                         GEOM     BASIS   MCVARS     RHF  

 PROGRAMS   *        TOTAL        HF       INT
 CPU TIMES  *        30.38     13.47     16.80
 REAL TIME  *        37.53 SEC
 DISK USED  *         3.13 GB      
 **********************************************************************************************************************************


 PROGRAM * CCSD (Closed-shell coupled cluster)     Authors: C. Hampel, H.-J. Werner, 1991, M. Deegan, P.J. Knowles, 1992


 Convergence thresholds:  THRVAR = 1.00D-08  THRDEN = 1.00D-12

 CCSD(T)     terms to be evaluated (factor= 1.000)


 Number of core orbitals:           2 (   2   0 )
 Number of closed-shell orbitals:   6 (   5   1 )
 Number of external orbitals:     198 ( 123  75 )

 Molecular orbitals read from record     2100.2  Type=RHF/CANONICAL (state 1.1)

 Number of N-1 electron functions:               6
 Number of N-2 electron functions:              21
 Number of singly external CSFs:               690
 Number of doubly external CSFs:            362646
 Total number of CSFs:                      363337

 Length of J-op  integral file:               0.00 MB
 Length of K-op  integral file:               1.60 MB
 Length of 3-ext integral record:             0.00 MB

 Memory could be reduced to 34.67 Mwords without degradation in triples

 Integral transformation finished. Total CPU:   2.08 sec, npass=  1  Memory used:   9.53 MW

 Reference energy:                   -129.84722627

 MP2 singlet pair energy:              -0.30200847
 MP2 triplet pair energy:              -0.17070442
 MP2 correlation energy:               -0.47271290
 MP2 total energy:                   -130.31993917

 SCS-MP2 correlation energy:           -0.46862625   (PS=  1.200000  PT=  0.333333)
 SCS-MP2 total energy:               -130.31585252

 ITER.      SQ.NORM     CORR.ENERGY   TOTAL ENERGY   ENERGY CHANGE        DEN1      VAR(S)    VAR(P)  DIIS     TIME  TIME/IT
   1      1.12137686    -0.47256144  -130.31978771     0.00015146     0.01672642  0.32D-02  0.32D-02  1  1     3.85     1.96
   2      1.13216373    -0.47248329  -130.31970956     0.00007815    -0.01259586  0.11D-03  0.50D-03  2  2     5.76     2.01
   3      1.13853493    -0.47286448  -130.32009075    -0.00038119    -0.00306723  0.49D-04  0.54D-04  3  3     7.62     2.04
   4      1.14133349    -0.47287255  -130.32009882    -0.00000806    -0.00094714  0.44D-05  0.97D-05  4  4     9.48     2.04
   5      1.14244647    -0.47290257  -130.32012884    -0.00003002    -0.00024268  0.11D-05  0.16D-05  5  5    11.32     2.05
   6      1.14280398    -0.47288725  -130.32011352     0.00001531    -0.00005171  0.11D-06  0.39D-06  6  6    13.13     2.05
   7      1.14287527    -0.47288787  -130.32011414    -0.00000062     0.00000289  0.16D-07  0.89D-07  6  1    15.04     2.06
   8      1.14289759    -0.47288815  -130.32011442    -0.00000028    -0.00000109  0.33D-08  0.18D-07  6  2    17.00     2.07
   9      1.14290236    -0.47288777  -130.32011404     0.00000038     0.00000097  0.25D-08  0.21D-08  6  4    18.93     2.08
  10      1.14290482    -0.47288814  -130.32011441    -0.00000037    -0.00000075  0.47D-09  0.25D-09  6  3    20.82     2.08
  11      1.14290457    -0.47288820  -130.32011447    -0.00000006    -0.00000013  0.15D-09  0.35D-10  6  5    22.76     2.09
  12      1.14290362    -0.47288834  -130.32011461    -0.00000014     0.00000036  0.18D-10  0.11D-10  6  6    24.70     2.09
  13      1.14290278    -0.47288839  -130.32011465    -0.00000004     0.00000021  0.57D-11  0.24D-11  6  1    26.68     2.10
  14      1.14290211    -0.47288842  -130.32011469    -0.00000003     0.00000016  0.36D-12  0.50D-12  6  4    28.61     2.10
  15      1.14290189    -0.47288843  -130.32011470    -0.00000001     0.00000003  0.79D-13  0.39D-13  6  2    30.50     2.11
  16      1.14290184    -0.47288843  -130.32011470    -0.00000000     0.00000001  0.21D-13  0.71D-14  6  3    32.42     2.11
  17      1.14290182    -0.47288843  -130.32011470    -0.00000000     0.00000001  0.39D-14  0.97D-15  6  5    34.36     2.11
  18      1.14290181    -0.47288843  -130.32011470    -0.00000000     0.00000000  0.83D-15  0.24D-15  6  6    36.28     2.11
  19      1.14290181    -0.47288843  -130.32011470    -0.00000000     0.00000000  0.10D-15  0.49D-16  6  1    38.20     2.11
  20      1.14290181    -0.47288843  -130.32011470     0.00000000    -0.00000000  0.94D-17  0.72D-17  6  4    40.12     2.12
  21      1.14290181    -0.47288843  -130.32011470     0.00000000    -0.00000000  0.47D-18  0.60D-18  6  3    42.10     2.12
  22      1.14290181    -0.47288843  -130.32011470     0.00000000    -0.00000000  0.12D-18  0.11D-18  6  2    44.06     2.12
  23      1.14290181    -0.47288843  -130.32011470     0.00000000     0.00000000  0.34D-19  0.43D-19  6  5    45.99     2.12
  24      1.14290181    -0.47288843  -130.32011470    -0.00000000     0.00000000  0.26D-20  0.92D-20  6  1    47.92     2.12

 Norm of t1 vector:      0.07724167      S-energy:    -0.00000000      T1 diagnostic:  0.01576689
                                                                       D1 diagnostic:  0.04275540

 Doubles amplitudes (print threshold =  0.500E-01):

         I         J         SYM. A    SYM. B    A         B      T(IJ, AB)

         6         6         2         2         1         1     -0.10126697


 Total CPU time for triples:     24.82 sec


 RESULTS
 =======

  Reference energy                   -129.847226269469
  CCSD singlet pair energy             -0.326962791748
  CCSD triplet pair energy             -0.145925636517
  CCSD correlation energy              -0.472888428266

  Triples (T) contribution             -0.022478977485
  Total correlation energy             -0.495367405752

  CCSD total energy                  -130.320114697735
  CCSD[T] energy                     -130.343681100346
  CCSD-T energy                      -130.342205608237
 !CCSD(T) total energy               -130.342593675221

 Timing summary (sec):

 STEP                 CPU(USER)    SYS     CPU(TOT)    WALL
 Transformation          2.09      0.32      2.41      2.43
 CCSD iterations        45.83      5.09     50.92     50.93
 Triples                24.82      0.51     25.33     25.32

 Program statistics:

 Available memory in ccsd:               994999756
 Min. memory needed in ccsd:               1265322
 Max. memory used in ccsd:                 1555950
 Max. memory used in cckext:               2415326 (24 integral passes)



 **********************************************************************************************************************************
 DATASETS  * FILE   NREC   LENGTH (MB)   RECORD NAMES
              1      20     1044.69       500      610      700      900      950      970     1000      129      960     1100   
                                          VAR    BASINP    GEOM    SYMINP    ZMAT    AOBASIS   BASIS     P2S    ABASIS      S 
                                         1400     1410     1200     1210     1080     1600     1650     1300     1700     1380   
                                           T        V       H0       H01     AOSYM     SMH    MOLCAS    ERIS     OPER     JKOP   

              2       4        3.27       700     1000      520     2100   
                                         GEOM     BASIS   MCVARS     RHF  

 PROGRAMS   *        TOTAL   CCSD(T)        HF       INT
 CPU TIMES  *       103.15     72.77     13.47     16.80
 REAL TIME  *       116.26 SEC
 DISK USED  *         3.13 GB      
 **********************************************************************************************************************************

 CCSD(T)/aug-cc-pVQZ energy=   -130.342593675221

        CCSD(T)         HF-SCF  
   -130.34259368   -129.84722627
 **********************************************************************************************************************************
 Molpro calculation terminated
 Variable memory released
