
 Primary working directories    : /tmp/r2666/282051.maple
 Secondary working directories  : /tmp/r2666/282051.maple
 Wavefunction directory         : /ddn/home4/r2666/wfu/
 Main file repository           : /tmp/r2666/282051.maple/

 SHA1      : d5ffa45e93fdbca01ffc919aa182cfdae0147319
 NAME      : 2015.1.35
 ARCHNAME  : linux/x86_64
 FC        : /opt/intel/composer_xe_2015.1.133/bin/intel64/ifort
 BLASLIB   : -Wl,-_start-group /opt/intel/mkl/lib/intel64/libmkl_intel_ilp64.a /opt/intel/mkl/lib/intel64/libmkl_intel_thread.a /opt/intel/mkl/lib/intel64/libmkl_core.a -Wl,-_end-group
 id        : olemiss

 Nodes     nprocs
 cn089        1

 Using customized tuning parameters: mindgm=1; mindgv=20; mindgc=4; mindgr=1; noblas=0; minvec=7
 default implementation of scratch files=df  

 ***,hno CCSD(T)/TZ-F12 QFF
 memory, 995, m;
 gthresh,energy=1.d-12,zero=1.d-22,oneint=1.d-22,twoint=1.d-22;
 gthresh,optgrad=1.d-8,optstep=1.d-8;
 nocompress;
 geomtyp=xyz
 bohr
 geometry={
 3
         77        77
 H        0.0000000000        1.6680117044       -1.9263660374
 N        0.0000000000       -0.1656638527       -1.1582501799
 O        0.0000000000        0.0394199383        1.1340266263
 }
 
 basis=avqz
   {hf,maxit=500;accu,20;}
 {ccsd(t),nocheck,maxit=250;orbital,IGNORE_ERROR;}

 Variables initialized (889), CPU time= 0.00 sec
 Commands  initialized (702), CPU time= 0.01 sec, 572 directives.
 Default parameters read. Elapsed time= 0.07 sec

 Checking input...
 Passed
1


                                         ***  PROGRAM SYSTEM MOLPRO  ***
                                       Copyright, TTI GmbH Stuttgart, 2015
                                    Version 2015.1 linked Jul  9 2018 13:16:40


 **********************************************************************************************************************************
 LABEL *   hno CCSD(T)/TZ-F12 QFF                                                        
  64 bit serial version                                                                  DATE: 04-Mar-20          TIME: 13:43:16  
 **********************************************************************************************************************************

 SHA1:             d5ffa45e93fdbca01ffc919aa182cfdae0147319
 **********************************************************************************************************************************

 THRESHOLDS:

 ZERO    =  1.00D-22  ONEINT  =  1.00D-22  TWOINT  =  1.00D-22  PREFAC  =  1.00D-14  LOCALI  =  1.00D-09  EORDER  =  1.00D-04
 ENERGY  =  1.00D-12  ETEST   =  0.00D+00  EDENS   =  0.00D+00  THRDEDEF=  1.00D-06  GRADIENT=  1.00D-02  STEP    =  1.00D-03
 ORBITAL =  1.00D-05  CIVEC   =  1.00D-05  COEFF   =  1.00D-04  PRINTCI =  5.00D-02  PUNCHCI =  9.90D+01  OPTGRAD =  3.00D-04
 OPTENERG=  1.00D-06  OPTSTEP =  3.00D-04  THRGRAD =  1.00D-10  COMPRESS=  1.00D-11  VARMIN  =  1.00D-07  VARMAX  =  1.00D-03
 THRDOUB =  0.00D+00  THRDIV  =  1.00D-05  THRRED  =  1.00D-07  THRPSP  =  1.00D+00  THRDC   =  1.00D-10  THRCS   =  1.00D-10
 THRNRM  =  1.00D-08  THREQ   =  0.00D+00  THRDE   =  1.00D+00  THRREF  =  1.00D-05  SPARFAC =  1.00D+00  THRDLP  =  1.00D-07
 THRDIA  =  1.00D-10  THRDLS  =  1.00D-07  THRGPS  =  0.00D+00  THRKEX  =  0.00D+00  THRDIS  =  2.00D-01  THRVAR  =  1.00D-10
 THRLOC  =  1.00D-06  THRGAP  =  1.00D-06  THRLOCT = -1.00D+00  THRGAPT = -1.00D+00  THRORB  =  1.00D-06  THRMLTP =  0.00D+00
 THRCPQCI=  1.00D-10  KEXTA   =  0.00D+00  THRCOARS=  0.00D+00  SYMTOL  =  1.00D-06  GRADTOL =  1.00D-06  THROVL  =  1.00D-08
 THRORTH =  1.00D-08  GRID    =  1.00D-06  GRIDMAX =  1.00D-03  DTMAX   =  0.00D+00  THROCCDE=  1.00D-01  THROCCDE=  1.00D-01



 THRESHOLDS:

 ZERO    =  1.00D-22  ONEINT  =  1.00D-22  TWOINT  =  1.00D-22  PREFAC  =  1.00D-14  LOCALI  =  1.00D-09  EORDER  =  1.00D-04
 ENERGY  =  1.00D-12  ETEST   =  0.00D+00  EDENS   =  0.00D+00  THRDEDEF=  1.00D-06  GRADIENT=  1.00D-02  STEP    =  1.00D-03
 ORBITAL =  1.00D-05  CIVEC   =  1.00D-05  COEFF   =  1.00D-04  PRINTCI =  5.00D-02  PUNCHCI =  9.90D+01  OPTGRAD =  1.00D-08
 OPTENERG=  1.00D-06  OPTSTEP =  1.00D-08  THRGRAD =  1.00D-10  COMPRESS=  1.00D-11  VARMIN  =  1.00D-07  VARMAX  =  1.00D-03
 THRDOUB =  0.00D+00  THRDIV  =  1.00D-05  THRRED  =  1.00D-07  THRPSP  =  1.00D+00  THRDC   =  1.00D-10  THRCS   =  1.00D-10
 THRNRM  =  1.00D-08  THREQ   =  0.00D+00  THRDE   =  1.00D+00  THRREF  =  1.00D-05  SPARFAC =  1.00D+00  THRDLP  =  1.00D-07
 THRDIA  =  1.00D-10  THRDLS  =  1.00D-07  THRGPS  =  0.00D+00  THRKEX  =  0.00D+00  THRDIS  =  2.00D-01  THRVAR  =  1.00D-10
 THRLOC  =  1.00D-06  THRGAP  =  1.00D-06  THRLOCT = -1.00D+00  THRGAPT = -1.00D+00  THRORB  =  1.00D-06  THRMLTP =  0.00D+00
 THRCPQCI=  1.00D-10  KEXTA   =  0.00D+00  THRCOARS=  0.00D+00  SYMTOL  =  1.00D-06  GRADTOL =  1.00D-06  THROVL  =  1.00D-08
 THRORTH =  1.00D-08  GRID    =  1.00D-06  GRIDMAX =  1.00D-03  DTMAX   =  0.00D+00  THROCCDE=  1.00D-01  THROCCDE=  1.00D-01



 Input parameters for SORTINT:

 COMPRESS =    0.000000
 C_FINAL  =    1.000000
 DEBUG    =   -1.000000
 C_SORT1  =    0.000000
 C_SEWARD =    0.000000
 THRESH   =    0.000000
 IO       =  molpro                                                          
 SPRI     =    0.000000
 SETTING GEOMTYP        =    XYZ
 ZUNIT=BOHR
 

 Variable memory set to  995000000 words,  buffer space   230000 words

 SETTING BASIS          =    AVQZ


 Recomputing integrals since basis changed


 Using spherical harmonics

 Library entry H      S aug-cc-pVQZ          selected for orbital group  1
 Library entry H      P aug-cc-pVQZ          selected for orbital group  1
 Library entry H      D aug-cc-pVQZ          selected for orbital group  1
 Library entry H      F aug-cc-pVQZ          selected for orbital group  1
 Library entry N      S aug-cc-pVQZ          selected for orbital group  2
 Library entry N      P aug-cc-pVQZ          selected for orbital group  2
 Library entry N      D aug-cc-pVQZ          selected for orbital group  2
 Library entry N      F aug-cc-pVQZ          selected for orbital group  2
 Library entry N      G aug-cc-pVQZ          selected for orbital group  2
 Library entry O      S aug-cc-pVQZ          selected for orbital group  3
 Library entry O      P aug-cc-pVQZ          selected for orbital group  3
 Library entry O      D aug-cc-pVQZ          selected for orbital group  3
 Library entry O      F aug-cc-pVQZ          selected for orbital group  3
 Library entry O      G aug-cc-pVQZ          selected for orbital group  3


 PROGRAM * SEWARD (Integral evaluation for generally contracted gaussian basis sets)     Author: Roland Lindh, 1990

 Geometry written to block  1 of record 700


 Point group  Cs  



 ATOMIC COORDINATES

 NR  ATOM    CHARGE       X              Y              Z

   1  H       1.00    0.000000000    1.668011704   -1.926366037
   2  N       7.00    0.000000000   -0.165663853   -1.158250180
   3  O       8.00    0.000000000    0.039419938    1.134026626

 Bond lengths in Bohr (Angstrom)

 1-2  1.988056342  2-3  2.301432666
     ( 1.052034110)     ( 1.217865719)

 Bond angles

  1-2-3  107.61603570

 NUCLEAR CHARGE:                   16
 NUMBER OF PRIMITIVE AOS:         293
 NUMBER OF SYMMETRY AOS:          234
 NUMBER OF CONTRACTIONS:          206   ( 130A'  +  76A"  )
 NUMBER OF CORE ORBITALS:           2   (   2A'  +   0A"  )
 NUMBER OF VALENCE ORBITALS:        9   (   7A'  +   2A"  )


 NUCLEAR REPULSION ENERGY   30.16133706

 Eigenvalues of metric

         1 0.603E-04 0.148E-03 0.321E-03 0.438E-03 0.606E-03 0.688E-03 0.102E-02 0.110E-02
         2 0.849E-03 0.163E-02 0.507E-02 0.898E-02 0.102E-01 0.125E-01 0.128E-01 0.191E-01


 Contracted 2-electron integrals neglected if value below      1.0D-22

      109945087. INTEGRALS WRITTEN OUT IN   26849 BLOCKS ON RECORD 1290 OF FILE 1


 NUMBER OF SORTED TWO-ELECTRON INTEGRALS:  115283741.     BUFFER LENGTH:  32768
 NUMBER OF SEGMENTS:   8  SEGMENT LENGTH:   15998004      RECORD LENGTH: 524288

 Memory used in sort:      16.56 MW

 SORT1 READ   109945087. AND WROTE   110865254. INTEGRALS IN    322 RECORDS. CPU TIME:     1.77 SEC, REAL TIME:     2.49 SEC
 SORT2 READ   110865254. AND WROTE   115283741. INTEGRALS IN      8 RECORDS. CPU TIME:     1.26 SEC, REAL TIME:     1.74 SEC

 FILE SIZES:   FILE 1:  1780.6 MBYTE,  FILE 4:  1350.6 MBYTE,   TOTAL:   3131.2 MBYTE

 OPERATOR DM      FOR CENTER  0  COORDINATES:    0.000000    0.000000    0.000000


 **********************************************************************************************************************************
 DATASETS  * FILE   NREC   LENGTH (MB)   RECORD NAMES
              1      19      944.14       500      610      700      900      950      970     1000      129      960     1100   
                                          VAR    BASINP    GEOM    SYMINP    ZMAT    AOBASIS   BASIS     P2S    ABASIS      S 
                                         1400     1410     1200     1210     1080     1600     1650     1300     1700   
                                           T        V       H0       H01     AOSYM     SMH    MOLCAS    ERIS     OPER   

 PROGRAMS   *        TOTAL       INT
 CPU TIMES  *        10.55     10.44
 REAL TIME  *        13.03 SEC
 DISK USED  *         3.13 GB      
 **********************************************************************************************************************************


 PROGRAM * RHF-SCF (CLOSED SHELL)       Authors: W. Meyer, H.-J. Werner


 NUMBER OF ELECTRONS:       8+    8-
 CONVERGENCE THRESHOLDS:    1.00E-10 (Density)    1.00E-13 (Energy)
 MAX. NUMBER OF ITERATIONS:      500
 INTERPOLATION TYPE:            DIIS
 INTERPOLATION STEPS:              2 (START)      1 (STEP)
 LEVEL SHIFTS:                  0.00 (CLOSED)  0.00 (OPEN) 



 Orbital guess generated from atomic densities. Full valence occupancy:    9   2

 Molecular orbital dump at record        2100.2

 Initial occupancy:   7   1

 ITERATION    DDIFF          GRAD             ENERGY        2-EL.EN.            DIPOLE MOMENTS         DIIS   ORB.
    1      0.000D+00      0.000D+00      -129.79362324    153.591959    0.00000    0.59364   -1.05734    0    start
    2      0.000D+00      0.821D-02      -129.82055733    154.801157    0.00000    0.61694   -0.20014    1    diag
    3      0.668D-02      0.641D-02      -129.84522886    154.947568    0.00000    0.55879   -0.60628    2    diag
    4      0.343D-02      0.982D-03      -129.84605393    154.654725    0.00000    0.56624   -0.54341    3    diag
    5      0.613D-03      0.321D-03      -129.84618471    154.749109    0.00000    0.57151   -0.54576    4    diag
    6      0.257D-03      0.929D-04      -129.84620566    154.732780    0.00000    0.57174   -0.54139    5    diag
    7      0.983D-04      0.467D-04      -129.84621192    154.735451    0.00000    0.57294   -0.53862    6    diag
    8      0.684D-04      0.168D-04      -129.84621268    154.734712    0.00000    0.57298   -0.53751    7    diag
    9      0.277D-04      0.326D-05      -129.84621272    154.734588    0.00000    0.57294   -0.53727    8    diag
   10      0.563D-05      0.724D-06      -129.84621272    154.734570    0.00000    0.57290   -0.53725    9    orth
   11      0.104D-05      0.143D-06      -129.84621272    154.734566    0.00000    0.57290   -0.53724    9    diag
   12      0.186D-06      0.298D-07      -129.84621272    154.734566    0.00000    0.57289   -0.53724    9    diag
   13      0.404D-07      0.788D-08      -129.84621272    154.734566    0.00000    0.57289   -0.53724    9    diag
   14      0.114D-07      0.154D-08      -129.84621272    154.734566    0.00000    0.57289   -0.53724    9    diag
   15      0.204D-08      0.435D-09      -129.84621272    154.734566    0.00000    0.57289   -0.53724    9    diag
   16      0.615D-09      0.127D-09      -129.84621272    154.734566    0.00000    0.57289   -0.53724    9    diag
   17      0.110D-09      0.321D-10      -129.84621272    154.734566    0.00000    0.57289   -0.53724    9    diag
   18      0.301D-10      0.105D-10      -129.84621272    154.734566    0.00000    0.57289   -0.53724    9    diag
   19      0.143D-10      0.238D-11      -129.84621272    154.734566    0.00000    0.57289   -0.53724    9    fixocc
   20      0.428D-11      0.367D-12      -129.84621272    154.734566    0.00000    0.57289   -0.53724    9    orth
   21      0.205D-11      0.159D-12      -129.84621272    154.734566    0.00000    0.57289   -0.53724    9    diag
   22      0.160D-11      0.109D-12      -129.84621272    154.734566    0.00000    0.57289   -0.53724    0    orth

 Final occupancy:   7   1

 !RHF STATE 1.1 Energy               -129.846212720874
 Nuclear energy                        30.16133706
 One-electron energy                 -237.37483281
 Two-electron energy                   77.36728302
 Virial quotient                       -1.00201940
 !RHF STATE 1.1 Dipole moment           0.00000000     0.57289399    -0.53724319
 Dipole moment /Debye                   0.00000000     1.45605591    -1.36544655

 Orbital energies:

         1.1          2.1          3.1          4.1          5.1          6.1          7.1          8.1          9.1
    -20.654482   -15.714454    -1.521866    -0.996486    -0.744239    -0.663183    -0.433927     0.026278     0.079462

         1.2          2.2          3.2
     -0.591497     0.060840     0.110051

 HOMO      7.1    -0.433927 =     -11.8078eV
 LUMO      8.1     0.026278 =       0.7151eV
 LUMO-HOMO         0.460205 =      12.5228eV


 **********************************************************************************************************************************
 DATASETS  * FILE   NREC   LENGTH (MB)   RECORD NAMES
              1      19      944.14       500      610      700      900      950      970     1000      129      960     1100   
                                          VAR    BASINP    GEOM    SYMINP    ZMAT    AOBASIS   BASIS     P2S    ABASIS      S 
                                         1400     1410     1200     1210     1080     1600     1650     1300     1700   
                                           T        V       H0       H01     AOSYM     SMH    MOLCAS    ERIS     OPER   

              2       4        3.27       700     1000      520     2100   
                                         GEOM     BASIS   MCVARS     RHF  

 PROGRAMS   *        TOTAL        HF       INT
 CPU TIMES  *        21.03     10.48     10.44
 REAL TIME  *        25.86 SEC
 DISK USED  *         3.13 GB      
 **********************************************************************************************************************************


 PROGRAM * CCSD (Closed-shell coupled cluster)     Authors: C. Hampel, H.-J. Werner, 1991, M. Deegan, P.J. Knowles, 1992


 Convergence thresholds:  THRVAR = 1.00D-08  THRDEN = 1.00D-12

 CCSD(T)     terms to be evaluated (factor= 1.000)


 Number of core orbitals:           2 (   2   0 )
 Number of closed-shell orbitals:   6 (   5   1 )
 Number of external orbitals:     198 ( 123  75 )

 Molecular orbitals read from record     2100.2  Type=RHF/CANONICAL (state 1.1)

 Number of N-1 electron functions:               6
 Number of N-2 electron functions:              21
 Number of singly external CSFs:               690
 Number of doubly external CSFs:            362646
 Total number of CSFs:                      363337

 Length of J-op  integral file:               0.00 MB
 Length of K-op  integral file:               1.60 MB
 Length of 3-ext integral record:             0.00 MB

 Memory could be reduced to 34.67 Mwords without degradation in triples

 Integral transformation finished. Total CPU:   1.36 sec, npass=  1  Memory used:   9.53 MW

 Reference energy:                   -129.84621272

 MP2 singlet pair energy:              -0.30263770
 MP2 triplet pair energy:              -0.17112041
 MP2 correlation energy:               -0.47375810
 MP2 total energy:                   -130.31997083

 SCS-MP2 correlation energy:           -0.46964016   (PS=  1.200000  PT=  0.333333)
 SCS-MP2 total energy:               -130.31585288

 ITER.      SQ.NORM     CORR.ENERGY   TOTAL ENERGY   ENERGY CHANGE        DEN1      VAR(S)    VAR(P)  DIIS     TIME  TIME/IT
   1      1.12208649    -0.47338963  -130.31960235     0.00036848     0.01721100  0.33D-02  0.33D-02  1  1     2.50     1.26
   2      1.13303263    -0.47326350  -130.31947622     0.00012613    -0.01275489  0.11D-03  0.51D-03  2  2     3.66     1.28
   3      1.13953415    -0.47365580  -130.31986852    -0.00039230    -0.00310894  0.51D-04  0.56D-04  3  3     4.79     1.29
   4      1.14240222    -0.47366337  -130.31987610    -0.00000758    -0.00096654  0.47D-05  0.10D-04  4  4     5.97     1.30
   5      1.14355862    -0.47369476  -130.31990748    -0.00003138    -0.00025169  0.12D-05  0.17D-05  5  5     7.13     1.30
   6      1.14392756    -0.47367877  -130.31989149     0.00001599    -0.00005343  0.11D-06  0.39D-06  6  6     8.31     1.30
   7      1.14400000    -0.47367935  -130.31989207    -0.00000058     0.00000305  0.16D-07  0.90D-07  6  1     9.44     1.31
   8      1.14402283    -0.47367956  -130.31989228    -0.00000021    -0.00000119  0.32D-08  0.19D-07  6  2    10.63     1.31
   9      1.14402775    -0.47367915  -130.31989187     0.00000041     0.00000104  0.26D-08  0.22D-08  6  4    11.83     1.31
  10      1.14403031    -0.47367953  -130.31989225    -0.00000038    -0.00000078  0.49D-09  0.27D-09  6  3    13.01     1.31
  11      1.14403009    -0.47367959  -130.31989231    -0.00000006    -0.00000014  0.16D-09  0.38D-10  6  5    14.19     1.31
  12      1.14402911    -0.47367974  -130.31989246    -0.00000015     0.00000037  0.19D-10  0.11D-10  6  6    15.32     1.31
  13      1.14402823    -0.47367978  -130.31989250    -0.00000004     0.00000022  0.60D-11  0.25D-11  6  1    16.54     1.32
  14      1.14402753    -0.47367981  -130.31989254    -0.00000004     0.00000016  0.37D-12  0.53D-12  6  4    17.72     1.32
  15      1.14402730    -0.47367982  -130.31989254    -0.00000001     0.00000004  0.83D-13  0.42D-13  6  2    18.91     1.32
  16      1.14402725    -0.47367982  -130.31989254    -0.00000000     0.00000001  0.22D-13  0.76D-14  6  3    20.04     1.32
  17      1.14402722    -0.47367982  -130.31989255    -0.00000000     0.00000001  0.41D-14  0.10D-14  6  5    21.25     1.32
  18      1.14402722    -0.47367982  -130.31989255    -0.00000000     0.00000000  0.88D-15  0.26D-15  6  6    22.46     1.32
  19      1.14402722    -0.47367982  -130.31989255    -0.00000000     0.00000000  0.11D-15  0.52D-16  6  1    23.61     1.32
  20      1.14402722    -0.47367982  -130.31989255     0.00000000    -0.00000000  0.10D-16  0.77D-17  6  4    24.78     1.32
  21      1.14402722    -0.47367982  -130.31989255     0.00000000    -0.00000000  0.52D-18  0.61D-18  6  3    25.92     1.32
  22      1.14402722    -0.47367982  -130.31989255     0.00000000    -0.00000000  0.13D-18  0.11D-18  6  2    27.06     1.32
  23      1.14402722    -0.47367982  -130.31989255     0.00000000     0.00000000  0.38D-19  0.42D-19  6  5    28.21     1.32
  24      1.14402722    -0.47367982  -130.31989255    -0.00000000     0.00000000  0.33D-20  0.93D-20  6  1    29.38     1.32

 Norm of t1 vector:      0.07829542      S-energy:    -0.00000000      T1 diagnostic:  0.01598199
                                                                       D1 diagnostic:  0.04343998

 Doubles amplitudes (print threshold =  0.500E-01):

         I         J         SYM. A    SYM. B    A         B      T(IJ, AB)

         6         6         2         2         1         1     -0.10389609


 Total CPU time for triples:     14.02 sec


 RESULTS
 =======

  Reference energy                   -129.846212720873
  CCSD singlet pair energy             -0.327646247114
  CCSD triplet pair energy             -0.146033577195
  CCSD correlation energy              -0.473679824311

  Triples (T) contribution             -0.022673861237
  Total correlation energy             -0.496353685548

  CCSD total energy                  -130.319892545184
  CCSD[T] energy                     -130.343681680298
  CCSD-T energy                      -130.342171189371
 !CCSD(T) total energy               -130.342566406421

 Timing summary (sec):

 STEP                 CPU(USER)    SYS     CPU(TOT)    WALL
 Transformation          1.37      0.25      1.62      1.62
 CCSD iterations        28.02      3.62     31.64     31.64
 Triples                14.02      0.39     14.41     14.42

 Program statistics:

 Available memory in ccsd:               994999756
 Min. memory needed in ccsd:               1265322
 Max. memory used in ccsd:                 1555950
 Max. memory used in cckext:               2415326 (24 integral passes)



 **********************************************************************************************************************************
 DATASETS  * FILE   NREC   LENGTH (MB)   RECORD NAMES
              1      20     1044.69       500      610      700      900      950      970     1000      129      960     1100   
                                          VAR    BASINP    GEOM    SYMINP    ZMAT    AOBASIS   BASIS     P2S    ABASIS      S 
                                         1400     1410     1200     1210     1080     1600     1650     1300     1700     1380   
                                           T        V       H0       H01     AOSYM     SMH    MOLCAS    ERIS     OPER     JKOP   

              2       4        3.27       700     1000      520     2100   
                                         GEOM     BASIS   MCVARS     RHF  

 PROGRAMS   *        TOTAL   CCSD(T)        HF       INT
 CPU TIMES  *        64.46     43.42     10.48     10.44
 REAL TIME  *        73.57 SEC
 DISK USED  *         3.13 GB      
 **********************************************************************************************************************************

 CCSD(T)/aug-cc-pVQZ energy=   -130.342566406421

        CCSD(T)         HF-SCF  
   -130.34256641   -129.84621272
 **********************************************************************************************************************************
 Molpro calculation terminated
 Variable memory released
