
 Primary working directories    : /tmp/r2666/282074.maple
 Secondary working directories  : /tmp/r2666/282074.maple
 Wavefunction directory         : /ddn/home4/r2666/wfu/
 Main file repository           : /tmp/r2666/282074.maple/

 SHA1      : d5ffa45e93fdbca01ffc919aa182cfdae0147319
 NAME      : 2015.1.35
 ARCHNAME  : linux/x86_64
 FC        : /opt/intel/composer_xe_2015.1.133/bin/intel64/ifort
 BLASLIB   : -Wl,-_start-group /opt/intel/mkl/lib/intel64/libmkl_intel_ilp64.a /opt/intel/mkl/lib/intel64/libmkl_intel_thread.a /opt/intel/mkl/lib/intel64/libmkl_core.a -Wl,-_end-group
 id        : olemiss

 Nodes     nprocs
 cn079        1

 Using customized tuning parameters: mindgm=1; mindgv=20; mindgc=4; mindgr=1; noblas=0; minvec=7
 default implementation of scratch files=df  

 ***,hno CCSD(T)/TZ-F12 QFF
 memory, 995, m;
 gthresh,energy=1.d-12,zero=1.d-22,oneint=1.d-22,twoint=1.d-22;
 gthresh,optgrad=1.d-8,optstep=1.d-8;
 nocompress;
 geomtyp=xyz
 bohr
 geometry={
 3
        100       100
 H        0.0000000000        1.6718084168       -1.9398834701
 N        0.0000000000       -0.1597211513       -1.1426849037
 O        0.0000000000        0.0296805245        1.1319787828
 }
 
 basis=avqz
   {hf,maxit=500;accu,20;}
 {ccsd(t),nocheck,maxit=250;orbital,IGNORE_ERROR;}

 Variables initialized (889), CPU time= 0.01 sec
 Commands  initialized (702), CPU time= 0.01 sec, 572 directives.
 Default parameters read. Elapsed time= 0.04 sec

 Checking input...
 Passed
1


                                         ***  PROGRAM SYSTEM MOLPRO  ***
                                       Copyright, TTI GmbH Stuttgart, 2015
                                    Version 2015.1 linked Jul  9 2018 13:16:40


 **********************************************************************************************************************************
 LABEL *   hno CCSD(T)/TZ-F12 QFF                                                        
  64 bit serial version                                                                  DATE: 04-Mar-20          TIME: 13:44:21  
 **********************************************************************************************************************************

 SHA1:             d5ffa45e93fdbca01ffc919aa182cfdae0147319
 **********************************************************************************************************************************

 THRESHOLDS:

 ZERO    =  1.00D-22  ONEINT  =  1.00D-22  TWOINT  =  1.00D-22  PREFAC  =  1.00D-14  LOCALI  =  1.00D-09  EORDER  =  1.00D-04
 ENERGY  =  1.00D-12  ETEST   =  0.00D+00  EDENS   =  0.00D+00  THRDEDEF=  1.00D-06  GRADIENT=  1.00D-02  STEP    =  1.00D-03
 ORBITAL =  1.00D-05  CIVEC   =  1.00D-05  COEFF   =  1.00D-04  PRINTCI =  5.00D-02  PUNCHCI =  9.90D+01  OPTGRAD =  3.00D-04
 OPTENERG=  1.00D-06  OPTSTEP =  3.00D-04  THRGRAD =  1.00D-10  COMPRESS=  1.00D-11  VARMIN  =  1.00D-07  VARMAX  =  1.00D-03
 THRDOUB =  0.00D+00  THRDIV  =  1.00D-05  THRRED  =  1.00D-07  THRPSP  =  1.00D+00  THRDC   =  1.00D-10  THRCS   =  1.00D-10
 THRNRM  =  1.00D-08  THREQ   =  0.00D+00  THRDE   =  1.00D+00  THRREF  =  1.00D-05  SPARFAC =  1.00D+00  THRDLP  =  1.00D-07
 THRDIA  =  1.00D-10  THRDLS  =  1.00D-07  THRGPS  =  0.00D+00  THRKEX  =  0.00D+00  THRDIS  =  2.00D-01  THRVAR  =  1.00D-10
 THRLOC  =  1.00D-06  THRGAP  =  1.00D-06  THRLOCT = -1.00D+00  THRGAPT = -1.00D+00  THRORB  =  1.00D-06  THRMLTP =  0.00D+00
 THRCPQCI=  1.00D-10  KEXTA   =  0.00D+00  THRCOARS=  0.00D+00  SYMTOL  =  1.00D-06  GRADTOL =  1.00D-06  THROVL  =  1.00D-08
 THRORTH =  1.00D-08  GRID    =  1.00D-06  GRIDMAX =  1.00D-03  DTMAX   =  0.00D+00  THROCCDE=  1.00D-01  THROCCDE=  1.00D-01



 THRESHOLDS:

 ZERO    =  1.00D-22  ONEINT  =  1.00D-22  TWOINT  =  1.00D-22  PREFAC  =  1.00D-14  LOCALI  =  1.00D-09  EORDER  =  1.00D-04
 ENERGY  =  1.00D-12  ETEST   =  0.00D+00  EDENS   =  0.00D+00  THRDEDEF=  1.00D-06  GRADIENT=  1.00D-02  STEP    =  1.00D-03
 ORBITAL =  1.00D-05  CIVEC   =  1.00D-05  COEFF   =  1.00D-04  PRINTCI =  5.00D-02  PUNCHCI =  9.90D+01  OPTGRAD =  1.00D-08
 OPTENERG=  1.00D-06  OPTSTEP =  1.00D-08  THRGRAD =  1.00D-10  COMPRESS=  1.00D-11  VARMIN  =  1.00D-07  VARMAX  =  1.00D-03
 THRDOUB =  0.00D+00  THRDIV  =  1.00D-05  THRRED  =  1.00D-07  THRPSP  =  1.00D+00  THRDC   =  1.00D-10  THRCS   =  1.00D-10
 THRNRM  =  1.00D-08  THREQ   =  0.00D+00  THRDE   =  1.00D+00  THRREF  =  1.00D-05  SPARFAC =  1.00D+00  THRDLP  =  1.00D-07
 THRDIA  =  1.00D-10  THRDLS  =  1.00D-07  THRGPS  =  0.00D+00  THRKEX  =  0.00D+00  THRDIS  =  2.00D-01  THRVAR  =  1.00D-10
 THRLOC  =  1.00D-06  THRGAP  =  1.00D-06  THRLOCT = -1.00D+00  THRGAPT = -1.00D+00  THRORB  =  1.00D-06  THRMLTP =  0.00D+00
 THRCPQCI=  1.00D-10  KEXTA   =  0.00D+00  THRCOARS=  0.00D+00  SYMTOL  =  1.00D-06  GRADTOL =  1.00D-06  THROVL  =  1.00D-08
 THRORTH =  1.00D-08  GRID    =  1.00D-06  GRIDMAX =  1.00D-03  DTMAX   =  0.00D+00  THROCCDE=  1.00D-01  THROCCDE=  1.00D-01



 Input parameters for SORTINT:

 COMPRESS =    0.000000
 C_FINAL  =    1.000000
 DEBUG    =   -1.000000
 C_SORT1  =    0.000000
 C_SEWARD =    0.000000
 THRESH   =    0.000000
 IO       =  molpro                                                          
 SPRI     =    0.000000
 SETTING GEOMTYP        =    XYZ
 ZUNIT=BOHR
 

 Variable memory set to  995000000 words,  buffer space   230000 words

 SETTING BASIS          =    AVQZ


 Recomputing integrals since basis changed


 Using spherical harmonics

 Library entry H      S aug-cc-pVQZ          selected for orbital group  1
 Library entry H      P aug-cc-pVQZ          selected for orbital group  1
 Library entry H      D aug-cc-pVQZ          selected for orbital group  1
 Library entry H      F aug-cc-pVQZ          selected for orbital group  1
 Library entry N      S aug-cc-pVQZ          selected for orbital group  2
 Library entry N      P aug-cc-pVQZ          selected for orbital group  2
 Library entry N      D aug-cc-pVQZ          selected for orbital group  2
 Library entry N      F aug-cc-pVQZ          selected for orbital group  2
 Library entry N      G aug-cc-pVQZ          selected for orbital group  2
 Library entry O      S aug-cc-pVQZ          selected for orbital group  3
 Library entry O      P aug-cc-pVQZ          selected for orbital group  3
 Library entry O      D aug-cc-pVQZ          selected for orbital group  3
 Library entry O      F aug-cc-pVQZ          selected for orbital group  3
 Library entry O      G aug-cc-pVQZ          selected for orbital group  3


 PROGRAM * SEWARD (Integral evaluation for generally contracted gaussian basis sets)     Author: Roland Lindh, 1990

 Geometry written to block  1 of record 700


 Point group  Cs  



 ATOMIC COORDINATES

 NR  ATOM    CHARGE       X              Y              Z

   1  H       1.00    0.000000000    1.671808417   -1.939883470
   2  N       7.00    0.000000000   -0.159721151   -1.142684904
   3  O       8.00    0.000000000    0.029680524    1.131978783

 Bond lengths in Bohr (Angstrom)

 1-2  1.997504972  2-3  2.282535406
     ( 1.057034110)     ( 1.207865720)

 Bond angles

  1-2-3  108.76195129

 NUCLEAR CHARGE:                   16
 NUMBER OF PRIMITIVE AOS:         293
 NUMBER OF SYMMETRY AOS:          234
 NUMBER OF CONTRACTIONS:          206   ( 130A'  +  76A"  )
 NUMBER OF CORE ORBITALS:           2   (   2A'  +   0A"  )
 NUMBER OF VALENCE ORBITALS:        9   (   7A'  +   2A"  )


 NUCLEAR REPULSION ENERGY   30.33520878

 Eigenvalues of metric

         1 0.598E-04 0.145E-03 0.318E-03 0.435E-03 0.586E-03 0.686E-03 0.102E-02 0.108E-02
         2 0.824E-03 0.165E-02 0.495E-02 0.895E-02 0.102E-01 0.123E-01 0.125E-01 0.190E-01


 Contracted 2-electron integrals neglected if value below      1.0D-22

      109945087. INTEGRALS WRITTEN OUT IN   26849 BLOCKS ON RECORD 1290 OF FILE 1


 NUMBER OF SORTED TWO-ELECTRON INTEGRALS:  115283741.     BUFFER LENGTH:  32768
 NUMBER OF SEGMENTS:   8  SEGMENT LENGTH:   15998004      RECORD LENGTH: 524288

 Memory used in sort:      16.56 MW

 SORT1 READ   109945087. AND WROTE   110865254. INTEGRALS IN    322 RECORDS. CPU TIME:     1.82 SEC, REAL TIME:     2.56 SEC
 SORT2 READ   110865254. AND WROTE   115283741. INTEGRALS IN      8 RECORDS. CPU TIME:     1.36 SEC, REAL TIME:     1.78 SEC

 FILE SIZES:   FILE 1:  1780.6 MBYTE,  FILE 4:  1350.6 MBYTE,   TOTAL:   3131.2 MBYTE

 OPERATOR DM      FOR CENTER  0  COORDINATES:    0.000000    0.000000    0.000000


 **********************************************************************************************************************************
 DATASETS  * FILE   NREC   LENGTH (MB)   RECORD NAMES
              1      19      944.14       500      610      700      900      950      970     1000      129      960     1100   
                                          VAR    BASINP    GEOM    SYMINP    ZMAT    AOBASIS   BASIS     P2S    ABASIS      S 
                                         1400     1410     1200     1210     1080     1600     1650     1300     1700   
                                           T        V       H0       H01     AOSYM     SMH    MOLCAS    ERIS     OPER   

 PROGRAMS   *        TOTAL       INT
 CPU TIMES  *        10.76     10.67
 REAL TIME  *        13.24 SEC
 DISK USED  *         3.13 GB      
 **********************************************************************************************************************************


 PROGRAM * RHF-SCF (CLOSED SHELL)       Authors: W. Meyer, H.-J. Werner


 NUMBER OF ELECTRONS:       8+    8-
 CONVERGENCE THRESHOLDS:    1.00E-10 (Density)    1.00E-13 (Energy)
 MAX. NUMBER OF ITERATIONS:      500
 INTERPOLATION TYPE:            DIIS
 INTERPOLATION STEPS:              2 (START)      1 (STEP)
 LEVEL SHIFTS:                  0.00 (CLOSED)  0.00 (OPEN) 



 Orbital guess generated from atomic densities. Full valence occupancy:    9   2

 Molecular orbital dump at record        2100.2

 Initial occupancy:   7   1

 ITERATION    DDIFF          GRAD             ENERGY        2-EL.EN.            DIPOLE MOMENTS         DIIS   ORB.
    1      0.000D+00      0.000D+00      -129.79631159    153.894029    0.00000    0.59618   -1.02796    0    start
    2      0.000D+00      0.813D-02      -129.82357825    155.135759    0.00000    0.60945   -0.20822    1    diag
    3      0.655D-02      0.621D-02      -129.84663956    155.256356    0.00000    0.55699   -0.59536    2    diag
    4      0.334D-02      0.973D-03      -129.84744609    154.970043    0.00000    0.56407   -0.53387    3    diag
    5      0.607D-03      0.316D-03      -129.84757334    155.064248    0.00000    0.56951   -0.53654    4    diag
    6      0.253D-03      0.916D-04      -129.84759367    155.048017    0.00000    0.56981   -0.53235    5    diag
    7      0.969D-04      0.456D-04      -129.84759958    155.050803    0.00000    0.57107   -0.52975    6    diag
    8      0.667D-04      0.160D-04      -129.84760025    155.050108    0.00000    0.57111   -0.52872    7    diag
    9      0.257D-04      0.308D-05      -129.84760028    155.049989    0.00000    0.57107   -0.52850    8    diag
   10      0.515D-05      0.704D-06      -129.84760028    155.049970    0.00000    0.57104   -0.52847    9    orth
   11      0.102D-05      0.141D-06      -129.84760028    155.049966    0.00000    0.57103   -0.52847    9    diag
   12      0.188D-06      0.285D-07      -129.84760028    155.049966    0.00000    0.57103   -0.52846    9    diag
   13      0.402D-07      0.738D-08      -129.84760028    155.049966    0.00000    0.57103   -0.52846    9    diag
   14      0.110D-07      0.146D-08      -129.84760028    155.049966    0.00000    0.57103   -0.52846    9    diag
   15      0.202D-08      0.418D-09      -129.84760028    155.049966    0.00000    0.57103   -0.52846    9    diag
   16      0.601D-09      0.125D-09      -129.84760028    155.049966    0.00000    0.57103   -0.52846    9    diag
   17      0.113D-09      0.330D-10      -129.84760028    155.049966    0.00000    0.57103   -0.52846    9    diag
   18      0.312D-10      0.112D-10      -129.84760028    155.049966    0.00000    0.57103   -0.52846    9    diag
   19      0.157D-10      0.274D-11      -129.84760028    155.049966    0.00000    0.57103   -0.52846    9    fixocc
   20      0.680D-11      0.501D-12      -129.84760028    155.049966    0.00000    0.57103   -0.52846    9    orth
   21      0.352D-11      0.278D-12      -129.84760028    155.049966    0.00000    0.57103   -0.52846    9    diag
   22      0.408D-11      0.166D-12      -129.84760028    155.049966    0.00000    0.57103   -0.52846    9    diag
   23      0.170D-11      0.140D-12      -129.84760028    155.049966    0.00000    0.57103   -0.52846    9    diag
   24      0.899D-12      0.132D-12      -129.84760028    155.049966    0.00000    0.57103   -0.52846    9    diag
   25      0.876D-12      0.112D-12      -129.84760028    155.049966    0.00000    0.57103   -0.52846    9    diag
   26      0.378D-12      0.128D-12      -129.84760028    155.049966    0.00000    0.57103   -0.52846    9    diag
   27      0.103D-12      0.996D-13      -129.84760028    155.049966    0.00000    0.57103   -0.52846    0    orth

 Final occupancy:   7   1

 !RHF STATE 1.1 Energy               -129.847600278178
 Nuclear energy                        30.33520878
 One-electron energy                 -237.70779213
 Two-electron energy                   77.52498307
 Virial quotient                       -1.00181928
 !RHF STATE 1.1 Dipole moment           0.00000000     0.57102918    -0.52846430
 Dipole moment /Debye                   0.00000000     1.45131635    -1.34313429

 Orbital energies:

         1.1          2.1          3.1          4.1          5.1          6.1          7.1          8.1          9.1
    -20.653916   -15.713201    -1.529333    -0.993597    -0.746668    -0.666251    -0.429822     0.026311     0.079462

         1.2          2.2          3.2
     -0.596125     0.063243     0.110530

 HOMO      7.1    -0.429822 =     -11.6960eV
 LUMO      8.1     0.026311 =       0.7160eV
 LUMO-HOMO         0.456133 =      12.4120eV


 **********************************************************************************************************************************
 DATASETS  * FILE   NREC   LENGTH (MB)   RECORD NAMES
              1      19      944.14       500      610      700      900      950      970     1000      129      960     1100   
                                          VAR    BASINP    GEOM    SYMINP    ZMAT    AOBASIS   BASIS     P2S    ABASIS      S 
                                         1400     1410     1200     1210     1080     1600     1650     1300     1700   
                                           T        V       H0       H01     AOSYM     SMH    MOLCAS    ERIS     OPER   

              2       4        3.27       700     1000      520     2100   
                                         GEOM     BASIS   MCVARS     RHF  

 PROGRAMS   *        TOTAL        HF       INT
 CPU TIMES  *        23.46     12.70     10.67
 REAL TIME  *        29.75 SEC
 DISK USED  *         3.13 GB      
 **********************************************************************************************************************************


 PROGRAM * CCSD (Closed-shell coupled cluster)     Authors: C. Hampel, H.-J. Werner, 1991, M. Deegan, P.J. Knowles, 1992


 Convergence thresholds:  THRVAR = 1.00D-08  THRDEN = 1.00D-12

 CCSD(T)     terms to be evaluated (factor= 1.000)


 Number of core orbitals:           2 (   2   0 )
 Number of closed-shell orbitals:   6 (   5   1 )
 Number of external orbitals:     198 ( 123  75 )

 Molecular orbitals read from record     2100.2  Type=RHF/CANONICAL (state 1.1)

 Number of N-1 electron functions:               6
 Number of N-2 electron functions:              21
 Number of singly external CSFs:               690
 Number of doubly external CSFs:            362646
 Total number of CSFs:                      363337

 Length of J-op  integral file:               0.00 MB
 Length of K-op  integral file:               1.60 MB
 Length of 3-ext integral record:             0.00 MB

 Memory could be reduced to 34.67 Mwords without degradation in triples

 Integral transformation finished. Total CPU:   1.43 sec, npass=  1  Memory used:   9.53 MW

 Reference energy:                   -129.84760028

 MP2 singlet pair energy:              -0.30172019
 MP2 triplet pair energy:              -0.17049971
 MP2 correlation energy:               -0.47221989
 MP2 total energy:                   -130.31982017

 SCS-MP2 correlation energy:           -0.46815293   (PS=  1.200000  PT=  0.333333)
 SCS-MP2 total energy:               -130.31575321

 ITER.      SQ.NORM     CORR.ENERGY   TOTAL ENERGY   ENERGY CHANGE        DEN1      VAR(S)    VAR(P)  DIIS     TIME  TIME/IT
   1      1.12120830    -0.47224115  -130.31984142    -0.00002125     0.01644754  0.32D-02  0.32D-02  1  1     2.64     1.30
   2      1.13194971    -0.47219385  -130.31979413     0.00004729    -0.01253387  0.10D-03  0.49D-03  2  2     3.82     1.33
   3      1.13829659    -0.47257644  -130.32017671    -0.00038258    -0.00305877  0.50D-04  0.54D-04  3  3     5.00     1.35
   4      1.14106820    -0.47258222  -130.32018250    -0.00000578    -0.00094181  0.45D-05  0.97D-05  4  4     6.20     1.35
   5      1.14217850    -0.47261213  -130.32021241    -0.00002991    -0.00024198  0.12D-05  0.17D-05  5  5     7.43     1.36
   6      1.14253773    -0.47259724  -130.32019751     0.00001489    -0.00005142  0.12D-06  0.40D-06  6  6     8.61     1.36
   7      1.14261272    -0.47259757  -130.32019785    -0.00000034     0.00000236  0.18D-07  0.90D-07  6  1     9.82     1.36
   8      1.14263602    -0.47259791  -130.32019819    -0.00000034    -0.00000123  0.35D-08  0.18D-07  6  2    11.02     1.36
   9      1.14264137    -0.47259750  -130.32019778     0.00000041     0.00000098  0.26D-08  0.21D-08  6  4    12.17     1.36
  10      1.14264389    -0.47259788  -130.32019816    -0.00000038    -0.00000076  0.48D-09  0.25D-09  6  3    13.38     1.37
  11      1.14264360    -0.47259795  -130.32019823    -0.00000006    -0.00000011  0.15D-09  0.36D-10  6  5    14.59     1.37
  12      1.14264261    -0.47259809  -130.32019837    -0.00000014     0.00000036  0.19D-10  0.11D-10  6  6    15.85     1.37
  13      1.14264175    -0.47259813  -130.32019841    -0.00000004     0.00000022  0.60D-11  0.24D-11  6  1    17.08     1.37
  14      1.14264107    -0.47259816  -130.32019844    -0.00000003     0.00000016  0.41D-12  0.48D-12  6  4    18.34     1.37
  15      1.14264085    -0.47259817  -130.32019845    -0.00000001     0.00000003  0.91D-13  0.37D-13  6  2    19.56     1.37
  16      1.14264081    -0.47259817  -130.32019845    -0.00000000     0.00000001  0.25D-13  0.71D-14  6  3    20.82     1.38
  17      1.14264078    -0.47259817  -130.32019845    -0.00000000     0.00000001  0.44D-14  0.11D-14  6  5    22.02     1.38
  18      1.14264078    -0.47259817  -130.32019845    -0.00000000     0.00000000  0.87D-15  0.28D-15  6  6    23.27     1.38
  19      1.14264078    -0.47259817  -130.32019845     0.00000000     0.00000000  0.98D-16  0.57D-16  6  1    24.56     1.38
  20      1.14264078    -0.47259817  -130.32019845     0.00000000    -0.00000000  0.10D-16  0.82D-17  6  4    25.80     1.38
  21      1.14264078    -0.47259817  -130.32019845     0.00000000    -0.00000000  0.55D-18  0.70D-18  6  3    26.93     1.38
  22      1.14264078    -0.47259817  -130.32019845     0.00000000    -0.00000000  0.14D-18  0.16D-18  6  2    28.09     1.37
  23      1.14264078    -0.47259817  -130.32019845     0.00000000    -0.00000000  0.10D-19  0.37D-19  6  1    29.26     1.37
  24      1.14264078    -0.47259817  -130.32019845    -0.00000000     0.00000000  0.18D-20  0.72D-20  6  5    30.39     1.37
  25      1.14264078    -0.47259817  -130.32019845     0.00000000     0.00000000  0.14D-20  0.18D-20  6  6    31.58     1.37

 Norm of t1 vector:      0.07713402      S-energy:     0.00000000      T1 diagnostic:  0.01574492
                                                                       D1 diagnostic:  0.04221725

 Doubles amplitudes (print threshold =  0.500E-01):

         I         J         SYM. A    SYM. B    A         B      T(IJ, AB)

         6         6         2         2         1         1     -0.09855745


 Total CPU time for triples:     14.49 sec


 RESULTS
 =======

  Reference energy                   -129.847600278178
  CCSD singlet pair energy             -0.326708396260
  CCSD triplet pair energy             -0.145889777848
  CCSD correlation energy              -0.472598174107

  Triples (T) contribution             -0.022400196512
  Total correlation energy             -0.494998370618

  CCSD total energy                  -130.320198452285
  CCSD[T] energy                     -130.343680146492
  CCSD-T energy                      -130.342210685230
 !CCSD(T) total energy               -130.342598648796

 Timing summary (sec):

 STEP                 CPU(USER)    SYS     CPU(TOT)    WALL
 Transformation          1.44      0.24      1.68      1.68
 CCSD iterations        30.15      4.10     34.25     34.27
 Triples                14.49      0.39     14.88     14.87

 Program statistics:

 Available memory in ccsd:               994999756
 Min. memory needed in ccsd:               1265322
 Max. memory used in ccsd:                 1555950
 Max. memory used in cckext:               2415326 (25 integral passes)



 **********************************************************************************************************************************
 DATASETS  * FILE   NREC   LENGTH (MB)   RECORD NAMES
              1      20     1044.69       500      610      700      900      950      970     1000      129      960     1100   
                                          VAR    BASINP    GEOM    SYMINP    ZMAT    AOBASIS   BASIS     P2S    ABASIS      S 
                                         1400     1410     1200     1210     1080     1600     1650     1300     1700     1380   
                                           T        V       H0       H01     AOSYM     SMH    MOLCAS    ERIS     OPER     JKOP   

              2       4        3.27       700     1000      520     2100   
                                         GEOM     BASIS   MCVARS     RHF  

 PROGRAMS   *        TOTAL   CCSD(T)        HF       INT
 CPU TIMES  *        69.55     46.09     12.70     10.67
 REAL TIME  *        80.60 SEC
 DISK USED  *         3.13 GB      
 **********************************************************************************************************************************

 CCSD(T)/aug-cc-pVQZ energy=   -130.342598648796

        CCSD(T)         HF-SCF  
   -130.34259865   -129.84760028
 **********************************************************************************************************************************
 Molpro calculation terminated
 Variable memory released
