
 Primary working directories    : /tmp/r2666/282030.maple
 Secondary working directories  : /tmp/r2666/282030.maple
 Wavefunction directory         : /ddn/home4/r2666/wfu/
 Main file repository           : /tmp/r2666/282030.maple/

 SHA1      : d5ffa45e93fdbca01ffc919aa182cfdae0147319
 NAME      : 2015.1.35
 ARCHNAME  : linux/x86_64
 FC        : /opt/intel/composer_xe_2015.1.133/bin/intel64/ifort
 BLASLIB   : -Wl,-_start-group /opt/intel/mkl/lib/intel64/libmkl_intel_ilp64.a /opt/intel/mkl/lib/intel64/libmkl_intel_thread.a /opt/intel/mkl/lib/intel64/libmkl_core.a -Wl,-_end-group
 id        : olemiss

 Nodes     nprocs
 cn075        1

 Using customized tuning parameters: mindgm=1; mindgv=20; mindgc=4; mindgr=1; noblas=0; minvec=7
 default implementation of scratch files=df  

 ***,hno CCSD(T)/TZ-F12 QFF
 memory, 995, m;
 gthresh,energy=1.d-12,zero=1.d-22,oneint=1.d-22,twoint=1.d-22;
 gthresh,optgrad=1.d-8,optstep=1.d-8;
 nocompress;
 geomtyp=xyz
 bohr
 geometry={
 3
         56        56
 H        0.0000000000        1.6656066092       -1.9199078229
 N        0.0000000000       -0.1660963258       -1.1470997115
 O        0.0000000000        0.0422575066        1.1164179434
 }
 
 basis=avqz
   {hf,maxit=500;accu,20;}
 {ccsd(t),nocheck,maxit=250;orbital,IGNORE_ERROR;}

 Variables initialized (889), CPU time= 0.01 sec
 Commands  initialized (702), CPU time= 0.01 sec, 572 directives.
 Default parameters read. Elapsed time= 0.05 sec

 Checking input...
 Passed
1


                                         ***  PROGRAM SYSTEM MOLPRO  ***
                                       Copyright, TTI GmbH Stuttgart, 2015
                                    Version 2015.1 linked Jul  9 2018 13:16:40


 **********************************************************************************************************************************
 LABEL *   hno CCSD(T)/TZ-F12 QFF                                                        
  64 bit serial version                                                                  DATE: 04-Mar-20          TIME: 13:42:10  
 **********************************************************************************************************************************

 SHA1:             d5ffa45e93fdbca01ffc919aa182cfdae0147319
 **********************************************************************************************************************************

 THRESHOLDS:

 ZERO    =  1.00D-22  ONEINT  =  1.00D-22  TWOINT  =  1.00D-22  PREFAC  =  1.00D-14  LOCALI  =  1.00D-09  EORDER  =  1.00D-04
 ENERGY  =  1.00D-12  ETEST   =  0.00D+00  EDENS   =  0.00D+00  THRDEDEF=  1.00D-06  GRADIENT=  1.00D-02  STEP    =  1.00D-03
 ORBITAL =  1.00D-05  CIVEC   =  1.00D-05  COEFF   =  1.00D-04  PRINTCI =  5.00D-02  PUNCHCI =  9.90D+01  OPTGRAD =  3.00D-04
 OPTENERG=  1.00D-06  OPTSTEP =  3.00D-04  THRGRAD =  1.00D-10  COMPRESS=  1.00D-11  VARMIN  =  1.00D-07  VARMAX  =  1.00D-03
 THRDOUB =  0.00D+00  THRDIV  =  1.00D-05  THRRED  =  1.00D-07  THRPSP  =  1.00D+00  THRDC   =  1.00D-10  THRCS   =  1.00D-10
 THRNRM  =  1.00D-08  THREQ   =  0.00D+00  THRDE   =  1.00D+00  THRREF  =  1.00D-05  SPARFAC =  1.00D+00  THRDLP  =  1.00D-07
 THRDIA  =  1.00D-10  THRDLS  =  1.00D-07  THRGPS  =  0.00D+00  THRKEX  =  0.00D+00  THRDIS  =  2.00D-01  THRVAR  =  1.00D-10
 THRLOC  =  1.00D-06  THRGAP  =  1.00D-06  THRLOCT = -1.00D+00  THRGAPT = -1.00D+00  THRORB  =  1.00D-06  THRMLTP =  0.00D+00
 THRCPQCI=  1.00D-10  KEXTA   =  0.00D+00  THRCOARS=  0.00D+00  SYMTOL  =  1.00D-06  GRADTOL =  1.00D-06  THROVL  =  1.00D-08
 THRORTH =  1.00D-08  GRID    =  1.00D-06  GRIDMAX =  1.00D-03  DTMAX   =  0.00D+00  THROCCDE=  1.00D-01  THROCCDE=  1.00D-01



 THRESHOLDS:

 ZERO    =  1.00D-22  ONEINT  =  1.00D-22  TWOINT  =  1.00D-22  PREFAC  =  1.00D-14  LOCALI  =  1.00D-09  EORDER  =  1.00D-04
 ENERGY  =  1.00D-12  ETEST   =  0.00D+00  EDENS   =  0.00D+00  THRDEDEF=  1.00D-06  GRADIENT=  1.00D-02  STEP    =  1.00D-03
 ORBITAL =  1.00D-05  CIVEC   =  1.00D-05  COEFF   =  1.00D-04  PRINTCI =  5.00D-02  PUNCHCI =  9.90D+01  OPTGRAD =  1.00D-08
 OPTENERG=  1.00D-06  OPTSTEP =  1.00D-08  THRGRAD =  1.00D-10  COMPRESS=  1.00D-11  VARMIN  =  1.00D-07  VARMAX  =  1.00D-03
 THRDOUB =  0.00D+00  THRDIV  =  1.00D-05  THRRED  =  1.00D-07  THRPSP  =  1.00D+00  THRDC   =  1.00D-10  THRCS   =  1.00D-10
 THRNRM  =  1.00D-08  THREQ   =  0.00D+00  THRDE   =  1.00D+00  THRREF  =  1.00D-05  SPARFAC =  1.00D+00  THRDLP  =  1.00D-07
 THRDIA  =  1.00D-10  THRDLS  =  1.00D-07  THRGPS  =  0.00D+00  THRKEX  =  0.00D+00  THRDIS  =  2.00D-01  THRVAR  =  1.00D-10
 THRLOC  =  1.00D-06  THRGAP  =  1.00D-06  THRLOCT = -1.00D+00  THRGAPT = -1.00D+00  THRORB  =  1.00D-06  THRMLTP =  0.00D+00
 THRCPQCI=  1.00D-10  KEXTA   =  0.00D+00  THRCOARS=  0.00D+00  SYMTOL  =  1.00D-06  GRADTOL =  1.00D-06  THROVL  =  1.00D-08
 THRORTH =  1.00D-08  GRID    =  1.00D-06  GRIDMAX =  1.00D-03  DTMAX   =  0.00D+00  THROCCDE=  1.00D-01  THROCCDE=  1.00D-01



 Input parameters for SORTINT:

 COMPRESS =    0.000000
 C_FINAL  =    1.000000
 DEBUG    =   -1.000000
 C_SORT1  =    0.000000
 C_SEWARD =    0.000000
 THRESH   =    0.000000
 IO       =  molpro                                                          
 SPRI     =    0.000000
 SETTING GEOMTYP        =    XYZ
 ZUNIT=BOHR
 

 Variable memory set to  995000000 words,  buffer space   230000 words

 SETTING BASIS          =    AVQZ


 Recomputing integrals since basis changed


 Using spherical harmonics

 Library entry H      S aug-cc-pVQZ          selected for orbital group  1
 Library entry H      P aug-cc-pVQZ          selected for orbital group  1
 Library entry H      D aug-cc-pVQZ          selected for orbital group  1
 Library entry H      F aug-cc-pVQZ          selected for orbital group  1
 Library entry N      S aug-cc-pVQZ          selected for orbital group  2
 Library entry N      P aug-cc-pVQZ          selected for orbital group  2
 Library entry N      D aug-cc-pVQZ          selected for orbital group  2
 Library entry N      F aug-cc-pVQZ          selected for orbital group  2
 Library entry N      G aug-cc-pVQZ          selected for orbital group  2
 Library entry O      S aug-cc-pVQZ          selected for orbital group  3
 Library entry O      P aug-cc-pVQZ          selected for orbital group  3
 Library entry O      D aug-cc-pVQZ          selected for orbital group  3
 Library entry O      F aug-cc-pVQZ          selected for orbital group  3
 Library entry O      G aug-cc-pVQZ          selected for orbital group  3


 PROGRAM * SEWARD (Integral evaluation for generally contracted gaussian basis sets)     Author: Roland Lindh, 1990

 Geometry written to block  1 of record 700


 Point group  Cs  



 ATOMIC COORDINATES

 NR  ATOM    CHARGE       X              Y              Z

   1  H       1.00    0.000000000    1.665606609   -1.919907823
   2  N       7.00    0.000000000   -0.166096326   -1.147099711
   3  O       8.00    0.000000000    0.042257507    1.116417943

 Bond lengths in Bohr (Angstrom)

 1-2  1.988056342  2-3  2.273086777
     ( 1.052034110)     ( 1.202865721)

 Bond angles

  1-2-3  107.61603569

 NUCLEAR CHARGE:                   16
 NUMBER OF PRIMITIVE AOS:         293
 NUMBER OF SYMMETRY AOS:          234
 NUMBER OF CONTRACTIONS:          206   ( 130A'  +  76A"  )
 NUMBER OF CORE ORBITALS:           2   (   2A'  +   0A"  )
 NUMBER OF VALENCE ORBITALS:        9   (   7A'  +   2A"  )


 NUCLEAR REPULSION ENERGY   30.48065686

 Eigenvalues of metric

         1 0.590E-04 0.145E-03 0.316E-03 0.435E-03 0.582E-03 0.681E-03 0.100E-02 0.107E-02
         2 0.810E-03 0.163E-02 0.490E-02 0.891E-02 0.101E-01 0.122E-01 0.124E-01 0.185E-01


 Contracted 2-electron integrals neglected if value below      1.0D-22

      109945078. INTEGRALS WRITTEN OUT IN   26849 BLOCKS ON RECORD 1290 OF FILE 1


 NUMBER OF SORTED TWO-ELECTRON INTEGRALS:  115283741.     BUFFER LENGTH:  32768
 NUMBER OF SEGMENTS:   8  SEGMENT LENGTH:   15998004      RECORD LENGTH: 524288

 Memory used in sort:      16.56 MW

 SORT1 READ   109945078. AND WROTE   110865245. INTEGRALS IN    322 RECORDS. CPU TIME:     1.88 SEC, REAL TIME:     2.73 SEC
 SORT2 READ   110865245. AND WROTE   115283741. INTEGRALS IN      8 RECORDS. CPU TIME:     1.29 SEC, REAL TIME:     1.85 SEC

 FILE SIZES:   FILE 1:  1780.6 MBYTE,  FILE 4:  1350.6 MBYTE,   TOTAL:   3131.2 MBYTE

 OPERATOR DM      FOR CENTER  0  COORDINATES:    0.000000    0.000000    0.000000


 **********************************************************************************************************************************
 DATASETS  * FILE   NREC   LENGTH (MB)   RECORD NAMES
              1      19      944.14       500      610      700      900      950      970     1000      129      960     1100   
                                          VAR    BASINP    GEOM    SYMINP    ZMAT    AOBASIS   BASIS     P2S    ABASIS      S 
                                         1400     1410     1200     1210     1080     1600     1650     1300     1700   
                                           T        V       H0       H01     AOSYM     SMH    MOLCAS    ERIS     OPER   

 PROGRAMS   *        TOTAL       INT
 CPU TIMES  *        10.91     10.81
 REAL TIME  *        14.13 SEC
 DISK USED  *         3.13 GB      
 **********************************************************************************************************************************


 PROGRAM * RHF-SCF (CLOSED SHELL)       Authors: W. Meyer, H.-J. Werner


 NUMBER OF ELECTRONS:       8+    8-
 CONVERGENCE THRESHOLDS:    1.00E-10 (Density)    1.00E-13 (Energy)
 MAX. NUMBER OF ITERATIONS:      500
 INTERPOLATION TYPE:            DIIS
 INTERPOLATION STEPS:              2 (START)      1 (STEP)
 LEVEL SHIFTS:                  0.00 (CLOSED)  0.00 (OPEN) 



 Orbital guess generated from atomic densities. Full valence occupancy:    9   2

 Molecular orbital dump at record        2100.2

 Initial occupancy:   7   1

 ITERATION    DDIFF          GRAD             ENERGY        2-EL.EN.            DIPOLE MOMENTS         DIIS   ORB.
    1      0.000D+00      0.000D+00      -129.79800733    154.164160    0.00000    0.58723   -1.00870    0    start
    2      0.000D+00      0.807D-02      -129.82545002    155.403849    0.00000    0.60753   -0.20774    1    diag
    3      0.647D-02      0.609D-02      -129.84756490    155.515914    0.00000    0.55198   -0.58386    2    diag
    4      0.329D-02      0.964D-03      -129.84835604    155.234860    0.00000    0.55979   -0.52355    3    diag
    5      0.601D-03      0.314D-03      -129.84848063    155.327824    0.00000    0.56505   -0.52617    4    diag
    6      0.250D-03      0.909D-04      -129.84850050    155.311712    0.00000    0.56535   -0.52208    5    diag
    7      0.956D-04      0.450D-04      -129.84850622    155.314524    0.00000    0.56660   -0.51953    6    diag
    8      0.658D-04      0.155D-04      -129.84850684    155.313842    0.00000    0.56664   -0.51854    7    diag
    9      0.247D-04      0.295D-05      -129.84850687    155.313731    0.00000    0.56660   -0.51833    8    diag
   10      0.486D-05      0.675D-06      -129.84850687    155.313713    0.00000    0.56657   -0.51830    9    orth
   11      0.971D-06      0.136D-06      -129.84850687    155.313710    0.00000    0.56656   -0.51830    9    diag
   12      0.181D-06      0.276D-07      -129.84850687    155.313710    0.00000    0.56656   -0.51829    9    diag
   13      0.395D-07      0.708D-08      -129.84850687    155.313709    0.00000    0.56656   -0.51829    9    diag
   14      0.106D-07      0.140D-08      -129.84850687    155.313709    0.00000    0.56656   -0.51829    9    diag
   15      0.195D-08      0.407D-09      -129.84850687    155.313709    0.00000    0.56656   -0.51829    9    diag
   16      0.583D-09      0.124D-09      -129.84850687    155.313709    0.00000    0.56656   -0.51829    9    diag
   17      0.115D-09      0.339D-10      -129.84850687    155.313709    0.00000    0.56656   -0.51829    9    diag
   18      0.323D-10      0.115D-10      -129.84850687    155.313709    0.00000    0.56656   -0.51829    9    diag
   19      0.166D-10      0.282D-11      -129.84850687    155.313709    0.00000    0.56656   -0.51829    9    fixocc
   20      0.690D-11      0.488D-12      -129.84850687    155.313709    0.00000    0.56656   -0.51829    9    orth
   21      0.326D-11      0.210D-12      -129.84850687    155.313709    0.00000    0.56656   -0.51829    9    diag
   22      0.270D-11      0.184D-12      -129.84850687    155.313709    0.00000    0.56656   -0.51829    9    diag
   23      0.183D-11      0.152D-12      -129.84850687    155.313709    0.00000    0.56656   -0.51829    0    orth

 Final occupancy:   7   1

 !RHF STATE 1.1 Energy               -129.848506869611
 Nuclear energy                        30.48065686
 One-electron energy                 -237.98601845
 Two-electron energy                   77.65685472
 Virial quotient                       -1.00157507
 !RHF STATE 1.1 Dipole moment           0.00000000     0.56656018    -0.51829434
 Dipole moment /Debye                   0.00000000     1.43995801    -1.31728652

 Orbital energies:

         1.1          2.1          3.1          4.1          5.1          6.1          7.1          8.1          9.1
    -20.653039   -15.711870    -1.534082    -0.992975    -0.748813    -0.667450    -0.429339     0.026470     0.079507

         1.2          2.2          3.2
     -0.598586     0.064665     0.110726

 HOMO      7.1    -0.429339 =     -11.6829eV
 LUMO      8.1     0.026470 =       0.7203eV
 LUMO-HOMO         0.455809 =      12.4032eV


 **********************************************************************************************************************************
 DATASETS  * FILE   NREC   LENGTH (MB)   RECORD NAMES
              1      19      944.14       500      610      700      900      950      970     1000      129      960     1100   
                                          VAR    BASINP    GEOM    SYMINP    ZMAT    AOBASIS   BASIS     P2S    ABASIS      S 
                                         1400     1410     1200     1210     1080     1600     1650     1300     1700   
                                           T        V       H0       H01     AOSYM     SMH    MOLCAS    ERIS     OPER   

              2       4        3.27       700     1000      520     2100   
                                         GEOM     BASIS   MCVARS     RHF  

 PROGRAMS   *        TOTAL        HF       INT
 CPU TIMES  *        22.45     11.54     10.81
 REAL TIME  *        28.32 SEC
 DISK USED  *         3.13 GB      
 **********************************************************************************************************************************


 PROGRAM * CCSD (Closed-shell coupled cluster)     Authors: C. Hampel, H.-J. Werner, 1991, M. Deegan, P.J. Knowles, 1992


 Convergence thresholds:  THRVAR = 1.00D-08  THRDEN = 1.00D-12

 CCSD(T)     terms to be evaluated (factor= 1.000)


 Number of core orbitals:           2 (   2   0 )
 Number of closed-shell orbitals:   6 (   5   1 )
 Number of external orbitals:     198 ( 123  75 )

 Molecular orbitals read from record     2100.2  Type=RHF/CANONICAL (state 1.1)

 Number of N-1 electron functions:               6
 Number of N-2 electron functions:              21
 Number of singly external CSFs:               690
 Number of doubly external CSFs:            362646
 Total number of CSFs:                      363337

 Length of J-op  integral file:               0.00 MB
 Length of K-op  integral file:               1.60 MB
 Length of 3-ext integral record:             0.00 MB

 Memory could be reduced to 34.67 Mwords without degradation in triples

 Integral transformation finished. Total CPU:   1.46 sec, npass=  1  Memory used:   9.53 MW

 Reference energy:                   -129.84850687

 MP2 singlet pair energy:              -0.30109639
 MP2 triplet pair energy:              -0.17008708
 MP2 correlation energy:               -0.47118347
 MP2 total energy:                   -130.31969034

 SCS-MP2 correlation energy:           -0.46714763   (PS=  1.200000  PT=  0.333333)
 SCS-MP2 total energy:               -130.31565450

 ITER.      SQ.NORM     CORR.ENERGY   TOTAL ENERGY   ENERGY CHANGE        DEN1      VAR(S)    VAR(P)  DIIS     TIME  TIME/IT
   1      1.12046962    -0.47141777  -130.31992464    -0.00023430     0.01595077  0.31D-02  0.31D-02  1  1     2.74     1.43
   2      1.13103742    -0.47142055  -130.31992742    -0.00000279    -0.01236656  0.10D-03  0.48D-03  2  2     3.96     1.47
   3      1.13723622    -0.47178954  -130.32029641    -0.00036898    -0.00301523  0.47D-04  0.52D-04  3  3     5.19     1.46
   4      1.13992673    -0.47179652  -130.32030339    -0.00000698    -0.00091958  0.41D-05  0.93D-05  4  4     6.36     1.45
   5      1.14098056    -0.47182494  -130.32033181    -0.00002843    -0.00023062  0.11D-05  0.16D-05  5  5     7.52     1.45
   6      1.14132293    -0.47181076  -130.32031763     0.00001418    -0.00004920  0.11D-06  0.39D-06  6  6     8.71     1.44
   7      1.14139452    -0.47181117  -130.32031804    -0.00000041     0.00000233  0.17D-07  0.86D-07  6  1     9.86     1.44
   8      1.14141673    -0.47181153  -130.32031840    -0.00000036    -0.00000106  0.34D-08  0.17D-07  6  2    11.03     1.43
   9      1.14142166    -0.47181116  -130.32031803     0.00000037     0.00000089  0.24D-08  0.19D-08  6  4    12.31     1.44
  10      1.14142401    -0.47181152  -130.32031839    -0.00000037    -0.00000071  0.44D-09  0.22D-09  6  3    13.52     1.44
  11      1.14142372    -0.47181158  -130.32031845    -0.00000006    -0.00000010  0.14D-09  0.32D-10  6  5    14.70     1.44
  12      1.14142279    -0.47181172  -130.32031859    -0.00000013     0.00000034  0.17D-10  0.98D-11  6  6    15.93     1.44
  13      1.14142199    -0.47181176  -130.32031863    -0.00000004     0.00000021  0.54D-11  0.21D-11  6  1    17.16     1.44
  14      1.14142136    -0.47181179  -130.32031866    -0.00000003     0.00000014  0.37D-12  0.43D-12  6  4    18.40     1.44
  15      1.14142117    -0.47181179  -130.32031866    -0.00000001     0.00000003  0.81D-13  0.33D-13  6  2    19.59     1.44
  16      1.14142112    -0.47181179  -130.32031866    -0.00000000     0.00000001  0.23D-13  0.63D-14  6  3    20.80     1.44
  17      1.14142110    -0.47181180  -130.32031867    -0.00000000     0.00000001  0.40D-14  0.98D-15  6  5    21.99     1.43
  18      1.14142110    -0.47181180  -130.32031867     0.00000000     0.00000000  0.78D-15  0.25D-15  6  6    23.26     1.44
  19      1.14142110    -0.47181180  -130.32031867     0.00000000     0.00000000  0.85D-16  0.50D-16  6  1    24.47     1.44
  20      1.14142110    -0.47181180  -130.32031867     0.00000000    -0.00000000  0.86D-17  0.71D-17  6  4    25.71     1.44
  21      1.14142110    -0.47181180  -130.32031867     0.00000000    -0.00000000  0.47D-18  0.59D-18  6  3    26.90     1.44
  22      1.14142110    -0.47181180  -130.32031867     0.00000000    -0.00000000  0.12D-18  0.13D-18  6  2    28.09     1.44
  23      1.14142110    -0.47181180  -130.32031867     0.00000000    -0.00000000  0.93D-20  0.28D-19  6  1    29.29     1.44
  24      1.14142110    -0.47181180  -130.32031867    -0.00000000     0.00000000  0.13D-20  0.55D-20  6  5    30.50     1.44
  25      1.14142110    -0.47181180  -130.32031867     0.00000000     0.00000000  0.92D-21  0.13D-20  6  6    31.72     1.44

 Norm of t1 vector:      0.07579307      S-energy:     0.00000000      T1 diagnostic:  0.01547120
                                                                       D1 diagnostic:  0.04145106

 Doubles amplitudes (print threshold =  0.500E-01):

         I         J         SYM. A    SYM. B    A         B      T(IJ, AB)

         6         6         2         2         1         1     -0.09579279


 Total CPU time for triples:     15.42 sec


 RESULTS
 =======

  Reference energy                   -129.848506869611
  CCSD singlet pair energy             -0.326027732167
  CCSD triplet pair energy             -0.145784063270
  CCSD correlation energy              -0.471811795436

  Triples (T) contribution             -0.022194946732
  Total correlation energy             -0.494006742168

  CCSD total energy                  -130.320318665047
  CCSD[T] energy                     -130.343562246464
  CCSD-T energy                      -130.342134248119
 !CCSD(T) total energy               -130.342513611779

 Timing summary (sec):

 STEP                 CPU(USER)    SYS     CPU(TOT)    WALL
 Transformation          1.47      0.28      1.75      1.75
 CCSD iterations        30.25      5.70     35.95     35.97
 Triples                15.42      0.49     15.91     15.90

 Program statistics:

 Available memory in ccsd:               994999756
 Min. memory needed in ccsd:               1265322
 Max. memory used in ccsd:                 1555950
 Max. memory used in cckext:               2415326 (25 integral passes)



 **********************************************************************************************************************************
 DATASETS  * FILE   NREC   LENGTH (MB)   RECORD NAMES
              1      20     1044.69       500      610      700      900      950      970     1000      129      960     1100   
                                          VAR    BASINP    GEOM    SYMINP    ZMAT    AOBASIS   BASIS     P2S    ABASIS      S 
                                         1400     1410     1200     1210     1080     1600     1650     1300     1700     1380   
                                           T        V       H0       H01     AOSYM     SMH    MOLCAS    ERIS     OPER     JKOP   

              2       4        3.27       700     1000      520     2100   
                                         GEOM     BASIS   MCVARS     RHF  

 PROGRAMS   *        TOTAL   CCSD(T)        HF       INT
 CPU TIMES  *        69.61     47.15     11.54     10.81
 REAL TIME  *        81.97 SEC
 DISK USED  *         3.13 GB      
 **********************************************************************************************************************************

 CCSD(T)/aug-cc-pVQZ energy=   -130.342513611779

        CCSD(T)         HF-SCF  
   -130.34251361   -129.84850687
 **********************************************************************************************************************************
 Molpro calculation terminated
 Variable memory released
