
 Primary working directories    : /tmp/r2666/282002.maple
 Secondary working directories  : /tmp/r2666/282002.maple
 Wavefunction directory         : /ddn/home4/r2666/wfu/
 Main file repository           : /tmp/r2666/282002.maple/

 SHA1      : d5ffa45e93fdbca01ffc919aa182cfdae0147319
 NAME      : 2015.1.35
 ARCHNAME  : linux/x86_64
 FC        : /opt/intel/composer_xe_2015.1.133/bin/intel64/ifort
 BLASLIB   : -Wl,-_start-group /opt/intel/mkl/lib/intel64/libmkl_intel_ilp64.a /opt/intel/mkl/lib/intel64/libmkl_intel_thread.a /opt/intel/mkl/lib/intel64/libmkl_core.a -Wl,-_end-group
 id        : olemiss

 Nodes     nprocs
 cn094        1

 Using customized tuning parameters: mindgm=1; mindgv=20; mindgc=4; mindgr=1; noblas=0; minvec=7
 default implementation of scratch files=df  

 ***,hno CCSD(T)/TZ-F12 QFF
 memory, 995, m;
 gthresh,energy=1.d-12,zero=1.d-22,oneint=1.d-22,twoint=1.d-22;
 gthresh,optgrad=1.d-8,optstep=1.d-8;
 nocompress;
 geomtyp=xyz
 bohr
 geometry={
 3
         28        28
 H        0.0000000000        1.6616980474       -1.9269566477
 N        0.0000000000       -0.1555496643       -1.1443333457
 O        0.0000000000        0.0356194070        1.1207004024
 }
 
 basis=avqz
   {hf,maxit=500;accu,20;}
 {ccsd(t),nocheck,maxit=250;orbital,IGNORE_ERROR;}

 Variables initialized (889), CPU time= 0.01 sec
 Commands  initialized (702), CPU time= 0.01 sec, 572 directives.
 Default parameters read. Elapsed time= 0.05 sec

 Checking input...
 Passed
1


                                         ***  PROGRAM SYSTEM MOLPRO  ***
                                       Copyright, TTI GmbH Stuttgart, 2015
                                    Version 2015.1 linked Jul  9 2018 13:16:40


 **********************************************************************************************************************************
 LABEL *   hno CCSD(T)/TZ-F12 QFF                                                        
  64 bit serial version                                                                  DATE: 04-Mar-20          TIME: 13:40:11  
 **********************************************************************************************************************************

 SHA1:             d5ffa45e93fdbca01ffc919aa182cfdae0147319
 **********************************************************************************************************************************

 THRESHOLDS:

 ZERO    =  1.00D-22  ONEINT  =  1.00D-22  TWOINT  =  1.00D-22  PREFAC  =  1.00D-14  LOCALI  =  1.00D-09  EORDER  =  1.00D-04
 ENERGY  =  1.00D-12  ETEST   =  0.00D+00  EDENS   =  0.00D+00  THRDEDEF=  1.00D-06  GRADIENT=  1.00D-02  STEP    =  1.00D-03
 ORBITAL =  1.00D-05  CIVEC   =  1.00D-05  COEFF   =  1.00D-04  PRINTCI =  5.00D-02  PUNCHCI =  9.90D+01  OPTGRAD =  3.00D-04
 OPTENERG=  1.00D-06  OPTSTEP =  3.00D-04  THRGRAD =  1.00D-10  COMPRESS=  1.00D-11  VARMIN  =  1.00D-07  VARMAX  =  1.00D-03
 THRDOUB =  0.00D+00  THRDIV  =  1.00D-05  THRRED  =  1.00D-07  THRPSP  =  1.00D+00  THRDC   =  1.00D-10  THRCS   =  1.00D-10
 THRNRM  =  1.00D-08  THREQ   =  0.00D+00  THRDE   =  1.00D+00  THRREF  =  1.00D-05  SPARFAC =  1.00D+00  THRDLP  =  1.00D-07
 THRDIA  =  1.00D-10  THRDLS  =  1.00D-07  THRGPS  =  0.00D+00  THRKEX  =  0.00D+00  THRDIS  =  2.00D-01  THRVAR  =  1.00D-10
 THRLOC  =  1.00D-06  THRGAP  =  1.00D-06  THRLOCT = -1.00D+00  THRGAPT = -1.00D+00  THRORB  =  1.00D-06  THRMLTP =  0.00D+00
 THRCPQCI=  1.00D-10  KEXTA   =  0.00D+00  THRCOARS=  0.00D+00  SYMTOL  =  1.00D-06  GRADTOL =  1.00D-06  THROVL  =  1.00D-08
 THRORTH =  1.00D-08  GRID    =  1.00D-06  GRIDMAX =  1.00D-03  DTMAX   =  0.00D+00  THROCCDE=  1.00D-01  THROCCDE=  1.00D-01



 THRESHOLDS:

 ZERO    =  1.00D-22  ONEINT  =  1.00D-22  TWOINT  =  1.00D-22  PREFAC  =  1.00D-14  LOCALI  =  1.00D-09  EORDER  =  1.00D-04
 ENERGY  =  1.00D-12  ETEST   =  0.00D+00  EDENS   =  0.00D+00  THRDEDEF=  1.00D-06  GRADIENT=  1.00D-02  STEP    =  1.00D-03
 ORBITAL =  1.00D-05  CIVEC   =  1.00D-05  COEFF   =  1.00D-04  PRINTCI =  5.00D-02  PUNCHCI =  9.90D+01  OPTGRAD =  1.00D-08
 OPTENERG=  1.00D-06  OPTSTEP =  1.00D-08  THRGRAD =  1.00D-10  COMPRESS=  1.00D-11  VARMIN  =  1.00D-07  VARMAX  =  1.00D-03
 THRDOUB =  0.00D+00  THRDIV  =  1.00D-05  THRRED  =  1.00D-07  THRPSP  =  1.00D+00  THRDC   =  1.00D-10  THRCS   =  1.00D-10
 THRNRM  =  1.00D-08  THREQ   =  0.00D+00  THRDE   =  1.00D+00  THRREF  =  1.00D-05  SPARFAC =  1.00D+00  THRDLP  =  1.00D-07
 THRDIA  =  1.00D-10  THRDLS  =  1.00D-07  THRGPS  =  0.00D+00  THRKEX  =  0.00D+00  THRDIS  =  2.00D-01  THRVAR  =  1.00D-10
 THRLOC  =  1.00D-06  THRGAP  =  1.00D-06  THRLOCT = -1.00D+00  THRGAPT = -1.00D+00  THRORB  =  1.00D-06  THRMLTP =  0.00D+00
 THRCPQCI=  1.00D-10  KEXTA   =  0.00D+00  THRCOARS=  0.00D+00  SYMTOL  =  1.00D-06  GRADTOL =  1.00D-06  THROVL  =  1.00D-08
 THRORTH =  1.00D-08  GRID    =  1.00D-06  GRIDMAX =  1.00D-03  DTMAX   =  0.00D+00  THROCCDE=  1.00D-01  THROCCDE=  1.00D-01



 Input parameters for SORTINT:

 COMPRESS =    0.000000
 C_FINAL  =    1.000000
 DEBUG    =   -1.000000
 C_SORT1  =    0.000000
 C_SEWARD =    0.000000
 THRESH   =    0.000000
 IO       =  molpro                                                          
 SPRI     =    0.000000
 SETTING GEOMTYP        =    XYZ
 ZUNIT=BOHR
 

 Variable memory set to  995000000 words,  buffer space   230000 words

 SETTING BASIS          =    AVQZ


 Recomputing integrals since basis changed


 Using spherical harmonics

 Library entry H      S aug-cc-pVQZ          selected for orbital group  1
 Library entry H      P aug-cc-pVQZ          selected for orbital group  1
 Library entry H      D aug-cc-pVQZ          selected for orbital group  1
 Library entry H      F aug-cc-pVQZ          selected for orbital group  1
 Library entry N      S aug-cc-pVQZ          selected for orbital group  2
 Library entry N      P aug-cc-pVQZ          selected for orbital group  2
 Library entry N      D aug-cc-pVQZ          selected for orbital group  2
 Library entry N      F aug-cc-pVQZ          selected for orbital group  2
 Library entry N      G aug-cc-pVQZ          selected for orbital group  2
 Library entry O      S aug-cc-pVQZ          selected for orbital group  3
 Library entry O      P aug-cc-pVQZ          selected for orbital group  3
 Library entry O      D aug-cc-pVQZ          selected for orbital group  3
 Library entry O      F aug-cc-pVQZ          selected for orbital group  3
 Library entry O      G aug-cc-pVQZ          selected for orbital group  3


 PROGRAM * SEWARD (Integral evaluation for generally contracted gaussian basis sets)     Author: Roland Lindh, 1990

 Geometry written to block  1 of record 700


 Point group  Cs  



 ATOMIC COORDINATES

 NR  ATOM    CHARGE       X              Y              Z

   1  H       1.00    0.000000000    1.661698047   -1.926956648
   2  N       7.00    0.000000000   -0.155549664   -1.144333346
   3  O       8.00    0.000000000    0.035619407    1.120700402

 Bond lengths in Bohr (Angstrom)

 1-2  1.978607712  2-3  2.273086777
     ( 1.047034111)     ( 1.202865721)

 Bond angles

  1-2-3  108.47547239

 NUCLEAR CHARGE:                   16
 NUMBER OF PRIMITIVE AOS:         293
 NUMBER OF SYMMETRY AOS:          234
 NUMBER OF CONTRACTIONS:          206   ( 130A'  +  76A"  )
 NUMBER OF CORE ORBITALS:           2   (   2A'  +   0A"  )
 NUMBER OF VALENCE ORBITALS:        9   (   7A'  +   2A"  )


 NUCLEAR REPULSION ENERGY   30.48988310

 Eigenvalues of metric

         1 0.585E-04 0.143E-03 0.315E-03 0.434E-03 0.577E-03 0.671E-03 0.994E-03 0.107E-02
         2 0.808E-03 0.160E-02 0.485E-02 0.890E-02 0.100E-01 0.121E-01 0.124E-01 0.183E-01


 Contracted 2-electron integrals neglected if value below      1.0D-22

      109945088. INTEGRALS WRITTEN OUT IN   26849 BLOCKS ON RECORD 1290 OF FILE 1


 NUMBER OF SORTED TWO-ELECTRON INTEGRALS:  115283741.     BUFFER LENGTH:  32768
 NUMBER OF SEGMENTS:   8  SEGMENT LENGTH:   15998004      RECORD LENGTH: 524288

 Memory used in sort:      16.56 MW

 SORT1 READ   109945088. AND WROTE   110865255. INTEGRALS IN    322 RECORDS. CPU TIME:     1.75 SEC, REAL TIME:     2.48 SEC
 SORT2 READ   110865255. AND WROTE   115283741. INTEGRALS IN      8 RECORDS. CPU TIME:     1.25 SEC, REAL TIME:     1.76 SEC

 FILE SIZES:   FILE 1:  1780.6 MBYTE,  FILE 4:  1350.6 MBYTE,   TOTAL:   3131.2 MBYTE

 OPERATOR DM      FOR CENTER  0  COORDINATES:    0.000000    0.000000    0.000000


 **********************************************************************************************************************************
 DATASETS  * FILE   NREC   LENGTH (MB)   RECORD NAMES
              1      19      944.14       500      610      700      900      950      970     1000      129      960     1100   
                                          VAR    BASINP    GEOM    SYMINP    ZMAT    AOBASIS   BASIS     P2S    ABASIS      S 
                                         1400     1410     1200     1210     1080     1600     1650     1300     1700   
                                           T        V       H0       H01     AOSYM     SMH    MOLCAS    ERIS     OPER   

 PROGRAMS   *        TOTAL       INT
 CPU TIMES  *        10.44     10.34
 REAL TIME  *        13.08 SEC
 DISK USED  *         3.13 GB      
 **********************************************************************************************************************************


 PROGRAM * RHF-SCF (CLOSED SHELL)       Authors: W. Meyer, H.-J. Werner


 NUMBER OF ELECTRONS:       8+    8-
 CONVERGENCE THRESHOLDS:    1.00E-10 (Density)    1.00E-13 (Energy)
 MAX. NUMBER OF ITERATIONS:      500
 INTERPOLATION TYPE:            DIIS
 INTERPOLATION STEPS:              2 (START)      1 (STEP)
 LEVEL SHIFTS:                  0.00 (CLOSED)  0.00 (OPEN) 



 Orbital guess generated from atomic densities. Full valence occupancy:    9   2

 Molecular orbital dump at record        2100.2

 Initial occupancy:   7   1

 ITERATION    DDIFF          GRAD             ENERGY        2-EL.EN.            DIPOLE MOMENTS         DIIS   ORB.
    1      0.000D+00      0.000D+00      -129.79850209    154.180425    0.00000    0.59780   -1.01000    0    start
    2      0.000D+00      0.805D-02      -129.82592974    155.418327    0.00000    0.60745   -0.21338    1    diag
    3      0.645D-02      0.605D-02      -129.84775090    155.530835    0.00000    0.55701   -0.58781    2    diag
    4      0.327D-02      0.967D-03      -129.84854331    155.250071    0.00000    0.56442   -0.52726    3    diag
    5      0.602D-03      0.313D-03      -129.84866672    155.342892    0.00000    0.56970   -0.52993    4    diag
    6      0.249D-03      0.902D-04      -129.84868629    155.326864    0.00000    0.57002   -0.52586    5    diag
    7      0.949D-04      0.447D-04      -129.84869193    155.329645    0.00000    0.57125   -0.52332    6    diag
    8      0.653D-04      0.154D-04      -129.84869254    155.328974    0.00000    0.57129   -0.52234    7    diag
    9      0.246D-04      0.293D-05      -129.84869257    155.328864    0.00000    0.57126   -0.52213    8    diag
   10      0.483D-05      0.675D-06      -129.84869257    155.328846    0.00000    0.57122   -0.52210    9    orth
   11      0.974D-06      0.136D-06      -129.84869257    155.328843    0.00000    0.57122   -0.52210    9    diag
   12      0.181D-06      0.273D-07      -129.84869257    155.328843    0.00000    0.57122   -0.52209    9    diag
   13      0.388D-07      0.698D-08      -129.84869257    155.328842    0.00000    0.57122   -0.52209    9    diag
   14      0.104D-07      0.138D-08      -129.84869257    155.328842    0.00000    0.57122   -0.52209    9    diag
   15      0.192D-08      0.398D-09      -129.84869257    155.328842    0.00000    0.57122   -0.52209    9    diag
   16      0.572D-09      0.122D-09      -129.84869257    155.328842    0.00000    0.57122   -0.52209    9    diag
   17      0.111D-09      0.323D-10      -129.84869257    155.328842    0.00000    0.57122   -0.52209    9    diag
   18      0.305D-10      0.109D-10      -129.84869257    155.328842    0.00000    0.57122   -0.52209    9    diag
   19      0.148D-10      0.269D-11      -129.84869257    155.328842    0.00000    0.57122   -0.52209    9    fixocc
   20      0.446D-11      0.475D-12      -129.84869257    155.328842    0.00000    0.57122   -0.52209    9    orth
   21      0.311D-11      0.190D-12      -129.84869257    155.328842    0.00000    0.57122   -0.52209    0    orth

 Final occupancy:   7   1

 !RHF STATE 1.1 Energy               -129.848692567745
 Nuclear energy                        30.48988310
 One-electron energy                 -238.00299687
 Two-electron energy                   77.66442121
 Virial quotient                       -1.00154042
 !RHF STATE 1.1 Dipole moment           0.00000000     0.57121520    -0.52209403
 Dipole moment /Debye                   0.00000000     1.45178912    -1.32694375

 Orbital energies:

         1.1          2.1          3.1          4.1          5.1          6.1          7.1          8.1          9.1
    -20.653161   -15.711036    -1.533697    -0.994785    -0.749304    -0.667631    -0.429063     0.026404     0.079488

         1.2          2.2          3.2
     -0.598399     0.064526     0.110580

 HOMO      7.1    -0.429063 =     -11.6754eV
 LUMO      8.1     0.026404 =       0.7185eV
 LUMO-HOMO         0.455468 =      12.3939eV


 **********************************************************************************************************************************
 DATASETS  * FILE   NREC   LENGTH (MB)   RECORD NAMES
              1      19      944.14       500      610      700      900      950      970     1000      129      960     1100   
                                          VAR    BASINP    GEOM    SYMINP    ZMAT    AOBASIS   BASIS     P2S    ABASIS      S 
                                         1400     1410     1200     1210     1080     1600     1650     1300     1700   
                                           T        V       H0       H01     AOSYM     SMH    MOLCAS    ERIS     OPER   

              2       4        3.27       700     1000      520     2100   
                                         GEOM     BASIS   MCVARS     RHF  

 PROGRAMS   *        TOTAL        HF       INT
 CPU TIMES  *        20.41      9.97     10.34
 REAL TIME  *        25.43 SEC
 DISK USED  *         3.13 GB      
 **********************************************************************************************************************************


 PROGRAM * CCSD (Closed-shell coupled cluster)     Authors: C. Hampel, H.-J. Werner, 1991, M. Deegan, P.J. Knowles, 1992


 Convergence thresholds:  THRVAR = 1.00D-08  THRDEN = 1.00D-12

 CCSD(T)     terms to be evaluated (factor= 1.000)


 Number of core orbitals:           2 (   2   0 )
 Number of closed-shell orbitals:   6 (   5   1 )
 Number of external orbitals:     198 ( 123  75 )

 Molecular orbitals read from record     2100.2  Type=RHF/CANONICAL (state 1.1)

 Number of N-1 electron functions:               6
 Number of N-2 electron functions:              21
 Number of singly external CSFs:               690
 Number of doubly external CSFs:            362646
 Total number of CSFs:                      363337

 Length of J-op  integral file:               0.00 MB
 Length of K-op  integral file:               1.60 MB
 Length of 3-ext integral record:             0.00 MB

 Memory could be reduced to 34.67 Mwords without degradation in triples

 Integral transformation finished. Total CPU:   1.36 sec, npass=  1  Memory used:   9.53 MW

 Reference energy:                   -129.84869257

 MP2 singlet pair energy:              -0.30098494
 MP2 triplet pair energy:              -0.17002085
 MP2 correlation energy:               -0.47100580
 MP2 total energy:                   -130.31969836

 SCS-MP2 correlation energy:           -0.46697269   (PS=  1.200000  PT=  0.333333)
 SCS-MP2 total energy:               -130.31566525

 ITER.      SQ.NORM     CORR.ENERGY   TOTAL ENERGY   ENERGY CHANGE        DEN1      VAR(S)    VAR(P)  DIIS     TIME  TIME/IT
   1      1.12032582    -0.47125204  -130.31994460    -0.00024624     0.01591274  0.31D-02  0.31D-02  1  1     2.53     1.26
   2      1.13087580    -0.47125453  -130.31994710    -0.00000250    -0.01234840  0.10D-03  0.48D-03  2  2     3.71     1.29
   3      1.13706210    -0.47162244  -130.32031501    -0.00036790    -0.00300651  0.47D-04  0.52D-04  3  3     4.87     1.30
   4      1.13975424    -0.47162963  -130.32032220    -0.00000720    -0.00091856  0.41D-05  0.94D-05  4  4     6.05     1.30
   5      1.14081218    -0.47165793  -130.32035050    -0.00002830    -0.00023106  0.11D-05  0.16D-05  5  5     7.19     1.30
   6      1.14115722    -0.47164375  -130.32033631     0.00001419    -0.00004943  0.10D-06  0.40D-06  6  6     8.36     1.31
   7      1.14122972    -0.47164423  -130.32033680    -0.00000048     0.00000233  0.16D-07  0.89D-07  6  1     9.52     1.31
   8      1.14125207    -0.47164463  -130.32033720    -0.00000041    -0.00000105  0.35D-08  0.17D-07  6  2    10.69     1.31
   9      1.14125701    -0.47164427  -130.32033684     0.00000037     0.00000090  0.25D-08  0.19D-08  6  4    11.83     1.31
  10      1.14125937    -0.47164464  -130.32033721    -0.00000037    -0.00000072  0.45D-09  0.23D-09  6  3    12.97     1.31
  11      1.14125907    -0.47164470  -130.32033727    -0.00000006    -0.00000010  0.14D-09  0.33D-10  6  5    14.15     1.31
  12      1.14125813    -0.47164484  -130.32033740    -0.00000013     0.00000035  0.18D-10  0.10D-10  6  6    15.29     1.31
  13      1.14125731    -0.47164488  -130.32033744    -0.00000004     0.00000021  0.55D-11  0.22D-11  6  1    16.49     1.31
  14      1.14125668    -0.47164491  -130.32033747    -0.00000003     0.00000015  0.38D-12  0.44D-12  6  4    17.68     1.31
  15      1.14125648    -0.47164491  -130.32033748    -0.00000001     0.00000003  0.81D-13  0.34D-13  6  2    18.84     1.31
  16      1.14125643    -0.47164491  -130.32033748    -0.00000000     0.00000001  0.23D-13  0.65D-14  6  3    20.00     1.31
  17      1.14125641    -0.47164492  -130.32033748    -0.00000000     0.00000001  0.39D-14  0.98D-15  6  5    21.17     1.32
  18      1.14125640    -0.47164492  -130.32033748    -0.00000000     0.00000000  0.79D-15  0.25D-15  6  6    22.32     1.32
  19      1.14125640    -0.47164492  -130.32033748     0.00000000     0.00000000  0.89D-16  0.50D-16  6  1    23.48     1.32
  20      1.14125640    -0.47164492  -130.32033748     0.00000000    -0.00000000  0.90D-17  0.74D-17  6  4    24.62     1.32
  21      1.14125641    -0.47164492  -130.32033748     0.00000000    -0.00000000  0.47D-18  0.64D-18  6  3    25.75     1.32
  22      1.14125641    -0.47164492  -130.32033748     0.00000000    -0.00000000  0.12D-18  0.15D-18  6  2    26.90     1.32
  23      1.14125641    -0.47164492  -130.32033748     0.00000000    -0.00000000  0.94D-20  0.32D-19  6  1    28.07     1.32
  24      1.14125641    -0.47164492  -130.32033748    -0.00000000     0.00000000  0.16D-20  0.60D-20  6  5    29.18     1.32

 Norm of t1 vector:      0.07581485      S-energy:     0.00000000      T1 diagnostic:  0.01547564
                                                                       D1 diagnostic:  0.04151660

 Doubles amplitudes (print threshold =  0.500E-01):

         I         J         SYM. A    SYM. B    A         B      T(IJ, AB)

         6         6         2         2         1         1     -0.09581777


 Total CPU time for triples:     14.36 sec


 RESULTS
 =======

  Reference energy                   -129.848692567746
  CCSD singlet pair energy             -0.325887822515
  CCSD triplet pair energy             -0.145757093149
  CCSD correlation energy              -0.471644915663

  Triples (T) contribution             -0.022171016721
  Total correlation energy             -0.493815932384

  CCSD total energy                  -130.320337483409
  CCSD[T] energy                     -130.343556491172
  CCSD-T energy                      -130.342129937753
 !CCSD(T) total energy               -130.342508500130

 Timing summary (sec):

 STEP                 CPU(USER)    SYS     CPU(TOT)    WALL
 Transformation          1.37      0.25      1.62      1.66
 CCSD iterations        27.82      3.80     31.62     31.61
 Triples                14.36      0.43     14.79     14.79

 Program statistics:

 Available memory in ccsd:               994999756
 Min. memory needed in ccsd:               1265322
 Max. memory used in ccsd:                 1555950
 Max. memory used in cckext:               2415326 (24 integral passes)



 **********************************************************************************************************************************
 DATASETS  * FILE   NREC   LENGTH (MB)   RECORD NAMES
              1      20     1044.69       500      610      700      900      950      970     1000      129      960     1100   
                                          VAR    BASINP    GEOM    SYMINP    ZMAT    AOBASIS   BASIS     P2S    ABASIS      S 
                                         1400     1410     1200     1210     1080     1600     1650     1300     1700     1380   
                                           T        V       H0       H01     AOSYM     SMH    MOLCAS    ERIS     OPER     JKOP   

              2       4        3.27       700     1000      520     2100   
                                         GEOM     BASIS   MCVARS     RHF  

 PROGRAMS   *        TOTAL   CCSD(T)        HF       INT
 CPU TIMES  *        63.98     43.56      9.97     10.34
 REAL TIME  *        73.53 SEC
 DISK USED  *         3.13 GB      
 **********************************************************************************************************************************

 CCSD(T)/aug-cc-pVQZ energy=   -130.342508500130

        CCSD(T)         HF-SCF  
   -130.34250850   -129.84869257
 **********************************************************************************************************************************
 Molpro calculation terminated
 Variable memory released
