
 Primary working directories    : /tmp/r2666/282101.maple
 Secondary working directories  : /tmp/r2666/282101.maple
 Wavefunction directory         : /ddn/home4/r2666/wfu/
 Main file repository           : /tmp/r2666/282101.maple/

 SHA1      : d5ffa45e93fdbca01ffc919aa182cfdae0147319
 NAME      : 2015.1.35
 ARCHNAME  : linux/x86_64
 FC        : /opt/intel/composer_xe_2015.1.133/bin/intel64/ifort
 BLASLIB   : -Wl,-_start-group /opt/intel/mkl/lib/intel64/libmkl_intel_ilp64.a /opt/intel/mkl/lib/intel64/libmkl_intel_thread.a /opt/intel/mkl/lib/intel64/libmkl_core.a -Wl,-_end-group
 id        : olemiss

 Nodes     nprocs
 cn075        1

 Using customized tuning parameters: mindgm=1; mindgv=20; mindgc=4; mindgr=1; noblas=0; minvec=7
 default implementation of scratch files=df  

 ***,hno CCSD(T)/TZ-F12 QFF
 memory, 995, m;
 gthresh,energy=1.d-12,zero=1.d-22,oneint=1.d-22,twoint=1.d-22;
 gthresh,optgrad=1.d-8,optstep=1.d-8;
 nocompress;
 geomtyp=xyz
 bohr
 geometry={
 3
        127       127
 H        0.0000000000        1.6807113144       -1.9435570502
 N        0.0000000000       -0.1688547656       -1.1404485415
 O        0.0000000000        0.0299112412        1.1334160007
 }
 
 basis=avqz
   {hf,maxit=500;accu,20;}
 {ccsd(t),nocheck,maxit=250;orbital,IGNORE_ERROR;}

 Variables initialized (889), CPU time= 0.01 sec
 Commands  initialized (702), CPU time= 0.01 sec, 572 directives.
 Default parameters read. Elapsed time= 0.05 sec

 Checking input...
 Passed
1


                                         ***  PROGRAM SYSTEM MOLPRO  ***
                                       Copyright, TTI GmbH Stuttgart, 2015
                                    Version 2015.1 linked Jul  9 2018 13:16:40


 **********************************************************************************************************************************
 LABEL *   hno CCSD(T)/TZ-F12 QFF                                                        
  64 bit serial version                                                                  DATE: 04-Mar-20          TIME: 13:45:25  
 **********************************************************************************************************************************

 SHA1:             d5ffa45e93fdbca01ffc919aa182cfdae0147319
 **********************************************************************************************************************************

 THRESHOLDS:

 ZERO    =  1.00D-22  ONEINT  =  1.00D-22  TWOINT  =  1.00D-22  PREFAC  =  1.00D-14  LOCALI  =  1.00D-09  EORDER  =  1.00D-04
 ENERGY  =  1.00D-12  ETEST   =  0.00D+00  EDENS   =  0.00D+00  THRDEDEF=  1.00D-06  GRADIENT=  1.00D-02  STEP    =  1.00D-03
 ORBITAL =  1.00D-05  CIVEC   =  1.00D-05  COEFF   =  1.00D-04  PRINTCI =  5.00D-02  PUNCHCI =  9.90D+01  OPTGRAD =  3.00D-04
 OPTENERG=  1.00D-06  OPTSTEP =  3.00D-04  THRGRAD =  1.00D-10  COMPRESS=  1.00D-11  VARMIN  =  1.00D-07  VARMAX  =  1.00D-03
 THRDOUB =  0.00D+00  THRDIV  =  1.00D-05  THRRED  =  1.00D-07  THRPSP  =  1.00D+00  THRDC   =  1.00D-10  THRCS   =  1.00D-10
 THRNRM  =  1.00D-08  THREQ   =  0.00D+00  THRDE   =  1.00D+00  THRREF  =  1.00D-05  SPARFAC =  1.00D+00  THRDLP  =  1.00D-07
 THRDIA  =  1.00D-10  THRDLS  =  1.00D-07  THRGPS  =  0.00D+00  THRKEX  =  0.00D+00  THRDIS  =  2.00D-01  THRVAR  =  1.00D-10
 THRLOC  =  1.00D-06  THRGAP  =  1.00D-06  THRLOCT = -1.00D+00  THRGAPT = -1.00D+00  THRORB  =  1.00D-06  THRMLTP =  0.00D+00
 THRCPQCI=  1.00D-10  KEXTA   =  0.00D+00  THRCOARS=  0.00D+00  SYMTOL  =  1.00D-06  GRADTOL =  1.00D-06  THROVL  =  1.00D-08
 THRORTH =  1.00D-08  GRID    =  1.00D-06  GRIDMAX =  1.00D-03  DTMAX   =  0.00D+00  THROCCDE=  1.00D-01  THROCCDE=  1.00D-01



 THRESHOLDS:

 ZERO    =  1.00D-22  ONEINT  =  1.00D-22  TWOINT  =  1.00D-22  PREFAC  =  1.00D-14  LOCALI  =  1.00D-09  EORDER  =  1.00D-04
 ENERGY  =  1.00D-12  ETEST   =  0.00D+00  EDENS   =  0.00D+00  THRDEDEF=  1.00D-06  GRADIENT=  1.00D-02  STEP    =  1.00D-03
 ORBITAL =  1.00D-05  CIVEC   =  1.00D-05  COEFF   =  1.00D-04  PRINTCI =  5.00D-02  PUNCHCI =  9.90D+01  OPTGRAD =  1.00D-08
 OPTENERG=  1.00D-06  OPTSTEP =  1.00D-08  THRGRAD =  1.00D-10  COMPRESS=  1.00D-11  VARMIN  =  1.00D-07  VARMAX  =  1.00D-03
 THRDOUB =  0.00D+00  THRDIV  =  1.00D-05  THRRED  =  1.00D-07  THRPSP  =  1.00D+00  THRDC   =  1.00D-10  THRCS   =  1.00D-10
 THRNRM  =  1.00D-08  THREQ   =  0.00D+00  THRDE   =  1.00D+00  THRREF  =  1.00D-05  SPARFAC =  1.00D+00  THRDLP  =  1.00D-07
 THRDIA  =  1.00D-10  THRDLS  =  1.00D-07  THRGPS  =  0.00D+00  THRKEX  =  0.00D+00  THRDIS  =  2.00D-01  THRVAR  =  1.00D-10
 THRLOC  =  1.00D-06  THRGAP  =  1.00D-06  THRLOCT = -1.00D+00  THRGAPT = -1.00D+00  THRORB  =  1.00D-06  THRMLTP =  0.00D+00
 THRCPQCI=  1.00D-10  KEXTA   =  0.00D+00  THRCOARS=  0.00D+00  SYMTOL  =  1.00D-06  GRADTOL =  1.00D-06  THROVL  =  1.00D-08
 THRORTH =  1.00D-08  GRID    =  1.00D-06  GRIDMAX =  1.00D-03  DTMAX   =  0.00D+00  THROCCDE=  1.00D-01  THROCCDE=  1.00D-01



 Input parameters for SORTINT:

 COMPRESS =    0.000000
 C_FINAL  =    1.000000
 DEBUG    =   -1.000000
 C_SORT1  =    0.000000
 C_SEWARD =    0.000000
 THRESH   =    0.000000
 IO       =  molpro                                                          
 SPRI     =    0.000000
 SETTING GEOMTYP        =    XYZ
 ZUNIT=BOHR
 

 Variable memory set to  995000000 words,  buffer space   230000 words

 SETTING BASIS          =    AVQZ


 Recomputing integrals since basis changed


 Using spherical harmonics

 Library entry H      S aug-cc-pVQZ          selected for orbital group  1
 Library entry H      P aug-cc-pVQZ          selected for orbital group  1
 Library entry H      D aug-cc-pVQZ          selected for orbital group  1
 Library entry H      F aug-cc-pVQZ          selected for orbital group  1
 Library entry N      S aug-cc-pVQZ          selected for orbital group  2
 Library entry N      P aug-cc-pVQZ          selected for orbital group  2
 Library entry N      D aug-cc-pVQZ          selected for orbital group  2
 Library entry N      F aug-cc-pVQZ          selected for orbital group  2
 Library entry N      G aug-cc-pVQZ          selected for orbital group  2
 Library entry O      S aug-cc-pVQZ          selected for orbital group  3
 Library entry O      P aug-cc-pVQZ          selected for orbital group  3
 Library entry O      D aug-cc-pVQZ          selected for orbital group  3
 Library entry O      F aug-cc-pVQZ          selected for orbital group  3
 Library entry O      G aug-cc-pVQZ          selected for orbital group  3


 PROGRAM * SEWARD (Integral evaluation for generally contracted gaussian basis sets)     Author: Roland Lindh, 1990

 Geometry written to block  1 of record 700


 Point group  Cs  



 ATOMIC COORDINATES

 NR  ATOM    CHARGE       X              Y              Z

   1  H       1.00    0.000000000    1.680711314   -1.943557050
   2  N       7.00    0.000000000   -0.168854766   -1.140448542
   3  O       8.00    0.000000000    0.029911241    1.133416001

 Bond lengths in Bohr (Angstrom)

 1-2  2.016402232  2-3  2.282535406
     ( 1.067034109)     ( 1.207865720)

 Bond angles

  1-2-3  108.47547239

 NUCLEAR CHARGE:                   16
 NUMBER OF PRIMITIVE AOS:         293
 NUMBER OF SYMMETRY AOS:          234
 NUMBER OF CONTRACTIONS:          206   ( 130A'  +  76A"  )
 NUMBER OF CORE ORBITALS:           2   (   2A'  +   0A"  )
 NUMBER OF VALENCE ORBITALS:        9   (   7A'  +   2A"  )


 NUCLEAR REPULSION ENERGY   30.29671037

 Eigenvalues of metric

         1 0.608E-04 0.148E-03 0.320E-03 0.436E-03 0.590E-03 0.700E-03 0.103E-02 0.109E-02
         2 0.828E-03 0.170E-02 0.501E-02 0.896E-02 0.103E-01 0.124E-01 0.126E-01 0.195E-01


 Contracted 2-electron integrals neglected if value below      1.0D-22

      109945077. INTEGRALS WRITTEN OUT IN   26849 BLOCKS ON RECORD 1290 OF FILE 1


 NUMBER OF SORTED TWO-ELECTRON INTEGRALS:  115283741.     BUFFER LENGTH:  32768
 NUMBER OF SEGMENTS:   8  SEGMENT LENGTH:   15998004      RECORD LENGTH: 524288

 Memory used in sort:      16.56 MW

 SORT1 READ   109945077. AND WROTE   110865244. INTEGRALS IN    322 RECORDS. CPU TIME:     1.84 SEC, REAL TIME:     2.57 SEC
 SORT2 READ   110865244. AND WROTE   115283741. INTEGRALS IN      8 RECORDS. CPU TIME:     1.22 SEC, REAL TIME:     1.76 SEC

 FILE SIZES:   FILE 1:  1780.6 MBYTE,  FILE 4:  1350.6 MBYTE,   TOTAL:   3131.2 MBYTE

 OPERATOR DM      FOR CENTER  0  COORDINATES:    0.000000    0.000000    0.000000


 **********************************************************************************************************************************
 DATASETS  * FILE   NREC   LENGTH (MB)   RECORD NAMES
              1      19      944.14       500      610      700      900      950      970     1000      129      960     1100   
                                          VAR    BASINP    GEOM    SYMINP    ZMAT    AOBASIS   BASIS     P2S    ABASIS      S 
                                         1400     1410     1200     1210     1080     1600     1650     1300     1700   
                                           T        V       H0       H01     AOSYM     SMH    MOLCAS    ERIS     OPER   

 PROGRAMS   *        TOTAL       INT
 CPU TIMES  *        10.67     10.58
 REAL TIME  *        13.37 SEC
 DISK USED  *         3.13 GB      
 **********************************************************************************************************************************


 PROGRAM * RHF-SCF (CLOSED SHELL)       Authors: W. Meyer, H.-J. Werner


 NUMBER OF ELECTRONS:       8+    8-
 CONVERGENCE THRESHOLDS:    1.00E-10 (Density)    1.00E-13 (Energy)
 MAX. NUMBER OF ITERATIONS:      500
 INTERPOLATION TYPE:            DIIS
 INTERPOLATION STEPS:              2 (START)      1 (STEP)
 LEVEL SHIFTS:                  0.00 (CLOSED)  0.00 (OPEN) 



 Orbital guess generated from atomic densities. Full valence occupancy:    9   2

 Molecular orbital dump at record        2100.2

 Initial occupancy:   7   1

 ITERATION    DDIFF          GRAD             ENERGY        2-EL.EN.            DIPOLE MOMENTS         DIIS   ORB.
    1      0.000D+00      0.000D+00      -129.79536921    153.817797    0.00000    0.58703   -1.02820    0    start
    2      0.000D+00      0.817D-02      -129.82262008    155.070645    0.00000    0.60869   -0.20276    1    diag
    3      0.658D-02      0.627D-02      -129.84615750    155.188403    0.00000    0.55232   -0.59296    2    diag
    4      0.337D-02      0.972D-03      -129.84696539    154.900782    0.00000    0.55946   -0.53155    3    diag
    5      0.607D-03      0.318D-03      -129.84709468    154.995733    0.00000    0.56502   -0.53426    4    diag
    6      0.255D-03      0.926D-04      -129.84711549    154.979355    0.00000    0.56532   -0.53003    5    diag
    7      0.980D-04      0.460D-04      -129.84712151    154.982196    0.00000    0.56660   -0.52743    6    diag
    8      0.674D-04      0.161D-04      -129.84712219    154.981491    0.00000    0.56665   -0.52640    7    diag
    9      0.260D-04      0.312D-05      -129.84712222    154.981369    0.00000    0.56661   -0.52617    8    diag
   10      0.521D-05      0.712D-06      -129.84712222    154.981349    0.00000    0.56658   -0.52614    9    orth
   11      0.103D-05      0.143D-06      -129.84712222    154.981345    0.00000    0.56657   -0.52614    9    diag
   12      0.191D-06      0.290D-07      -129.84712222    154.981344    0.00000    0.56657   -0.52614    9    diag
   13      0.414D-07      0.756D-08      -129.84712222    154.981344    0.00000    0.56657   -0.52614    9    diag
   14      0.114D-07      0.150D-08      -129.84712222    154.981344    0.00000    0.56657   -0.52614    9    diag
   15      0.210D-08      0.433D-09      -129.84712222    154.981344    0.00000    0.56657   -0.52614    9    diag
   16      0.623D-09      0.130D-09      -129.84712222    154.981344    0.00000    0.56657   -0.52614    9    diag
   17      0.118D-09      0.352D-10      -129.84712222    154.981344    0.00000    0.56657   -0.52614    9    diag
   18      0.339D-10      0.121D-10      -129.84712222    154.981344    0.00000    0.56657   -0.52614    9    diag
   19      0.163D-10      0.297D-11      -129.84712222    154.981344    0.00000    0.56657   -0.52614    9    fixocc
   20      0.609D-11      0.524D-12      -129.84712222    154.981344    0.00000    0.56657   -0.52614    9    orth
   21      0.409D-11      0.276D-12      -129.84712222    154.981344    0.00000    0.56657   -0.52614    9    diag
   22      0.344D-11      0.129D-12      -129.84712222    154.981344    0.00000    0.56657   -0.52614    9    diag
   23      0.196D-11      0.997D-13      -129.84712222    154.981344    0.00000    0.56657   -0.52614    9    diag
   24      0.422D-12      0.117D-12      -129.84712222    154.981344    0.00000    0.56657   -0.52614    0    orth

 Final occupancy:   7   1

 !RHF STATE 1.1 Energy               -129.847122222398
 Nuclear energy                        30.29671037
 One-electron energy                 -237.63450465
 Two-electron energy                   77.49067206
 Virial quotient                       -1.00192604
 !RHF STATE 1.1 Dipole moment           0.00000000     0.56656817    -0.52613648
 Dipole moment /Debye                   0.00000000     1.43997834    -1.33721795

 Orbital energies:

         1.1          2.1          3.1          4.1          5.1          6.1          7.1          8.1          9.1
    -20.654059   -15.714608    -1.529390    -0.990985    -0.745577    -0.666211    -0.429426     0.026328     0.079464

         1.2          2.2          3.2
     -0.596325     0.063296     0.110744

 HOMO      7.1    -0.429426 =     -11.6853eV
 LUMO      8.1     0.026328 =       0.7164eV
 LUMO-HOMO         0.455753 =      12.4017eV


 **********************************************************************************************************************************
 DATASETS  * FILE   NREC   LENGTH (MB)   RECORD NAMES
              1      19      944.14       500      610      700      900      950      970     1000      129      960     1100   
                                          VAR    BASINP    GEOM    SYMINP    ZMAT    AOBASIS   BASIS     P2S    ABASIS      S 
                                         1400     1410     1200     1210     1080     1600     1650     1300     1700   
                                           T        V       H0       H01     AOSYM     SMH    MOLCAS    ERIS     OPER   

              2       4        3.27       700     1000      520     2100   
                                         GEOM     BASIS   MCVARS     RHF  

 PROGRAMS   *        TOTAL        HF       INT
 CPU TIMES  *        22.53     11.86     10.58
 REAL TIME  *        27.81 SEC
 DISK USED  *         3.13 GB      
 **********************************************************************************************************************************


 PROGRAM * CCSD (Closed-shell coupled cluster)     Authors: C. Hampel, H.-J. Werner, 1991, M. Deegan, P.J. Knowles, 1992


 Convergence thresholds:  THRVAR = 1.00D-08  THRDEN = 1.00D-12

 CCSD(T)     terms to be evaluated (factor= 1.000)


 Number of core orbitals:           2 (   2   0 )
 Number of closed-shell orbitals:   6 (   5   1 )
 Number of external orbitals:     198 ( 123  75 )

 Molecular orbitals read from record     2100.2  Type=RHF/CANONICAL (state 1.1)

 Number of N-1 electron functions:               6
 Number of N-2 electron functions:              21
 Number of singly external CSFs:               690
 Number of doubly external CSFs:            362646
 Total number of CSFs:                      363337

 Length of J-op  integral file:               0.00 MB
 Length of K-op  integral file:               1.60 MB
 Length of 3-ext integral record:             0.00 MB

 Memory could be reduced to 34.67 Mwords without degradation in triples

 Integral transformation finished. Total CPU:   1.46 sec, npass=  1  Memory used:   9.53 MW

 Reference energy:                   -129.84712222

 MP2 singlet pair energy:              -0.30194944
 MP2 triplet pair energy:              -0.17063870
 MP2 correlation energy:               -0.47258814
 MP2 total energy:                   -130.31971036

 SCS-MP2 correlation energy:           -0.46851452   (PS=  1.200000  PT=  0.333333)
 SCS-MP2 total energy:               -130.31563674

 ITER.      SQ.NORM     CORR.ENERGY   TOTAL ENERGY   ENERGY CHANGE        DEN1      VAR(S)    VAR(P)  DIIS     TIME  TIME/IT
   1      1.12154535    -0.47258273  -130.31970495     0.00000541     0.01655981  0.32D-02  0.32D-02  1  1     2.61     1.30
   2      1.13234755    -0.47252940  -130.31965162     0.00005333    -0.01258749  0.11D-03  0.50D-03  2  2     3.86     1.35
   3      1.13874800    -0.47291795  -130.32004017    -0.00038855    -0.00307955  0.51D-04  0.54D-04  3  3     5.06     1.36
   4      1.14153561    -0.47292244  -130.32004466    -0.00000449    -0.00094842  0.46D-05  0.98D-05  4  4     6.30     1.37
   5      1.14265826    -0.47295293  -130.32007515    -0.00003048    -0.00024486  0.12D-05  0.16D-05  5  5     7.48     1.37
   6      1.14302032    -0.47293795  -130.32006018     0.00001497    -0.00005176  0.13D-06  0.39D-06  6  6     8.66     1.37
   7      1.14309650    -0.47293810  -130.32006032    -0.00000015     0.00000221  0.20D-07  0.89D-07  6  1     9.86     1.37
   8      1.14312033    -0.47293840  -130.32006062    -0.00000030    -0.00000133  0.36D-08  0.18D-07  6  2    11.05     1.37
   9      1.14312931    -0.47293781  -130.32006004     0.00000059    -0.00000035  0.22D-08  0.18D-08  6  3    12.29     1.37
  10      1.14312460    -0.47293859  -130.32006081    -0.00000078     0.00000156  0.32D-09  0.29D-09  6  5    13.50     1.37
  11      1.14312641    -0.47293855  -130.32006077     0.00000005    -0.00000033  0.98D-10  0.26D-10  6  4    14.72     1.37
  12      1.14312599    -0.47293862  -130.32006084    -0.00000007     0.00000002  0.18D-10  0.64D-11  6  6    15.93     1.37
  13      1.14312581    -0.47293862  -130.32006084    -0.00000000    -0.00000004  0.34D-11  0.88D-12  6  1    17.14     1.37
  14      1.14312552    -0.47293863  -130.32006085    -0.00000001     0.00000004  0.45D-12  0.17D-12  6  3    18.37     1.37
  15      1.14312544    -0.47293863  -130.32006086    -0.00000000     0.00000001  0.13D-12  0.23D-13  6  2    19.58     1.37
  16      1.14312543    -0.47293863  -130.32006085     0.00000000     0.00000000  0.31D-13  0.10D-13  6  4    20.79     1.37
  17      1.14312543    -0.47293863  -130.32006085    -0.00000000    -0.00000000  0.15D-14  0.11D-14  6  5    21.97     1.37
  18      1.14312544    -0.47293863  -130.32006085     0.00000000    -0.00000000  0.24D-15  0.25D-15  6  6    23.18     1.37
  19      1.14312544    -0.47293863  -130.32006085     0.00000000    -0.00000000  0.31D-16  0.28D-16  6  5    24.45     1.37
  20      1.14312544    -0.47293863  -130.32006085     0.00000000    -0.00000000  0.59D-17  0.39D-17  6  1    25.68     1.37
  21      1.14312544    -0.47293863  -130.32006085    -0.00000000     0.00000000  0.74D-18  0.56D-18  6  3    26.89     1.37
  22      1.14312544    -0.47293863  -130.32006085    -0.00000000     0.00000000  0.97D-19  0.60D-19  6  2    28.07     1.37
  23      1.14312544    -0.47293863  -130.32006085    -0.00000000     0.00000000  0.21D-19  0.11D-19  6  4    29.27     1.37
  24      1.14312544    -0.47293863  -130.32006085    -0.00000000     0.00000000  0.75D-20  0.17D-20  6  6    30.50     1.37
  25      1.14312544    -0.47293863  -130.32006085     0.00000000    -0.00000000  0.23D-20  0.58D-21  6  5    31.71     1.37

 Norm of t1 vector:      0.07749096      S-energy:    -0.00000000      T1 diagnostic:  0.01581778
                                                                       D1 diagnostic:  0.04221013

 Doubles amplitudes (print threshold =  0.500E-01):

         I         J         SYM. A    SYM. B    A         B      T(IJ, AB)

         6         6         2         2         1         1     -0.09854166


 Total CPU time for triples:     14.54 sec


 RESULTS
 =======

  Reference energy                   -129.847122222398
  CCSD singlet pair energy             -0.326997368888
  CCSD triplet pair energy             -0.145941262631
  CCSD correlation energy              -0.472938631520

  Triples (T) contribution             -0.022466518406
  Total correlation energy             -0.495405149927

  CCSD total energy                  -130.320060853918
  CCSD[T] energy                     -130.343617996920
  CCSD-T energy                      -130.342135857641
 !CCSD(T) total energy               -130.342527372324

 Timing summary (sec):

 STEP                 CPU(USER)    SYS     CPU(TOT)    WALL
 Transformation          1.47      0.20      1.67      1.70
 CCSD iterations        30.25      4.03     34.28     34.26
 Triples                14.54      0.38     14.92     14.93

 Program statistics:

 Available memory in ccsd:               994999756
 Min. memory needed in ccsd:               1265322
 Max. memory used in ccsd:                 1555950
 Max. memory used in cckext:               2415326 (25 integral passes)



 **********************************************************************************************************************************
 DATASETS  * FILE   NREC   LENGTH (MB)   RECORD NAMES
              1      20     1044.69       500      610      700      900      950      970     1000      129      960     1100   
                                          VAR    BASINP    GEOM    SYMINP    ZMAT    AOBASIS   BASIS     P2S    ABASIS      S 
                                         1400     1410     1200     1210     1080     1600     1650     1300     1700     1380   
                                           T        V       H0       H01     AOSYM     SMH    MOLCAS    ERIS     OPER     JKOP   

              2       4        3.27       700     1000      520     2100   
                                         GEOM     BASIS   MCVARS     RHF  

 PROGRAMS   *        TOTAL   CCSD(T)        HF       INT
 CPU TIMES  *        68.81     46.28     11.86     10.58
 REAL TIME  *        78.76 SEC
 DISK USED  *         3.13 GB      
 **********************************************************************************************************************************

 CCSD(T)/aug-cc-pVQZ energy=   -130.342527372324

        CCSD(T)         HF-SCF  
   -130.34252737   -129.84712222
 **********************************************************************************************************************************
 Molpro calculation terminated
 Variable memory released
