
 Primary working directories    : /tmp/r2666/282073.maple
 Secondary working directories  : /tmp/r2666/282073.maple
 Wavefunction directory         : /ddn/home4/r2666/wfu/
 Main file repository           : /tmp/r2666/282073.maple/

 SHA1      : d5ffa45e93fdbca01ffc919aa182cfdae0147319
 NAME      : 2015.1.35
 ARCHNAME  : linux/x86_64
 FC        : /opt/intel/composer_xe_2015.1.133/bin/intel64/ifort
 BLASLIB   : -Wl,-_start-group /opt/intel/mkl/lib/intel64/libmkl_intel_ilp64.a /opt/intel/mkl/lib/intel64/libmkl_intel_thread.a /opt/intel/mkl/lib/intel64/libmkl_core.a -Wl,-_end-group
 id        : olemiss

 Nodes     nprocs
 cn084        1

 Using customized tuning parameters: mindgm=1; mindgv=20; mindgc=4; mindgr=1; noblas=0; minvec=7
 default implementation of scratch files=df  

 ***,hno CCSD(T)/TZ-F12 QFF
 memory, 995, m;
 gthresh,energy=1.d-12,zero=1.d-22,oneint=1.d-22,twoint=1.d-22;
 gthresh,optgrad=1.d-8,optstep=1.d-8;
 nocompress;
 geomtyp=xyz
 bohr
 geometry={
 3
         99        99
 H        0.0000000000        1.6716102446       -1.9363340083
 N        0.0000000000       -0.1621359488       -1.1442475161
 O        0.0000000000        0.0322934942        1.1299919334
 }
 
 basis=avqz
   {hf,maxit=500;accu,20;}
 {ccsd(t),nocheck,maxit=250;orbital,IGNORE_ERROR;}

 Variables initialized (889), CPU time= 0.01 sec
 Commands  initialized (702), CPU time= 0.01 sec, 572 directives.
 Default parameters read. Elapsed time= 0.04 sec

 Checking input...
 Passed
1


                                         ***  PROGRAM SYSTEM MOLPRO  ***
                                       Copyright, TTI GmbH Stuttgart, 2015
                                    Version 2015.1 linked Jul  9 2018 13:16:40


 **********************************************************************************************************************************
 LABEL *   hno CCSD(T)/TZ-F12 QFF                                                        
  64 bit serial version                                                                  DATE: 04-Mar-20          TIME: 13:44:21  
 **********************************************************************************************************************************

 SHA1:             d5ffa45e93fdbca01ffc919aa182cfdae0147319
 **********************************************************************************************************************************

 THRESHOLDS:

 ZERO    =  1.00D-22  ONEINT  =  1.00D-22  TWOINT  =  1.00D-22  PREFAC  =  1.00D-14  LOCALI  =  1.00D-09  EORDER  =  1.00D-04
 ENERGY  =  1.00D-12  ETEST   =  0.00D+00  EDENS   =  0.00D+00  THRDEDEF=  1.00D-06  GRADIENT=  1.00D-02  STEP    =  1.00D-03
 ORBITAL =  1.00D-05  CIVEC   =  1.00D-05  COEFF   =  1.00D-04  PRINTCI =  5.00D-02  PUNCHCI =  9.90D+01  OPTGRAD =  3.00D-04
 OPTENERG=  1.00D-06  OPTSTEP =  3.00D-04  THRGRAD =  1.00D-10  COMPRESS=  1.00D-11  VARMIN  =  1.00D-07  VARMAX  =  1.00D-03
 THRDOUB =  0.00D+00  THRDIV  =  1.00D-05  THRRED  =  1.00D-07  THRPSP  =  1.00D+00  THRDC   =  1.00D-10  THRCS   =  1.00D-10
 THRNRM  =  1.00D-08  THREQ   =  0.00D+00  THRDE   =  1.00D+00  THRREF  =  1.00D-05  SPARFAC =  1.00D+00  THRDLP  =  1.00D-07
 THRDIA  =  1.00D-10  THRDLS  =  1.00D-07  THRGPS  =  0.00D+00  THRKEX  =  0.00D+00  THRDIS  =  2.00D-01  THRVAR  =  1.00D-10
 THRLOC  =  1.00D-06  THRGAP  =  1.00D-06  THRLOCT = -1.00D+00  THRGAPT = -1.00D+00  THRORB  =  1.00D-06  THRMLTP =  0.00D+00
 THRCPQCI=  1.00D-10  KEXTA   =  0.00D+00  THRCOARS=  0.00D+00  SYMTOL  =  1.00D-06  GRADTOL =  1.00D-06  THROVL  =  1.00D-08
 THRORTH =  1.00D-08  GRID    =  1.00D-06  GRIDMAX =  1.00D-03  DTMAX   =  0.00D+00  THROCCDE=  1.00D-01  THROCCDE=  1.00D-01



 THRESHOLDS:

 ZERO    =  1.00D-22  ONEINT  =  1.00D-22  TWOINT  =  1.00D-22  PREFAC  =  1.00D-14  LOCALI  =  1.00D-09  EORDER  =  1.00D-04
 ENERGY  =  1.00D-12  ETEST   =  0.00D+00  EDENS   =  0.00D+00  THRDEDEF=  1.00D-06  GRADIENT=  1.00D-02  STEP    =  1.00D-03
 ORBITAL =  1.00D-05  CIVEC   =  1.00D-05  COEFF   =  1.00D-04  PRINTCI =  5.00D-02  PUNCHCI =  9.90D+01  OPTGRAD =  1.00D-08
 OPTENERG=  1.00D-06  OPTSTEP =  1.00D-08  THRGRAD =  1.00D-10  COMPRESS=  1.00D-11  VARMIN  =  1.00D-07  VARMAX  =  1.00D-03
 THRDOUB =  0.00D+00  THRDIV  =  1.00D-05  THRRED  =  1.00D-07  THRPSP  =  1.00D+00  THRDC   =  1.00D-10  THRCS   =  1.00D-10
 THRNRM  =  1.00D-08  THREQ   =  0.00D+00  THRDE   =  1.00D+00  THRREF  =  1.00D-05  SPARFAC =  1.00D+00  THRDLP  =  1.00D-07
 THRDIA  =  1.00D-10  THRDLS  =  1.00D-07  THRGPS  =  0.00D+00  THRKEX  =  0.00D+00  THRDIS  =  2.00D-01  THRVAR  =  1.00D-10
 THRLOC  =  1.00D-06  THRGAP  =  1.00D-06  THRLOCT = -1.00D+00  THRGAPT = -1.00D+00  THRORB  =  1.00D-06  THRMLTP =  0.00D+00
 THRCPQCI=  1.00D-10  KEXTA   =  0.00D+00  THRCOARS=  0.00D+00  SYMTOL  =  1.00D-06  GRADTOL =  1.00D-06  THROVL  =  1.00D-08
 THRORTH =  1.00D-08  GRID    =  1.00D-06  GRIDMAX =  1.00D-03  DTMAX   =  0.00D+00  THROCCDE=  1.00D-01  THROCCDE=  1.00D-01



 Input parameters for SORTINT:

 COMPRESS =    0.000000
 C_FINAL  =    1.000000
 DEBUG    =   -1.000000
 C_SORT1  =    0.000000
 C_SEWARD =    0.000000
 THRESH   =    0.000000
 IO       =  molpro                                                          
 SPRI     =    0.000000
 SETTING GEOMTYP        =    XYZ
 ZUNIT=BOHR
 

 Variable memory set to  995000000 words,  buffer space   230000 words

 SETTING BASIS          =    AVQZ


 Recomputing integrals since basis changed


 Using spherical harmonics

 Library entry H      S aug-cc-pVQZ          selected for orbital group  1
 Library entry H      P aug-cc-pVQZ          selected for orbital group  1
 Library entry H      D aug-cc-pVQZ          selected for orbital group  1
 Library entry H      F aug-cc-pVQZ          selected for orbital group  1
 Library entry N      S aug-cc-pVQZ          selected for orbital group  2
 Library entry N      P aug-cc-pVQZ          selected for orbital group  2
 Library entry N      D aug-cc-pVQZ          selected for orbital group  2
 Library entry N      F aug-cc-pVQZ          selected for orbital group  2
 Library entry N      G aug-cc-pVQZ          selected for orbital group  2
 Library entry O      S aug-cc-pVQZ          selected for orbital group  3
 Library entry O      P aug-cc-pVQZ          selected for orbital group  3
 Library entry O      D aug-cc-pVQZ          selected for orbital group  3
 Library entry O      F aug-cc-pVQZ          selected for orbital group  3
 Library entry O      G aug-cc-pVQZ          selected for orbital group  3


 PROGRAM * SEWARD (Integral evaluation for generally contracted gaussian basis sets)     Author: Roland Lindh, 1990

 Geometry written to block  1 of record 700


 Point group  Cs  



 ATOMIC COORDINATES

 NR  ATOM    CHARGE       X              Y              Z

   1  H       1.00    0.000000000    1.671610245   -1.936334008
   2  N       7.00    0.000000000   -0.162135949   -1.144247516
   3  O       8.00    0.000000000    0.032293494    1.129991933

 Bond lengths in Bohr (Angstrom)

 1-2  1.997504972  2-3  2.282535407
     ( 1.057034110)     ( 1.207865720)

 Bond angles

  1-2-3  108.47547239

 NUCLEAR CHARGE:                   16
 NUMBER OF PRIMITIVE AOS:         293
 NUMBER OF SYMMETRY AOS:          234
 NUMBER OF CONTRACTIONS:          206   ( 130A'  +  76A"  )
 NUMBER OF CORE ORBITALS:           2   (   2A'  +   0A"  )
 NUMBER OF VALENCE ORBITALS:        9   (   7A'  +   2A"  )


 NUCLEAR REPULSION ENERGY   30.33930925

 Eigenvalues of metric

         1 0.598E-04 0.146E-03 0.318E-03 0.435E-03 0.587E-03 0.687E-03 0.102E-02 0.108E-02
         2 0.824E-03 0.165E-02 0.496E-02 0.895E-02 0.102E-01 0.123E-01 0.125E-01 0.190E-01


 Contracted 2-electron integrals neglected if value below      1.0D-22

      109945087. INTEGRALS WRITTEN OUT IN   26849 BLOCKS ON RECORD 1290 OF FILE 1


 NUMBER OF SORTED TWO-ELECTRON INTEGRALS:  115283741.     BUFFER LENGTH:  32768
 NUMBER OF SEGMENTS:   8  SEGMENT LENGTH:   15998004      RECORD LENGTH: 524288

 Memory used in sort:      16.56 MW

 SORT1 READ   109945087. AND WROTE   110865254. INTEGRALS IN    322 RECORDS. CPU TIME:     1.74 SEC, REAL TIME:     2.53 SEC
 SORT2 READ   110865254. AND WROTE   115283741. INTEGRALS IN      8 RECORDS. CPU TIME:     1.28 SEC, REAL TIME:     1.81 SEC

 FILE SIZES:   FILE 1:  1780.6 MBYTE,  FILE 4:  1350.6 MBYTE,   TOTAL:   3131.2 MBYTE

 OPERATOR DM      FOR CENTER  0  COORDINATES:    0.000000    0.000000    0.000000


 **********************************************************************************************************************************
 DATASETS  * FILE   NREC   LENGTH (MB)   RECORD NAMES
              1      19      944.14       500      610      700      900      950      970     1000      129      960     1100   
                                          VAR    BASINP    GEOM    SYMINP    ZMAT    AOBASIS   BASIS     P2S    ABASIS      S 
                                         1400     1410     1200     1210     1080     1600     1650     1300     1700   
                                           T        V       H0       H01     AOSYM     SMH    MOLCAS    ERIS     OPER   

 PROGRAMS   *        TOTAL       INT
 CPU TIMES  *        10.61     10.52
 REAL TIME  *        13.22 SEC
 DISK USED  *         3.13 GB      
 **********************************************************************************************************************************


 PROGRAM * RHF-SCF (CLOSED SHELL)       Authors: W. Meyer, H.-J. Werner


 NUMBER OF ELECTRONS:       8+    8-
 CONVERGENCE THRESHOLDS:    1.00E-10 (Density)    1.00E-13 (Energy)
 MAX. NUMBER OF ITERATIONS:      500
 INTERPOLATION TYPE:            DIIS
 INTERPOLATION STEPS:              2 (START)      1 (STEP)
 LEVEL SHIFTS:                  0.00 (CLOSED)  0.00 (OPEN) 



 Orbital guess generated from atomic densities. Full valence occupancy:    9   2

 Molecular orbital dump at record        2100.2

 Initial occupancy:   7   1

 ITERATION    DDIFF          GRAD             ENERGY        2-EL.EN.            DIPOLE MOMENTS         DIIS   ORB.
    1      0.000D+00      0.000D+00      -129.79629643    153.902742    0.00000    0.59367   -1.02734    0    start
    2      0.000D+00      0.813D-02      -129.82356858    155.143077    0.00000    0.60967   -0.20701    1    diag
    3      0.655D-02      0.621D-02      -129.84665570    155.263989    0.00000    0.55589   -0.59423    2    diag
    4      0.334D-02      0.972D-03      -129.84746148    154.977820    0.00000    0.56311   -0.53282    3    diag
    5      0.607D-03      0.317D-03      -129.84758883    155.071934    0.00000    0.56853   -0.53546    4    diag
    6      0.253D-03      0.918D-04      -129.84760920    155.055698    0.00000    0.56882   -0.53126    5    diag
    7      0.969D-04      0.457D-04      -129.84761511    155.058485    0.00000    0.57008   -0.52866    6    diag
    8      0.668D-04      0.160D-04      -129.84761578    155.057788    0.00000    0.57012   -0.52763    7    diag
    9      0.257D-04      0.307D-05      -129.84761581    155.057669    0.00000    0.57008   -0.52741    8    diag
   10      0.514D-05      0.702D-06      -129.84761581    155.057650    0.00000    0.57005   -0.52738    9    orth
   11      0.102D-05      0.140D-06      -129.84761581    155.057647    0.00000    0.57004   -0.52738    9    diag
   12      0.187D-06      0.285D-07      -129.84761581    155.057647    0.00000    0.57004   -0.52737    9    diag
   13      0.402D-07      0.738D-08      -129.84761581    155.057646    0.00000    0.57004   -0.52737    9    diag
   14      0.110D-07      0.146D-08      -129.84761581    155.057646    0.00000    0.57004   -0.52737    9    diag
   15      0.202D-08      0.418D-09      -129.84761581    155.057646    0.00000    0.57004   -0.52737    9    diag
   16      0.600D-09      0.125D-09      -129.84761581    155.057646    0.00000    0.57004   -0.52737    9    diag
   17      0.115D-09      0.332D-10      -129.84761581    155.057646    0.00000    0.57004   -0.52737    9    diag
   18      0.311D-10      0.113D-10      -129.84761581    155.057646    0.00000    0.57004   -0.52737    9    diag
   19      0.154D-10      0.275D-11      -129.84761581    155.057646    0.00000    0.57004   -0.52737    0    orth

 Final occupancy:   7   1

 !RHF STATE 1.1 Energy               -129.847615814266
 Nuclear energy                        30.33930925
 One-electron energy                 -237.71574824
 Two-electron energy                   77.52882318
 Virial quotient                       -1.00181117
 !RHF STATE 1.1 Dipole moment           0.00000000     0.57003782    -0.52737406
 Dipole moment /Debye                   0.00000000     1.44879672    -1.34036336

 Orbital energies:

         1.1          2.1          3.1          4.1          5.1          6.1          7.1          8.1          9.1
    -20.653843   -15.713254    -1.529475    -0.993425    -0.746680    -0.666195    -0.430018     0.026334     0.079469

         1.2          2.2          3.2
     -0.596161     0.063286     0.110544

 HOMO      7.1    -0.430018 =     -11.7014eV
 LUMO      8.1     0.026334 =       0.7166eV
 LUMO-HOMO         0.456352 =      12.4180eV


 **********************************************************************************************************************************
 DATASETS  * FILE   NREC   LENGTH (MB)   RECORD NAMES
              1      19      944.14       500      610      700      900      950      970     1000      129      960     1100   
                                          VAR    BASINP    GEOM    SYMINP    ZMAT    AOBASIS   BASIS     P2S    ABASIS      S 
                                         1400     1410     1200     1210     1080     1600     1650     1300     1700   
                                           T        V       H0       H01     AOSYM     SMH    MOLCAS    ERIS     OPER   

              2       4        3.27       700     1000      520     2100   
                                         GEOM     BASIS   MCVARS     RHF  

 PROGRAMS   *        TOTAL        HF       INT
 CPU TIMES  *        19.87      9.26     10.52
 REAL TIME  *        24.63 SEC
 DISK USED  *         3.13 GB      
 **********************************************************************************************************************************


 PROGRAM * CCSD (Closed-shell coupled cluster)     Authors: C. Hampel, H.-J. Werner, 1991, M. Deegan, P.J. Knowles, 1992


 Convergence thresholds:  THRVAR = 1.00D-08  THRDEN = 1.00D-12

 CCSD(T)     terms to be evaluated (factor= 1.000)


 Number of core orbitals:           2 (   2   0 )
 Number of closed-shell orbitals:   6 (   5   1 )
 Number of external orbitals:     198 ( 123  75 )

 Molecular orbitals read from record     2100.2  Type=RHF/CANONICAL (state 1.1)

 Number of N-1 electron functions:               6
 Number of N-2 electron functions:              21
 Number of singly external CSFs:               690
 Number of doubly external CSFs:            362646
 Total number of CSFs:                      363337

 Length of J-op  integral file:               0.00 MB
 Length of K-op  integral file:               1.60 MB
 Length of 3-ext integral record:             0.00 MB

 Memory could be reduced to 34.67 Mwords without degradation in triples

 Integral transformation finished. Total CPU:   1.36 sec, npass=  1  Memory used:   9.53 MW

 Reference energy:                   -129.84761581

 MP2 singlet pair energy:              -0.30171961
 MP2 triplet pair energy:              -0.17049842
 MP2 correlation energy:               -0.47221803
 MP2 total energy:                   -130.31983384

 SCS-MP2 correlation energy:           -0.46815144   (PS=  1.200000  PT=  0.333333)
 SCS-MP2 total energy:               -130.31576725

 ITER.      SQ.NORM     CORR.ENERGY   TOTAL ENERGY   ENERGY CHANGE        DEN1      VAR(S)    VAR(P)  DIIS     TIME  TIME/IT
   1      1.12119968    -0.47223981  -130.31985562    -0.00002178     0.01644084  0.32D-02  0.32D-02  1  1     2.52     1.28
   2      1.13193650    -0.47219379  -130.31980960     0.00004602    -0.01253071  0.10D-03  0.49D-03  2  2     3.67     1.30
   3      1.13827811    -0.47257566  -130.32019147    -0.00038187    -0.00305822  0.50D-04  0.54D-04  3  3     4.84     1.31
   4      1.14104608    -0.47258161  -130.32019742    -0.00000595    -0.00094096  0.44D-05  0.97D-05  4  4     5.98     1.32
   5      1.14215227    -0.47261146  -130.32022727    -0.00002985    -0.00024124  0.12D-05  0.16D-05  5  5     7.19     1.33
   6      1.14250987    -0.47259658  -130.32021240     0.00001487    -0.00005126  0.11D-06  0.40D-06  6  6     8.39     1.33
   7      1.14258425    -0.47259693  -130.32021274    -0.00000034     0.00000239  0.18D-07  0.90D-07  6  1     9.57     1.33
   8      1.14260740    -0.47259726  -130.32021307    -0.00000033    -0.00000121  0.35D-08  0.18D-07  6  2    10.76     1.34
   9      1.14261269    -0.47259685  -130.32021266     0.00000041     0.00000097  0.25D-08  0.21D-08  6  4    11.97     1.34
  10      1.14261519    -0.47259723  -130.32021304    -0.00000038    -0.00000076  0.47D-09  0.24D-09  6  3    13.08     1.34
  11      1.14261490    -0.47259729  -130.32021311    -0.00000006    -0.00000011  0.15D-09  0.36D-10  6  5    14.30     1.34
  12      1.14261393    -0.47259743  -130.32021325    -0.00000014     0.00000036  0.19D-10  0.11D-10  6  6    15.47     1.34
  13      1.14261307    -0.47259748  -130.32021329    -0.00000004     0.00000022  0.60D-11  0.23D-11  6  1    16.70     1.34
  14      1.14261240    -0.47259751  -130.32021332    -0.00000003     0.00000015  0.40D-12  0.47D-12  6  4    17.88     1.34
  15      1.14261219    -0.47259752  -130.32021333    -0.00000001     0.00000003  0.90D-13  0.37D-13  6  2    19.06     1.34
  16      1.14261214    -0.47259752  -130.32021333    -0.00000000     0.00000001  0.25D-13  0.71D-14  6  3    20.23     1.34
  17      1.14261211    -0.47259752  -130.32021333    -0.00000000     0.00000001  0.43D-14  0.11D-14  6  5    21.41     1.35
  18      1.14261211    -0.47259752  -130.32021333    -0.00000000     0.00000000  0.86D-15  0.28D-15  6  6    22.61     1.35
  19      1.14261211    -0.47259752  -130.32021333     0.00000000     0.00000000  0.97D-16  0.56D-16  6  1    23.73     1.35
  20      1.14261211    -0.47259752  -130.32021333     0.00000000    -0.00000000  0.10D-16  0.80D-17  6  4    24.92     1.35
  21      1.14261211    -0.47259752  -130.32021333     0.00000000    -0.00000000  0.54D-18  0.68D-18  6  3    26.14     1.35
  22      1.14261211    -0.47259752  -130.32021333     0.00000000    -0.00000000  0.14D-18  0.16D-18  6  2    27.33     1.35
  23      1.14261211    -0.47259752  -130.32021333     0.00000000    -0.00000000  0.10D-19  0.35D-19  6  1    28.53     1.35
  24      1.14261211    -0.47259752  -130.32021333    -0.00000000     0.00000000  0.17D-20  0.69D-20  6  5    29.74     1.35
  25      1.14261211    -0.47259752  -130.32021333     0.00000000     0.00000000  0.13D-20  0.17D-20  6  6    30.94     1.35

 Norm of t1 vector:      0.07705428      S-energy:     0.00000000      T1 diagnostic:  0.01572864
                                                                       D1 diagnostic:  0.04219075

 Doubles amplitudes (print threshold =  0.500E-01):

         I         J         SYM. A    SYM. B    A         B      T(IJ, AB)

         6         6         2         2         1         1     -0.09855423


 Total CPU time for triples:     15.62 sec


 RESULTS
 =======

  Reference energy                   -129.847615814266
  CCSD singlet pair energy             -0.326707607616
  CCSD triplet pair energy             -0.145889910803
  CCSD correlation energy              -0.472597518417

  Triples (T) contribution             -0.022396739270
  Total correlation energy             -0.494994257687

  CCSD total energy                  -130.320213332683
  CCSD[T] energy                     -130.343690029287
  CCSD-T energy                      -130.342222470056
 !CCSD(T) total energy               -130.342610071953

 Timing summary (sec):

 STEP                 CPU(USER)    SYS     CPU(TOT)    WALL
 Transformation          1.37      0.26      1.63      1.64
 CCSD iterations        29.57      4.17     33.74     33.73
 Triples                15.62      0.42     16.04     16.05

 Program statistics:

 Available memory in ccsd:               994999756
 Min. memory needed in ccsd:               1265322
 Max. memory used in ccsd:                 1555950
 Max. memory used in cckext:               2415326 (25 integral passes)



 **********************************************************************************************************************************
 DATASETS  * FILE   NREC   LENGTH (MB)   RECORD NAMES
              1      20     1044.69       500      610      700      900      950      970     1000      129      960     1100   
                                          VAR    BASINP    GEOM    SYMINP    ZMAT    AOBASIS   BASIS     P2S    ABASIS      S 
                                         1400     1410     1200     1210     1080     1600     1650     1300     1700     1380   
                                           T        V       H0       H01     AOSYM     SMH    MOLCAS    ERIS     OPER     JKOP   

              2       4        3.27       700     1000      520     2100   
                                         GEOM     BASIS   MCVARS     RHF  

 PROGRAMS   *        TOTAL   CCSD(T)        HF       INT
 CPU TIMES  *        66.45     46.57      9.26     10.52
 REAL TIME  *        76.08 SEC
 DISK USED  *         3.13 GB      
 **********************************************************************************************************************************

 CCSD(T)/aug-cc-pVQZ energy=   -130.342610071953

        CCSD(T)         HF-SCF  
   -130.34261007   -129.84761581
 **********************************************************************************************************************************
 Molpro calculation terminated
 Variable memory released
