
 Primary working directories    : /tmp/r2666/282100.maple
 Secondary working directories  : /tmp/r2666/282100.maple
 Wavefunction directory         : /ddn/home4/r2666/wfu/
 Main file repository           : /tmp/r2666/282100.maple/

 SHA1      : d5ffa45e93fdbca01ffc919aa182cfdae0147319
 NAME      : 2015.1.35
 ARCHNAME  : linux/x86_64
 FC        : /opt/intel/composer_xe_2015.1.133/bin/intel64/ifort
 BLASLIB   : -Wl,-_start-group /opt/intel/mkl/lib/intel64/libmkl_intel_ilp64.a /opt/intel/mkl/lib/intel64/libmkl_intel_thread.a /opt/intel/mkl/lib/intel64/libmkl_core.a -Wl,-_end-group
 id        : olemiss

 Nodes     nprocs
 cn079        1

 Using customized tuning parameters: mindgm=1; mindgv=20; mindgc=4; mindgr=1; noblas=0; minvec=7
 default implementation of scratch files=df  

 ***,hno CCSD(T)/TZ-F12 QFF
 memory, 995, m;
 gthresh,energy=1.d-12,zero=1.d-22,oneint=1.d-22,twoint=1.d-22;
 gthresh,optgrad=1.d-8,optstep=1.d-8;
 nocompress;
 geomtyp=xyz
 bohr
 geometry={
 3
        126       126
 H        0.0000000000        1.6805078646       -1.9399823437
 N        0.0000000000       -0.1712808513       -1.1420120983
 O        0.0000000000        0.0325407768        1.1314048510
 }
 
 basis=avqz
   {hf,maxit=500;accu,20;}
 {ccsd(t),nocheck,maxit=250;orbital,IGNORE_ERROR;}

 Variables initialized (889), CPU time= 0.01 sec
 Commands  initialized (702), CPU time= 0.01 sec, 572 directives.
 Default parameters read. Elapsed time= 0.04 sec

 Checking input...
 Passed
1


                                         ***  PROGRAM SYSTEM MOLPRO  ***
                                       Copyright, TTI GmbH Stuttgart, 2015
                                    Version 2015.1 linked Jul  9 2018 13:16:40


 **********************************************************************************************************************************
 LABEL *   hno CCSD(T)/TZ-F12 QFF                                                        
  64 bit serial version                                                                  DATE: 04-Mar-20          TIME: 13:45:25  
 **********************************************************************************************************************************

 SHA1:             d5ffa45e93fdbca01ffc919aa182cfdae0147319
 **********************************************************************************************************************************

 THRESHOLDS:

 ZERO    =  1.00D-22  ONEINT  =  1.00D-22  TWOINT  =  1.00D-22  PREFAC  =  1.00D-14  LOCALI  =  1.00D-09  EORDER  =  1.00D-04
 ENERGY  =  1.00D-12  ETEST   =  0.00D+00  EDENS   =  0.00D+00  THRDEDEF=  1.00D-06  GRADIENT=  1.00D-02  STEP    =  1.00D-03
 ORBITAL =  1.00D-05  CIVEC   =  1.00D-05  COEFF   =  1.00D-04  PRINTCI =  5.00D-02  PUNCHCI =  9.90D+01  OPTGRAD =  3.00D-04
 OPTENERG=  1.00D-06  OPTSTEP =  3.00D-04  THRGRAD =  1.00D-10  COMPRESS=  1.00D-11  VARMIN  =  1.00D-07  VARMAX  =  1.00D-03
 THRDOUB =  0.00D+00  THRDIV  =  1.00D-05  THRRED  =  1.00D-07  THRPSP  =  1.00D+00  THRDC   =  1.00D-10  THRCS   =  1.00D-10
 THRNRM  =  1.00D-08  THREQ   =  0.00D+00  THRDE   =  1.00D+00  THRREF  =  1.00D-05  SPARFAC =  1.00D+00  THRDLP  =  1.00D-07
 THRDIA  =  1.00D-10  THRDLS  =  1.00D-07  THRGPS  =  0.00D+00  THRKEX  =  0.00D+00  THRDIS  =  2.00D-01  THRVAR  =  1.00D-10
 THRLOC  =  1.00D-06  THRGAP  =  1.00D-06  THRLOCT = -1.00D+00  THRGAPT = -1.00D+00  THRORB  =  1.00D-06  THRMLTP =  0.00D+00
 THRCPQCI=  1.00D-10  KEXTA   =  0.00D+00  THRCOARS=  0.00D+00  SYMTOL  =  1.00D-06  GRADTOL =  1.00D-06  THROVL  =  1.00D-08
 THRORTH =  1.00D-08  GRID    =  1.00D-06  GRIDMAX =  1.00D-03  DTMAX   =  0.00D+00  THROCCDE=  1.00D-01  THROCCDE=  1.00D-01



 THRESHOLDS:

 ZERO    =  1.00D-22  ONEINT  =  1.00D-22  TWOINT  =  1.00D-22  PREFAC  =  1.00D-14  LOCALI  =  1.00D-09  EORDER  =  1.00D-04
 ENERGY  =  1.00D-12  ETEST   =  0.00D+00  EDENS   =  0.00D+00  THRDEDEF=  1.00D-06  GRADIENT=  1.00D-02  STEP    =  1.00D-03
 ORBITAL =  1.00D-05  CIVEC   =  1.00D-05  COEFF   =  1.00D-04  PRINTCI =  5.00D-02  PUNCHCI =  9.90D+01  OPTGRAD =  1.00D-08
 OPTENERG=  1.00D-06  OPTSTEP =  1.00D-08  THRGRAD =  1.00D-10  COMPRESS=  1.00D-11  VARMIN  =  1.00D-07  VARMAX  =  1.00D-03
 THRDOUB =  0.00D+00  THRDIV  =  1.00D-05  THRRED  =  1.00D-07  THRPSP  =  1.00D+00  THRDC   =  1.00D-10  THRCS   =  1.00D-10
 THRNRM  =  1.00D-08  THREQ   =  0.00D+00  THRDE   =  1.00D+00  THRREF  =  1.00D-05  SPARFAC =  1.00D+00  THRDLP  =  1.00D-07
 THRDIA  =  1.00D-10  THRDLS  =  1.00D-07  THRGPS  =  0.00D+00  THRKEX  =  0.00D+00  THRDIS  =  2.00D-01  THRVAR  =  1.00D-10
 THRLOC  =  1.00D-06  THRGAP  =  1.00D-06  THRLOCT = -1.00D+00  THRGAPT = -1.00D+00  THRORB  =  1.00D-06  THRMLTP =  0.00D+00
 THRCPQCI=  1.00D-10  KEXTA   =  0.00D+00  THRCOARS=  0.00D+00  SYMTOL  =  1.00D-06  GRADTOL =  1.00D-06  THROVL  =  1.00D-08
 THRORTH =  1.00D-08  GRID    =  1.00D-06  GRIDMAX =  1.00D-03  DTMAX   =  0.00D+00  THROCCDE=  1.00D-01  THROCCDE=  1.00D-01



 Input parameters for SORTINT:

 COMPRESS =    0.000000
 C_FINAL  =    1.000000
 DEBUG    =   -1.000000
 C_SORT1  =    0.000000
 C_SEWARD =    0.000000
 THRESH   =    0.000000
 IO       =  molpro                                                          
 SPRI     =    0.000000
 SETTING GEOMTYP        =    XYZ
 ZUNIT=BOHR
 

 Variable memory set to  995000000 words,  buffer space   230000 words

 SETTING BASIS          =    AVQZ


 Recomputing integrals since basis changed


 Using spherical harmonics

 Library entry H      S aug-cc-pVQZ          selected for orbital group  1
 Library entry H      P aug-cc-pVQZ          selected for orbital group  1
 Library entry H      D aug-cc-pVQZ          selected for orbital group  1
 Library entry H      F aug-cc-pVQZ          selected for orbital group  1
 Library entry N      S aug-cc-pVQZ          selected for orbital group  2
 Library entry N      P aug-cc-pVQZ          selected for orbital group  2
 Library entry N      D aug-cc-pVQZ          selected for orbital group  2
 Library entry N      F aug-cc-pVQZ          selected for orbital group  2
 Library entry N      G aug-cc-pVQZ          selected for orbital group  2
 Library entry O      S aug-cc-pVQZ          selected for orbital group  3
 Library entry O      P aug-cc-pVQZ          selected for orbital group  3
 Library entry O      D aug-cc-pVQZ          selected for orbital group  3
 Library entry O      F aug-cc-pVQZ          selected for orbital group  3
 Library entry O      G aug-cc-pVQZ          selected for orbital group  3


 PROGRAM * SEWARD (Integral evaluation for generally contracted gaussian basis sets)     Author: Roland Lindh, 1990

 Geometry written to block  1 of record 700


 Point group  Cs  



 ATOMIC COORDINATES

 NR  ATOM    CHARGE       X              Y              Z

   1  H       1.00    0.000000000    1.680507865   -1.939982344
   2  N       7.00    0.000000000   -0.171280851   -1.142012098
   3  O       8.00    0.000000000    0.032540777    1.131404851

 Bond lengths in Bohr (Angstrom)

 1-2  2.016402232  2-3  2.282535406
     ( 1.067034109)     ( 1.207865720)

 Bond angles

  1-2-3  108.18899349

 NUCLEAR CHARGE:                   16
 NUMBER OF PRIMITIVE AOS:         293
 NUMBER OF SYMMETRY AOS:          234
 NUMBER OF CONTRACTIONS:          206   ( 130A'  +  76A"  )
 NUMBER OF CORE ORBITALS:           2   (   2A'  +   0A"  )
 NUMBER OF VALENCE ORBITALS:        9   (   7A'  +   2A"  )


 NUCLEAR REPULSION ENERGY   30.30082605

 Eigenvalues of metric

         1 0.608E-04 0.148E-03 0.320E-03 0.436E-03 0.591E-03 0.701E-03 0.103E-02 0.109E-02
         2 0.828E-03 0.171E-02 0.502E-02 0.896E-02 0.103E-01 0.124E-01 0.126E-01 0.195E-01


 Contracted 2-electron integrals neglected if value below      1.0D-22

      109945091. INTEGRALS WRITTEN OUT IN   26849 BLOCKS ON RECORD 1290 OF FILE 1


 NUMBER OF SORTED TWO-ELECTRON INTEGRALS:  115283741.     BUFFER LENGTH:  32768
 NUMBER OF SEGMENTS:   8  SEGMENT LENGTH:   15998004      RECORD LENGTH: 524288

 Memory used in sort:      16.56 MW

 SORT1 READ   109945091. AND WROTE   110865258. INTEGRALS IN    322 RECORDS. CPU TIME:     1.80 SEC, REAL TIME:     2.56 SEC
 SORT2 READ   110865258. AND WROTE   115283741. INTEGRALS IN      8 RECORDS. CPU TIME:     1.29 SEC, REAL TIME:     1.77 SEC

 FILE SIZES:   FILE 1:  1780.6 MBYTE,  FILE 4:  1350.6 MBYTE,   TOTAL:   3131.2 MBYTE

 OPERATOR DM      FOR CENTER  0  COORDINATES:    0.000000    0.000000    0.000000


 **********************************************************************************************************************************
 DATASETS  * FILE   NREC   LENGTH (MB)   RECORD NAMES
              1      19      944.14       500      610      700      900      950      970     1000      129      960     1100   
                                          VAR    BASINP    GEOM    SYMINP    ZMAT    AOBASIS   BASIS     P2S    ABASIS      S 
                                         1400     1410     1200     1210     1080     1600     1650     1300     1700   
                                           T        V       H0       H01     AOSYM     SMH    MOLCAS    ERIS     OPER   

 PROGRAMS   *        TOTAL       INT
 CPU TIMES  *        10.57     10.49
 REAL TIME  *        13.16 SEC
 DISK USED  *         3.13 GB      
 **********************************************************************************************************************************


 PROGRAM * RHF-SCF (CLOSED SHELL)       Authors: W. Meyer, H.-J. Werner


 NUMBER OF ELECTRONS:       8+    8-
 CONVERGENCE THRESHOLDS:    1.00E-10 (Density)    1.00E-13 (Energy)
 MAX. NUMBER OF ITERATIONS:      500
 INTERPOLATION TYPE:            DIIS
 INTERPOLATION STEPS:              2 (START)      1 (STEP)
 LEVEL SHIFTS:                  0.00 (CLOSED)  0.00 (OPEN) 



 Orbital guess generated from atomic densities. Full valence occupancy:    9   2

 Molecular orbital dump at record        2100.2

 Initial occupancy:   7   1

 ITERATION    DDIFF          GRAD             ENERGY        2-EL.EN.            DIPOLE MOMENTS         DIIS   ORB.
    1      0.000D+00      0.000D+00      -129.79534426    153.826583    0.00000    0.58451   -1.02757    0    start
    2      0.000D+00      0.817D-02      -129.82260083    155.078024    0.00000    0.60895   -0.20155    1    diag
    3      0.659D-02      0.627D-02      -129.84616522    155.196077    0.00000    0.55122   -0.59181    2    diag
    4      0.337D-02      0.971D-03      -129.84697234    154.908611    0.00000    0.55852   -0.53048    3    diag
    5      0.606D-03      0.318D-03      -129.84710172    155.003469    0.00000    0.56405   -0.53316    4    diag
    6      0.255D-03      0.927D-04      -129.84712256    154.987085    0.00000    0.56434   -0.52893    5    diag
    7      0.981D-04      0.461D-04      -129.84712859    154.989926    0.00000    0.56562   -0.52633    6    diag
    8      0.675D-04      0.161D-04      -129.84712927    154.989219    0.00000    0.56567   -0.52530    7    diag
    9      0.260D-04      0.312D-05      -129.84712930    154.989097    0.00000    0.56563   -0.52507    8    diag
   10      0.521D-05      0.710D-06      -129.84712931    154.989077    0.00000    0.56560   -0.52504    9    orth
   11      0.103D-05      0.143D-06      -129.84712931    154.989073    0.00000    0.56559   -0.52504    9    diag
   12      0.191D-06      0.290D-07      -129.84712931    154.989072    0.00000    0.56559   -0.52504    9    diag
   13      0.414D-07      0.756D-08      -129.84712931    154.989072    0.00000    0.56559   -0.52503    9    diag
   14      0.114D-07      0.150D-08      -129.84712931    154.989072    0.00000    0.56559   -0.52503    9    diag
   15      0.209D-08      0.433D-09      -129.84712931    154.989072    0.00000    0.56559   -0.52503    9    diag
   16      0.623D-09      0.130D-09      -129.84712931    154.989072    0.00000    0.56559   -0.52503    9    diag
   17      0.118D-09      0.355D-10      -129.84712931    154.989072    0.00000    0.56559   -0.52503    9    diag
   18      0.346D-10      0.122D-10      -129.84712931    154.989072    0.00000    0.56559   -0.52503    9    diag
   19      0.160D-10      0.298D-11      -129.84712931    154.989072    0.00000    0.56559   -0.52503    0    orth

 Final occupancy:   7   1

 !RHF STATE 1.1 Energy               -129.847129305762
 Nuclear energy                        30.30082605
 One-electron energy                 -237.64249150
 Two-electron energy                   77.49453614
 Virial quotient                       -1.00191784
 !RHF STATE 1.1 Dipole moment           0.00000000     0.56558576    -0.52503469
 Dipole moment /Debye                   0.00000000     1.43748146    -1.33441766

 Orbital energies:

         1.1          2.1          3.1          4.1          5.1          6.1          7.1          8.1          9.1
    -20.653985   -15.714660    -1.529529    -0.990817    -0.745590    -0.666154    -0.429614     0.026350     0.079471

         1.2          2.2          3.2
     -0.596359     0.063339     0.110757

 HOMO      7.1    -0.429614 =     -11.6904eV
 LUMO      8.1     0.026350 =       0.7170eV
 LUMO-HOMO         0.455965 =      12.4074eV


 **********************************************************************************************************************************
 DATASETS  * FILE   NREC   LENGTH (MB)   RECORD NAMES
              1      19      944.14       500      610      700      900      950      970     1000      129      960     1100   
                                          VAR    BASINP    GEOM    SYMINP    ZMAT    AOBASIS   BASIS     P2S    ABASIS      S 
                                         1400     1410     1200     1210     1080     1600     1650     1300     1700   
                                           T        V       H0       H01     AOSYM     SMH    MOLCAS    ERIS     OPER   

              2       4        3.27       700     1000      520     2100   
                                         GEOM     BASIS   MCVARS     RHF  

 PROGRAMS   *        TOTAL        HF       INT
 CPU TIMES  *        19.70      9.13     10.49
 REAL TIME  *        24.94 SEC
 DISK USED  *         3.13 GB      
 **********************************************************************************************************************************


 PROGRAM * CCSD (Closed-shell coupled cluster)     Authors: C. Hampel, H.-J. Werner, 1991, M. Deegan, P.J. Knowles, 1992


 Convergence thresholds:  THRVAR = 1.00D-08  THRDEN = 1.00D-12

 CCSD(T)     terms to be evaluated (factor= 1.000)


 Number of core orbitals:           2 (   2   0 )
 Number of closed-shell orbitals:   6 (   5   1 )
 Number of external orbitals:     198 ( 123  75 )

 Molecular orbitals read from record     2100.2  Type=RHF/CANONICAL (state 1.1)

 Number of N-1 electron functions:               6
 Number of N-2 electron functions:              21
 Number of singly external CSFs:               690
 Number of doubly external CSFs:            362646
 Total number of CSFs:                      363337

 Length of J-op  integral file:               0.00 MB
 Length of K-op  integral file:               1.60 MB
 Length of 3-ext integral record:             0.00 MB

 Memory could be reduced to 34.67 Mwords without degradation in triples

 Integral transformation finished. Total CPU:   1.33 sec, npass=  1  Memory used:   9.53 MW

 Reference energy:                   -129.84712931

 MP2 singlet pair energy:              -0.30194897
 MP2 triplet pair energy:              -0.17063737
 MP2 correlation energy:               -0.47258634
 MP2 total energy:                   -130.31971565

 SCS-MP2 correlation energy:           -0.46851313   (PS=  1.200000  PT=  0.333333)
 SCS-MP2 total energy:               -130.31564243

 ITER.      SQ.NORM     CORR.ENERGY   TOTAL ENERGY   ENERGY CHANGE        DEN1      VAR(S)    VAR(P)  DIIS     TIME  TIME/IT
   1      1.12153683    -0.47258152  -130.31971082     0.00000482     0.01655284  0.32D-02  0.32D-02  1  1     2.45     1.29
   2      1.13233442    -0.47252957  -130.31965888     0.00005195    -0.01258423  0.11D-03  0.50D-03  2  2     3.59     1.30
   3      1.13872961    -0.47291741  -130.32004671    -0.00038784    -0.00307903  0.51D-04  0.54D-04  3  3     4.74     1.30
   4      1.14151363    -0.47292209  -130.32005139    -0.00000468    -0.00094759  0.46D-05  0.97D-05  4  4     5.91     1.32
   5      1.14263212    -0.47295251  -130.32008182    -0.00003043    -0.00024410  0.12D-05  0.16D-05  5  5     7.08     1.32
   6      1.14299254    -0.47293756  -130.32006687     0.00001495    -0.00005160  0.12D-06  0.39D-06  6  6     8.22     1.33
   7      1.14306813    -0.47293772  -130.32006702    -0.00000016     0.00000224  0.20D-07  0.88D-07  6  1     9.37     1.33
   8      1.14309181    -0.47293801  -130.32006731    -0.00000029    -0.00000132  0.35D-08  0.18D-07  6  2    10.51     1.33
   9      1.14310071    -0.47293742  -130.32006673     0.00000058    -0.00000036  0.22D-08  0.18D-08  6  3    11.69     1.33
  10      1.14309601    -0.47293820  -130.32006750    -0.00000077     0.00000156  0.32D-09  0.29D-09  6  5    12.85     1.33
  11      1.14309782    -0.47293815  -130.32006746     0.00000005    -0.00000033  0.96D-10  0.26D-10  6  4    14.07     1.33
  12      1.14309741    -0.47293822  -130.32006753    -0.00000007     0.00000002  0.18D-10  0.63D-11  6  6    15.23     1.33
  13      1.14309723    -0.47293822  -130.32006753    -0.00000000    -0.00000004  0.33D-11  0.87D-12  6  1    16.39     1.33
  14      1.14309694    -0.47293823  -130.32006754    -0.00000001     0.00000004  0.44D-12  0.17D-12  6  3    17.52     1.33
  15      1.14309686    -0.47293824  -130.32006754    -0.00000000     0.00000001  0.12D-12  0.23D-13  6  2    18.67     1.33
  16      1.14309685    -0.47293824  -130.32006754     0.00000000     0.00000000  0.31D-13  0.10D-13  6  4    19.85     1.33
  17      1.14309685    -0.47293824  -130.32006754    -0.00000000    -0.00000000  0.14D-14  0.11D-14  6  5    21.03     1.33
  18      1.14309686    -0.47293824  -130.32006754     0.00000000    -0.00000000  0.23D-15  0.25D-15  6  6    22.27     1.33
  19      1.14309686    -0.47293824  -130.32006754     0.00000000    -0.00000000  0.30D-16  0.27D-16  6  5    23.44     1.33
  20      1.14309686    -0.47293824  -130.32006754     0.00000000    -0.00000000  0.58D-17  0.38D-17  6  1    24.56     1.33
  21      1.14309686    -0.47293824  -130.32006754    -0.00000000     0.00000000  0.72D-18  0.55D-18  6  3    25.70     1.33
  22      1.14309686    -0.47293824  -130.32006754    -0.00000000     0.00000000  0.94D-19  0.59D-19  6  2    26.86     1.33
  23      1.14309686    -0.47293824  -130.32006754    -0.00000000     0.00000000  0.20D-19  0.11D-19  6  4    28.01     1.33
  24      1.14309686    -0.47293824  -130.32006754    -0.00000000     0.00000000  0.73D-20  0.17D-20  6  6    29.17     1.33
  25      1.14309686    -0.47293824  -130.32006754     0.00000000    -0.00000000  0.22D-20  0.54D-21  6  5    30.29     1.33

 Norm of t1 vector:      0.07740937      S-energy:     0.00000000      T1 diagnostic:  0.01580112
                                                                       D1 diagnostic:  0.04218390

 Doubles amplitudes (print threshold =  0.500E-01):

         I         J         SYM. A    SYM. B    A         B      T(IJ, AB)

         6         6         2         2         1         1     -0.09853902


 Total CPU time for triples:     14.88 sec


 RESULTS
 =======

  Reference energy                   -129.847129305762
  CCSD singlet pair energy             -0.326996887133
  CCSD triplet pair energy             -0.145941350764
  CCSD correlation energy              -0.472938237897

  Triples (T) contribution             -0.022463016977
  Total correlation energy             -0.495401254874

  CCSD total energy                  -130.320067543658
  CCSD[T] energy                     -130.343619588544
  CCSD-T energy                      -130.342139427538
 !CCSD(T) total energy               -130.342530560636

 Timing summary (sec):

 STEP                 CPU(USER)    SYS     CPU(TOT)    WALL
 Transformation          1.33      0.38      1.71      1.71
 CCSD iterations        28.97      4.26     33.23     33.21
 Triples                14.88      0.43     15.31     15.32

 Program statistics:

 Available memory in ccsd:               994999756
 Min. memory needed in ccsd:               1265322
 Max. memory used in ccsd:                 1555950
 Max. memory used in cckext:               2415326 (25 integral passes)



 **********************************************************************************************************************************
 DATASETS  * FILE   NREC   LENGTH (MB)   RECORD NAMES
              1      20     1044.69       500      610      700      900      950      970     1000      129      960     1100   
                                          VAR    BASINP    GEOM    SYMINP    ZMAT    AOBASIS   BASIS     P2S    ABASIS      S 
                                         1400     1410     1200     1210     1080     1600     1650     1300     1700     1380   
                                           T        V       H0       H01     AOSYM     SMH    MOLCAS    ERIS     OPER     JKOP   

              2       4        3.27       700     1000      520     2100   
                                         GEOM     BASIS   MCVARS     RHF  

 PROGRAMS   *        TOTAL   CCSD(T)        HF       INT
 CPU TIMES  *        64.89     45.19      9.13     10.49
 REAL TIME  *        75.21 SEC
 DISK USED  *         3.13 GB      
 **********************************************************************************************************************************

 CCSD(T)/aug-cc-pVQZ energy=   -130.342530560636

        CCSD(T)         HF-SCF  
   -130.34253056   -129.84712931
 **********************************************************************************************************************************
 Molpro calculation terminated
 Variable memory released
