
 Primary working directories    : /tmp/r2666/282087.maple
 Secondary working directories  : /tmp/r2666/282087.maple
 Wavefunction directory         : /ddn/home4/r2666/wfu/
 Main file repository           : /tmp/r2666/282087.maple/

 SHA1      : d5ffa45e93fdbca01ffc919aa182cfdae0147319
 NAME      : 2015.1.35
 ARCHNAME  : linux/x86_64
 FC        : /opt/intel/composer_xe_2015.1.133/bin/intel64/ifort
 BLASLIB   : -Wl,-_start-group /opt/intel/mkl/lib/intel64/libmkl_intel_ilp64.a /opt/intel/mkl/lib/intel64/libmkl_intel_thread.a /opt/intel/mkl/lib/intel64/libmkl_core.a -Wl,-_end-group
 id        : olemiss

 Nodes     nprocs
 cn091        1

 Using customized tuning parameters: mindgm=1; mindgv=20; mindgc=4; mindgr=1; noblas=0; minvec=7
 default implementation of scratch files=df  

 ***,hno CCSD(T)/TZ-F12 QFF
 memory, 995, m;
 gthresh,energy=1.d-12,zero=1.d-22,oneint=1.d-22,twoint=1.d-22;
 gthresh,optgrad=1.d-8,optstep=1.d-8;
 nocompress;
 geomtyp=xyz
 bohr
 geometry={
 3
        113       113
 H        0.0000000000        1.6751480620       -1.9342225498
 N        0.0000000000       -0.1680523163       -1.1401979117
 O        0.0000000000        0.0346720443        1.1238308706
 }
 
 basis=avqz
   {hf,maxit=500;accu,20;}
 {ccsd(t),nocheck,maxit=250;orbital,IGNORE_ERROR;}

 Variables initialized (889), CPU time= 0.00 sec
 Commands  initialized (702), CPU time= 0.01 sec, 572 directives.
 Default parameters read. Elapsed time= 0.06 sec

 Checking input...
 Passed
1


                                         ***  PROGRAM SYSTEM MOLPRO  ***
                                       Copyright, TTI GmbH Stuttgart, 2015
                                    Version 2015.1 linked Jul  9 2018 13:16:40


 **********************************************************************************************************************************
 LABEL *   hno CCSD(T)/TZ-F12 QFF                                                        
  64 bit serial version                                                                  DATE: 04-Mar-20          TIME: 13:44:56  
 **********************************************************************************************************************************

 SHA1:             d5ffa45e93fdbca01ffc919aa182cfdae0147319
 **********************************************************************************************************************************

 THRESHOLDS:

 ZERO    =  1.00D-22  ONEINT  =  1.00D-22  TWOINT  =  1.00D-22  PREFAC  =  1.00D-14  LOCALI  =  1.00D-09  EORDER  =  1.00D-04
 ENERGY  =  1.00D-12  ETEST   =  0.00D+00  EDENS   =  0.00D+00  THRDEDEF=  1.00D-06  GRADIENT=  1.00D-02  STEP    =  1.00D-03
 ORBITAL =  1.00D-05  CIVEC   =  1.00D-05  COEFF   =  1.00D-04  PRINTCI =  5.00D-02  PUNCHCI =  9.90D+01  OPTGRAD =  3.00D-04
 OPTENERG=  1.00D-06  OPTSTEP =  3.00D-04  THRGRAD =  1.00D-10  COMPRESS=  1.00D-11  VARMIN  =  1.00D-07  VARMAX  =  1.00D-03
 THRDOUB =  0.00D+00  THRDIV  =  1.00D-05  THRRED  =  1.00D-07  THRPSP  =  1.00D+00  THRDC   =  1.00D-10  THRCS   =  1.00D-10
 THRNRM  =  1.00D-08  THREQ   =  0.00D+00  THRDE   =  1.00D+00  THRREF  =  1.00D-05  SPARFAC =  1.00D+00  THRDLP  =  1.00D-07
 THRDIA  =  1.00D-10  THRDLS  =  1.00D-07  THRGPS  =  0.00D+00  THRKEX  =  0.00D+00  THRDIS  =  2.00D-01  THRVAR  =  1.00D-10
 THRLOC  =  1.00D-06  THRGAP  =  1.00D-06  THRLOCT = -1.00D+00  THRGAPT = -1.00D+00  THRORB  =  1.00D-06  THRMLTP =  0.00D+00
 THRCPQCI=  1.00D-10  KEXTA   =  0.00D+00  THRCOARS=  0.00D+00  SYMTOL  =  1.00D-06  GRADTOL =  1.00D-06  THROVL  =  1.00D-08
 THRORTH =  1.00D-08  GRID    =  1.00D-06  GRIDMAX =  1.00D-03  DTMAX   =  0.00D+00  THROCCDE=  1.00D-01  THROCCDE=  1.00D-01



 THRESHOLDS:

 ZERO    =  1.00D-22  ONEINT  =  1.00D-22  TWOINT  =  1.00D-22  PREFAC  =  1.00D-14  LOCALI  =  1.00D-09  EORDER  =  1.00D-04
 ENERGY  =  1.00D-12  ETEST   =  0.00D+00  EDENS   =  0.00D+00  THRDEDEF=  1.00D-06  GRADIENT=  1.00D-02  STEP    =  1.00D-03
 ORBITAL =  1.00D-05  CIVEC   =  1.00D-05  COEFF   =  1.00D-04  PRINTCI =  5.00D-02  PUNCHCI =  9.90D+01  OPTGRAD =  1.00D-08
 OPTENERG=  1.00D-06  OPTSTEP =  1.00D-08  THRGRAD =  1.00D-10  COMPRESS=  1.00D-11  VARMIN  =  1.00D-07  VARMAX  =  1.00D-03
 THRDOUB =  0.00D+00  THRDIV  =  1.00D-05  THRRED  =  1.00D-07  THRPSP  =  1.00D+00  THRDC   =  1.00D-10  THRCS   =  1.00D-10
 THRNRM  =  1.00D-08  THREQ   =  0.00D+00  THRDE   =  1.00D+00  THRREF  =  1.00D-05  SPARFAC =  1.00D+00  THRDLP  =  1.00D-07
 THRDIA  =  1.00D-10  THRDLS  =  1.00D-07  THRGPS  =  0.00D+00  THRKEX  =  0.00D+00  THRDIS  =  2.00D-01  THRVAR  =  1.00D-10
 THRLOC  =  1.00D-06  THRGAP  =  1.00D-06  THRLOCT = -1.00D+00  THRGAPT = -1.00D+00  THRORB  =  1.00D-06  THRMLTP =  0.00D+00
 THRCPQCI=  1.00D-10  KEXTA   =  0.00D+00  THRCOARS=  0.00D+00  SYMTOL  =  1.00D-06  GRADTOL =  1.00D-06  THROVL  =  1.00D-08
 THRORTH =  1.00D-08  GRID    =  1.00D-06  GRIDMAX =  1.00D-03  DTMAX   =  0.00D+00  THROCCDE=  1.00D-01  THROCCDE=  1.00D-01



 Input parameters for SORTINT:

 COMPRESS =    0.000000
 C_FINAL  =    1.000000
 DEBUG    =   -1.000000
 C_SORT1  =    0.000000
 C_SEWARD =    0.000000
 THRESH   =    0.000000
 IO       =  molpro                                                          
 SPRI     =    0.000000
 SETTING GEOMTYP        =    XYZ
 ZUNIT=BOHR
 

 Variable memory set to  995000000 words,  buffer space   230000 words

 SETTING BASIS          =    AVQZ


 Recomputing integrals since basis changed


 Using spherical harmonics

 Library entry H      S aug-cc-pVQZ          selected for orbital group  1
 Library entry H      P aug-cc-pVQZ          selected for orbital group  1
 Library entry H      D aug-cc-pVQZ          selected for orbital group  1
 Library entry H      F aug-cc-pVQZ          selected for orbital group  1
 Library entry N      S aug-cc-pVQZ          selected for orbital group  2
 Library entry N      P aug-cc-pVQZ          selected for orbital group  2
 Library entry N      D aug-cc-pVQZ          selected for orbital group  2
 Library entry N      F aug-cc-pVQZ          selected for orbital group  2
 Library entry N      G aug-cc-pVQZ          selected for orbital group  2
 Library entry O      S aug-cc-pVQZ          selected for orbital group  3
 Library entry O      P aug-cc-pVQZ          selected for orbital group  3
 Library entry O      D aug-cc-pVQZ          selected for orbital group  3
 Library entry O      F aug-cc-pVQZ          selected for orbital group  3
 Library entry O      G aug-cc-pVQZ          selected for orbital group  3


 PROGRAM * SEWARD (Integral evaluation for generally contracted gaussian basis sets)     Author: Roland Lindh, 1990

 Geometry written to block  1 of record 700


 Point group  Cs  



 ATOMIC COORDINATES

 NR  ATOM    CHARGE       X              Y              Z

   1  H       1.00    0.000000000    1.675148062   -1.934222550
   2  N       7.00    0.000000000   -0.168052316   -1.140197912
   3  O       8.00    0.000000000    0.034672044    1.123830871

 Bond lengths in Bohr (Angstrom)

 1-2  2.006953602  2-3  2.273086776
     ( 1.062034110)     ( 1.202865721)

 Bond angles

  1-2-3  108.18899349

 NUCLEAR CHARGE:                   16
 NUMBER OF PRIMITIVE AOS:         293
 NUMBER OF SYMMETRY AOS:          234
 NUMBER OF CONTRACTIONS:          206   ( 130A'  +  76A"  )
 NUMBER OF CORE ORBITALS:           2   (   2A'  +   0A"  )
 NUMBER OF VALENCE ORBITALS:        9   (   7A'  +   2A"  )


 NUCLEAR REPULSION ENERGY   30.42926500

 Eigenvalues of metric

         1 0.599E-04 0.146E-03 0.317E-03 0.435E-03 0.582E-03 0.692E-03 0.102E-02 0.108E-02
         2 0.813E-03 0.168E-02 0.493E-02 0.893E-02 0.103E-01 0.122E-01 0.125E-01 0.190E-01


 Contracted 2-electron integrals neglected if value below      1.0D-22

      109945074. INTEGRALS WRITTEN OUT IN   26849 BLOCKS ON RECORD 1290 OF FILE 1


 NUMBER OF SORTED TWO-ELECTRON INTEGRALS:  115283741.     BUFFER LENGTH:  32768
 NUMBER OF SEGMENTS:   8  SEGMENT LENGTH:   15998004      RECORD LENGTH: 524288

 Memory used in sort:      16.56 MW

 SORT1 READ   109945074. AND WROTE   110865241. INTEGRALS IN    322 RECORDS. CPU TIME:     2.21 SEC, REAL TIME:     3.03 SEC
 SORT2 READ   110865241. AND WROTE   115283741. INTEGRALS IN      8 RECORDS. CPU TIME:     1.52 SEC, REAL TIME:     2.21 SEC

 FILE SIZES:   FILE 1:  1780.6 MBYTE,  FILE 4:  1350.6 MBYTE,   TOTAL:   3131.2 MBYTE

 OPERATOR DM      FOR CENTER  0  COORDINATES:    0.000000    0.000000    0.000000


 **********************************************************************************************************************************
 DATASETS  * FILE   NREC   LENGTH (MB)   RECORD NAMES
              1      19      944.14       500      610      700      900      950      970     1000      129      960     1100   
                                          VAR    BASINP    GEOM    SYMINP    ZMAT    AOBASIS   BASIS     P2S    ABASIS      S 
                                         1400     1410     1200     1210     1080     1600     1650     1300     1700   
                                           T        V       H0       H01     AOSYM     SMH    MOLCAS    ERIS     OPER   

 PROGRAMS   *        TOTAL       INT
 CPU TIMES  *        14.31     14.20
 REAL TIME  *        17.68 SEC
 DISK USED  *         3.13 GB      
 **********************************************************************************************************************************


 PROGRAM * RHF-SCF (CLOSED SHELL)       Authors: W. Meyer, H.-J. Werner


 NUMBER OF ELECTRONS:       8+    8-
 CONVERGENCE THRESHOLDS:    1.00E-10 (Density)    1.00E-13 (Energy)
 MAX. NUMBER OF ITERATIONS:      500
 INTERPOLATION TYPE:            DIIS
 INTERPOLATION STEPS:              2 (START)      1 (STEP)
 LEVEL SHIFTS:                  0.00 (CLOSED)  0.00 (OPEN) 



 Orbital guess generated from atomic densities. Full valence occupancy:    9   2

 Molecular orbital dump at record        2100.2

 Initial occupancy:   7   1

 ITERATION    DDIFF          GRAD             ENERGY        2-EL.EN.            DIPOLE MOMENTS         DIIS   ORB.
    1      0.000D+00      0.000D+00      -129.79722782    154.060622    0.00000    0.58553   -1.01080    0    start
    2      0.000D+00      0.810D-02      -129.82464885    155.315707    0.00000    0.60612   -0.20582    1    diag
    3      0.650D-02      0.614D-02      -129.84715341    155.424027    0.00000    0.55057   -0.58478    2    diag
    4      0.331D-02      0.965D-03      -129.84794804    155.141260    0.00000    0.55802   -0.52431    3    diag
    5      0.602D-03      0.315D-03      -129.84807436    155.235226    0.00000    0.56348   -0.52705    4    diag
    6      0.252D-03      0.916D-04      -129.84809461    155.218988    0.00000    0.56380   -0.52294    5    diag
    7      0.966D-04      0.453D-04      -129.84810041    155.221851    0.00000    0.56508   -0.52040    6    diag
    8      0.663D-04      0.156D-04      -129.84810104    155.221166    0.00000    0.56513   -0.51941    7    diag
    9      0.249D-04      0.299D-05      -129.84810107    155.221050    0.00000    0.56509   -0.51919    8    diag
   10      0.493D-05      0.688D-06      -129.84810107    155.221031    0.00000    0.56506   -0.51916    9    orth
   11      0.994D-06      0.139D-06      -129.84810107    155.221027    0.00000    0.56505   -0.51916    9    diag
   12      0.187D-06      0.282D-07      -129.84810107    155.221027    0.00000    0.56505   -0.51916    9    diag
   13      0.405D-07      0.725D-08      -129.84810107    155.221027    0.00000    0.56505   -0.51916    9    diag
   14      0.110D-07      0.145D-08      -129.84810107    155.221027    0.00000    0.56505   -0.51916    9    diag
   15      0.204D-08      0.421D-09      -129.84810107    155.221027    0.00000    0.56505   -0.51916    9    diag
   16      0.605D-09      0.129D-09      -129.84810107    155.221027    0.00000    0.56505   -0.51916    9    diag
   17      0.119D-09      0.355D-10      -129.84810107    155.221027    0.00000    0.56505   -0.51916    9    diag
   18      0.334D-10      0.121D-10      -129.84810107    155.221027    0.00000    0.56505   -0.51916    9    diag
   19      0.171D-10      0.299D-11      -129.84810107    155.221027    0.00000    0.56505   -0.51916    9    fixocc
   20      0.702D-11      0.507D-12      -129.84810107    155.221027    0.00000    0.56505   -0.51916    9    orth
   21      0.355D-11      0.232D-12      -129.84810107    155.221027    0.00000    0.56505   -0.51916    9    diag
   22      0.309D-11      0.194D-12      -129.84810107    155.221027    0.00000    0.56505   -0.51916    9    diag
   23      0.203D-11      0.102D-12      -129.84810107    155.221027    0.00000    0.56505   -0.51916    0    orth

 Final occupancy:   7   1

 !RHF STATE 1.1 Energy               -129.848101073957
 Nuclear energy                        30.42926500
 One-electron energy                 -237.88787952
 Two-electron energy                   77.61051344
 Virial quotient                       -1.00170955
 !RHF STATE 1.1 Dipole moment           0.00000000     0.56504668    -0.51915896
 Dipole moment /Debye                   0.00000000     1.43611133    -1.31948402

 Orbital energies:

         1.1          2.1          3.1          4.1          5.1          6.1          7.1          8.1          9.1
    -20.653408   -15.713133    -1.533698    -0.990859    -0.747689    -0.667590    -0.428371     0.026420     0.079487

         1.2          2.2          3.2
     -0.598677     0.064589     0.110896

 HOMO      7.1    -0.428371 =     -11.6566eV
 LUMO      8.1     0.026420 =       0.7189eV
 LUMO-HOMO         0.454792 =      12.3755eV


 **********************************************************************************************************************************
 DATASETS  * FILE   NREC   LENGTH (MB)   RECORD NAMES
              1      19      944.14       500      610      700      900      950      970     1000      129      960     1100   
                                          VAR    BASINP    GEOM    SYMINP    ZMAT    AOBASIS   BASIS     P2S    ABASIS      S 
                                         1400     1410     1200     1210     1080     1600     1650     1300     1700   
                                           T        V       H0       H01     AOSYM     SMH    MOLCAS    ERIS     OPER   

              2       4        3.27       700     1000      520     2100   
                                         GEOM     BASIS   MCVARS     RHF  

 PROGRAMS   *        TOTAL        HF       INT
 CPU TIMES  *        28.84     14.53     14.20
 REAL TIME  *        35.88 SEC
 DISK USED  *         3.13 GB      
 **********************************************************************************************************************************


 PROGRAM * CCSD (Closed-shell coupled cluster)     Authors: C. Hampel, H.-J. Werner, 1991, M. Deegan, P.J. Knowles, 1992


 Convergence thresholds:  THRVAR = 1.00D-08  THRDEN = 1.00D-12

 CCSD(T)     terms to be evaluated (factor= 1.000)


 Number of core orbitals:           2 (   2   0 )
 Number of closed-shell orbitals:   6 (   5   1 )
 Number of external orbitals:     198 ( 123  75 )

 Molecular orbitals read from record     2100.2  Type=RHF/CANONICAL (state 1.1)

 Number of N-1 electron functions:               6
 Number of N-2 electron functions:              21
 Number of singly external CSFs:               690
 Number of doubly external CSFs:            362646
 Total number of CSFs:                      363337

 Length of J-op  integral file:               0.00 MB
 Length of K-op  integral file:               1.60 MB
 Length of 3-ext integral record:             0.00 MB

 Memory could be reduced to 34.67 Mwords without degradation in triples

 Integral transformation finished. Total CPU:   1.89 sec, npass=  1  Memory used:   9.53 MW

 Reference energy:                   -129.84810107

 MP2 singlet pair energy:              -0.30132416
 MP2 triplet pair energy:              -0.17022699
 MP2 correlation energy:               -0.47155115
 MP2 total energy:                   -130.31965222

 SCS-MP2 correlation energy:           -0.46750801   (PS=  1.200000  PT=  0.333333)
 SCS-MP2 total energy:               -130.31560908

 ITER.      SQ.NORM     CORR.ENERGY   TOTAL ENERGY   ENERGY CHANGE        DEN1      VAR(S)    VAR(P)  DIIS     TIME  TIME/IT
   1      1.12082878    -0.47175754  -130.31985862    -0.00020639     0.01608053  0.31D-02  0.31D-02  1  1     3.55     1.80
   2      1.13146979    -0.47175100  -130.31985207     0.00000654    -0.01242857  0.10D-03  0.49D-03  2  2     5.25     1.85
   3      1.13773606    -0.47212777  -130.32022885    -0.00037677    -0.00303730  0.49D-04  0.52D-04  3  3     7.02     1.90
   4      1.14045223    -0.47213299  -130.32023406    -0.00000522    -0.00092838  0.43D-05  0.95D-05  4  4     8.81     1.93
   5      1.14152954    -0.47216215  -130.32026322    -0.00002915    -0.00023550  0.12D-05  0.16D-05  5  5    10.57     1.95
   6      1.14187927    -0.47214783  -130.32024890     0.00001432    -0.00004999  0.12D-06  0.39D-06  6  6    12.29     1.96
   7      1.14195374    -0.47214803  -130.32024910    -0.00000020     0.00000209  0.19D-07  0.87D-07  6  1    14.04     1.96
   8      1.14197689    -0.47214838  -130.32024945    -0.00000035    -0.00000121  0.36D-08  0.17D-07  6  2    15.80     1.95
   9      1.14198552    -0.47214783  -130.32024890     0.00000055    -0.00000039  0.22D-08  0.17D-08  6  3    17.62     1.96
  10      1.14198094    -0.47214858  -130.32024966    -0.00000075     0.00000152  0.31D-09  0.27D-09  6  5    19.42     1.97
  11      1.14198265    -0.47214854  -130.32024961     0.00000004    -0.00000031  0.92D-10  0.24D-10  6  4    21.15     1.97
  12      1.14198224    -0.47214861  -130.32024968    -0.00000007     0.00000003  0.17D-10  0.60D-11  6  6    22.81     1.96
  13      1.14198206    -0.47214861  -130.32024968    -0.00000000    -0.00000004  0.32D-11  0.82D-12  6  1    24.49     1.95
  14      1.14198179    -0.47214862  -130.32024969    -0.00000001     0.00000004  0.43D-12  0.16D-12  6  3    26.17     1.95
  15      1.14198172    -0.47214862  -130.32024970    -0.00000000     0.00000001  0.12D-12  0.22D-13  6  2    27.91     1.95
  16      1.14198171    -0.47214862  -130.32024970     0.00000000     0.00000000  0.29D-13  0.96D-14  6  4    29.67     1.96
  17      1.14198171    -0.47214862  -130.32024970    -0.00000000    -0.00000000  0.14D-14  0.10D-14  6  5    31.49     1.96
  18      1.14198172    -0.47214862  -130.32024970     0.00000000    -0.00000000  0.23D-15  0.24D-15  6  6    33.26     1.96
  19      1.14198172    -0.47214862  -130.32024970     0.00000000    -0.00000000  0.30D-16  0.26D-16  6  5    34.99     1.96
  20      1.14198172    -0.47214862  -130.32024970     0.00000000    -0.00000000  0.57D-17  0.37D-17  6  1    36.77     1.96
  21      1.14198172    -0.47214862  -130.32024970    -0.00000000     0.00000000  0.73D-18  0.52D-18  6  3    38.56     1.96
  22      1.14198172    -0.47214862  -130.32024970    -0.00000000     0.00000000  0.98D-19  0.56D-19  6  2    40.34     1.97
  23      1.14198172    -0.47214862  -130.32024970    -0.00000000     0.00000000  0.21D-19  0.10D-19  6  4    42.09     1.97
  24      1.14198172    -0.47214862  -130.32024970    -0.00000000     0.00000000  0.74D-20  0.17D-20  6  6    43.81     1.97
  25      1.14198172    -0.47214862  -130.32024970     0.00000000    -0.00000000  0.22D-20  0.58D-21  6  5    45.51     1.96

 Norm of t1 vector:      0.07637547      S-energy:    -0.00000000      T1 diagnostic:  0.01559008
                                                                       D1 diagnostic:  0.04151824

 Doubles amplitudes (print threshold =  0.500E-01):

         I         J         SYM. A    SYM. B    A         B      T(IJ, AB)

         6         6         2         2         1         1     -0.09580334


 Total CPU time for triples:     20.55 sec


 RESULTS
 =======

  Reference energy                   -129.848101073957
  CCSD singlet pair energy             -0.326315123671
  CCSD triplet pair energy             -0.145833498868
  CCSD correlation energy              -0.472148622539

  Triples (T) contribution             -0.022270384946
  Total correlation energy             -0.494419007485

  CCSD total energy                  -130.320249696496
  CCSD[T] energy                     -130.343582036664
  CCSD-T energy                      -130.342136160006
 !CCSD(T) total energy               -130.342520081441

 Timing summary (sec):

 STEP                 CPU(USER)    SYS     CPU(TOT)    WALL
 Transformation          1.91      0.34      2.25      2.33
 CCSD iterations        43.60      5.51     49.11     49.11
 Triples                20.55      0.51     21.06     21.06

 Program statistics:

 Available memory in ccsd:               994999756
 Min. memory needed in ccsd:               1265322
 Max. memory used in ccsd:                 1555950
 Max. memory used in cckext:               2415326 (25 integral passes)



 **********************************************************************************************************************************
 DATASETS  * FILE   NREC   LENGTH (MB)   RECORD NAMES
              1      20     1044.69       500      610      700      900      950      970     1000      129      960     1100   
                                          VAR    BASINP    GEOM    SYMINP    ZMAT    AOBASIS   BASIS     P2S    ABASIS      S 
                                         1400     1410     1200     1210     1080     1600     1650     1300     1700     1380   
                                           T        V       H0       H01     AOSYM     SMH    MOLCAS    ERIS     OPER     JKOP   

              2       4        3.27       700     1000      520     2100   
                                         GEOM     BASIS   MCVARS     RHF  

 PROGRAMS   *        TOTAL   CCSD(T)        HF       INT
 CPU TIMES  *        94.94     66.09     14.53     14.20
 REAL TIME  *       108.43 SEC
 DISK USED  *         3.13 GB      
 **********************************************************************************************************************************

 CCSD(T)/aug-cc-pVQZ energy=   -130.342520081441

        CCSD(T)         HF-SCF  
   -130.34252008   -129.84810107
 **********************************************************************************************************************************
 Molpro calculation terminated
 Variable memory released
