
 Primary working directories    : /tmp/r2666/282052.maple
 Secondary working directories  : /tmp/r2666/282052.maple
 Wavefunction directory         : /ddn/home4/r2666/wfu/
 Main file repository           : /tmp/r2666/282052.maple/

 SHA1      : d5ffa45e93fdbca01ffc919aa182cfdae0147319
 NAME      : 2015.1.35
 ARCHNAME  : linux/x86_64
 FC        : /opt/intel/composer_xe_2015.1.133/bin/intel64/ifort
 BLASLIB   : -Wl,-_start-group /opt/intel/mkl/lib/intel64/libmkl_intel_ilp64.a /opt/intel/mkl/lib/intel64/libmkl_intel_thread.a /opt/intel/mkl/lib/intel64/libmkl_core.a -Wl,-_end-group
 id        : olemiss

 Nodes     nprocs
 cn079        1

 Using customized tuning parameters: mindgm=1; mindgv=20; mindgc=4; mindgr=1; noblas=0; minvec=7
 default implementation of scratch files=df  

 ***,hno CCSD(T)/TZ-F12 QFF
 memory, 995, m;
 gthresh,energy=1.d-12,zero=1.d-22,oneint=1.d-22,twoint=1.d-22;
 gthresh,optgrad=1.d-8,optstep=1.d-8;
 nocompress;
 geomtyp=xyz
 bohr
 geometry={
 3
         78        78
 H        0.0000000000        1.6682414571       -1.9299469849
 N        0.0000000000       -0.1632684515       -1.1566815234
 O        0.0000000000        0.0367947845        1.1360389173
 }
 
 basis=avqz
   {hf,maxit=500;accu,20;}
 {ccsd(t),nocheck,maxit=250;orbital,IGNORE_ERROR;}

 Variables initialized (889), CPU time= 0.00 sec
 Commands  initialized (702), CPU time= 0.01 sec, 572 directives.
 Default parameters read. Elapsed time= 0.04 sec

 Checking input...
 Passed
1


                                         ***  PROGRAM SYSTEM MOLPRO  ***
                                       Copyright, TTI GmbH Stuttgart, 2015
                                    Version 2015.1 linked Jul  9 2018 13:16:40


 **********************************************************************************************************************************
 LABEL *   hno CCSD(T)/TZ-F12 QFF                                                        
  64 bit serial version                                                                  DATE: 04-Mar-20          TIME: 13:43:18  
 **********************************************************************************************************************************

 SHA1:             d5ffa45e93fdbca01ffc919aa182cfdae0147319
 **********************************************************************************************************************************

 THRESHOLDS:

 ZERO    =  1.00D-22  ONEINT  =  1.00D-22  TWOINT  =  1.00D-22  PREFAC  =  1.00D-14  LOCALI  =  1.00D-09  EORDER  =  1.00D-04
 ENERGY  =  1.00D-12  ETEST   =  0.00D+00  EDENS   =  0.00D+00  THRDEDEF=  1.00D-06  GRADIENT=  1.00D-02  STEP    =  1.00D-03
 ORBITAL =  1.00D-05  CIVEC   =  1.00D-05  COEFF   =  1.00D-04  PRINTCI =  5.00D-02  PUNCHCI =  9.90D+01  OPTGRAD =  3.00D-04
 OPTENERG=  1.00D-06  OPTSTEP =  3.00D-04  THRGRAD =  1.00D-10  COMPRESS=  1.00D-11  VARMIN  =  1.00D-07  VARMAX  =  1.00D-03
 THRDOUB =  0.00D+00  THRDIV  =  1.00D-05  THRRED  =  1.00D-07  THRPSP  =  1.00D+00  THRDC   =  1.00D-10  THRCS   =  1.00D-10
 THRNRM  =  1.00D-08  THREQ   =  0.00D+00  THRDE   =  1.00D+00  THRREF  =  1.00D-05  SPARFAC =  1.00D+00  THRDLP  =  1.00D-07
 THRDIA  =  1.00D-10  THRDLS  =  1.00D-07  THRGPS  =  0.00D+00  THRKEX  =  0.00D+00  THRDIS  =  2.00D-01  THRVAR  =  1.00D-10
 THRLOC  =  1.00D-06  THRGAP  =  1.00D-06  THRLOCT = -1.00D+00  THRGAPT = -1.00D+00  THRORB  =  1.00D-06  THRMLTP =  0.00D+00
 THRCPQCI=  1.00D-10  KEXTA   =  0.00D+00  THRCOARS=  0.00D+00  SYMTOL  =  1.00D-06  GRADTOL =  1.00D-06  THROVL  =  1.00D-08
 THRORTH =  1.00D-08  GRID    =  1.00D-06  GRIDMAX =  1.00D-03  DTMAX   =  0.00D+00  THROCCDE=  1.00D-01  THROCCDE=  1.00D-01



 THRESHOLDS:

 ZERO    =  1.00D-22  ONEINT  =  1.00D-22  TWOINT  =  1.00D-22  PREFAC  =  1.00D-14  LOCALI  =  1.00D-09  EORDER  =  1.00D-04
 ENERGY  =  1.00D-12  ETEST   =  0.00D+00  EDENS   =  0.00D+00  THRDEDEF=  1.00D-06  GRADIENT=  1.00D-02  STEP    =  1.00D-03
 ORBITAL =  1.00D-05  CIVEC   =  1.00D-05  COEFF   =  1.00D-04  PRINTCI =  5.00D-02  PUNCHCI =  9.90D+01  OPTGRAD =  1.00D-08
 OPTENERG=  1.00D-06  OPTSTEP =  1.00D-08  THRGRAD =  1.00D-10  COMPRESS=  1.00D-11  VARMIN  =  1.00D-07  VARMAX  =  1.00D-03
 THRDOUB =  0.00D+00  THRDIV  =  1.00D-05  THRRED  =  1.00D-07  THRPSP  =  1.00D+00  THRDC   =  1.00D-10  THRCS   =  1.00D-10
 THRNRM  =  1.00D-08  THREQ   =  0.00D+00  THRDE   =  1.00D+00  THRREF  =  1.00D-05  SPARFAC =  1.00D+00  THRDLP  =  1.00D-07
 THRDIA  =  1.00D-10  THRDLS  =  1.00D-07  THRGPS  =  0.00D+00  THRKEX  =  0.00D+00  THRDIS  =  2.00D-01  THRVAR  =  1.00D-10
 THRLOC  =  1.00D-06  THRGAP  =  1.00D-06  THRLOCT = -1.00D+00  THRGAPT = -1.00D+00  THRORB  =  1.00D-06  THRMLTP =  0.00D+00
 THRCPQCI=  1.00D-10  KEXTA   =  0.00D+00  THRCOARS=  0.00D+00  SYMTOL  =  1.00D-06  GRADTOL =  1.00D-06  THROVL  =  1.00D-08
 THRORTH =  1.00D-08  GRID    =  1.00D-06  GRIDMAX =  1.00D-03  DTMAX   =  0.00D+00  THROCCDE=  1.00D-01  THROCCDE=  1.00D-01



 Input parameters for SORTINT:

 COMPRESS =    0.000000
 C_FINAL  =    1.000000
 DEBUG    =   -1.000000
 C_SORT1  =    0.000000
 C_SEWARD =    0.000000
 THRESH   =    0.000000
 IO       =  molpro                                                          
 SPRI     =    0.000000
 SETTING GEOMTYP        =    XYZ
 ZUNIT=BOHR
 

 Variable memory set to  995000000 words,  buffer space   230000 words

 SETTING BASIS          =    AVQZ


 Recomputing integrals since basis changed


 Using spherical harmonics

 Library entry H      S aug-cc-pVQZ          selected for orbital group  1
 Library entry H      P aug-cc-pVQZ          selected for orbital group  1
 Library entry H      D aug-cc-pVQZ          selected for orbital group  1
 Library entry H      F aug-cc-pVQZ          selected for orbital group  1
 Library entry N      S aug-cc-pVQZ          selected for orbital group  2
 Library entry N      P aug-cc-pVQZ          selected for orbital group  2
 Library entry N      D aug-cc-pVQZ          selected for orbital group  2
 Library entry N      F aug-cc-pVQZ          selected for orbital group  2
 Library entry N      G aug-cc-pVQZ          selected for orbital group  2
 Library entry O      S aug-cc-pVQZ          selected for orbital group  3
 Library entry O      P aug-cc-pVQZ          selected for orbital group  3
 Library entry O      D aug-cc-pVQZ          selected for orbital group  3
 Library entry O      F aug-cc-pVQZ          selected for orbital group  3
 Library entry O      G aug-cc-pVQZ          selected for orbital group  3


 PROGRAM * SEWARD (Integral evaluation for generally contracted gaussian basis sets)     Author: Roland Lindh, 1990

 Geometry written to block  1 of record 700


 Point group  Cs  



 ATOMIC COORDINATES

 NR  ATOM    CHARGE       X              Y              Z

   1  H       1.00    0.000000000    1.668241457   -1.929946985
   2  N       7.00    0.000000000   -0.163268451   -1.156681523
   3  O       8.00    0.000000000    0.036794784    1.136038917

 Bond lengths in Bohr (Angstrom)

 1-2  1.988056342  2-3  2.301432666
     ( 1.052034110)     ( 1.217865719)

 Bond angles

  1-2-3  107.90251459

 NUCLEAR CHARGE:                   16
 NUMBER OF PRIMITIVE AOS:         293
 NUMBER OF SYMMETRY AOS:          234
 NUMBER OF CONTRACTIONS:          206   ( 130A'  +  76A"  )
 NUMBER OF CORE ORBITALS:           2   (   2A'  +   0A"  )
 NUMBER OF VALENCE ORBITALS:        9   (   7A'  +   2A"  )


 NUCLEAR REPULSION ENERGY   30.15716513

 Eigenvalues of metric

         1 0.602E-04 0.148E-03 0.321E-03 0.437E-03 0.605E-03 0.687E-03 0.102E-02 0.110E-02
         2 0.849E-03 0.163E-02 0.506E-02 0.898E-02 0.102E-01 0.125E-01 0.128E-01 0.191E-01


 Contracted 2-electron integrals neglected if value below      1.0D-22

      109945093. INTEGRALS WRITTEN OUT IN   26849 BLOCKS ON RECORD 1290 OF FILE 1


 NUMBER OF SORTED TWO-ELECTRON INTEGRALS:  115283741.     BUFFER LENGTH:  32768
 NUMBER OF SEGMENTS:   8  SEGMENT LENGTH:   15998004      RECORD LENGTH: 524288

 Memory used in sort:      16.56 MW

 SORT1 READ   109945093. AND WROTE   110865260. INTEGRALS IN    322 RECORDS. CPU TIME:     1.77 SEC, REAL TIME:     2.51 SEC
 SORT2 READ   110865260. AND WROTE   115283741. INTEGRALS IN      8 RECORDS. CPU TIME:     1.28 SEC, REAL TIME:     1.78 SEC

 FILE SIZES:   FILE 1:  1780.6 MBYTE,  FILE 4:  1350.6 MBYTE,   TOTAL:   3131.2 MBYTE

 OPERATOR DM      FOR CENTER  0  COORDINATES:    0.000000    0.000000    0.000000


 **********************************************************************************************************************************
 DATASETS  * FILE   NREC   LENGTH (MB)   RECORD NAMES
              1      19      944.14       500      610      700      900      950      970     1000      129      960     1100   
                                          VAR    BASINP    GEOM    SYMINP    ZMAT    AOBASIS   BASIS     P2S    ABASIS      S 
                                         1400     1410     1200     1210     1080     1600     1650     1300     1700   
                                           T        V       H0       H01     AOSYM     SMH    MOLCAS    ERIS     OPER   

 PROGRAMS   *        TOTAL       INT
 CPU TIMES  *        10.43     10.35
 REAL TIME  *        13.06 SEC
 DISK USED  *         3.13 GB      
 **********************************************************************************************************************************


 PROGRAM * RHF-SCF (CLOSED SHELL)       Authors: W. Meyer, H.-J. Werner


 NUMBER OF ELECTRONS:       8+    8-
 CONVERGENCE THRESHOLDS:    1.00E-10 (Density)    1.00E-13 (Energy)
 MAX. NUMBER OF ITERATIONS:      500
 INTERPOLATION TYPE:            DIIS
 INTERPOLATION STEPS:              2 (START)      1 (STEP)
 LEVEL SHIFTS:                  0.00 (CLOSED)  0.00 (OPEN) 



 Orbital guess generated from atomic densities. Full valence occupancy:    9   2

 Molecular orbital dump at record        2100.2

 Initial occupancy:   7   1

 ITERATION    DDIFF          GRAD             ENERGY        2-EL.EN.            DIPOLE MOMENTS         DIIS   ORB.
    1      0.000D+00      0.000D+00      -129.79365426    153.583086    0.00000    0.59619   -1.05799    0    start
    2      0.000D+00      0.821D-02      -129.82058387    154.793695    0.00000    0.61671   -0.20134    1    diag
    3      0.668D-02      0.640D-02      -129.84522903    154.939802    0.00000    0.55992   -0.60743    2    diag
    4      0.343D-02      0.983D-03      -129.84605487    154.646809    0.00000    0.56722   -0.54447    3    diag
    5      0.614D-03      0.321D-03      -129.84618554    154.741284    0.00000    0.57252   -0.54685    4    diag
    6      0.257D-03      0.928D-04      -129.84620646    154.724962    0.00000    0.57275   -0.54248    5    diag
    7      0.983D-04      0.467D-04      -129.84621271    154.727632    0.00000    0.57396   -0.53972    6    diag
    8      0.683D-04      0.168D-04      -129.84621347    154.726896    0.00000    0.57399   -0.53861    7    diag
    9      0.277D-04      0.326D-05      -129.84621351    154.726771    0.00000    0.57395   -0.53837    8    diag
   10      0.563D-05      0.726D-06      -129.84621351    154.726753    0.00000    0.57392   -0.53834    9    orth
   11      0.105D-05      0.143D-06      -129.84621351    154.726749    0.00000    0.57391   -0.53834    9    diag
   12      0.187D-06      0.298D-07      -129.84621351    154.726749    0.00000    0.57391   -0.53834    9    diag
   13      0.404D-07      0.788D-08      -129.84621351    154.726749    0.00000    0.57391   -0.53834    9    diag
   14      0.114D-07      0.154D-08      -129.84621351    154.726749    0.00000    0.57391   -0.53834    9    diag
   15      0.204D-08      0.436D-09      -129.84621351    154.726749    0.00000    0.57391   -0.53834    9    diag
   16      0.616D-09      0.127D-09      -129.84621351    154.726749    0.00000    0.57391   -0.53834    9    diag
   17      0.111D-09      0.321D-10      -129.84621351    154.726749    0.00000    0.57391   -0.53834    9    diag
   18      0.286D-10      0.105D-10      -129.84621351    154.726749    0.00000    0.57391   -0.53834    9    diag
   19      0.141D-10      0.238D-11      -129.84621351    154.726749    0.00000    0.57391   -0.53834    9    fixocc
   20      0.578D-11      0.369D-12      -129.84621351    154.726749    0.00000    0.57391   -0.53834    9    orth
   21      0.361D-11      0.187D-12      -129.84621351    154.726749    0.00000    0.57391   -0.53834    9    diag
   22      0.231D-11      0.114D-12      -129.84621351    154.726749    0.00000    0.57391   -0.53834    9    diag
   23      0.950D-12      0.156D-12      -129.84621351    154.726749    0.00000    0.57391   -0.53834    0    orth

 Final occupancy:   7   1

 !RHF STATE 1.1 Energy               -129.846213507412
 Nuclear energy                        30.15716513
 One-electron energy                 -237.36675314
 Two-electron energy                   77.36337450
 Virial quotient                       -1.00202775
 !RHF STATE 1.1 Dipole moment           0.00000000     0.57391136    -0.53834242
 Dipole moment /Debye                   0.00000000     1.45864163    -1.36824032

 Orbital energies:

         1.1          2.1          3.1          4.1          5.1          6.1          7.1          8.1          9.1
    -20.654554   -15.714404    -1.521719    -0.996663    -0.744229    -0.663235    -0.433740     0.026255     0.079455

         1.2          2.2          3.2
     -0.591460     0.060798     0.110038

 HOMO      7.1    -0.433740 =     -11.8027eV
 LUMO      8.1     0.026255 =       0.7144eV
 LUMO-HOMO         0.459994 =      12.5171eV


 **********************************************************************************************************************************
 DATASETS  * FILE   NREC   LENGTH (MB)   RECORD NAMES
              1      19      944.14       500      610      700      900      950      970     1000      129      960     1100   
                                          VAR    BASINP    GEOM    SYMINP    ZMAT    AOBASIS   BASIS     P2S    ABASIS      S 
                                         1400     1410     1200     1210     1080     1600     1650     1300     1700   
                                           T        V       H0       H01     AOSYM     SMH    MOLCAS    ERIS     OPER   

              2       4        3.27       700     1000      520     2100   
                                         GEOM     BASIS   MCVARS     RHF  

 PROGRAMS   *        TOTAL        HF       INT
 CPU TIMES  *        21.40     10.97     10.35
 REAL TIME  *        26.56 SEC
 DISK USED  *         3.13 GB      
 **********************************************************************************************************************************


 PROGRAM * CCSD (Closed-shell coupled cluster)     Authors: C. Hampel, H.-J. Werner, 1991, M. Deegan, P.J. Knowles, 1992


 Convergence thresholds:  THRVAR = 1.00D-08  THRDEN = 1.00D-12

 CCSD(T)     terms to be evaluated (factor= 1.000)


 Number of core orbitals:           2 (   2   0 )
 Number of closed-shell orbitals:   6 (   5   1 )
 Number of external orbitals:     198 ( 123  75 )

 Molecular orbitals read from record     2100.2  Type=RHF/CANONICAL (state 1.1)

 Number of N-1 electron functions:               6
 Number of N-2 electron functions:              21
 Number of singly external CSFs:               690
 Number of doubly external CSFs:            362646
 Total number of CSFs:                      363337

 Length of J-op  integral file:               0.00 MB
 Length of K-op  integral file:               1.60 MB
 Length of 3-ext integral record:             0.00 MB

 Memory could be reduced to 34.67 Mwords without degradation in triples

 Integral transformation finished. Total CPU:   1.37 sec, npass=  1  Memory used:   9.53 MW

 Reference energy:                   -129.84621351

 MP2 singlet pair energy:              -0.30263740
 MP2 triplet pair energy:              -0.17112006
 MP2 correlation energy:               -0.47375746
 MP2 total energy:                   -130.31997097

 SCS-MP2 correlation energy:           -0.46963958   (PS=  1.200000  PT=  0.333333)
 SCS-MP2 total energy:               -130.31585309

 ITER.      SQ.NORM     CORR.ENERGY   TOTAL ENERGY   ENERGY CHANGE        DEN1      VAR(S)    VAR(P)  DIIS     TIME  TIME/IT
   1      1.12209464    -0.47338925  -130.31960276     0.00036821     0.01721666  0.33D-02  0.33D-02  1  1     2.52     1.28
   2      1.13304534    -0.47326196  -130.31947547     0.00012729    -0.01275792  0.11D-03  0.51D-03  2  2     3.69     1.31
   3      1.13955221    -0.47365498  -130.31986849    -0.00039302    -0.00310950  0.51D-04  0.56D-04  3  3     4.86     1.32
   4      1.14242397    -0.47366239  -130.31987589    -0.00000741    -0.00096738  0.47D-05  0.10D-04  4  4     6.06     1.32
   5      1.14358446    -0.47369383  -130.31990734    -0.00003144    -0.00025242  0.12D-05  0.17D-05  5  5     7.20     1.33
   6      1.14395501    -0.47367782  -130.31989132     0.00001601    -0.00005359  0.11D-06  0.39D-06  6  6     8.39     1.33
   7      1.14402801    -0.47367839  -130.31989190    -0.00000057     0.00000302  0.17D-07  0.91D-07  6  1     9.55     1.34
   8      1.14405099    -0.47367862  -130.31989212    -0.00000022    -0.00000121  0.33D-08  0.19D-07  6  2    10.76     1.34
   9      1.14405597    -0.47367820  -130.31989171     0.00000042     0.00000104  0.26D-08  0.22D-08  6  4    11.99     1.35
  10      1.14405855    -0.47367858  -130.31989209    -0.00000038    -0.00000079  0.50D-09  0.27D-09  6  3    13.24     1.35
  11      1.14405832    -0.47367864  -130.31989215    -0.00000006    -0.00000014  0.16D-09  0.38D-10  6  5    14.45     1.36
  12      1.14405734    -0.47367879  -130.31989230    -0.00000015     0.00000037  0.20D-10  0.12D-10  6  6    15.66     1.36
  13      1.14405645    -0.47367883  -130.31989234    -0.00000004     0.00000022  0.61D-11  0.25D-11  6  1    16.86     1.36
  14      1.14405574    -0.47367887  -130.31989238    -0.00000004     0.00000016  0.37D-12  0.54D-12  6  4    18.09     1.36
  15      1.14405551    -0.47367888  -130.31989239    -0.00000001     0.00000004  0.84D-13  0.42D-13  6  2    19.31     1.36
  16      1.14405546    -0.47367888  -130.31989239    -0.00000000     0.00000001  0.23D-13  0.77D-14  6  3    20.51     1.36
  17      1.14405543    -0.47367888  -130.31989239    -0.00000000     0.00000001  0.42D-14  0.10D-14  6  5    21.75     1.36
  18      1.14405543    -0.47367888  -130.31989239    -0.00000000     0.00000000  0.89D-15  0.26D-15  6  6    22.96     1.36
  19      1.14405543    -0.47367888  -130.31989239    -0.00000000     0.00000000  0.11D-15  0.53D-16  6  1    24.20     1.36
  20      1.14405543    -0.47367888  -130.31989239     0.00000000    -0.00000000  0.11D-16  0.78D-17  6  4    25.39     1.36
  21      1.14405543    -0.47367888  -130.31989239     0.00000000    -0.00000000  0.52D-18  0.63D-18  6  3    26.59     1.36
  22      1.14405543    -0.47367888  -130.31989239     0.00000000    -0.00000000  0.13D-18  0.12D-18  6  2    27.83     1.36
  23      1.14405543    -0.47367888  -130.31989239     0.00000000     0.00000000  0.38D-19  0.45D-19  6  5    29.07     1.37
  24      1.14405543    -0.47367888  -130.31989239    -0.00000000     0.00000000  0.31D-20  0.98D-20  6  1    30.28     1.36

 Norm of t1 vector:      0.07837434      S-energy:    -0.00000000      T1 diagnostic:  0.01599810
                                                                       D1 diagnostic:  0.04346731

 Doubles amplitudes (print threshold =  0.500E-01):

         I         J         SYM. A    SYM. B    A         B      T(IJ, AB)

         6         6         2         2         1         1     -0.10389977


 Total CPU time for triples:     14.50 sec


 RESULTS
 =======

  Reference energy                   -129.846213507412
  CCSD singlet pair energy             -0.327646544503
  CCSD triplet pair energy             -0.146032335755
  CCSD correlation energy              -0.473678880259

  Triples (T) contribution             -0.022677022917
  Total correlation energy             -0.496355903176

  CCSD total energy                  -130.319892387672
  CCSD[T] energy                     -130.343686219964
  CCSD-T energy                      -130.342173838620
 !CCSD(T) total energy               -130.342569410588

 Timing summary (sec):

 STEP                 CPU(USER)    SYS     CPU(TOT)    WALL
 Transformation          1.38      0.27      1.65      1.64
 CCSD iterations        28.91      3.83     32.74     32.77
 Triples                14.50      0.40     14.90     14.91

 Program statistics:

 Available memory in ccsd:               994999756
 Min. memory needed in ccsd:               1265322
 Max. memory used in ccsd:                 1555950
 Max. memory used in cckext:               2415326 (24 integral passes)



 **********************************************************************************************************************************
 DATASETS  * FILE   NREC   LENGTH (MB)   RECORD NAMES
              1      20     1044.69       500      610      700      900      950      970     1000      129      960     1100   
                                          VAR    BASINP    GEOM    SYMINP    ZMAT    AOBASIS   BASIS     P2S    ABASIS      S 
                                         1400     1410     1200     1210     1080     1600     1650     1300     1700     1380   
                                           T        V       H0       H01     AOSYM     SMH    MOLCAS    ERIS     OPER     JKOP   

              2       4        3.27       700     1000      520     2100   
                                         GEOM     BASIS   MCVARS     RHF  

 PROGRAMS   *        TOTAL   CCSD(T)        HF       INT
 CPU TIMES  *        66.22     44.80     10.97     10.35
 REAL TIME  *        75.92 SEC
 DISK USED  *         3.13 GB      
 **********************************************************************************************************************************

 CCSD(T)/aug-cc-pVQZ energy=   -130.342569410588

        CCSD(T)         HF-SCF  
   -130.34256941   -129.84621351
 **********************************************************************************************************************************
 Molpro calculation terminated
 Variable memory released
