
 Primary working directories    : /tmp/r2666/282059.maple
 Secondary working directories  : /tmp/r2666/282059.maple
 Wavefunction directory         : /ddn/home4/r2666/wfu/
 Main file repository           : /tmp/r2666/282059.maple/

 SHA1      : d5ffa45e93fdbca01ffc919aa182cfdae0147319
 NAME      : 2015.1.35
 ARCHNAME  : linux/x86_64
 FC        : /opt/intel/composer_xe_2015.1.133/bin/intel64/ifort
 BLASLIB   : -Wl,-_start-group /opt/intel/mkl/lib/intel64/libmkl_intel_ilp64.a /opt/intel/mkl/lib/intel64/libmkl_intel_thread.a /opt/intel/mkl/lib/intel64/libmkl_core.a -Wl,-_end-group
 id        : olemiss

 Nodes     nprocs
 cn080        1

 Using customized tuning parameters: mindgm=1; mindgv=20; mindgc=4; mindgr=1; noblas=0; minvec=7
 default implementation of scratch files=df  

 ***,hno CCSD(T)/TZ-F12 QFF
 memory, 995, m;
 gthresh,energy=1.d-12,zero=1.d-22,oneint=1.d-22,twoint=1.d-22;
 gthresh,optgrad=1.d-8,optstep=1.d-8;
 nocompress;
 geomtyp=xyz
 bohr
 geometry={
 3
         85        85
 H        0.0000000000        1.6700726635       -1.9378742902
 N        0.0000000000       -0.1605500631       -1.1625108579
 O        0.0000000000        0.0322451895        1.1497955571
 }
 
 basis=avqz
   {hf,maxit=500;accu,20;}
 {ccsd(t),nocheck,maxit=250;orbital,IGNORE_ERROR;}

 Variables initialized (889), CPU time= 0.01 sec
 Commands  initialized (702), CPU time= 0.01 sec, 572 directives.
 Default parameters read. Elapsed time= 0.04 sec

 Checking input...
 Passed
1


                                         ***  PROGRAM SYSTEM MOLPRO  ***
                                       Copyright, TTI GmbH Stuttgart, 2015
                                    Version 2015.1 linked Jul  9 2018 13:16:40


 **********************************************************************************************************************************
 LABEL *   hno CCSD(T)/TZ-F12 QFF                                                        
  64 bit serial version                                                                  DATE: 04-Mar-20          TIME: 13:43:46  
 **********************************************************************************************************************************

 SHA1:             d5ffa45e93fdbca01ffc919aa182cfdae0147319
 **********************************************************************************************************************************

 THRESHOLDS:

 ZERO    =  1.00D-22  ONEINT  =  1.00D-22  TWOINT  =  1.00D-22  PREFAC  =  1.00D-14  LOCALI  =  1.00D-09  EORDER  =  1.00D-04
 ENERGY  =  1.00D-12  ETEST   =  0.00D+00  EDENS   =  0.00D+00  THRDEDEF=  1.00D-06  GRADIENT=  1.00D-02  STEP    =  1.00D-03
 ORBITAL =  1.00D-05  CIVEC   =  1.00D-05  COEFF   =  1.00D-04  PRINTCI =  5.00D-02  PUNCHCI =  9.90D+01  OPTGRAD =  3.00D-04
 OPTENERG=  1.00D-06  OPTSTEP =  3.00D-04  THRGRAD =  1.00D-10  COMPRESS=  1.00D-11  VARMIN  =  1.00D-07  VARMAX  =  1.00D-03
 THRDOUB =  0.00D+00  THRDIV  =  1.00D-05  THRRED  =  1.00D-07  THRPSP  =  1.00D+00  THRDC   =  1.00D-10  THRCS   =  1.00D-10
 THRNRM  =  1.00D-08  THREQ   =  0.00D+00  THRDE   =  1.00D+00  THRREF  =  1.00D-05  SPARFAC =  1.00D+00  THRDLP  =  1.00D-07
 THRDIA  =  1.00D-10  THRDLS  =  1.00D-07  THRGPS  =  0.00D+00  THRKEX  =  0.00D+00  THRDIS  =  2.00D-01  THRVAR  =  1.00D-10
 THRLOC  =  1.00D-06  THRGAP  =  1.00D-06  THRLOCT = -1.00D+00  THRGAPT = -1.00D+00  THRORB  =  1.00D-06  THRMLTP =  0.00D+00
 THRCPQCI=  1.00D-10  KEXTA   =  0.00D+00  THRCOARS=  0.00D+00  SYMTOL  =  1.00D-06  GRADTOL =  1.00D-06  THROVL  =  1.00D-08
 THRORTH =  1.00D-08  GRID    =  1.00D-06  GRIDMAX =  1.00D-03  DTMAX   =  0.00D+00  THROCCDE=  1.00D-01  THROCCDE=  1.00D-01



 THRESHOLDS:

 ZERO    =  1.00D-22  ONEINT  =  1.00D-22  TWOINT  =  1.00D-22  PREFAC  =  1.00D-14  LOCALI  =  1.00D-09  EORDER  =  1.00D-04
 ENERGY  =  1.00D-12  ETEST   =  0.00D+00  EDENS   =  0.00D+00  THRDEDEF=  1.00D-06  GRADIENT=  1.00D-02  STEP    =  1.00D-03
 ORBITAL =  1.00D-05  CIVEC   =  1.00D-05  COEFF   =  1.00D-04  PRINTCI =  5.00D-02  PUNCHCI =  9.90D+01  OPTGRAD =  1.00D-08
 OPTENERG=  1.00D-06  OPTSTEP =  1.00D-08  THRGRAD =  1.00D-10  COMPRESS=  1.00D-11  VARMIN  =  1.00D-07  VARMAX  =  1.00D-03
 THRDOUB =  0.00D+00  THRDIV  =  1.00D-05  THRRED  =  1.00D-07  THRPSP  =  1.00D+00  THRDC   =  1.00D-10  THRCS   =  1.00D-10
 THRNRM  =  1.00D-08  THREQ   =  0.00D+00  THRDE   =  1.00D+00  THRREF  =  1.00D-05  SPARFAC =  1.00D+00  THRDLP  =  1.00D-07
 THRDIA  =  1.00D-10  THRDLS  =  1.00D-07  THRGPS  =  0.00D+00  THRKEX  =  0.00D+00  THRDIS  =  2.00D-01  THRVAR  =  1.00D-10
 THRLOC  =  1.00D-06  THRGAP  =  1.00D-06  THRLOCT = -1.00D+00  THRGAPT = -1.00D+00  THRORB  =  1.00D-06  THRMLTP =  0.00D+00
 THRCPQCI=  1.00D-10  KEXTA   =  0.00D+00  THRCOARS=  0.00D+00  SYMTOL  =  1.00D-06  GRADTOL =  1.00D-06  THROVL  =  1.00D-08
 THRORTH =  1.00D-08  GRID    =  1.00D-06  GRIDMAX =  1.00D-03  DTMAX   =  0.00D+00  THROCCDE=  1.00D-01  THROCCDE=  1.00D-01



 Input parameters for SORTINT:

 COMPRESS =    0.000000
 C_FINAL  =    1.000000
 DEBUG    =   -1.000000
 C_SORT1  =    0.000000
 C_SEWARD =    0.000000
 THRESH   =    0.000000
 IO       =  molpro                                                          
 SPRI     =    0.000000
 SETTING GEOMTYP        =    XYZ
 ZUNIT=BOHR
 

 Variable memory set to  995000000 words,  buffer space   230000 words

 SETTING BASIS          =    AVQZ


 Recomputing integrals since basis changed


 Using spherical harmonics

 Library entry H      S aug-cc-pVQZ          selected for orbital group  1
 Library entry H      P aug-cc-pVQZ          selected for orbital group  1
 Library entry H      D aug-cc-pVQZ          selected for orbital group  1
 Library entry H      F aug-cc-pVQZ          selected for orbital group  1
 Library entry N      S aug-cc-pVQZ          selected for orbital group  2
 Library entry N      P aug-cc-pVQZ          selected for orbital group  2
 Library entry N      D aug-cc-pVQZ          selected for orbital group  2
 Library entry N      F aug-cc-pVQZ          selected for orbital group  2
 Library entry N      G aug-cc-pVQZ          selected for orbital group  2
 Library entry O      S aug-cc-pVQZ          selected for orbital group  3
 Library entry O      P aug-cc-pVQZ          selected for orbital group  3
 Library entry O      D aug-cc-pVQZ          selected for orbital group  3
 Library entry O      F aug-cc-pVQZ          selected for orbital group  3
 Library entry O      G aug-cc-pVQZ          selected for orbital group  3


 PROGRAM * SEWARD (Integral evaluation for generally contracted gaussian basis sets)     Author: Roland Lindh, 1990

 Geometry written to block  1 of record 700


 Point group  Cs  



 ATOMIC COORDINATES

 NR  ATOM    CHARGE       X              Y              Z

   1  H       1.00    0.000000000    1.670072664   -1.937874290
   2  N       7.00    0.000000000   -0.160550063   -1.162510858
   3  O       8.00    0.000000000    0.032245190    1.149795557

 Bond lengths in Bohr (Angstrom)

 1-2  1.988056342  2-3  2.320329926
     ( 1.052034110)     ( 1.227865719)

 Bond angles

  1-2-3  108.18899349

 NUCLEAR CHARGE:                   16
 NUMBER OF PRIMITIVE AOS:         293
 NUMBER OF SYMMETRY AOS:          234
 NUMBER OF CONTRACTIONS:          206   ( 130A'  +  76A"  )
 NUMBER OF CORE ORBITALS:           2   (   2A'  +   0A"  )
 NUMBER OF VALENCE ORBITALS:        9   (   7A'  +   2A"  )


 NUCLEAR REPULSION ENERGY   29.94440153

 Eigenvalues of metric

         1 0.611E-04 0.149E-03 0.324E-03 0.439E-03 0.620E-03 0.692E-03 0.103E-02 0.111E-02
         2 0.876E-03 0.163E-02 0.516E-02 0.903E-02 0.102E-01 0.127E-01 0.131E-01 0.196E-01


 Contracted 2-electron integrals neglected if value below      1.0D-22

      109945072. INTEGRALS WRITTEN OUT IN   26849 BLOCKS ON RECORD 1290 OF FILE 1


 NUMBER OF SORTED TWO-ELECTRON INTEGRALS:  115283741.     BUFFER LENGTH:  32768
 NUMBER OF SEGMENTS:   8  SEGMENT LENGTH:   15998004      RECORD LENGTH: 524288

 Memory used in sort:      16.56 MW

 SORT1 READ   109945072. AND WROTE   110865239. INTEGRALS IN    322 RECORDS. CPU TIME:     1.88 SEC, REAL TIME:     2.70 SEC
 SORT2 READ   110865239. AND WROTE   115283741. INTEGRALS IN      8 RECORDS. CPU TIME:     1.35 SEC, REAL TIME:     1.87 SEC

 FILE SIZES:   FILE 1:  1780.6 MBYTE,  FILE 4:  1350.6 MBYTE,   TOTAL:   3131.2 MBYTE

 OPERATOR DM      FOR CENTER  0  COORDINATES:    0.000000    0.000000    0.000000


 **********************************************************************************************************************************
 DATASETS  * FILE   NREC   LENGTH (MB)   RECORD NAMES
              1      19      944.13       500      610      700      900      950      970     1000      129      960     1100   
                                          VAR    BASINP    GEOM    SYMINP    ZMAT    AOBASIS   BASIS     P2S    ABASIS      S 
                                         1400     1410     1200     1210     1080     1600     1650     1300     1700   
                                           T        V       H0       H01     AOSYM     SMH    MOLCAS    ERIS     OPER   

 PROGRAMS   *        TOTAL       INT
 CPU TIMES  *        10.99     10.89
 REAL TIME  *        13.86 SEC
 DISK USED  *         3.13 GB      
 **********************************************************************************************************************************


 PROGRAM * RHF-SCF (CLOSED SHELL)       Authors: W. Meyer, H.-J. Werner


 NUMBER OF ELECTRONS:       8+    8-
 CONVERGENCE THRESHOLDS:    1.00E-10 (Density)    1.00E-13 (Energy)
 MAX. NUMBER OF ITERATIONS:      500
 INTERPOLATION TYPE:            DIIS
 INTERPOLATION STEPS:              2 (START)      1 (STEP)
 LEVEL SHIFTS:                  0.00 (CLOSED)  0.00 (OPEN) 



 Orbital guess generated from atomic densities. Full valence occupancy:    9   2

 Molecular orbital dump at record        2100.2

 Initial occupancy:   7   1

 ITERATION    DDIFF          GRAD             ENERGY        2-EL.EN.            DIPOLE MOMENTS         DIIS   ORB.
    1      0.000D+00      0.000D+00      -129.79034041    153.200721    0.00000    0.60290   -1.09139    0    start
    2      0.000D+00      0.830D-02      -129.81680729    154.389506    0.00000    0.62246   -0.19581    1    diag
    3      0.682D-02      0.662D-02      -129.84329997    154.559153    0.00000    0.56540   -0.62314    2    diag
    4      0.353D-02      0.995D-03      -129.84414827    154.258398    0.00000    0.57230   -0.55846    3    diag
    5      0.622D-03      0.325D-03      -129.84428285    154.353933    0.00000    0.57763   -0.56071    4    diag
    6      0.262D-03      0.940D-04      -129.84430442    154.337476    0.00000    0.57783   -0.55616    5    diag
    7      0.999D-04      0.477D-04      -129.84431100    154.340052    0.00000    0.57901   -0.55327    6    diag
    8      0.698D-04      0.177D-04      -129.84431188    154.339277    0.00000    0.57904   -0.55207    7    diag
    9      0.298D-04      0.350D-05      -129.84431192    154.339142    0.00000    0.57900   -0.55181    8    diag
   10      0.623D-05      0.763D-06      -129.84431193    154.339123    0.00000    0.57896   -0.55178    9    orth
   11      0.111D-05      0.149D-06      -129.84431193    154.339119    0.00000    0.57896   -0.55178    9    diag
   12      0.192D-06      0.319D-07      -129.84431193    154.339119    0.00000    0.57896   -0.55178    9    diag
   13      0.416D-07      0.873D-08      -129.84431193    154.339119    0.00000    0.57896   -0.55178    9    diag
   14      0.122D-07      0.173D-08      -129.84431193    154.339119    0.00000    0.57896   -0.55178    9    diag
   15      0.219D-08      0.495D-09      -129.84431193    154.339119    0.00000    0.57896   -0.55178    9    diag
   16      0.681D-09      0.145D-09      -129.84431193    154.339119    0.00000    0.57896   -0.55178    9    diag
   17      0.121D-09      0.380D-10      -129.84431193    154.339119    0.00000    0.57896   -0.55178    9    diag
   18      0.353D-10      0.130D-10      -129.84431193    154.339119    0.00000    0.57896   -0.55178    9    diag
   19      0.171D-10      0.321D-11      -129.84431193    154.339119    0.00000    0.57896   -0.55178    9    fixocc
   20      0.608D-11      0.576D-12      -129.84431193    154.339119    0.00000    0.57896   -0.55178    9    orth
   21      0.403D-11      0.236D-12      -129.84431193    154.339119    0.00000    0.57896   -0.55178    9    diag
   22      0.215D-11      0.129D-12      -129.84431193    154.339119    0.00000    0.57896   -0.55178    9    diag
   23      0.692D-12      0.897D-13      -129.84431193    154.339119    0.00000    0.57896   -0.55178    9    diag
   24      0.711D-12      0.883D-13      -129.84431193    154.339119    0.00000    0.57896   -0.55178    9    diag
   25      0.357D-12      0.115D-12      -129.84431193    154.339119    0.00000    0.57896   -0.55178    9    diag
   26      0.174D-12      0.102D-12      -129.84431193    154.339119    0.00000    0.57896   -0.55178    9    diag
   27      0.230D-12      0.108D-12      -129.84431193    154.339119    0.00000    0.57896   -0.55178    9    diag
   28      0.153D-12      0.908D-13      -129.84431193    154.339119    0.00000    0.57896   -0.55178    9    diag
   29      0.276D-12      0.931D-13      -129.84431193    154.339119    0.00000    0.57896   -0.55178    0    orth

 Final occupancy:   7   1

 !RHF STATE 1.1 Energy               -129.844311926508
 Nuclear energy                        29.94440153
 One-electron energy                 -236.95827306
 Two-electron energy                   77.16955960
 Virial quotient                       -1.00231385
 !RHF STATE 1.1 Dipole moment           0.00000000     0.57895577    -0.55177998
 Dipole moment /Debye                   0.00000000     1.47146241    -1.40239296

 Orbital energies:

         1.1          2.1          3.1          4.1          5.1          6.1          7.1          8.1          9.1
    -20.655576   -15.716079    -1.513644    -0.999184    -0.741259    -0.660469    -0.436529     0.026105     0.079414

         1.2          2.2          3.2
     -0.586836     0.058131     0.109653

 HOMO      7.1    -0.436529 =     -11.8785eV
 LUMO      8.1     0.026105 =       0.7103eV
 LUMO-HOMO         0.462633 =      12.5889eV


 **********************************************************************************************************************************
 DATASETS  * FILE   NREC   LENGTH (MB)   RECORD NAMES
              1      19      944.13       500      610      700      900      950      970     1000      129      960     1100   
                                          VAR    BASINP    GEOM    SYMINP    ZMAT    AOBASIS   BASIS     P2S    ABASIS      S 
                                         1400     1410     1200     1210     1080     1600     1650     1300     1700   
                                           T        V       H0       H01     AOSYM     SMH    MOLCAS    ERIS     OPER   

              2       4        3.27       700     1000      520     2100   
                                         GEOM     BASIS   MCVARS     RHF  

 PROGRAMS   *        TOTAL        HF       INT
 CPU TIMES  *        25.36     14.37     10.89
 REAL TIME  *        31.90 SEC
 DISK USED  *         3.13 GB      
 **********************************************************************************************************************************


 PROGRAM * CCSD (Closed-shell coupled cluster)     Authors: C. Hampel, H.-J. Werner, 1991, M. Deegan, P.J. Knowles, 1992


 Convergence thresholds:  THRVAR = 1.00D-08  THRDEN = 1.00D-12

 CCSD(T)     terms to be evaluated (factor= 1.000)


 Number of core orbitals:           2 (   2   0 )
 Number of closed-shell orbitals:   6 (   5   1 )
 Number of external orbitals:     198 ( 123  75 )

 Molecular orbitals read from record     2100.2  Type=RHF/CANONICAL (state 1.1)

 Number of N-1 electron functions:               6
 Number of N-2 electron functions:              21
 Number of singly external CSFs:               690
 Number of doubly external CSFs:            362646
 Total number of CSFs:                      363337

 Length of J-op  integral file:               0.00 MB
 Length of K-op  integral file:               1.60 MB
 Length of 3-ext integral record:             0.00 MB

 Memory could be reduced to 34.67 Mwords without degradation in triples

 Integral transformation finished. Total CPU:   1.56 sec, npass=  1  Memory used:   9.53 MW

 Reference energy:                   -129.84431193

 MP2 singlet pair energy:              -0.30368394
 MP2 triplet pair energy:              -0.17182618
 MP2 correlation energy:               -0.47551012
 MP2 total energy:                   -130.31982204

 SCS-MP2 correlation energy:           -0.47133479   (PS=  1.200000  PT=  0.333333)
 SCS-MP2 total energy:               -130.31564672

 ITER.      SQ.NORM     CORR.ENERGY   TOTAL ENERGY   ENERGY CHANGE        DEN1      VAR(S)    VAR(P)  DIIS     TIME  TIME/IT
   1      1.12319828    -0.47472736  -130.31903928     0.00078276     0.01809808  0.34D-02  0.34D-02  1  1     2.86     1.40
   2      1.13441769    -0.47450567  -130.31881759     0.00022169    -0.01303159  0.12D-03  0.52D-03  2  2     4.16     1.43
   3      1.14114199    -0.47491600  -130.31922792    -0.00041033    -0.00317386  0.55D-04  0.59D-04  3  3     5.48     1.44
   4      1.14414422    -0.47492368  -130.31923561    -0.00000768    -0.00100106  0.51D-05  0.11D-04  4  4     6.76     1.45
   5      1.14538623    -0.47495744  -130.31926937    -0.00003376    -0.00026884  0.13D-05  0.17D-05  5  5     8.01     1.45
   6      1.14577895    -0.47494008  -130.31925201     0.00001736    -0.00005694  0.12D-06  0.40D-06  6  6     9.28     1.45
   7      1.14585352    -0.47494077  -130.31925270    -0.00000069     0.00000348  0.17D-07  0.94D-07  6  1    10.58     1.45
   8      1.14587713    -0.47494090  -130.31925282    -0.00000012    -0.00000133  0.32D-08  0.20D-07  6  2    11.87     1.46
   9      1.14588215    -0.47494045  -130.31925237     0.00000045     0.00000116  0.27D-08  0.25D-08  6  4    13.12     1.46
  10      1.14588489    -0.47494084  -130.31925276    -0.00000039    -0.00000084  0.54D-09  0.31D-09  6  3    14.38     1.46
  11      1.14588472    -0.47494090  -130.31925282    -0.00000006    -0.00000017  0.18D-09  0.43D-10  6  5    15.66     1.46
  12      1.14588370    -0.47494106  -130.31925298    -0.00000016     0.00000039  0.22D-10  0.13D-10  6  6    16.96     1.46
  13      1.14588274    -0.47494110  -130.31925303    -0.00000005     0.00000024  0.68D-11  0.28D-11  6  1    18.18     1.45
  14      1.14588197    -0.47494114  -130.31925307    -0.00000004     0.00000018  0.38D-12  0.63D-12  6  4    19.46     1.45
  15      1.14588172    -0.47494115  -130.31925308    -0.00000001     0.00000004  0.86D-13  0.50D-13  6  2    20.75     1.45
  16      1.14588166    -0.47494115  -130.31925308    -0.00000000     0.00000001  0.22D-13  0.89D-14  6  3    21.99     1.46
  17      1.14588162    -0.47494115  -130.31925308    -0.00000000     0.00000001  0.42D-14  0.11D-14  6  5    23.29     1.46
  18      1.14588162    -0.47494115  -130.31925308    -0.00000000     0.00000000  0.95D-15  0.27D-15  6  6    24.55     1.46
  19      1.14588162    -0.47494115  -130.31925308    -0.00000000     0.00000000  0.14D-15  0.56D-16  6  1    25.81     1.46
  20      1.14588162    -0.47494115  -130.31925308     0.00000000    -0.00000000  0.13D-16  0.84D-17  6  4    27.09     1.46
  21      1.14588162    -0.47494115  -130.31925308     0.00000000    -0.00000000  0.59D-18  0.65D-18  6  3    28.38     1.46
  22      1.14588162    -0.47494115  -130.31925308     0.00000000    -0.00000000  0.15D-18  0.10D-18  6  2    29.66     1.46
  23      1.14588162    -0.47494115  -130.31925308     0.00000000     0.00000000  0.43D-19  0.38D-19  6  5    30.92     1.46
  24      1.14588162    -0.47494115  -130.31925308    -0.00000000     0.00000000  0.38D-20  0.82D-20  6  1    32.23     1.45

 Norm of t1 vector:      0.08021669      S-energy:    -0.00000000      T1 diagnostic:  0.01637416
                                                                       D1 diagnostic:  0.04488003

 Doubles amplitudes (print threshold =  0.500E-01):

         I         J         SYM. A    SYM. B    A         B      T(IJ, AB)

         6         6         2         2         1         1     -0.10903156


 Total CPU time for triples:     16.55 sec


 RESULTS
 =======

  Reference energy                   -129.844311926507
  CCSD singlet pair energy             -0.328742368742
  CCSD triplet pair energy             -0.146198785453
  CCSD correlation energy              -0.474941154197

  Triples (T) contribution             -0.023008571591
  Total correlation energy             -0.497949725788

  CCSD total energy                  -130.319253080704
  CCSD[T] energy                     -130.343427563666
  CCSD-T energy                      -130.341855073346
 !CCSD(T) total energy               -130.342261652295

 Timing summary (sec):

 STEP                 CPU(USER)    SYS     CPU(TOT)    WALL
 Transformation          1.57      0.26      1.83      2.02
 CCSD iterations        30.67      4.27     34.94     34.94
 Triples                16.55      0.43     16.98     16.98

 Program statistics:

 Available memory in ccsd:               994999756
 Min. memory needed in ccsd:               1265322
 Max. memory used in ccsd:                 1555950
 Max. memory used in cckext:               2415326 (24 integral passes)



 **********************************************************************************************************************************
 DATASETS  * FILE   NREC   LENGTH (MB)   RECORD NAMES
              1      20     1044.69       500      610      700      900      950      970     1000      129      960     1100   
                                          VAR    BASINP    GEOM    SYMINP    ZMAT    AOBASIS   BASIS     P2S    ABASIS      S 
                                         1400     1410     1200     1210     1080     1600     1650     1300     1700     1380   
                                           T        V       H0       H01     AOSYM     SMH    MOLCAS    ERIS     OPER     JKOP   

              2       4        3.27       700     1000      520     2100   
                                         GEOM     BASIS   MCVARS     RHF  

 PROGRAMS   *        TOTAL   CCSD(T)        HF       INT
 CPU TIMES  *        74.18     48.81     14.37     10.89
 REAL TIME  *        85.96 SEC
 DISK USED  *         3.13 GB      
 **********************************************************************************************************************************

 CCSD(T)/aug-cc-pVQZ energy=   -130.342261652295

        CCSD(T)         HF-SCF  
   -130.34226165   -129.84431193
 **********************************************************************************************************************************
 Molpro calculation terminated
 Variable memory released
