
 Primary working directories    : /tmp/r2666/282034.maple
 Secondary working directories  : /tmp/r2666/282034.maple
 Wavefunction directory         : /ddn/home4/r2666/wfu/
 Main file repository           : /tmp/r2666/282034.maple/

 SHA1      : d5ffa45e93fdbca01ffc919aa182cfdae0147319
 NAME      : 2015.1.35
 ARCHNAME  : linux/x86_64
 FC        : /opt/intel/composer_xe_2015.1.133/bin/intel64/ifort
 BLASLIB   : -Wl,-_start-group /opt/intel/mkl/lib/intel64/libmkl_intel_ilp64.a /opt/intel/mkl/lib/intel64/libmkl_intel_thread.a /opt/intel/mkl/lib/intel64/libmkl_core.a -Wl,-_end-group
 id        : olemiss

 Nodes     nprocs
 cn075        1

 Using customized tuning parameters: mindgm=1; mindgv=20; mindgc=4; mindgr=1; noblas=0; minvec=7
 default implementation of scratch files=df  

 ***,hno CCSD(T)/TZ-F12 QFF
 memory, 995, m;
 gthresh,energy=1.d-12,zero=1.d-22,oneint=1.d-22,twoint=1.d-22;
 gthresh,optgrad=1.d-8,optstep=1.d-8;
 nocompress;
 geomtyp=xyz
 bohr
 geometry={
 3
         60        60
 H        0.0000000000        1.6664471488       -1.9340934463
 N        0.0000000000       -0.1565134683       -1.1408831287
 O        0.0000000000        0.0318341095        1.1243869840
 }
 
 basis=avqz
   {hf,maxit=500;accu,20;}
 {ccsd(t),nocheck,maxit=250;orbital,IGNORE_ERROR;}

 Variables initialized (889), CPU time= 0.01 sec
 Commands  initialized (702), CPU time= 0.01 sec, 572 directives.
 Default parameters read. Elapsed time= 0.05 sec

 Checking input...
 Passed
1


                                         ***  PROGRAM SYSTEM MOLPRO  ***
                                       Copyright, TTI GmbH Stuttgart, 2015
                                    Version 2015.1 linked Jul  9 2018 13:16:40


 **********************************************************************************************************************************
 LABEL *   hno CCSD(T)/TZ-F12 QFF                                                        
  64 bit serial version                                                                  DATE: 04-Mar-20          TIME: 13:42:20  
 **********************************************************************************************************************************

 SHA1:             d5ffa45e93fdbca01ffc919aa182cfdae0147319
 **********************************************************************************************************************************

 THRESHOLDS:

 ZERO    =  1.00D-22  ONEINT  =  1.00D-22  TWOINT  =  1.00D-22  PREFAC  =  1.00D-14  LOCALI  =  1.00D-09  EORDER  =  1.00D-04
 ENERGY  =  1.00D-12  ETEST   =  0.00D+00  EDENS   =  0.00D+00  THRDEDEF=  1.00D-06  GRADIENT=  1.00D-02  STEP    =  1.00D-03
 ORBITAL =  1.00D-05  CIVEC   =  1.00D-05  COEFF   =  1.00D-04  PRINTCI =  5.00D-02  PUNCHCI =  9.90D+01  OPTGRAD =  3.00D-04
 OPTENERG=  1.00D-06  OPTSTEP =  3.00D-04  THRGRAD =  1.00D-10  COMPRESS=  1.00D-11  VARMIN  =  1.00D-07  VARMAX  =  1.00D-03
 THRDOUB =  0.00D+00  THRDIV  =  1.00D-05  THRRED  =  1.00D-07  THRPSP  =  1.00D+00  THRDC   =  1.00D-10  THRCS   =  1.00D-10
 THRNRM  =  1.00D-08  THREQ   =  0.00D+00  THRDE   =  1.00D+00  THRREF  =  1.00D-05  SPARFAC =  1.00D+00  THRDLP  =  1.00D-07
 THRDIA  =  1.00D-10  THRDLS  =  1.00D-07  THRGPS  =  0.00D+00  THRKEX  =  0.00D+00  THRDIS  =  2.00D-01  THRVAR  =  1.00D-10
 THRLOC  =  1.00D-06  THRGAP  =  1.00D-06  THRLOCT = -1.00D+00  THRGAPT = -1.00D+00  THRORB  =  1.00D-06  THRMLTP =  0.00D+00
 THRCPQCI=  1.00D-10  KEXTA   =  0.00D+00  THRCOARS=  0.00D+00  SYMTOL  =  1.00D-06  GRADTOL =  1.00D-06  THROVL  =  1.00D-08
 THRORTH =  1.00D-08  GRID    =  1.00D-06  GRIDMAX =  1.00D-03  DTMAX   =  0.00D+00  THROCCDE=  1.00D-01  THROCCDE=  1.00D-01



 THRESHOLDS:

 ZERO    =  1.00D-22  ONEINT  =  1.00D-22  TWOINT  =  1.00D-22  PREFAC  =  1.00D-14  LOCALI  =  1.00D-09  EORDER  =  1.00D-04
 ENERGY  =  1.00D-12  ETEST   =  0.00D+00  EDENS   =  0.00D+00  THRDEDEF=  1.00D-06  GRADIENT=  1.00D-02  STEP    =  1.00D-03
 ORBITAL =  1.00D-05  CIVEC   =  1.00D-05  COEFF   =  1.00D-04  PRINTCI =  5.00D-02  PUNCHCI =  9.90D+01  OPTGRAD =  1.00D-08
 OPTENERG=  1.00D-06  OPTSTEP =  1.00D-08  THRGRAD =  1.00D-10  COMPRESS=  1.00D-11  VARMIN  =  1.00D-07  VARMAX  =  1.00D-03
 THRDOUB =  0.00D+00  THRDIV  =  1.00D-05  THRRED  =  1.00D-07  THRPSP  =  1.00D+00  THRDC   =  1.00D-10  THRCS   =  1.00D-10
 THRNRM  =  1.00D-08  THREQ   =  0.00D+00  THRDE   =  1.00D+00  THRREF  =  1.00D-05  SPARFAC =  1.00D+00  THRDLP  =  1.00D-07
 THRDIA  =  1.00D-10  THRDLS  =  1.00D-07  THRGPS  =  0.00D+00  THRKEX  =  0.00D+00  THRDIS  =  2.00D-01  THRVAR  =  1.00D-10
 THRLOC  =  1.00D-06  THRGAP  =  1.00D-06  THRLOCT = -1.00D+00  THRGAPT = -1.00D+00  THRORB  =  1.00D-06  THRMLTP =  0.00D+00
 THRCPQCI=  1.00D-10  KEXTA   =  0.00D+00  THRCOARS=  0.00D+00  SYMTOL  =  1.00D-06  GRADTOL =  1.00D-06  THROVL  =  1.00D-08
 THRORTH =  1.00D-08  GRID    =  1.00D-06  GRIDMAX =  1.00D-03  DTMAX   =  0.00D+00  THROCCDE=  1.00D-01  THROCCDE=  1.00D-01



 Input parameters for SORTINT:

 COMPRESS =    0.000000
 C_FINAL  =    1.000000
 DEBUG    =   -1.000000
 C_SORT1  =    0.000000
 C_SEWARD =    0.000000
 THRESH   =    0.000000
 IO       =  molpro                                                          
 SPRI     =    0.000000
 SETTING GEOMTYP        =    XYZ
 ZUNIT=BOHR
 

 Variable memory set to  995000000 words,  buffer space   230000 words

 SETTING BASIS          =    AVQZ


 Recomputing integrals since basis changed


 Using spherical harmonics

 Library entry H      S aug-cc-pVQZ          selected for orbital group  1
 Library entry H      P aug-cc-pVQZ          selected for orbital group  1
 Library entry H      D aug-cc-pVQZ          selected for orbital group  1
 Library entry H      F aug-cc-pVQZ          selected for orbital group  1
 Library entry N      S aug-cc-pVQZ          selected for orbital group  2
 Library entry N      P aug-cc-pVQZ          selected for orbital group  2
 Library entry N      D aug-cc-pVQZ          selected for orbital group  2
 Library entry N      F aug-cc-pVQZ          selected for orbital group  2
 Library entry N      G aug-cc-pVQZ          selected for orbital group  2
 Library entry O      S aug-cc-pVQZ          selected for orbital group  3
 Library entry O      P aug-cc-pVQZ          selected for orbital group  3
 Library entry O      D aug-cc-pVQZ          selected for orbital group  3
 Library entry O      F aug-cc-pVQZ          selected for orbital group  3
 Library entry O      G aug-cc-pVQZ          selected for orbital group  3


 PROGRAM * SEWARD (Integral evaluation for generally contracted gaussian basis sets)     Author: Roland Lindh, 1990

 Geometry written to block  1 of record 700


 Point group  Cs  



 ATOMIC COORDINATES

 NR  ATOM    CHARGE       X              Y              Z

   1  H       1.00    0.000000000    1.666447149   -1.934093446
   2  N       7.00    0.000000000   -0.156513468   -1.140883129
   3  O       8.00    0.000000000    0.031834109    1.124386984

 Bond lengths in Bohr (Angstrom)

 1-2  1.988056342  2-3  2.273086777
     ( 1.052034110)     ( 1.202865721)

 Bond angles

  1-2-3  108.76195128

 NUCLEAR CHARGE:                   16
 NUMBER OF PRIMITIVE AOS:         293
 NUMBER OF SYMMETRY AOS:          234
 NUMBER OF CONTRACTIONS:          206   ( 130A'  +  76A"  )
 NUMBER OF CORE ORBITALS:           2   (   2A'  +   0A"  )
 NUMBER OF VALENCE ORBITALS:        9   (   7A'  +   2A"  )


 NUCLEAR REPULSION ENERGY   30.46400811

 Eigenvalues of metric

         1 0.589E-04 0.144E-03 0.316E-03 0.434E-03 0.577E-03 0.677E-03 0.100E-02 0.107E-02
         2 0.809E-03 0.162E-02 0.487E-02 0.891E-02 0.101E-01 0.121E-01 0.124E-01 0.186E-01


 Contracted 2-electron integrals neglected if value below      1.0D-22

      109945091. INTEGRALS WRITTEN OUT IN   26849 BLOCKS ON RECORD 1290 OF FILE 1


 NUMBER OF SORTED TWO-ELECTRON INTEGRALS:  115283741.     BUFFER LENGTH:  32768
 NUMBER OF SEGMENTS:   8  SEGMENT LENGTH:   15998004      RECORD LENGTH: 524288

 Memory used in sort:      16.56 MW

 SORT1 READ   109945091. AND WROTE   110865258. INTEGRALS IN    322 RECORDS. CPU TIME:     1.83 SEC, REAL TIME:     2.65 SEC
 SORT2 READ   110865258. AND WROTE   115283741. INTEGRALS IN      8 RECORDS. CPU TIME:     1.29 SEC, REAL TIME:     1.81 SEC

 FILE SIZES:   FILE 1:  1780.6 MBYTE,  FILE 4:  1350.6 MBYTE,   TOTAL:   3131.2 MBYTE

 OPERATOR DM      FOR CENTER  0  COORDINATES:    0.000000    0.000000    0.000000


 **********************************************************************************************************************************
 DATASETS  * FILE   NREC   LENGTH (MB)   RECORD NAMES
              1      19      944.14       500      610      700      900      950      970     1000      129      960     1100   
                                          VAR    BASINP    GEOM    SYMINP    ZMAT    AOBASIS   BASIS     P2S    ABASIS      S 
                                         1400     1410     1200     1210     1080     1600     1650     1300     1700   
                                           T        V       H0       H01     AOSYM     SMH    MOLCAS    ERIS     OPER   

 PROGRAMS   *        TOTAL       INT
 CPU TIMES  *        10.83     10.75
 REAL TIME  *        13.54 SEC
 DISK USED  *         3.13 GB      
 **********************************************************************************************************************************


 PROGRAM * RHF-SCF (CLOSED SHELL)       Authors: W. Meyer, H.-J. Werner


 NUMBER OF ELECTRONS:       8+    8-
 CONVERGENCE THRESHOLDS:    1.00E-10 (Density)    1.00E-13 (Energy)
 MAX. NUMBER OF ITERATIONS:      500
 INTERPOLATION TYPE:            DIIS
 INTERPOLATION STEPS:              2 (START)      1 (STEP)
 LEVEL SHIFTS:                  0.00 (CLOSED)  0.00 (OPEN) 



 Orbital guess generated from atomic densities. Full valence occupancy:    9   2

 Molecular orbital dump at record        2100.2

 Initial occupancy:   7   1

 ITERATION    DDIFF          GRAD             ENERGY        2-EL.EN.            DIPOLE MOMENTS         DIIS   ORB.
    1      0.000D+00      0.000D+00      -129.79813184    154.128766    0.00000    0.59707   -1.01120    0    start
    2      0.000D+00      0.806D-02      -129.82555144    155.374089    0.00000    0.60678   -0.21247    1    diag
    3      0.646D-02      0.608D-02      -129.84756912    155.484851    0.00000    0.55636   -0.58834    2    diag
    4      0.328D-02      0.967D-03      -129.84836318    155.203243    0.00000    0.56360   -0.52772    3    diag
    5      0.603D-03      0.313D-03      -129.84848742    155.296560    0.00000    0.56897   -0.53044    4    diag
    6      0.250D-03      0.905D-04      -129.84850718    155.280470    0.00000    0.56929   -0.52636    5    diag
    7      0.954D-04      0.449D-04      -129.84851286    155.283276    0.00000    0.57055   -0.52383    6    diag
    8      0.655D-04      0.155D-04      -129.84851348    155.282603    0.00000    0.57059   -0.52285    7    diag
    9      0.247D-04      0.295D-05      -129.84851350    155.282490    0.00000    0.57056   -0.52263    8    diag
   10      0.487D-05      0.682D-06      -129.84851351    155.282472    0.00000    0.57052   -0.52260    9    orth
   11      0.986D-06      0.137D-06      -129.84851351    155.282469    0.00000    0.57051   -0.52260    9    diag
   12      0.184D-06      0.276D-07      -129.84851351    155.282468    0.00000    0.57051   -0.52260    9    diag
   13      0.393D-07      0.706D-08      -129.84851351    155.282468    0.00000    0.57051   -0.52260    9    diag
   14      0.106D-07      0.140D-08      -129.84851351    155.282468    0.00000    0.57051   -0.52260    9    diag
   15      0.196D-08      0.405D-09      -129.84851351    155.282468    0.00000    0.57051   -0.52260    9    diag
   16      0.583D-09      0.124D-09      -129.84851351    155.282468    0.00000    0.57051   -0.52260    9    diag
   17      0.113D-09      0.330D-10      -129.84851351    155.282468    0.00000    0.57051   -0.52260    9    diag
   18      0.311D-10      0.112D-10      -129.84851351    155.282468    0.00000    0.57051   -0.52260    9    diag
   19      0.153D-10      0.277D-11      -129.84851351    155.282468    0.00000    0.57051   -0.52260    9    fixocc
   20      0.482D-11      0.519D-12      -129.84851351    155.282468    0.00000    0.57051   -0.52260    9    orth
   21      0.606D-11      0.233D-12      -129.84851351    155.282468    0.00000    0.57051   -0.52260    9    diag
   22      0.324D-11      0.214D-12      -129.84851351    155.282468    0.00000    0.57051   -0.52260    9    diag
   23      0.198D-11      0.102D-12      -129.84851351    155.282468    0.00000    0.57051   -0.52260    9    diag
   24      0.780D-12      0.118D-12      -129.84851351    155.282468    0.00000    0.57051   -0.52260    9    diag
   25      0.798D-12      0.823D-13      -129.84851351    155.282468    0.00000    0.57051   -0.52260    9    diag
   26      0.410D-12      0.161D-12      -129.84851351    155.282468    0.00000    0.57051   -0.52260    9    diag
   27      0.527D-12      0.164D-12      -129.84851351    155.282468    0.00000    0.57051   -0.52260    9    diag
   28      0.849D-13      0.116D-12      -129.84851351    155.282468    0.00000    0.57051   -0.52260    9    diag
   29      0.141D-12      0.112D-12      -129.84851351    155.282468    0.00000    0.57051   -0.52260    9    diag
   30      0.239D-12      0.128D-12      -129.84851351    155.282468    0.00000    0.57051   -0.52260    9    orth
   31      0.707D-13      0.874D-13      -129.84851351    155.282468    0.00000    0.57051   -0.52260    9    diag
   32      0.158D-12      0.121D-12      -129.84851351    155.282468    0.00000    0.57051   -0.52260    0    orth

 Final occupancy:   7   1

 !RHF STATE 1.1 Energy               -129.848513505065
 Nuclear energy                        30.46400811
 One-electron energy                 -237.95375577
 Two-electron energy                   77.64123415
 Virial quotient                       -1.00160891
 !RHF STATE 1.1 Dipole moment           0.00000000     0.57051203    -0.52259706
 Dipole moment /Debye                   0.00000000     1.45000196    -1.32822224

 Orbital energies:

         1.1          2.1          3.1          4.1          5.1          6.1          7.1          8.1          9.1
    -20.653337   -15.711665    -1.533500    -0.993689    -0.748747    -0.667694    -0.428572     0.026380     0.079478

         1.2          2.2          3.2
     -0.598440     0.064491     0.110667

 HOMO      7.1    -0.428572 =     -11.6620eV
 LUMO      8.1     0.026380 =       0.7178eV
 LUMO-HOMO         0.454952 =      12.3799eV


 **********************************************************************************************************************************
 DATASETS  * FILE   NREC   LENGTH (MB)   RECORD NAMES
              1      19      944.14       500      610      700      900      950      970     1000      129      960     1100   
                                          VAR    BASINP    GEOM    SYMINP    ZMAT    AOBASIS   BASIS     P2S    ABASIS      S 
                                         1400     1410     1200     1210     1080     1600     1650     1300     1700   
                                           T        V       H0       H01     AOSYM     SMH    MOLCAS    ERIS     OPER   

              2       4        3.27       700     1000      520     2100   
                                         GEOM     BASIS   MCVARS     RHF  

 PROGRAMS   *        TOTAL        HF       INT
 CPU TIMES  *        26.09     15.26     10.75
 REAL TIME  *        32.79 SEC
 DISK USED  *         3.13 GB      
 **********************************************************************************************************************************


 PROGRAM * CCSD (Closed-shell coupled cluster)     Authors: C. Hampel, H.-J. Werner, 1991, M. Deegan, P.J. Knowles, 1992


 Convergence thresholds:  THRVAR = 1.00D-08  THRDEN = 1.00D-12

 CCSD(T)     terms to be evaluated (factor= 1.000)


 Number of core orbitals:           2 (   2   0 )
 Number of closed-shell orbitals:   6 (   5   1 )
 Number of external orbitals:     198 ( 123  75 )

 Molecular orbitals read from record     2100.2  Type=RHF/CANONICAL (state 1.1)

 Number of N-1 electron functions:               6
 Number of N-2 electron functions:              21
 Number of singly external CSFs:               690
 Number of doubly external CSFs:            362646
 Total number of CSFs:                      363337

 Length of J-op  integral file:               0.00 MB
 Length of K-op  integral file:               1.60 MB
 Length of 3-ext integral record:             0.00 MB

 Memory could be reduced to 34.67 Mwords without degradation in triples

 Integral transformation finished. Total CPU:   1.45 sec, npass=  1  Memory used:   9.53 MW

 Reference energy:                   -129.84851351

 MP2 singlet pair energy:              -0.30109758
 MP2 triplet pair energy:              -0.17009072
 MP2 correlation energy:               -0.47118830
 MP2 total energy:                   -130.31970181

 SCS-MP2 correlation energy:           -0.46715132   (PS=  1.200000  PT=  0.333333)
 SCS-MP2 total energy:               -130.31566483

 ITER.      SQ.NORM     CORR.ENERGY   TOTAL ENERGY   ENERGY CHANGE        DEN1      VAR(S)    VAR(P)  DIIS     TIME  TIME/IT
   1      1.12050287    -0.47142036  -130.31993387    -0.00023206     0.01597703  0.31D-02  0.31D-02  1  1     2.63     1.30
   2      1.13108857    -0.47141818  -130.31993169     0.00000218    -0.01237892  0.10D-03  0.49D-03  2  2     3.86     1.33
   3      1.13730766    -0.47178989  -130.32030339    -0.00037171    -0.00301730  0.48D-04  0.52D-04  3  3     5.03     1.34
   4      1.14001211    -0.47179621  -130.32030971    -0.00000632    -0.00092282  0.42D-05  0.95D-05  4  4     6.22     1.34
   5      1.14108160    -0.47182487  -130.32033837    -0.00002866    -0.00023346  0.11D-05  0.16D-05  5  5     7.39     1.34
   6      1.14143028    -0.47181061  -130.32032412     0.00001425    -0.00004982  0.11D-06  0.40D-06  6  6     8.61     1.35
   7      1.14150420    -0.47181099  -130.32032450    -0.00000038     0.00000221  0.17D-07  0.89D-07  6  1     9.83     1.35
   8      1.14152699    -0.47181139  -130.32032490    -0.00000040    -0.00000112  0.36D-08  0.18D-07  6  2    11.01     1.35
   9      1.14153216    -0.47181101  -130.32032451     0.00000038     0.00000092  0.25D-08  0.20D-08  6  4    12.27     1.35
  10      1.14153456    -0.47181138  -130.32032489    -0.00000038    -0.00000073  0.46D-09  0.23D-09  6  3    13.51     1.36
  11      1.14153425    -0.47181145  -130.32032495    -0.00000006    -0.00000010  0.15D-09  0.34D-10  6  5    14.77     1.37
  12      1.14153329    -0.47181159  -130.32032509    -0.00000014     0.00000035  0.18D-10  0.10D-10  6  6    16.10     1.37
  13      1.14153247    -0.47181163  -130.32032513    -0.00000004     0.00000021  0.57D-11  0.22D-11  6  1    17.35     1.38
  14      1.14153182    -0.47181166  -130.32032516    -0.00000003     0.00000015  0.40D-12  0.44D-12  6  4    18.63     1.38
  15      1.14153161    -0.47181166  -130.32032517    -0.00000001     0.00000003  0.86D-13  0.35D-13  6  2    19.91     1.39
  16      1.14153157    -0.47181166  -130.32032517    -0.00000000     0.00000001  0.24D-13  0.67D-14  6  3    21.20     1.39
  17      1.14153154    -0.47181167  -130.32032517    -0.00000000     0.00000001  0.41D-14  0.10D-14  6  5    22.46     1.39
  18      1.14153154    -0.47181167  -130.32032517     0.00000000     0.00000000  0.82D-15  0.27D-15  6  6    23.74     1.39
  19      1.14153154    -0.47181167  -130.32032517     0.00000000     0.00000000  0.90D-16  0.53D-16  6  1    24.98     1.40
  20      1.14153154    -0.47181167  -130.32032517     0.00000000    -0.00000000  0.96D-17  0.78D-17  6  4    26.27     1.40
  21      1.14153154    -0.47181167  -130.32032517     0.00000000    -0.00000000  0.51D-18  0.67D-18  6  3    27.54     1.40
  22      1.14153154    -0.47181167  -130.32032517     0.00000000    -0.00000000  0.13D-18  0.16D-18  6  2    28.79     1.40
  23      1.14153154    -0.47181167  -130.32032517     0.00000000    -0.00000000  0.97D-20  0.34D-19  6  1    30.07     1.40
  24      1.14153154    -0.47181167  -130.32032517    -0.00000000     0.00000000  0.17D-20  0.65D-20  6  5    31.32     1.40

 Norm of t1 vector:      0.07610152      S-energy:     0.00000000      T1 diagnostic:  0.01553416
                                                                       D1 diagnostic:  0.04155128

 Doubles amplitudes (print threshold =  0.500E-01):

         I         J         SYM. A    SYM. B    A         B      T(IJ, AB)

         6         6         2         2         1         1     -0.09581693


 Total CPU time for triples:     16.12 sec


 RESULTS
 =======

  Reference energy                   -129.848513505065
  CCSD singlet pair energy             -0.326029550472
  CCSD triplet pair energy             -0.145782115009
  CCSD correlation energy              -0.471811665479

  Triples (T) contribution             -0.022208236117
  Total correlation energy             -0.494019901596

  CCSD total energy                  -130.320325170544
  CCSD[T] energy                     -130.343587966449
  CCSD-T energy                      -130.342152611230
 !CCSD(T) total energy               -130.342533406661

 Timing summary (sec):

 STEP                 CPU(USER)    SYS     CPU(TOT)    WALL
 Transformation          1.46      0.28      1.74      1.88
 CCSD iterations        29.87      3.78     33.65     33.65
 Triples                16.12      0.56     16.68     16.69

 Program statistics:

 Available memory in ccsd:               994999756
 Min. memory needed in ccsd:               1265322
 Max. memory used in ccsd:                 1555950
 Max. memory used in cckext:               2415326 (24 integral passes)



 **********************************************************************************************************************************
 DATASETS  * FILE   NREC   LENGTH (MB)   RECORD NAMES
              1      20     1044.69       500      610      700      900      950      970     1000      129      960     1100   
                                          VAR    BASINP    GEOM    SYMINP    ZMAT    AOBASIS   BASIS     P2S    ABASIS      S 
                                         1400     1410     1200     1210     1080     1600     1650     1300     1700     1380   
                                           T        V       H0       H01     AOSYM     SMH    MOLCAS    ERIS     OPER     JKOP   

              2       4        3.27       700     1000      520     2100   
                                         GEOM     BASIS   MCVARS     RHF  

 PROGRAMS   *        TOTAL   CCSD(T)        HF       INT
 CPU TIMES  *        73.56     47.46     15.26     10.75
 REAL TIME  *        85.09 SEC
 DISK USED  *         3.13 GB      
 **********************************************************************************************************************************

 CCSD(T)/aug-cc-pVQZ energy=   -130.342533406661

        CCSD(T)         HF-SCF  
   -130.34253341   -129.84851351
 **********************************************************************************************************************************
 Molpro calculation terminated
 Variable memory released
