
 Primary working directories    : /tmp/r2666/282081.maple
 Secondary working directories  : /tmp/r2666/282081.maple
 Wavefunction directory         : /ddn/home4/r2666/wfu/
 Main file repository           : /tmp/r2666/282081.maple/

 SHA1      : d5ffa45e93fdbca01ffc919aa182cfdae0147319
 NAME      : 2015.1.35
 ARCHNAME  : linux/x86_64
 FC        : /opt/intel/composer_xe_2015.1.133/bin/intel64/ifort
 BLASLIB   : -Wl,-_start-group /opt/intel/mkl/lib/intel64/libmkl_intel_ilp64.a /opt/intel/mkl/lib/intel64/libmkl_intel_thread.a /opt/intel/mkl/lib/intel64/libmkl_core.a -Wl,-_end-group
 id        : olemiss

 Nodes     nprocs
 cn079        1

 Using customized tuning parameters: mindgm=1; mindgv=20; mindgc=4; mindgr=1; noblas=0; minvec=7
 default implementation of scratch files=df  

 ***,hno CCSD(T)/TZ-F12 QFF
 memory, 995, m;
 gthresh,energy=1.d-12,zero=1.d-22,oneint=1.d-22,twoint=1.d-22;
 gthresh,optgrad=1.d-8,optstep=1.d-8;
 nocompress;
 geomtyp=xyz
 bohr
 geometry={
 3
        107       107
 H        0.0000000000        1.6727973741       -1.9335243628
 N        0.0000000000       -0.1666609025       -1.1547950377
 O        0.0000000000        0.0356313184        1.1377298095
 }
 
 basis=avqz
   {hf,maxit=500;accu,20;}
 {ccsd(t),nocheck,maxit=250;orbital,IGNORE_ERROR;}

 Variables initialized (889), CPU time= 0.01 sec
 Commands  initialized (702), CPU time= 0.01 sec, 572 directives.
 Default parameters read. Elapsed time= 0.05 sec

 Checking input...
 Passed
1


                                         ***  PROGRAM SYSTEM MOLPRO  ***
                                       Copyright, TTI GmbH Stuttgart, 2015
                                    Version 2015.1 linked Jul  9 2018 13:16:40


 **********************************************************************************************************************************
 LABEL *   hno CCSD(T)/TZ-F12 QFF                                                        
  64 bit serial version                                                                  DATE: 04-Mar-20          TIME: 13:44:37  
 **********************************************************************************************************************************

 SHA1:             d5ffa45e93fdbca01ffc919aa182cfdae0147319
 **********************************************************************************************************************************

 THRESHOLDS:

 ZERO    =  1.00D-22  ONEINT  =  1.00D-22  TWOINT  =  1.00D-22  PREFAC  =  1.00D-14  LOCALI  =  1.00D-09  EORDER  =  1.00D-04
 ENERGY  =  1.00D-12  ETEST   =  0.00D+00  EDENS   =  0.00D+00  THRDEDEF=  1.00D-06  GRADIENT=  1.00D-02  STEP    =  1.00D-03
 ORBITAL =  1.00D-05  CIVEC   =  1.00D-05  COEFF   =  1.00D-04  PRINTCI =  5.00D-02  PUNCHCI =  9.90D+01  OPTGRAD =  3.00D-04
 OPTENERG=  1.00D-06  OPTSTEP =  3.00D-04  THRGRAD =  1.00D-10  COMPRESS=  1.00D-11  VARMIN  =  1.00D-07  VARMAX  =  1.00D-03
 THRDOUB =  0.00D+00  THRDIV  =  1.00D-05  THRRED  =  1.00D-07  THRPSP  =  1.00D+00  THRDC   =  1.00D-10  THRCS   =  1.00D-10
 THRNRM  =  1.00D-08  THREQ   =  0.00D+00  THRDE   =  1.00D+00  THRREF  =  1.00D-05  SPARFAC =  1.00D+00  THRDLP  =  1.00D-07
 THRDIA  =  1.00D-10  THRDLS  =  1.00D-07  THRGPS  =  0.00D+00  THRKEX  =  0.00D+00  THRDIS  =  2.00D-01  THRVAR  =  1.00D-10
 THRLOC  =  1.00D-06  THRGAP  =  1.00D-06  THRLOCT = -1.00D+00  THRGAPT = -1.00D+00  THRORB  =  1.00D-06  THRMLTP =  0.00D+00
 THRCPQCI=  1.00D-10  KEXTA   =  0.00D+00  THRCOARS=  0.00D+00  SYMTOL  =  1.00D-06  GRADTOL =  1.00D-06  THROVL  =  1.00D-08
 THRORTH =  1.00D-08  GRID    =  1.00D-06  GRIDMAX =  1.00D-03  DTMAX   =  0.00D+00  THROCCDE=  1.00D-01  THROCCDE=  1.00D-01



 THRESHOLDS:

 ZERO    =  1.00D-22  ONEINT  =  1.00D-22  TWOINT  =  1.00D-22  PREFAC  =  1.00D-14  LOCALI  =  1.00D-09  EORDER  =  1.00D-04
 ENERGY  =  1.00D-12  ETEST   =  0.00D+00  EDENS   =  0.00D+00  THRDEDEF=  1.00D-06  GRADIENT=  1.00D-02  STEP    =  1.00D-03
 ORBITAL =  1.00D-05  CIVEC   =  1.00D-05  COEFF   =  1.00D-04  PRINTCI =  5.00D-02  PUNCHCI =  9.90D+01  OPTGRAD =  1.00D-08
 OPTENERG=  1.00D-06  OPTSTEP =  1.00D-08  THRGRAD =  1.00D-10  COMPRESS=  1.00D-11  VARMIN  =  1.00D-07  VARMAX  =  1.00D-03
 THRDOUB =  0.00D+00  THRDIV  =  1.00D-05  THRRED  =  1.00D-07  THRPSP  =  1.00D+00  THRDC   =  1.00D-10  THRCS   =  1.00D-10
 THRNRM  =  1.00D-08  THREQ   =  0.00D+00  THRDE   =  1.00D+00  THRREF  =  1.00D-05  SPARFAC =  1.00D+00  THRDLP  =  1.00D-07
 THRDIA  =  1.00D-10  THRDLS  =  1.00D-07  THRGPS  =  0.00D+00  THRKEX  =  0.00D+00  THRDIS  =  2.00D-01  THRVAR  =  1.00D-10
 THRLOC  =  1.00D-06  THRGAP  =  1.00D-06  THRLOCT = -1.00D+00  THRGAPT = -1.00D+00  THRORB  =  1.00D-06  THRMLTP =  0.00D+00
 THRCPQCI=  1.00D-10  KEXTA   =  0.00D+00  THRCOARS=  0.00D+00  SYMTOL  =  1.00D-06  GRADTOL =  1.00D-06  THROVL  =  1.00D-08
 THRORTH =  1.00D-08  GRID    =  1.00D-06  GRIDMAX =  1.00D-03  DTMAX   =  0.00D+00  THROCCDE=  1.00D-01  THROCCDE=  1.00D-01



 Input parameters for SORTINT:

 COMPRESS =    0.000000
 C_FINAL  =    1.000000
 DEBUG    =   -1.000000
 C_SORT1  =    0.000000
 C_SEWARD =    0.000000
 THRESH   =    0.000000
 IO       =  molpro                                                          
 SPRI     =    0.000000
 SETTING GEOMTYP        =    XYZ
 ZUNIT=BOHR
 

 Variable memory set to  995000000 words,  buffer space   230000 words

 SETTING BASIS          =    AVQZ


 Recomputing integrals since basis changed


 Using spherical harmonics

 Library entry H      S aug-cc-pVQZ          selected for orbital group  1
 Library entry H      P aug-cc-pVQZ          selected for orbital group  1
 Library entry H      D aug-cc-pVQZ          selected for orbital group  1
 Library entry H      F aug-cc-pVQZ          selected for orbital group  1
 Library entry N      S aug-cc-pVQZ          selected for orbital group  2
 Library entry N      P aug-cc-pVQZ          selected for orbital group  2
 Library entry N      D aug-cc-pVQZ          selected for orbital group  2
 Library entry N      F aug-cc-pVQZ          selected for orbital group  2
 Library entry N      G aug-cc-pVQZ          selected for orbital group  2
 Library entry O      S aug-cc-pVQZ          selected for orbital group  3
 Library entry O      P aug-cc-pVQZ          selected for orbital group  3
 Library entry O      D aug-cc-pVQZ          selected for orbital group  3
 Library entry O      F aug-cc-pVQZ          selected for orbital group  3
 Library entry O      G aug-cc-pVQZ          selected for orbital group  3


 PROGRAM * SEWARD (Integral evaluation for generally contracted gaussian basis sets)     Author: Roland Lindh, 1990

 Geometry written to block  1 of record 700


 Point group  Cs  



 ATOMIC COORDINATES

 NR  ATOM    CHARGE       X              Y              Z

   1  H       1.00    0.000000000    1.672797374   -1.933524363
   2  N       7.00    0.000000000   -0.166660903   -1.154795038
   3  O       8.00    0.000000000    0.035631318    1.137729809

 Bond lengths in Bohr (Angstrom)

 1-2  1.997504972  2-3  2.301432666
     ( 1.057034110)     ( 1.217865719)

 Bond angles

  1-2-3  107.90251459

 NUCLEAR CHARGE:                   16
 NUMBER OF PRIMITIVE AOS:         293
 NUMBER OF SYMMETRY AOS:          234
 NUMBER OF CONTRACTIONS:          206   ( 130A'  +  76A"  )
 NUMBER OF CORE ORBITALS:           2   (   2A'  +   0A"  )
 NUMBER OF VALENCE ORBITALS:        9   (   7A'  +   2A"  )


 NUCLEAR REPULSION ENERGY   30.13565298

 Eigenvalues of metric

         1 0.607E-04 0.149E-03 0.322E-03 0.438E-03 0.606E-03 0.694E-03 0.103E-02 0.110E-02
         2 0.851E-03 0.166E-02 0.509E-02 0.899E-02 0.102E-01 0.125E-01 0.128E-01 0.194E-01


 Contracted 2-electron integrals neglected if value below      1.0D-22

      109945085. INTEGRALS WRITTEN OUT IN   26849 BLOCKS ON RECORD 1290 OF FILE 1


 NUMBER OF SORTED TWO-ELECTRON INTEGRALS:  115283741.     BUFFER LENGTH:  32768
 NUMBER OF SEGMENTS:   8  SEGMENT LENGTH:   15998004      RECORD LENGTH: 524288

 Memory used in sort:      16.56 MW

 SORT1 READ   109945085. AND WROTE   110865252. INTEGRALS IN    322 RECORDS. CPU TIME:     1.73 SEC, REAL TIME:     2.46 SEC
 SORT2 READ   110865252. AND WROTE   115283741. INTEGRALS IN      8 RECORDS. CPU TIME:     1.26 SEC, REAL TIME:     1.70 SEC

 FILE SIZES:   FILE 1:  1780.6 MBYTE,  FILE 4:  1350.6 MBYTE,   TOTAL:   3131.2 MBYTE

 OPERATOR DM      FOR CENTER  0  COORDINATES:    0.000000    0.000000    0.000000


 **********************************************************************************************************************************
 DATASETS  * FILE   NREC   LENGTH (MB)   RECORD NAMES
              1      19      944.14       500      610      700      900      950      970     1000      129      960     1100   
                                          VAR    BASINP    GEOM    SYMINP    ZMAT    AOBASIS   BASIS     P2S    ABASIS      S 
                                         1400     1410     1200     1210     1080     1600     1650     1300     1700   
                                           T        V       H0       H01     AOSYM     SMH    MOLCAS    ERIS     OPER   

 PROGRAMS   *        TOTAL       INT
 CPU TIMES  *        10.37     10.27
 REAL TIME  *        13.26 SEC
 DISK USED  *         3.13 GB      
 **********************************************************************************************************************************


 PROGRAM * RHF-SCF (CLOSED SHELL)       Authors: W. Meyer, H.-J. Werner


 NUMBER OF ELECTRONS:       8+    8-
 CONVERGENCE THRESHOLDS:    1.00E-10 (Density)    1.00E-13 (Energy)
 MAX. NUMBER OF ITERATIONS:      500
 INTERPOLATION TYPE:            DIIS
 INTERPOLATION STEPS:              2 (START)      1 (STEP)
 LEVEL SHIFTS:                  0.00 (CLOSED)  0.00 (OPEN) 



 Orbital guess generated from atomic densities. Full valence occupancy:    9   2

 Molecular orbital dump at record        2100.2

 Initial occupancy:   7   1

 ITERATION    DDIFF          GRAD             ENERGY        2-EL.EN.            DIPOLE MOMENTS         DIIS   ORB.
    1      0.000D+00      0.000D+00      -129.79320851    153.541194    0.00000    0.59306   -1.05880    0    start
    2      0.000D+00      0.823D-02      -129.82012283    154.757403    0.00000    0.61646   -0.19927    1    diag
    3      0.670D-02      0.643D-02      -129.84501499    154.902130    0.00000    0.55831   -0.60696    2    diag
    4      0.345D-02      0.983D-03      -129.84584164    154.608446    0.00000    0.56558   -0.54402    3    diag
    5      0.614D-03      0.322D-03      -129.84597329    154.703332    0.00000    0.57094   -0.54642    4    diag
    6      0.258D-03      0.933D-04      -129.84599443    154.686935    0.00000    0.57118   -0.54203    5    diag
    7      0.988D-04      0.469D-04      -129.84600073    154.689630    0.00000    0.57240   -0.53928    6    diag
    8      0.686D-04      0.169D-04      -129.84600151    154.688889    0.00000    0.57243   -0.53816    7    diag
    9      0.278D-04      0.329D-05      -129.84600154    154.688763    0.00000    0.57240   -0.53792    8    diag
   10      0.567D-05      0.731D-06      -129.84600154    154.688744    0.00000    0.57236   -0.53789    9    orth
   11      0.106D-05      0.145D-06      -129.84600154    154.688740    0.00000    0.57235   -0.53789    9    diag
   12      0.189D-06      0.300D-07      -129.84600154    154.688740    0.00000    0.57235   -0.53789    9    diag
   13      0.409D-07      0.796D-08      -129.84600154    154.688740    0.00000    0.57235   -0.53789    9    diag
   14      0.116D-07      0.156D-08      -129.84600154    154.688740    0.00000    0.57235   -0.53789    9    diag
   15      0.208D-08      0.441D-09      -129.84600154    154.688740    0.00000    0.57235   -0.53789    9    diag
   16      0.625D-09      0.128D-09      -129.84600154    154.688740    0.00000    0.57235   -0.53789    9    diag
   17      0.111D-09      0.326D-10      -129.84600154    154.688740    0.00000    0.57235   -0.53789    9    diag
   18      0.298D-10      0.108D-10      -129.84600154    154.688740    0.00000    0.57235   -0.53789    9    diag
   19      0.144D-10      0.244D-11      -129.84600154    154.688740    0.00000    0.57235   -0.53789    9    fixocc
   20      0.380D-11      0.405D-12      -129.84600154    154.688740    0.00000    0.57235   -0.53789    9    orth
   21      0.453D-11      0.185D-12      -129.84600154    154.688740    0.00000    0.57235   -0.53789    0    orth

 Final occupancy:   7   1

 !RHF STATE 1.1 Energy               -129.846001542508
 Nuclear energy                        30.13565298
 One-electron energy                 -237.32602439
 Two-electron energy                   77.34436987
 Virial quotient                       -1.00208662
 !RHF STATE 1.1 Dipole moment           0.00000000     0.57235126    -0.53789105
 Dipole moment /Debye                   0.00000000     1.45467653    -1.36709312

 Orbital energies:

         1.1          2.1          3.1          4.1          5.1          6.1          7.1          8.1          9.1
    -20.654641   -15.715072    -1.521650    -0.995414    -0.743668    -0.663231    -0.433439     0.026249     0.079454

         1.2          2.2          3.2
     -0.591527     0.060809     0.110142

 HOMO      7.1    -0.433439 =     -11.7945eV
 LUMO      8.1     0.026249 =       0.7143eV
 LUMO-HOMO         0.459688 =      12.5088eV


 **********************************************************************************************************************************
 DATASETS  * FILE   NREC   LENGTH (MB)   RECORD NAMES
              1      19      944.14       500      610      700      900      950      970     1000      129      960     1100   
                                          VAR    BASINP    GEOM    SYMINP    ZMAT    AOBASIS   BASIS     P2S    ABASIS      S 
                                         1400     1410     1200     1210     1080     1600     1650     1300     1700   
                                           T        V       H0       H01     AOSYM     SMH    MOLCAS    ERIS     OPER   

              2       4        3.27       700     1000      520     2100   
                                         GEOM     BASIS   MCVARS     RHF  

 PROGRAMS   *        TOTAL        HF       INT
 CPU TIMES  *        20.48     10.11     10.27
 REAL TIME  *        25.45 SEC
 DISK USED  *         3.13 GB      
 **********************************************************************************************************************************


 PROGRAM * CCSD (Closed-shell coupled cluster)     Authors: C. Hampel, H.-J. Werner, 1991, M. Deegan, P.J. Knowles, 1992


 Convergence thresholds:  THRVAR = 1.00D-08  THRDEN = 1.00D-12

 CCSD(T)     terms to be evaluated (factor= 1.000)


 Number of core orbitals:           2 (   2   0 )
 Number of closed-shell orbitals:   6 (   5   1 )
 Number of external orbitals:     198 ( 123  75 )

 Molecular orbitals read from record     2100.2  Type=RHF/CANONICAL (state 1.1)

 Number of N-1 electron functions:               6
 Number of N-2 electron functions:              21
 Number of singly external CSFs:               690
 Number of doubly external CSFs:            362646
 Total number of CSFs:                      363337

 Length of J-op  integral file:               0.00 MB
 Length of K-op  integral file:               1.60 MB
 Length of 3-ext integral record:             0.00 MB

 Memory could be reduced to 34.67 Mwords without degradation in triples

 Integral transformation finished. Total CPU:   1.36 sec, npass=  1  Memory used:   9.53 MW

 Reference energy:                   -129.84600154

 MP2 singlet pair energy:              -0.30275003
 MP2 triplet pair energy:              -0.17118870
 MP2 correlation energy:               -0.47393873
 MP2 total energy:                   -130.31994027

 SCS-MP2 correlation energy:           -0.46981745   (PS=  1.200000  PT=  0.333333)
 SCS-MP2 total energy:               -130.31581899

 ITER.      SQ.NORM     CORR.ENERGY   TOTAL ENERGY   ENERGY CHANGE        DEN1      VAR(S)    VAR(P)  DIIS     TIME  TIME/IT
   1      1.12226319    -0.47355711  -130.31955865     0.00038162     0.01727496  0.33D-02  0.33D-02  1  1     2.50     1.24
   2      1.13324525    -0.47342602  -130.31942756     0.00013109    -0.01278563  0.11D-03  0.51D-03  2  2     3.69     1.27
   3      1.13978031    -0.47382230  -130.31982384    -0.00039628    -0.00311987  0.52D-04  0.56D-04  3  3     4.86     1.28
   4      1.14266127    -0.47382900  -130.31983054    -0.00000670    -0.00097096  0.48D-05  0.10D-04  4  4     5.98     1.28
   5      1.14382970    -0.47386077  -130.31986232    -0.00003178    -0.00025417  0.12D-05  0.17D-05  5  5     7.13     1.29
   6      1.14420240    -0.47384471  -130.31984625     0.00001607    -0.00005384  0.12D-06  0.39D-06  6  6     8.28     1.29
   7      1.14427624    -0.47384518  -130.31984673    -0.00000048     0.00000293  0.17D-07  0.91D-07  6  1     9.42     1.29
   8      1.14429951    -0.47384539  -130.31984694    -0.00000021    -0.00000127  0.33D-08  0.19D-07  6  2    10.55     1.29
   9      1.14430467    -0.47384496  -130.31984650     0.00000043     0.00000106  0.26D-08  0.22D-08  6  4    11.71     1.29
  10      1.14430728    -0.47384534  -130.31984689    -0.00000038    -0.00000080  0.50D-09  0.27D-09  6  3    12.85     1.29
  11      1.14430706    -0.47384541  -130.31984695    -0.00000006    -0.00000014  0.16D-09  0.39D-10  6  5    13.96     1.29
  12      1.14430606    -0.47384556  -130.31984710    -0.00000015     0.00000037  0.20D-10  0.12D-10  6  6    15.12     1.29
  13      1.14430516    -0.47384560  -130.31984714    -0.00000004     0.00000022  0.63D-11  0.25D-11  6  1    16.28     1.29
  14      1.14430444    -0.47384564  -130.31984718    -0.00000004     0.00000017  0.38D-12  0.54D-12  6  4    17.47     1.30
  15      1.14430422    -0.47384564  -130.31984719    -0.00000001     0.00000004  0.89D-13  0.42D-13  6  2    18.64     1.30
  16      1.14430417    -0.47384565  -130.31984719    -0.00000000     0.00000001  0.24D-13  0.77D-14  6  3    19.80     1.30
  17      1.14430414    -0.47384565  -130.31984719    -0.00000000     0.00000001  0.44D-14  0.11D-14  6  5    20.96     1.30
  18      1.14430413    -0.47384565  -130.31984719    -0.00000000     0.00000000  0.92D-15  0.28D-15  6  6    22.18     1.30
  19      1.14430413    -0.47384565  -130.31984719    -0.00000000     0.00000000  0.11D-15  0.56D-16  6  1    23.35     1.30
  20      1.14430413    -0.47384565  -130.31984719     0.00000000    -0.00000000  0.11D-16  0.81D-17  6  4    24.47     1.30
  21      1.14430414    -0.47384565  -130.31984719     0.00000000    -0.00000000  0.55D-18  0.65D-18  6  3    25.61     1.30
  22      1.14430414    -0.47384565  -130.31984719     0.00000000    -0.00000000  0.14D-18  0.13D-18  6  2    26.78     1.30
  23      1.14430414    -0.47384565  -130.31984719     0.00000000     0.00000000  0.42D-19  0.47D-19  6  5    27.96     1.31
  24      1.14430414    -0.47384565  -130.31984719    -0.00000000     0.00000000  0.33D-20  0.10D-19  6  1    29.15     1.31

 Norm of t1 vector:      0.07858013      S-energy:    -0.00000000      T1 diagnostic:  0.01604010
                                                                       D1 diagnostic:  0.04347916

 Doubles amplitudes (print threshold =  0.500E-01):

         I         J         SYM. A    SYM. B    A         B      T(IJ, AB)

         6         6         2         2         1         1     -0.10387869


 Total CPU time for triples:     14.31 sec


 RESULTS
 =======

  Reference energy                   -129.846001542508
  CCSD singlet pair energy             -0.327788664465
  CCSD triplet pair energy             -0.146056982017
  CCSD correlation energy              -0.473845646483

  Triples (T) contribution             -0.022710868241
  Total correlation energy             -0.496556514724

  CCSD total energy                  -130.319847188992
  CCSD[T] energy                     -130.343680061059
  CCSD-T energy                      -130.342160607301
 !CCSD(T) total energy               -130.342558057232

 Timing summary (sec):

 STEP                 CPU(USER)    SYS     CPU(TOT)    WALL
 Transformation          1.38      0.23      1.61      1.67
 CCSD iterations        27.77      3.61     31.38     31.39
 Triples                14.31      0.42     14.73     14.73

 Program statistics:

 Available memory in ccsd:               994999756
 Min. memory needed in ccsd:               1265322
 Max. memory used in ccsd:                 1555950
 Max. memory used in cckext:               2415326 (24 integral passes)



 **********************************************************************************************************************************
 DATASETS  * FILE   NREC   LENGTH (MB)   RECORD NAMES
              1      20     1044.69       500      610      700      900      950      970     1000      129      960     1100   
                                          VAR    BASINP    GEOM    SYMINP    ZMAT    AOBASIS   BASIS     P2S    ABASIS      S 
                                         1400     1410     1200     1210     1080     1600     1650     1300     1700     1380   
                                           T        V       H0       H01     AOSYM     SMH    MOLCAS    ERIS     OPER     JKOP   

              2       4        3.27       700     1000      520     2100   
                                         GEOM     BASIS   MCVARS     RHF  

 PROGRAMS   *        TOTAL   CCSD(T)        HF       INT
 CPU TIMES  *        63.96     43.48     10.11     10.27
 REAL TIME  *        73.28 SEC
 DISK USED  *         3.13 GB      
 **********************************************************************************************************************************

 CCSD(T)/aug-cc-pVQZ energy=   -130.342558057232

        CCSD(T)         HF-SCF  
   -130.34255806   -129.84600154
 **********************************************************************************************************************************
 Molpro calculation terminated
 Variable memory released
