
 Primary working directories    : /tmp/r2666/282056.maple
 Secondary working directories  : /tmp/r2666/282056.maple
 Wavefunction directory         : /ddn/home4/r2666/wfu/
 Main file repository           : /tmp/r2666/282056.maple/

 SHA1      : d5ffa45e93fdbca01ffc919aa182cfdae0147319
 NAME      : 2015.1.35
 ARCHNAME  : linux/x86_64
 FC        : /opt/intel/composer_xe_2015.1.133/bin/intel64/ifort
 BLASLIB   : -Wl,-_start-group /opt/intel/mkl/lib/intel64/libmkl_intel_ilp64.a /opt/intel/mkl/lib/intel64/libmkl_intel_thread.a /opt/intel/mkl/lib/intel64/libmkl_core.a -Wl,-_end-group
 id        : olemiss

 Nodes     nprocs
 cn078        1

 Using customized tuning parameters: mindgm=1; mindgv=20; mindgc=4; mindgr=1; noblas=0; minvec=7
 default implementation of scratch files=df  

 ***,hno CCSD(T)/TZ-F12 QFF
 memory, 995, m;
 gthresh,energy=1.d-12,zero=1.d-22,oneint=1.d-22,twoint=1.d-22;
 gthresh,optgrad=1.d-8,optstep=1.d-8;
 nocompress;
 geomtyp=xyz
 bohr
 geometry={
 3
         82        82
 H        0.0000000000        1.6690444555       -1.9321151434
 N        0.0000000000       -0.1631140904       -1.1603878069
 O        0.0000000000        0.0358374249        1.1419133593
 }
 
 basis=avqz
   {hf,maxit=500;accu,20;}
 {ccsd(t),nocheck,maxit=250;orbital,IGNORE_ERROR;}

 Variables initialized (889), CPU time= 0.01 sec
 Commands  initialized (702), CPU time= 0.01 sec, 572 directives.
 Default parameters read. Elapsed time= 0.06 sec

 Checking input...
 Passed
1


                                         ***  PROGRAM SYSTEM MOLPRO  ***
                                       Copyright, TTI GmbH Stuttgart, 2015
                                    Version 2015.1 linked Jul  9 2018 13:16:40


 **********************************************************************************************************************************
 LABEL *   hno CCSD(T)/TZ-F12 QFF                                                        
  64 bit serial version                                                                  DATE: 04-Mar-20          TIME: 13:43:34  
 **********************************************************************************************************************************

 SHA1:             d5ffa45e93fdbca01ffc919aa182cfdae0147319
 **********************************************************************************************************************************

 THRESHOLDS:

 ZERO    =  1.00D-22  ONEINT  =  1.00D-22  TWOINT  =  1.00D-22  PREFAC  =  1.00D-14  LOCALI  =  1.00D-09  EORDER  =  1.00D-04
 ENERGY  =  1.00D-12  ETEST   =  0.00D+00  EDENS   =  0.00D+00  THRDEDEF=  1.00D-06  GRADIENT=  1.00D-02  STEP    =  1.00D-03
 ORBITAL =  1.00D-05  CIVEC   =  1.00D-05  COEFF   =  1.00D-04  PRINTCI =  5.00D-02  PUNCHCI =  9.90D+01  OPTGRAD =  3.00D-04
 OPTENERG=  1.00D-06  OPTSTEP =  3.00D-04  THRGRAD =  1.00D-10  COMPRESS=  1.00D-11  VARMIN  =  1.00D-07  VARMAX  =  1.00D-03
 THRDOUB =  0.00D+00  THRDIV  =  1.00D-05  THRRED  =  1.00D-07  THRPSP  =  1.00D+00  THRDC   =  1.00D-10  THRCS   =  1.00D-10
 THRNRM  =  1.00D-08  THREQ   =  0.00D+00  THRDE   =  1.00D+00  THRREF  =  1.00D-05  SPARFAC =  1.00D+00  THRDLP  =  1.00D-07
 THRDIA  =  1.00D-10  THRDLS  =  1.00D-07  THRGPS  =  0.00D+00  THRKEX  =  0.00D+00  THRDIS  =  2.00D-01  THRVAR  =  1.00D-10
 THRLOC  =  1.00D-06  THRGAP  =  1.00D-06  THRLOCT = -1.00D+00  THRGAPT = -1.00D+00  THRORB  =  1.00D-06  THRMLTP =  0.00D+00
 THRCPQCI=  1.00D-10  KEXTA   =  0.00D+00  THRCOARS=  0.00D+00  SYMTOL  =  1.00D-06  GRADTOL =  1.00D-06  THROVL  =  1.00D-08
 THRORTH =  1.00D-08  GRID    =  1.00D-06  GRIDMAX =  1.00D-03  DTMAX   =  0.00D+00  THROCCDE=  1.00D-01  THROCCDE=  1.00D-01



 THRESHOLDS:

 ZERO    =  1.00D-22  ONEINT  =  1.00D-22  TWOINT  =  1.00D-22  PREFAC  =  1.00D-14  LOCALI  =  1.00D-09  EORDER  =  1.00D-04
 ENERGY  =  1.00D-12  ETEST   =  0.00D+00  EDENS   =  0.00D+00  THRDEDEF=  1.00D-06  GRADIENT=  1.00D-02  STEP    =  1.00D-03
 ORBITAL =  1.00D-05  CIVEC   =  1.00D-05  COEFF   =  1.00D-04  PRINTCI =  5.00D-02  PUNCHCI =  9.90D+01  OPTGRAD =  1.00D-08
 OPTENERG=  1.00D-06  OPTSTEP =  1.00D-08  THRGRAD =  1.00D-10  COMPRESS=  1.00D-11  VARMIN  =  1.00D-07  VARMAX  =  1.00D-03
 THRDOUB =  0.00D+00  THRDIV  =  1.00D-05  THRRED  =  1.00D-07  THRPSP  =  1.00D+00  THRDC   =  1.00D-10  THRCS   =  1.00D-10
 THRNRM  =  1.00D-08  THREQ   =  0.00D+00  THRDE   =  1.00D+00  THRREF  =  1.00D-05  SPARFAC =  1.00D+00  THRDLP  =  1.00D-07
 THRDIA  =  1.00D-10  THRDLS  =  1.00D-07  THRGPS  =  0.00D+00  THRKEX  =  0.00D+00  THRDIS  =  2.00D-01  THRVAR  =  1.00D-10
 THRLOC  =  1.00D-06  THRGAP  =  1.00D-06  THRLOCT = -1.00D+00  THRGAPT = -1.00D+00  THRORB  =  1.00D-06  THRMLTP =  0.00D+00
 THRCPQCI=  1.00D-10  KEXTA   =  0.00D+00  THRCOARS=  0.00D+00  SYMTOL  =  1.00D-06  GRADTOL =  1.00D-06  THROVL  =  1.00D-08
 THRORTH =  1.00D-08  GRID    =  1.00D-06  GRIDMAX =  1.00D-03  DTMAX   =  0.00D+00  THROCCDE=  1.00D-01  THROCCDE=  1.00D-01



 Input parameters for SORTINT:

 COMPRESS =    0.000000
 C_FINAL  =    1.000000
 DEBUG    =   -1.000000
 C_SORT1  =    0.000000
 C_SEWARD =    0.000000
 THRESH   =    0.000000
 IO       =  molpro                                                          
 SPRI     =    0.000000
 SETTING GEOMTYP        =    XYZ
 ZUNIT=BOHR
 

 Variable memory set to  995000000 words,  buffer space   230000 words

 SETTING BASIS          =    AVQZ


 Recomputing integrals since basis changed


 Using spherical harmonics

 Library entry H      S aug-cc-pVQZ          selected for orbital group  1
 Library entry H      P aug-cc-pVQZ          selected for orbital group  1
 Library entry H      D aug-cc-pVQZ          selected for orbital group  1
 Library entry H      F aug-cc-pVQZ          selected for orbital group  1
 Library entry N      S aug-cc-pVQZ          selected for orbital group  2
 Library entry N      P aug-cc-pVQZ          selected for orbital group  2
 Library entry N      D aug-cc-pVQZ          selected for orbital group  2
 Library entry N      F aug-cc-pVQZ          selected for orbital group  2
 Library entry N      G aug-cc-pVQZ          selected for orbital group  2
 Library entry O      S aug-cc-pVQZ          selected for orbital group  3
 Library entry O      P aug-cc-pVQZ          selected for orbital group  3
 Library entry O      D aug-cc-pVQZ          selected for orbital group  3
 Library entry O      F aug-cc-pVQZ          selected for orbital group  3
 Library entry O      G aug-cc-pVQZ          selected for orbital group  3


 PROGRAM * SEWARD (Integral evaluation for generally contracted gaussian basis sets)     Author: Roland Lindh, 1990

 Geometry written to block  1 of record 700


 Point group  Cs  



 ATOMIC COORDINATES

 NR  ATOM    CHARGE       X              Y              Z

   1  H       1.00    0.000000000    1.669044455   -1.932115143
   2  N       7.00    0.000000000   -0.163114090   -1.160387807
   3  O       8.00    0.000000000    0.035837425    1.141913359

 Bond lengths in Bohr (Angstrom)

 1-2  1.988056342  2-3  2.310881296
     ( 1.052034110)     ( 1.222865719)

 Bond angles

  1-2-3  107.90251460

 NUCLEAR CHARGE:                   16
 NUMBER OF PRIMITIVE AOS:         293
 NUMBER OF SYMMETRY AOS:          234
 NUMBER OF CONTRACTIONS:          206   ( 130A'  +  76A"  )
 NUMBER OF CORE ORBITALS:           2   (   2A'  +   0A"  )
 NUMBER OF VALENCE ORBITALS:        9   (   7A'  +   2A"  )


 NUCLEAR REPULSION ENERGY   30.05242878

 Eigenvalues of metric

         1 0.607E-04 0.149E-03 0.323E-03 0.438E-03 0.613E-03 0.690E-03 0.103E-02 0.111E-02
         2 0.862E-03 0.163E-02 0.512E-02 0.900E-02 0.102E-01 0.126E-01 0.130E-01 0.193E-01


 Contracted 2-electron integrals neglected if value below      1.0D-22

      109945092. INTEGRALS WRITTEN OUT IN   26849 BLOCKS ON RECORD 1290 OF FILE 1


 NUMBER OF SORTED TWO-ELECTRON INTEGRALS:  115283741.     BUFFER LENGTH:  32768
 NUMBER OF SEGMENTS:   8  SEGMENT LENGTH:   15998004      RECORD LENGTH: 524288

 Memory used in sort:      16.56 MW

 SORT1 READ   109945092. AND WROTE   110865259. INTEGRALS IN    322 RECORDS. CPU TIME:     1.75 SEC, REAL TIME:     2.49 SEC
 SORT2 READ   110865259. AND WROTE   115283741. INTEGRALS IN      8 RECORDS. CPU TIME:     1.26 SEC, REAL TIME:     1.75 SEC

 FILE SIZES:   FILE 1:  1780.6 MBYTE,  FILE 4:  1350.6 MBYTE,   TOTAL:   3131.2 MBYTE

 OPERATOR DM      FOR CENTER  0  COORDINATES:    0.000000    0.000000    0.000000


 **********************************************************************************************************************************
 DATASETS  * FILE   NREC   LENGTH (MB)   RECORD NAMES
              1      19      944.14       500      610      700      900      950      970     1000      129      960     1100   
                                          VAR    BASINP    GEOM    SYMINP    ZMAT    AOBASIS   BASIS     P2S    ABASIS      S 
                                         1400     1410     1200     1210     1080     1600     1650     1300     1700   
                                           T        V       H0       H01     AOSYM     SMH    MOLCAS    ERIS     OPER   

 PROGRAMS   *        TOTAL       INT
 CPU TIMES  *        10.49     10.40
 REAL TIME  *        13.00 SEC
 DISK USED  *         3.13 GB      
 **********************************************************************************************************************************


 PROGRAM * RHF-SCF (CLOSED SHELL)       Authors: W. Meyer, H.-J. Werner


 NUMBER OF ELECTRONS:       8+    8-
 CONVERGENCE THRESHOLDS:    1.00E-10 (Density)    1.00E-13 (Energy)
 MAX. NUMBER OF ITERATIONS:      500
 INTERPOLATION TYPE:            DIIS
 INTERPOLATION STEPS:              2 (START)      1 (STEP)
 LEVEL SHIFTS:                  0.00 (CLOSED)  0.00 (OPEN) 



 Orbital guess generated from atomic densities. Full valence occupancy:    9   2

 Molecular orbital dump at record        2100.2

 Initial occupancy:   7   1

 ITERATION    DDIFF          GRAD             ENERGY        2-EL.EN.            DIPOLE MOMENTS         DIIS   ORB.
    1      0.000D+00      0.000D+00      -129.79202827    153.395505    0.00000    0.59826   -1.07433    0    start
    2      0.000D+00      0.825D-02      -129.81874108    154.594788    0.00000    0.61974   -0.19814    1    diag
    3      0.675D-02      0.651D-02      -129.84430592    154.752725    0.00000    0.56211   -0.61474    2    diag
    4      0.348D-02      0.989D-03      -129.84514270    154.455899    0.00000    0.56929   -0.55096    3    diag
    5      0.618D-03      0.323D-03      -129.84527540    154.550856    0.00000    0.57458   -0.55326    4    diag
    6      0.259D-03      0.935D-04      -129.84529666    154.534462    0.00000    0.57480   -0.54880    5    diag
    7      0.991D-04      0.472D-04      -129.84530309    154.537086    0.00000    0.57599   -0.54597    6    diag
    8      0.691D-04      0.173D-04      -129.84530391    154.536329    0.00000    0.57602   -0.54482    7    diag
    9      0.287D-04      0.338D-05      -129.84530395    154.536200    0.00000    0.57598   -0.54457    8    diag
   10      0.592D-05      0.743D-06      -129.84530395    154.536181    0.00000    0.57595   -0.54454    9    orth
   11      0.108D-05      0.146D-06      -129.84530395    154.536178    0.00000    0.57594   -0.54454    9    diag
   12      0.189D-06      0.307D-07      -129.84530395    154.536178    0.00000    0.57594   -0.54454    9    diag
   13      0.409D-07      0.827D-08      -129.84530395    154.536177    0.00000    0.57594   -0.54453    9    diag
   14      0.118D-07      0.162D-08      -129.84530395    154.536177    0.00000    0.57594   -0.54453    9    diag
   15      0.210D-08      0.460D-09      -129.84530395    154.536177    0.00000    0.57594   -0.54453    9    diag
   16      0.642D-09      0.134D-09      -129.84530395    154.536177    0.00000    0.57594   -0.54453    9    diag
   17      0.113D-09      0.340D-10      -129.84530395    154.536177    0.00000    0.57594   -0.54453    9    diag
   18      0.303D-10      0.112D-10      -129.84530395    154.536177    0.00000    0.57594   -0.54453    9    diag
   19      0.140D-10      0.263D-11      -129.84530395    154.536177    0.00000    0.57594   -0.54453    9    fixocc
   20      0.454D-11      0.426D-12      -129.84530395    154.536177    0.00000    0.57594   -0.54453    9    orth
   21      0.419D-11      0.225D-12      -129.84530395    154.536177    0.00000    0.57594   -0.54453    9    diag
   22      0.234D-11      0.138D-12      -129.84530395    154.536177    0.00000    0.57594   -0.54453    9    diag
   23      0.161D-11      0.146D-12      -129.84530395    154.536177    0.00000    0.57594   -0.54453    9    diag
   24      0.877D-12      0.826D-13      -129.84530395    154.536177    0.00000    0.57594   -0.54453    9    diag
   25      0.766D-12      0.161D-12      -129.84530395    154.536177    0.00000    0.57594   -0.54453    9    diag
   26      0.476D-12      0.957D-13      -129.84530395    154.536177    0.00000    0.57594   -0.54453    0    orth

 Final occupancy:   7   1

 !RHF STATE 1.1 Energy               -129.845303948500
 Nuclear energy                        30.05242878
 One-electron energy                 -237.16582142
 Two-electron energy                   77.26808870
 Virial quotient                       -1.00216854
 !RHF STATE 1.1 Dipole moment           0.00000000     0.57593867    -0.54453481
 Dipole moment /Debye                   0.00000000     1.46379419    -1.38397879

 Orbital energies:

         1.1          2.1          3.1          4.1          5.1          6.1          7.1          8.1          9.1
    -20.655031   -15.715267    -1.517733    -0.997836    -0.742738    -0.661826    -0.435238     0.026191     0.079439

         1.2          2.2          3.2
     -0.589153     0.059492     0.109845

 HOMO      7.1    -0.435238 =     -11.8434eV
 LUMO      8.1     0.026191 =       0.7127eV
 LUMO-HOMO         0.461429 =      12.5561eV


 **********************************************************************************************************************************
 DATASETS  * FILE   NREC   LENGTH (MB)   RECORD NAMES
              1      19      944.14       500      610      700      900      950      970     1000      129      960     1100   
                                          VAR    BASINP    GEOM    SYMINP    ZMAT    AOBASIS   BASIS     P2S    ABASIS      S 
                                         1400     1410     1200     1210     1080     1600     1650     1300     1700   
                                           T        V       H0       H01     AOSYM     SMH    MOLCAS    ERIS     OPER   

              2       4        3.27       700     1000      520     2100   
                                         GEOM     BASIS   MCVARS     RHF  

 PROGRAMS   *        TOTAL        HF       INT
 CPU TIMES  *        22.55     12.06     10.40
 REAL TIME  *        28.16 SEC
 DISK USED  *         3.13 GB      
 **********************************************************************************************************************************


 PROGRAM * CCSD (Closed-shell coupled cluster)     Authors: C. Hampel, H.-J. Werner, 1991, M. Deegan, P.J. Knowles, 1992


 Convergence thresholds:  THRVAR = 1.00D-08  THRDEN = 1.00D-12

 CCSD(T)     terms to be evaluated (factor= 1.000)


 Number of core orbitals:           2 (   2   0 )
 Number of closed-shell orbitals:   6 (   5   1 )
 Number of external orbitals:     198 ( 123  75 )

 Molecular orbitals read from record     2100.2  Type=RHF/CANONICAL (state 1.1)

 Number of N-1 electron functions:               6
 Number of N-2 electron functions:              21
 Number of singly external CSFs:               690
 Number of doubly external CSFs:            362646
 Total number of CSFs:                      363337

 Length of J-op  integral file:               0.00 MB
 Length of K-op  integral file:               1.60 MB
 Length of 3-ext integral record:             0.00 MB

 Memory could be reduced to 34.67 Mwords without degradation in triples

 Integral transformation finished. Total CPU:   1.29 sec, npass=  1  Memory used:   9.53 MW

 Reference energy:                   -129.84530395

 MP2 singlet pair energy:              -0.30315888
 MP2 triplet pair energy:              -0.17147160
 MP2 correlation energy:               -0.47463048
 MP2 total energy:                   -130.31993443

 SCS-MP2 correlation energy:           -0.47048410   (PS=  1.200000  PT=  0.333333)
 SCS-MP2 total energy:               -130.31578805

 ITER.      SQ.NORM     CORR.ENERGY   TOTAL ENERGY   ENERGY CHANGE        DEN1      VAR(S)    VAR(P)  DIIS     TIME  TIME/IT
   1      1.12264058    -0.47405603  -130.31935998     0.00057445     0.01765105  0.34D-02  0.34D-02  1  1     2.45     1.28
   2      1.13372209    -0.47388286  -130.31918681     0.00017317    -0.01289204  0.11D-03  0.51D-03  2  2     3.62     1.30
   3      1.14033386    -0.47428404  -130.31958799    -0.00040119    -0.00314125  0.53D-04  0.57D-04  3  3     4.77     1.30
   4      1.14326807    -0.47429167  -130.31959562    -0.00000762    -0.00098363  0.49D-05  0.10D-04  4  4     5.93     1.31
   5      1.14446624    -0.47432421  -130.31962816    -0.00003254    -0.00026008  0.12D-05  0.17D-05  5  5     7.07     1.31
   6      1.14484674    -0.47430755  -130.31961149     0.00001666    -0.00005514  0.12D-06  0.40D-06  6  6     8.22     1.31
   7      1.14492019    -0.47430818  -130.31961213    -0.00000064     0.00000326  0.17D-07  0.92D-07  6  1     9.39     1.32
   8      1.14494340    -0.47430835  -130.31961230    -0.00000017    -0.00000126  0.32D-08  0.19D-07  6  2    10.54     1.32
   9      1.14494837    -0.47430792  -130.31961187     0.00000043     0.00000110  0.27D-08  0.23D-08  6  4    11.68     1.32
  10      1.14495102    -0.47430830  -130.31961225    -0.00000038    -0.00000081  0.52D-09  0.29D-09  6  3    12.84     1.32
  11      1.14495083    -0.47430837  -130.31961231    -0.00000006    -0.00000015  0.17D-09  0.40D-10  6  5    13.99     1.32
  12      1.14494982    -0.47430852  -130.31961247    -0.00000015     0.00000038  0.21D-10  0.12D-10  6  6    15.16     1.32
  13      1.14494891    -0.47430856  -130.31961251    -0.00000004     0.00000023  0.64D-11  0.27D-11  6  1    16.31     1.32
  14      1.14494817    -0.47430860  -130.31961255    -0.00000004     0.00000017  0.37D-12  0.58D-12  6  4    17.48     1.32
  15      1.14494793    -0.47430861  -130.31961256    -0.00000001     0.00000004  0.85D-13  0.45D-13  6  2    18.65     1.32
  16      1.14494787    -0.47430861  -130.31961256    -0.00000000     0.00000001  0.22D-13  0.82D-14  6  3    19.79     1.32
  17      1.14494784    -0.47430861  -130.31961256    -0.00000000     0.00000001  0.42D-14  0.11D-14  6  5    20.94     1.32
  18      1.14494784    -0.47430861  -130.31961256    -0.00000000     0.00000000  0.92D-15  0.27D-15  6  6    22.10     1.32
  19      1.14494784    -0.47430861  -130.31961256    -0.00000000     0.00000000  0.12D-15  0.54D-16  6  1    23.30     1.32
  20      1.14494784    -0.47430861  -130.31961256     0.00000000    -0.00000000  0.11D-16  0.80D-17  6  4    24.46     1.32
  21      1.14494784    -0.47430861  -130.31961256     0.00000000    -0.00000000  0.55D-18  0.63D-18  6  3    25.57     1.32
  22      1.14494784    -0.47430861  -130.31961256     0.00000000    -0.00000000  0.14D-18  0.11D-18  6  2    26.74     1.32
  23      1.14494784    -0.47430861  -130.31961256     0.00000000     0.00000000  0.40D-19  0.40D-19  6  5    27.91     1.32
  24      1.14494784    -0.47430861  -130.31961256    -0.00000000     0.00000000  0.34D-20  0.89D-20  6  1    29.09     1.32

 Norm of t1 vector:      0.07924540      S-energy:    -0.00000000      T1 diagnostic:  0.01617590
                                                                       D1 diagnostic:  0.04415303

 Doubles amplitudes (print threshold =  0.500E-01):

         I         J         SYM. A    SYM. B    A         B      T(IJ, AB)

         6         6         2         2         1         1     -0.10649123


 Total CPU time for triples:     14.24 sec


 RESULTS
 =======

  Reference energy                   -129.845303948500
  CCSD singlet pair energy             -0.328192557093
  CCSD triplet pair energy             -0.146116055337
  CCSD correlation energy              -0.474308612431

  Triples (T) contribution             -0.022840286917
  Total correlation energy             -0.497148899348

  CCSD total energy                  -130.319612560931
  CCSD[T] energy                     -130.343593097115
  CCSD-T energy                      -130.342051952391
 !CCSD(T) total energy               -130.342452847848

 Timing summary (sec):

 STEP                 CPU(USER)    SYS     CPU(TOT)    WALL
 Transformation          1.30      0.32      1.62      1.64
 CCSD iterations        27.80      3.84     31.64     31.65
 Triples                14.24      0.38     14.62     14.63

 Program statistics:

 Available memory in ccsd:               994999756
 Min. memory needed in ccsd:               1265322
 Max. memory used in ccsd:                 1555950
 Max. memory used in cckext:               2415326 (24 integral passes)



 **********************************************************************************************************************************
 DATASETS  * FILE   NREC   LENGTH (MB)   RECORD NAMES
              1      20     1044.69       500      610      700      900      950      970     1000      129      960     1100   
                                          VAR    BASINP    GEOM    SYMINP    ZMAT    AOBASIS   BASIS     P2S    ABASIS      S 
                                         1400     1410     1200     1210     1080     1600     1650     1300     1700     1380   
                                           T        V       H0       H01     AOSYM     SMH    MOLCAS    ERIS     OPER     JKOP   

              2       4        3.27       700     1000      520     2100   
                                         GEOM     BASIS   MCVARS     RHF  

 PROGRAMS   *        TOTAL   CCSD(T)        HF       INT
 CPU TIMES  *        65.91     43.36     12.06     10.40
 REAL TIME  *        76.12 SEC
 DISK USED  *         3.13 GB      
 **********************************************************************************************************************************

 CCSD(T)/aug-cc-pVQZ energy=   -130.342452847848

        CCSD(T)         HF-SCF  
   -130.34245285   -129.84530395
 **********************************************************************************************************************************
 Molpro calculation terminated
 Variable memory released
