
 Primary working directories    : /tmp/r2666/282078.maple
 Secondary working directories  : /tmp/r2666/282078.maple
 Wavefunction directory         : /ddn/home4/r2666/wfu/
 Main file repository           : /tmp/r2666/282078.maple/

 SHA1      : d5ffa45e93fdbca01ffc919aa182cfdae0147319
 NAME      : 2015.1.35
 ARCHNAME  : linux/x86_64
 FC        : /opt/intel/composer_xe_2015.1.133/bin/intel64/ifort
 BLASLIB   : -Wl,-_start-group /opt/intel/mkl/lib/intel64/libmkl_intel_ilp64.a /opt/intel/mkl/lib/intel64/libmkl_intel_thread.a /opt/intel/mkl/lib/intel64/libmkl_core.a -Wl,-_end-group
 id        : olemiss

 Nodes     nprocs
 cn053        1

 Using customized tuning parameters: mindgm=1; mindgv=20; mindgc=4; mindgr=1; noblas=0; minvec=7
 default implementation of scratch files=df  

 ***,hno CCSD(T)/TZ-F12 QFF
 memory, 995, m;
 gthresh,energy=1.d-12,zero=1.d-22,oneint=1.d-22,twoint=1.d-22;
 gthresh,optgrad=1.d-8,optstep=1.d-8;
 nocompress;
 geomtyp=xyz
 bohr
 geometry={
 3
        104       104
 H        0.0000000000        1.6722105783       -1.9349387247
 N        0.0000000000       -0.1644004106       -1.1495176984
 O        0.0000000000        0.0339576223        1.1338668321
 }
 
 basis=avqz
   {hf,maxit=500;accu,20;}
 {ccsd(t),nocheck,maxit=250;orbital,IGNORE_ERROR;}

 Variables initialized (889), CPU time= 0.01 sec
 Commands  initialized (702), CPU time= 0.00 sec, 572 directives.
 Default parameters read. Elapsed time= 0.06 sec

 Checking input...
 Passed
1


                                         ***  PROGRAM SYSTEM MOLPRO  ***
                                       Copyright, TTI GmbH Stuttgart, 2015
                                    Version 2015.1 linked Jul  9 2018 13:16:40


 **********************************************************************************************************************************
 LABEL *   hno CCSD(T)/TZ-F12 QFF                                                        
  64 bit serial version                                                                  DATE: 04-Mar-20          TIME: 13:44:30  
 **********************************************************************************************************************************

 SHA1:             d5ffa45e93fdbca01ffc919aa182cfdae0147319
 **********************************************************************************************************************************

 THRESHOLDS:

 ZERO    =  1.00D-22  ONEINT  =  1.00D-22  TWOINT  =  1.00D-22  PREFAC  =  1.00D-14  LOCALI  =  1.00D-09  EORDER  =  1.00D-04
 ENERGY  =  1.00D-12  ETEST   =  0.00D+00  EDENS   =  0.00D+00  THRDEDEF=  1.00D-06  GRADIENT=  1.00D-02  STEP    =  1.00D-03
 ORBITAL =  1.00D-05  CIVEC   =  1.00D-05  COEFF   =  1.00D-04  PRINTCI =  5.00D-02  PUNCHCI =  9.90D+01  OPTGRAD =  3.00D-04
 OPTENERG=  1.00D-06  OPTSTEP =  3.00D-04  THRGRAD =  1.00D-10  COMPRESS=  1.00D-11  VARMIN  =  1.00D-07  VARMAX  =  1.00D-03
 THRDOUB =  0.00D+00  THRDIV  =  1.00D-05  THRRED  =  1.00D-07  THRPSP  =  1.00D+00  THRDC   =  1.00D-10  THRCS   =  1.00D-10
 THRNRM  =  1.00D-08  THREQ   =  0.00D+00  THRDE   =  1.00D+00  THRREF  =  1.00D-05  SPARFAC =  1.00D+00  THRDLP  =  1.00D-07
 THRDIA  =  1.00D-10  THRDLS  =  1.00D-07  THRGPS  =  0.00D+00  THRKEX  =  0.00D+00  THRDIS  =  2.00D-01  THRVAR  =  1.00D-10
 THRLOC  =  1.00D-06  THRGAP  =  1.00D-06  THRLOCT = -1.00D+00  THRGAPT = -1.00D+00  THRORB  =  1.00D-06  THRMLTP =  0.00D+00
 THRCPQCI=  1.00D-10  KEXTA   =  0.00D+00  THRCOARS=  0.00D+00  SYMTOL  =  1.00D-06  GRADTOL =  1.00D-06  THROVL  =  1.00D-08
 THRORTH =  1.00D-08  GRID    =  1.00D-06  GRIDMAX =  1.00D-03  DTMAX   =  0.00D+00  THROCCDE=  1.00D-01  THROCCDE=  1.00D-01



 THRESHOLDS:

 ZERO    =  1.00D-22  ONEINT  =  1.00D-22  TWOINT  =  1.00D-22  PREFAC  =  1.00D-14  LOCALI  =  1.00D-09  EORDER  =  1.00D-04
 ENERGY  =  1.00D-12  ETEST   =  0.00D+00  EDENS   =  0.00D+00  THRDEDEF=  1.00D-06  GRADIENT=  1.00D-02  STEP    =  1.00D-03
 ORBITAL =  1.00D-05  CIVEC   =  1.00D-05  COEFF   =  1.00D-04  PRINTCI =  5.00D-02  PUNCHCI =  9.90D+01  OPTGRAD =  1.00D-08
 OPTENERG=  1.00D-06  OPTSTEP =  1.00D-08  THRGRAD =  1.00D-10  COMPRESS=  1.00D-11  VARMIN  =  1.00D-07  VARMAX  =  1.00D-03
 THRDOUB =  0.00D+00  THRDIV  =  1.00D-05  THRRED  =  1.00D-07  THRPSP  =  1.00D+00  THRDC   =  1.00D-10  THRCS   =  1.00D-10
 THRNRM  =  1.00D-08  THREQ   =  0.00D+00  THRDE   =  1.00D+00  THRREF  =  1.00D-05  SPARFAC =  1.00D+00  THRDLP  =  1.00D-07
 THRDIA  =  1.00D-10  THRDLS  =  1.00D-07  THRGPS  =  0.00D+00  THRKEX  =  0.00D+00  THRDIS  =  2.00D-01  THRVAR  =  1.00D-10
 THRLOC  =  1.00D-06  THRGAP  =  1.00D-06  THRLOCT = -1.00D+00  THRGAPT = -1.00D+00  THRORB  =  1.00D-06  THRMLTP =  0.00D+00
 THRCPQCI=  1.00D-10  KEXTA   =  0.00D+00  THRCOARS=  0.00D+00  SYMTOL  =  1.00D-06  GRADTOL =  1.00D-06  THROVL  =  1.00D-08
 THRORTH =  1.00D-08  GRID    =  1.00D-06  GRIDMAX =  1.00D-03  DTMAX   =  0.00D+00  THROCCDE=  1.00D-01  THROCCDE=  1.00D-01



 Input parameters for SORTINT:

 COMPRESS =    0.000000
 C_FINAL  =    1.000000
 DEBUG    =   -1.000000
 C_SORT1  =    0.000000
 C_SEWARD =    0.000000
 THRESH   =    0.000000
 IO       =  molpro                                                          
 SPRI     =    0.000000
 SETTING GEOMTYP        =    XYZ
 ZUNIT=BOHR
 

 Variable memory set to  995000000 words,  buffer space   230000 words

 SETTING BASIS          =    AVQZ


 Recomputing integrals since basis changed


 Using spherical harmonics

 Library entry H      S aug-cc-pVQZ          selected for orbital group  1
 Library entry H      P aug-cc-pVQZ          selected for orbital group  1
 Library entry H      D aug-cc-pVQZ          selected for orbital group  1
 Library entry H      F aug-cc-pVQZ          selected for orbital group  1
 Library entry N      S aug-cc-pVQZ          selected for orbital group  2
 Library entry N      P aug-cc-pVQZ          selected for orbital group  2
 Library entry N      D aug-cc-pVQZ          selected for orbital group  2
 Library entry N      F aug-cc-pVQZ          selected for orbital group  2
 Library entry N      G aug-cc-pVQZ          selected for orbital group  2
 Library entry O      S aug-cc-pVQZ          selected for orbital group  3
 Library entry O      P aug-cc-pVQZ          selected for orbital group  3
 Library entry O      D aug-cc-pVQZ          selected for orbital group  3
 Library entry O      F aug-cc-pVQZ          selected for orbital group  3
 Library entry O      G aug-cc-pVQZ          selected for orbital group  3


 PROGRAM * SEWARD (Integral evaluation for generally contracted gaussian basis sets)     Author: Roland Lindh, 1990

 Geometry written to block  1 of record 700


 Point group  Cs  



 ATOMIC COORDINATES

 NR  ATOM    CHARGE       X              Y              Z

   1  H       1.00    0.000000000    1.672210578   -1.934938725
   2  N       7.00    0.000000000   -0.164400411   -1.149517698
   3  O       8.00    0.000000000    0.033957622    1.133866832

 Bond lengths in Bohr (Angstrom)

 1-2  1.997504972  2-3  2.291984036
     ( 1.057034110)     ( 1.212865720)

 Bond angles

  1-2-3  108.18899349

 NUCLEAR CHARGE:                   16
 NUMBER OF PRIMITIVE AOS:         293
 NUMBER OF SYMMETRY AOS:          234
 NUMBER OF CONTRACTIONS:          206   ( 130A'  +  76A"  )
 NUMBER OF CORE ORBITALS:           2   (   2A'  +   0A"  )
 NUMBER OF VALENCE ORBITALS:        9   (   7A'  +   2A"  )


 NUCLEAR REPULSION ENERGY   30.23705313

 Eigenvalues of metric

         1 0.603E-04 0.147E-03 0.320E-03 0.436E-03 0.597E-03 0.690E-03 0.102E-02 0.109E-02
         2 0.837E-03 0.165E-02 0.502E-02 0.897E-02 0.102E-01 0.124E-01 0.127E-01 0.192E-01


 Contracted 2-electron integrals neglected if value below      1.0D-22

      109945082. INTEGRALS WRITTEN OUT IN   26849 BLOCKS ON RECORD 1290 OF FILE 1


 NUMBER OF SORTED TWO-ELECTRON INTEGRALS:  115283741.     BUFFER LENGTH:  32768
 NUMBER OF SEGMENTS:   8  SEGMENT LENGTH:   15998004      RECORD LENGTH: 524288

 Memory used in sort:      16.56 MW

 SORT1 READ   109945082. AND WROTE   110865249. INTEGRALS IN    322 RECORDS. CPU TIME:     3.64 SEC, REAL TIME:     4.62 SEC
 SORT2 READ   110865249. AND WROTE   115283741. INTEGRALS IN      8 RECORDS. CPU TIME:     1.74 SEC, REAL TIME:     2.47 SEC

 FILE SIZES:   FILE 1:  1780.6 MBYTE,  FILE 4:  1350.6 MBYTE,   TOTAL:   3131.2 MBYTE

 OPERATOR DM      FOR CENTER  0  COORDINATES:    0.000000    0.000000    0.000000


 **********************************************************************************************************************************
 DATASETS  * FILE   NREC   LENGTH (MB)   RECORD NAMES
              1      19      944.14       500      610      700      900      950      970     1000      129      960     1100   
                                          VAR    BASINP    GEOM    SYMINP    ZMAT    AOBASIS   BASIS     P2S    ABASIS      S 
                                         1400     1410     1200     1210     1080     1600     1650     1300     1700   
                                           T        V       H0       H01     AOSYM     SMH    MOLCAS    ERIS     OPER   

 PROGRAMS   *        TOTAL       INT
 CPU TIMES  *        18.08     17.97
 REAL TIME  *        21.66 SEC
 DISK USED  *         3.13 GB      
 **********************************************************************************************************************************


 PROGRAM * RHF-SCF (CLOSED SHELL)       Authors: W. Meyer, H.-J. Werner


 NUMBER OF ELECTRONS:       8+    8-
 CONVERGENCE THRESHOLDS:    1.00E-10 (Density)    1.00E-13 (Energy)
 MAX. NUMBER OF ITERATIONS:      500
 INTERPOLATION TYPE:            DIIS
 INTERPOLATION STEPS:              2 (START)      1 (STEP)
 LEVEL SHIFTS:                  0.00 (CLOSED)  0.00 (OPEN) 



 Orbital guess generated from atomic densities. Full valence occupancy:    9   2

 Molecular orbital dump at record        2100.2

 Initial occupancy:   7   1

 ITERATION    DDIFF          GRAD             ENERGY        2-EL.EN.            DIPOLE MOMENTS         DIIS   ORB.
    1      0.000D+00      0.000D+00      -129.79479290    153.721179    0.00000    0.59342   -1.04304    0    start
    2      0.000D+00      0.818D-02      -129.82189843    154.949741    0.00000    0.61307   -0.20332    1    diag
    3      0.662D-02      0.632D-02      -129.84587037    155.082474    0.00000    0.55713   -0.60064    2    diag
    4      0.339D-02      0.978D-03      -129.84668670    154.792518    0.00000    0.56438   -0.53846    3    diag
    5      0.610D-03      0.319D-03      -129.84681620    154.887018    0.00000    0.56977   -0.54098    4    diag
    6      0.256D-03      0.925D-04      -129.84683695    154.870702    0.00000    0.57003   -0.53669    5    diag
    7      0.979D-04      0.463D-04      -129.84684306    154.873443    0.00000    0.57127   -0.53401    6    diag
    8      0.677D-04      0.164D-04      -129.84684378    154.872724    0.00000    0.57131   -0.53294    7    diag
    9      0.268D-04      0.318D-05      -129.84684381    154.872602    0.00000    0.57127   -0.53271    8    diag
   10      0.540D-05      0.716D-06      -129.84684381    154.872583    0.00000    0.57124   -0.53268    9    orth
   11      0.104D-05      0.142D-06      -129.84684381    154.872579    0.00000    0.57123   -0.53268    9    diag
   12      0.188D-06      0.292D-07      -129.84684381    154.872579    0.00000    0.57123   -0.53267    9    diag
   13      0.405D-07      0.765D-08      -129.84684381    154.872579    0.00000    0.57123   -0.53267    9    diag
   14      0.112D-07      0.150D-08      -129.84684381    154.872579    0.00000    0.57123   -0.53267    9    diag
   15      0.204D-08      0.427D-09      -129.84684381    154.872579    0.00000    0.57123   -0.53267    9    diag
   16      0.610D-09      0.126D-09      -129.84684381    154.872579    0.00000    0.57123   -0.53267    9    diag
   17      0.113D-09      0.326D-10      -129.84684381    154.872579    0.00000    0.57123   -0.53267    9    diag
   18      0.299D-10      0.109D-10      -129.84684381    154.872579    0.00000    0.57123   -0.53267    0    orth

 Final occupancy:   7   1

 !RHF STATE 1.1 Energy               -129.846843811918
 Nuclear energy                        30.23705313
 One-electron energy                 -237.52018638
 Two-electron energy                   77.43628944
 Virial quotient                       -1.00195067
 !RHF STATE 1.1 Dipole moment           0.00000000     0.57122860    -0.53267441
 Dipole moment /Debye                   0.00000000     1.45182319    -1.35383463

 Orbital energies:

         1.1          2.1          3.1          4.1          5.1          6.1          7.1          8.1          9.1
    -20.654242   -15.714163    -1.525541    -0.994418    -0.745168    -0.664705    -0.431738     0.026291     0.079462

         1.2          2.2          3.2
     -0.593829     0.062056     0.110335

 HOMO      7.1    -0.431738 =     -11.7482eV
 LUMO      8.1     0.026291 =       0.7154eV
 LUMO-HOMO         0.458029 =      12.4636eV


 **********************************************************************************************************************************
 DATASETS  * FILE   NREC   LENGTH (MB)   RECORD NAMES
              1      19      944.14       500      610      700      900      950      970     1000      129      960     1100   
                                          VAR    BASINP    GEOM    SYMINP    ZMAT    AOBASIS   BASIS     P2S    ABASIS      S 
                                         1400     1410     1200     1210     1080     1600     1650     1300     1700   
                                           T        V       H0       H01     AOSYM     SMH    MOLCAS    ERIS     OPER   

              2       4        3.27       700     1000      520     2100   
                                         GEOM     BASIS   MCVARS     RHF  

 PROGRAMS   *        TOTAL        HF       INT
 CPU TIMES  *        30.44     12.37     17.97
 REAL TIME  *        37.77 SEC
 DISK USED  *         3.13 GB      
 **********************************************************************************************************************************


 PROGRAM * CCSD (Closed-shell coupled cluster)     Authors: C. Hampel, H.-J. Werner, 1991, M. Deegan, P.J. Knowles, 1992


 Convergence thresholds:  THRVAR = 1.00D-08  THRDEN = 1.00D-12

 CCSD(T)     terms to be evaluated (factor= 1.000)


 Number of core orbitals:           2 (   2   0 )
 Number of closed-shell orbitals:   6 (   5   1 )
 Number of external orbitals:     198 ( 123  75 )

 Molecular orbitals read from record     2100.2  Type=RHF/CANONICAL (state 1.1)

 Number of N-1 electron functions:               6
 Number of N-2 electron functions:              21
 Number of singly external CSFs:               690
 Number of doubly external CSFs:            362646
 Total number of CSFs:                      363337

 Length of J-op  integral file:               0.00 MB
 Length of K-op  integral file:               1.60 MB
 Length of 3-ext integral record:             0.00 MB

 Memory could be reduced to 34.67 Mwords without degradation in triples

 Integral transformation finished. Total CPU:   2.22 sec, npass=  1  Memory used:   9.53 MW

 Reference energy:                   -129.84684381

 MP2 singlet pair energy:              -0.30223267
 MP2 triplet pair energy:              -0.17084130
 MP2 correlation energy:               -0.47307396
 MP2 total energy:                   -130.31991777

 SCS-MP2 correlation energy:           -0.46898045   (PS=  1.200000  PT=  0.333333)
 SCS-MP2 total energy:               -130.31582426

 ITER.      SQ.NORM     CORR.ENERGY   TOTAL ENERGY   ENERGY CHANGE        DEN1      VAR(S)    VAR(P)  DIIS     TIME  TIME/IT
   1      1.12172963    -0.47289571  -130.31973952     0.00017825     0.01685397  0.32D-02  0.33D-02  1  1     4.15     2.12
   2      1.13258794    -0.47280791  -130.31965172     0.00008780    -0.01265698  0.11D-03  0.50D-03  2  2     6.15     2.17
   3      1.13902540    -0.47319690  -130.32004071    -0.00038899    -0.00308894  0.51D-04  0.55D-04  3  3     8.18     2.20
   4      1.14184915    -0.47320322  -130.32004703    -0.00000632    -0.00095583  0.46D-05  0.99D-05  4  4    10.17     2.20
   5      1.14298568    -0.47323401  -130.32007782    -0.00003079    -0.00024756  0.12D-05  0.17D-05  5  5    12.18     2.21
   6      1.14335057    -0.47321855  -130.32006236     0.00001546    -0.00005252  0.12D-06  0.39D-06  6  6    14.16     2.21
   7      1.14342464    -0.47321896  -130.32006277    -0.00000041     0.00000266  0.18D-07  0.90D-07  6  1    16.16     2.21
   8      1.14344784    -0.47321923  -130.32006304    -0.00000027    -0.00000124  0.34D-08  0.18D-07  6  2    17.89     2.18
   9      1.14345307    -0.47321881  -130.32006262     0.00000042     0.00000101  0.26D-08  0.21D-08  6  4    19.60     2.15
  10      1.14345563    -0.47321919  -130.32006300    -0.00000038    -0.00000078  0.48D-09  0.26D-09  6  3    21.36     2.14
  11      1.14345537    -0.47321925  -130.32006307    -0.00000006    -0.00000012  0.16D-09  0.37D-10  6  5    23.22     2.13
  12      1.14345438    -0.47321940  -130.32006321    -0.00000015     0.00000036  0.20D-10  0.11D-10  6  6    25.08     2.13
  13      1.14345351    -0.47321944  -130.32006325    -0.00000004     0.00000022  0.61D-11  0.24D-11  6  1    26.84     2.12
  14      1.14345281    -0.47321948  -130.32006329    -0.00000003     0.00000016  0.39D-12  0.50D-12  6  4    28.76     2.12
  15      1.14345260    -0.47321948  -130.32006330    -0.00000001     0.00000003  0.89D-13  0.39D-13  6  2    30.70     2.12
  16      1.14345254    -0.47321949  -130.32006330    -0.00000000     0.00000001  0.25D-13  0.74D-14  6  3    32.65     2.12
  17      1.14345252    -0.47321949  -130.32006330    -0.00000000     0.00000001  0.44D-14  0.11D-14  6  5    34.53     2.12
  18      1.14345251    -0.47321949  -130.32006330    -0.00000000     0.00000000  0.89D-15  0.28D-15  6  6    36.43     2.12
  19      1.14345251    -0.47321949  -130.32006330    -0.00000000     0.00000000  0.11D-15  0.56D-16  6  1    38.37     2.12
  20      1.14345251    -0.47321949  -130.32006330     0.00000000    -0.00000000  0.10D-16  0.81D-17  6  4    40.26     2.12
  21      1.14345252    -0.47321949  -130.32006330     0.00000000    -0.00000000  0.54D-18  0.67D-18  6  3    42.13     2.12
  22      1.14345252    -0.47321949  -130.32006330     0.00000000    -0.00000000  0.14D-18  0.14D-18  6  2    44.04     2.12
  23      1.14345252    -0.47321949  -130.32006330     0.00000000     0.00000000  0.41D-19  0.53D-19  6  5    45.97     2.12
  24      1.14345252    -0.47321949  -130.32006330    -0.00000000     0.00000000  0.32D-20  0.11D-19  6  1    47.89     2.12

 Norm of t1 vector:      0.07780885      S-energy:    -0.00000000      T1 diagnostic:  0.01588267
                                                                       D1 diagnostic:  0.04283030

 Doubles amplitudes (print threshold =  0.500E-01):

         I         J         SYM. A    SYM. B    A         B      T(IJ, AB)

         6         6         2         2         1         1     -0.10124278


 Total CPU time for triples:     23.81 sec


 RESULTS
 =======

  Reference energy                   -129.846843811917
  CCSD singlet pair energy             -0.327246467100
  CCSD triplet pair energy             -0.145973019293
  CCSD correlation energy              -0.473219486393

  Triples (T) contribution             -0.022552837780
  Total correlation energy             -0.495772324173

  CCSD total energy                  -130.320063298311
  CCSD[T] energy                     -130.343716836454
  CCSD-T energy                      -130.342223621655
 !CCSD(T) total energy               -130.342616136091

 Timing summary (sec):

 STEP                 CPU(USER)    SYS     CPU(TOT)    WALL
 Transformation          2.25      0.37      2.62      2.82
 CCSD iterations        45.65      5.28     50.93     50.93
 Triples                23.81      0.53     24.34     24.35

 Program statistics:

 Available memory in ccsd:               994999756
 Min. memory needed in ccsd:               1265322
 Max. memory used in ccsd:                 1555950
 Max. memory used in cckext:               2415326 (24 integral passes)



 **********************************************************************************************************************************
 DATASETS  * FILE   NREC   LENGTH (MB)   RECORD NAMES
              1      20     1044.69       500      610      700      900      950      970     1000      129      960     1100   
                                          VAR    BASINP    GEOM    SYMINP    ZMAT    AOBASIS   BASIS     P2S    ABASIS      S 
                                         1400     1410     1200     1210     1080     1600     1650     1300     1700     1380   
                                           T        V       H0       H01     AOSYM     SMH    MOLCAS    ERIS     OPER     JKOP   

              2       4        3.27       700     1000      520     2100   
                                         GEOM     BASIS   MCVARS     RHF  

 PROGRAMS   *        TOTAL   CCSD(T)        HF       INT
 CPU TIMES  *       102.18     71.73     12.37     17.97
 REAL TIME  *       115.98 SEC
 DISK USED  *         3.13 GB      
 **********************************************************************************************************************************

 CCSD(T)/aug-cc-pVQZ energy=   -130.342616136091

        CCSD(T)         HF-SCF  
   -130.34261614   -129.84684381
 **********************************************************************************************************************************
 Molpro calculation terminated
 Variable memory released
