
 Primary working directories    : /tmp/r2666/282088.maple
 Secondary working directories  : /tmp/r2666/282088.maple
 Wavefunction directory         : /ddn/home4/r2666/wfu/
 Main file repository           : /tmp/r2666/282088.maple/

 SHA1      : d5ffa45e93fdbca01ffc919aa182cfdae0147319
 NAME      : 2015.1.35
 ARCHNAME  : linux/x86_64
 FC        : /opt/intel/composer_xe_2015.1.133/bin/intel64/ifort
 BLASLIB   : -Wl,-_start-group /opt/intel/mkl/lib/intel64/libmkl_intel_ilp64.a /opt/intel/mkl/lib/intel64/libmkl_intel_thread.a /opt/intel/mkl/lib/intel64/libmkl_core.a -Wl,-_end-group
 id        : olemiss

 Nodes     nprocs
 cn091        1

 Using customized tuning parameters: mindgm=1; mindgv=20; mindgc=4; mindgr=1; noblas=0; minvec=7
 default implementation of scratch files=df  

 ***,hno CCSD(T)/TZ-F12 QFF
 memory, 995, m;
 gthresh,energy=1.d-12,zero=1.d-22,oneint=1.d-22,twoint=1.d-22;
 gthresh,optgrad=1.d-8,optstep=1.d-8;
 nocompress;
 geomtyp=xyz
 bohr
 geometry={
 3
        114       114
 H        0.0000000000        1.6753508014       -1.9377815352
 N        0.0000000000       -0.1656372607       -1.1386409245
 O        0.0000000000        0.0320542494        1.1258328687
 }
 
 basis=avqz
   {hf,maxit=500;accu,20;}
 {ccsd(t),nocheck,maxit=250;orbital,IGNORE_ERROR;}

 Variables initialized (889), CPU time= 0.01 sec
 Commands  initialized (702), CPU time= 0.01 sec, 572 directives.
 Default parameters read. Elapsed time= 0.06 sec

 Checking input...
 Passed
1


                                         ***  PROGRAM SYSTEM MOLPRO  ***
                                       Copyright, TTI GmbH Stuttgart, 2015
                                    Version 2015.1 linked Jul  9 2018 13:16:40


 **********************************************************************************************************************************
 LABEL *   hno CCSD(T)/TZ-F12 QFF                                                        
  64 bit serial version                                                                  DATE: 04-Mar-20          TIME: 13:44:58  
 **********************************************************************************************************************************

 SHA1:             d5ffa45e93fdbca01ffc919aa182cfdae0147319
 **********************************************************************************************************************************

 THRESHOLDS:

 ZERO    =  1.00D-22  ONEINT  =  1.00D-22  TWOINT  =  1.00D-22  PREFAC  =  1.00D-14  LOCALI  =  1.00D-09  EORDER  =  1.00D-04
 ENERGY  =  1.00D-12  ETEST   =  0.00D+00  EDENS   =  0.00D+00  THRDEDEF=  1.00D-06  GRADIENT=  1.00D-02  STEP    =  1.00D-03
 ORBITAL =  1.00D-05  CIVEC   =  1.00D-05  COEFF   =  1.00D-04  PRINTCI =  5.00D-02  PUNCHCI =  9.90D+01  OPTGRAD =  3.00D-04
 OPTENERG=  1.00D-06  OPTSTEP =  3.00D-04  THRGRAD =  1.00D-10  COMPRESS=  1.00D-11  VARMIN  =  1.00D-07  VARMAX  =  1.00D-03
 THRDOUB =  0.00D+00  THRDIV  =  1.00D-05  THRRED  =  1.00D-07  THRPSP  =  1.00D+00  THRDC   =  1.00D-10  THRCS   =  1.00D-10
 THRNRM  =  1.00D-08  THREQ   =  0.00D+00  THRDE   =  1.00D+00  THRREF  =  1.00D-05  SPARFAC =  1.00D+00  THRDLP  =  1.00D-07
 THRDIA  =  1.00D-10  THRDLS  =  1.00D-07  THRGPS  =  0.00D+00  THRKEX  =  0.00D+00  THRDIS  =  2.00D-01  THRVAR  =  1.00D-10
 THRLOC  =  1.00D-06  THRGAP  =  1.00D-06  THRLOCT = -1.00D+00  THRGAPT = -1.00D+00  THRORB  =  1.00D-06  THRMLTP =  0.00D+00
 THRCPQCI=  1.00D-10  KEXTA   =  0.00D+00  THRCOARS=  0.00D+00  SYMTOL  =  1.00D-06  GRADTOL =  1.00D-06  THROVL  =  1.00D-08
 THRORTH =  1.00D-08  GRID    =  1.00D-06  GRIDMAX =  1.00D-03  DTMAX   =  0.00D+00  THROCCDE=  1.00D-01  THROCCDE=  1.00D-01



 THRESHOLDS:

 ZERO    =  1.00D-22  ONEINT  =  1.00D-22  TWOINT  =  1.00D-22  PREFAC  =  1.00D-14  LOCALI  =  1.00D-09  EORDER  =  1.00D-04
 ENERGY  =  1.00D-12  ETEST   =  0.00D+00  EDENS   =  0.00D+00  THRDEDEF=  1.00D-06  GRADIENT=  1.00D-02  STEP    =  1.00D-03
 ORBITAL =  1.00D-05  CIVEC   =  1.00D-05  COEFF   =  1.00D-04  PRINTCI =  5.00D-02  PUNCHCI =  9.90D+01  OPTGRAD =  1.00D-08
 OPTENERG=  1.00D-06  OPTSTEP =  1.00D-08  THRGRAD =  1.00D-10  COMPRESS=  1.00D-11  VARMIN  =  1.00D-07  VARMAX  =  1.00D-03
 THRDOUB =  0.00D+00  THRDIV  =  1.00D-05  THRRED  =  1.00D-07  THRPSP  =  1.00D+00  THRDC   =  1.00D-10  THRCS   =  1.00D-10
 THRNRM  =  1.00D-08  THREQ   =  0.00D+00  THRDE   =  1.00D+00  THRREF  =  1.00D-05  SPARFAC =  1.00D+00  THRDLP  =  1.00D-07
 THRDIA  =  1.00D-10  THRDLS  =  1.00D-07  THRGPS  =  0.00D+00  THRKEX  =  0.00D+00  THRDIS  =  2.00D-01  THRVAR  =  1.00D-10
 THRLOC  =  1.00D-06  THRGAP  =  1.00D-06  THRLOCT = -1.00D+00  THRGAPT = -1.00D+00  THRORB  =  1.00D-06  THRMLTP =  0.00D+00
 THRCPQCI=  1.00D-10  KEXTA   =  0.00D+00  THRCOARS=  0.00D+00  SYMTOL  =  1.00D-06  GRADTOL =  1.00D-06  THROVL  =  1.00D-08
 THRORTH =  1.00D-08  GRID    =  1.00D-06  GRIDMAX =  1.00D-03  DTMAX   =  0.00D+00  THROCCDE=  1.00D-01  THROCCDE=  1.00D-01



 Input parameters for SORTINT:

 COMPRESS =    0.000000
 C_FINAL  =    1.000000
 DEBUG    =   -1.000000
 C_SORT1  =    0.000000
 C_SEWARD =    0.000000
 THRESH   =    0.000000
 IO       =  molpro                                                          
 SPRI     =    0.000000
 SETTING GEOMTYP        =    XYZ
 ZUNIT=BOHR
 

 Variable memory set to  995000000 words,  buffer space   230000 words

 SETTING BASIS          =    AVQZ


 Recomputing integrals since basis changed


 Using spherical harmonics

 Library entry H      S aug-cc-pVQZ          selected for orbital group  1
 Library entry H      P aug-cc-pVQZ          selected for orbital group  1
 Library entry H      D aug-cc-pVQZ          selected for orbital group  1
 Library entry H      F aug-cc-pVQZ          selected for orbital group  1
 Library entry N      S aug-cc-pVQZ          selected for orbital group  2
 Library entry N      P aug-cc-pVQZ          selected for orbital group  2
 Library entry N      D aug-cc-pVQZ          selected for orbital group  2
 Library entry N      F aug-cc-pVQZ          selected for orbital group  2
 Library entry N      G aug-cc-pVQZ          selected for orbital group  2
 Library entry O      S aug-cc-pVQZ          selected for orbital group  3
 Library entry O      P aug-cc-pVQZ          selected for orbital group  3
 Library entry O      D aug-cc-pVQZ          selected for orbital group  3
 Library entry O      F aug-cc-pVQZ          selected for orbital group  3
 Library entry O      G aug-cc-pVQZ          selected for orbital group  3


 PROGRAM * SEWARD (Integral evaluation for generally contracted gaussian basis sets)     Author: Roland Lindh, 1990

 Geometry written to block  1 of record 700


 Point group  Cs  



 ATOMIC COORDINATES

 NR  ATOM    CHARGE       X              Y              Z

   1  H       1.00    0.000000000    1.675350801   -1.937781535
   2  N       7.00    0.000000000   -0.165637261   -1.138640924
   3  O       8.00    0.000000000    0.032054249    1.125832869

 Bond lengths in Bohr (Angstrom)

 1-2  2.006953602  2-3  2.273086776
     ( 1.062034110)     ( 1.202865721)

 Bond angles

  1-2-3  108.47547239

 NUCLEAR CHARGE:                   16
 NUMBER OF PRIMITIVE AOS:         293
 NUMBER OF SYMMETRY AOS:          234
 NUMBER OF CONTRACTIONS:          206   ( 130A'  +  76A"  )
 NUMBER OF CORE ORBITALS:           2   (   2A'  +   0A"  )
 NUMBER OF VALENCE ORBITALS:        9   (   7A'  +   2A"  )


 NUCLEAR REPULSION ENERGY   30.42513139

 Eigenvalues of metric

         1 0.599E-04 0.146E-03 0.317E-03 0.435E-03 0.580E-03 0.691E-03 0.102E-02 0.108E-02
         2 0.813E-03 0.168E-02 0.492E-02 0.893E-02 0.103E-01 0.122E-01 0.125E-01 0.191E-01


 Contracted 2-electron integrals neglected if value below      1.0D-22

      109945095. INTEGRALS WRITTEN OUT IN   26849 BLOCKS ON RECORD 1290 OF FILE 1


 NUMBER OF SORTED TWO-ELECTRON INTEGRALS:  115283741.     BUFFER LENGTH:  32768
 NUMBER OF SEGMENTS:   8  SEGMENT LENGTH:   15998004      RECORD LENGTH: 524288

 Memory used in sort:      16.56 MW

 SORT1 READ   109945095. AND WROTE   110865262. INTEGRALS IN    322 RECORDS. CPU TIME:     2.27 SEC, REAL TIME:     3.08 SEC
 SORT2 READ   110865262. AND WROTE   115283741. INTEGRALS IN      8 RECORDS. CPU TIME:     1.67 SEC, REAL TIME:     2.32 SEC

 FILE SIZES:   FILE 1:  1780.6 MBYTE,  FILE 4:  1350.6 MBYTE,   TOTAL:   3131.2 MBYTE

 OPERATOR DM      FOR CENTER  0  COORDINATES:    0.000000    0.000000    0.000000


 **********************************************************************************************************************************
 DATASETS  * FILE   NREC   LENGTH (MB)   RECORD NAMES
              1      19      944.14       500      610      700      900      950      970     1000      129      960     1100   
                                          VAR    BASINP    GEOM    SYMINP    ZMAT    AOBASIS   BASIS     P2S    ABASIS      S 
                                         1400     1410     1200     1210     1080     1600     1650     1300     1700   
                                           T        V       H0       H01     AOSYM     SMH    MOLCAS    ERIS     OPER   

 PROGRAMS   *        TOTAL       INT
 CPU TIMES  *        14.50     14.39
 REAL TIME  *        17.82 SEC
 DISK USED  *         3.13 GB      
 **********************************************************************************************************************************


 PROGRAM * RHF-SCF (CLOSED SHELL)       Authors: W. Meyer, H.-J. Werner


 NUMBER OF ELECTRONS:       8+    8-
 CONVERGENCE THRESHOLDS:    1.00E-10 (Density)    1.00E-13 (Energy)
 MAX. NUMBER OF ITERATIONS:      500
 INTERPOLATION TYPE:            DIIS
 INTERPOLATION STEPS:              2 (START)      1 (STEP)
 LEVEL SHIFTS:                  0.00 (CLOSED)  0.00 (OPEN) 



 Orbital guess generated from atomic densities. Full valence occupancy:    9   2

 Molecular orbital dump at record        2100.2

 Initial occupancy:   7   1

 ITERATION    DDIFF          GRAD             ENERGY        2-EL.EN.            DIPOLE MOMENTS         DIIS   ORB.
    1      0.000D+00      0.000D+00      -129.79725615    154.051809    0.00000    0.58801   -1.01142    0    start
    2      0.000D+00      0.810D-02      -129.82467116    155.308303    0.00000    0.60590   -0.20702    1    diag
    3      0.650D-02      0.614D-02      -129.84715015    155.416312    0.00000    0.55165   -0.58591    2    diag
    4      0.331D-02      0.966D-03      -129.84794553    155.133398    0.00000    0.55897   -0.52537    3    diag
    5      0.602D-03      0.315D-03      -129.84807176    155.227455    0.00000    0.56445   -0.52813    4    diag
    6      0.252D-03      0.915D-04      -129.84809198    155.211223    0.00000    0.56477   -0.52402    5    diag
    7      0.966D-04      0.453D-04      -129.84809778    155.214085    0.00000    0.56606   -0.52149    6    diag
    8      0.662D-04      0.156D-04      -129.84809840    155.213402    0.00000    0.56611   -0.52050    7    diag
    9      0.249D-04      0.299D-05      -129.84809843    155.213286    0.00000    0.56607   -0.52028    8    diag
   10      0.493D-05      0.690D-06      -129.84809843    155.213267    0.00000    0.56603   -0.52025    9    orth
   11      0.998D-06      0.139D-06      -129.84809843    155.213263    0.00000    0.56603   -0.52025    9    diag
   12      0.187D-06      0.281D-07      -129.84809843    155.213263    0.00000    0.56602   -0.52025    9    diag
   13      0.405D-07      0.725D-08      -129.84809843    155.213263    0.00000    0.56602   -0.52025    9    diag
   14      0.109D-07      0.145D-08      -129.84809843    155.213263    0.00000    0.56602   -0.52025    9    diag
   15      0.204D-08      0.420D-09      -129.84809843    155.213263    0.00000    0.56602   -0.52025    9    diag
   16      0.606D-09      0.128D-09      -129.84809843    155.213263    0.00000    0.56602   -0.52025    9    diag
   17      0.118D-09      0.352D-10      -129.84809843    155.213263    0.00000    0.56602   -0.52025    9    diag
   18      0.333D-10      0.121D-10      -129.84809843    155.213263    0.00000    0.56602   -0.52025    9    diag
   19      0.166D-10      0.297D-11      -129.84809843    155.213263    0.00000    0.56602   -0.52025    9    fixocc
   20      0.522D-11      0.515D-12      -129.84809843    155.213263    0.00000    0.56602   -0.52025    0    orth

 Final occupancy:   7   1

 !RHF STATE 1.1 Energy               -129.848098434505
 Nuclear energy                        30.42513139
 One-electron energy                 -237.87986120
 Two-electron energy                   77.60663138
 Virial quotient                       -1.00171788
 !RHF STATE 1.1 Dipole moment           0.00000000     0.56602443    -0.52024666
 Dipole moment /Debye                   0.00000000     1.43859637    -1.32224851

 Orbital energies:

         1.1          2.1          3.1          4.1          5.1          6.1          7.1          8.1          9.1
    -20.653483   -15.713081    -1.533557    -0.991031    -0.747673    -0.667650    -0.428181     0.026398     0.079479

         1.2          2.2          3.2
     -0.598641     0.064546     0.110882

 HOMO      7.1    -0.428181 =     -11.6514eV
 LUMO      8.1     0.026398 =       0.7183eV
 LUMO-HOMO         0.454579 =      12.3697eV


 **********************************************************************************************************************************
 DATASETS  * FILE   NREC   LENGTH (MB)   RECORD NAMES
              1      19      944.14       500      610      700      900      950      970     1000      129      960     1100   
                                          VAR    BASINP    GEOM    SYMINP    ZMAT    AOBASIS   BASIS     P2S    ABASIS      S 
                                         1400     1410     1200     1210     1080     1600     1650     1300     1700   
                                           T        V       H0       H01     AOSYM     SMH    MOLCAS    ERIS     OPER   

              2       4        3.27       700     1000      520     2100   
                                         GEOM     BASIS   MCVARS     RHF  

 PROGRAMS   *        TOTAL        HF       INT
 CPU TIMES  *        27.35     12.85     14.39
 REAL TIME  *        33.83 SEC
 DISK USED  *         3.13 GB      
 **********************************************************************************************************************************


 PROGRAM * CCSD (Closed-shell coupled cluster)     Authors: C. Hampel, H.-J. Werner, 1991, M. Deegan, P.J. Knowles, 1992


 Convergence thresholds:  THRVAR = 1.00D-08  THRDEN = 1.00D-12

 CCSD(T)     terms to be evaluated (factor= 1.000)


 Number of core orbitals:           2 (   2   0 )
 Number of closed-shell orbitals:   6 (   5   1 )
 Number of external orbitals:     198 ( 123  75 )

 Molecular orbitals read from record     2100.2  Type=RHF/CANONICAL (state 1.1)

 Number of N-1 electron functions:               6
 Number of N-2 electron functions:              21
 Number of singly external CSFs:               690
 Number of doubly external CSFs:            362646
 Total number of CSFs:                      363337

 Length of J-op  integral file:               0.00 MB
 Length of K-op  integral file:               1.60 MB
 Length of 3-ext integral record:             0.00 MB

 Memory could be reduced to 34.67 Mwords without degradation in triples

 Integral transformation finished. Total CPU:   1.96 sec, npass=  1  Memory used:   9.53 MW

 Reference energy:                   -129.84809843

 MP2 singlet pair energy:              -0.30132467
 MP2 triplet pair energy:              -0.17022840
 MP2 correlation energy:               -0.47155307
 MP2 total energy:                   -130.31965151

 SCS-MP2 correlation energy:           -0.46750950   (PS=  1.200000  PT=  0.333333)
 SCS-MP2 total energy:               -130.31560794

 ITER.      SQ.NORM     CORR.ENERGY   TOTAL ENERGY   ENERGY CHANGE        DEN1      VAR(S)    VAR(P)  DIIS     TIME  TIME/IT
   1      1.12083724    -0.47175872  -130.31985715    -0.00020565     0.01608754  0.31D-02  0.31D-02  1  1     3.59     1.81
   2      1.13148278    -0.47175083  -130.31984926     0.00000789    -0.01243177  0.10D-03  0.49D-03  2  2     5.26     1.84
   3      1.13775419    -0.47212829  -130.32022673    -0.00037747    -0.00303780  0.49D-04  0.53D-04  3  3     6.99     1.88
   4      1.14047386    -0.47213333  -130.32023177    -0.00000504    -0.00092920  0.44D-05  0.95D-05  4  4     8.83     1.92
   5      1.14155520    -0.47216254  -130.32026098    -0.00002921    -0.00023624  0.12D-05  0.16D-05  5  5    10.63     1.94
   6      1.14190654    -0.47214821  -130.32024664     0.00001434    -0.00005015  0.12D-06  0.39D-06  6  6    12.38     1.95
   7      1.14198160    -0.47214840  -130.32024683    -0.00000019     0.00000206  0.19D-07  0.88D-07  6  1    14.12     1.95
   8      1.14200490    -0.47214876  -130.32024719    -0.00000036    -0.00000123  0.36D-08  0.17D-07  6  2    15.82     1.94
   9      1.14201361    -0.47214821  -130.32024664     0.00000055    -0.00000038  0.22D-08  0.17D-08  6  3    17.58     1.95
  10      1.14200901    -0.47214896  -130.32024740    -0.00000076     0.00000152  0.31D-09  0.27D-09  6  5    19.38     1.96
  11      1.14201072    -0.47214892  -130.32024736     0.00000004    -0.00000031  0.93D-10  0.24D-10  6  4    21.16     1.96
  12      1.14201031    -0.47214899  -130.32024742    -0.00000007     0.00000002  0.17D-10  0.60D-11  6  6    22.87     1.95
  13      1.14201013    -0.47214899  -130.32024742    -0.00000000    -0.00000004  0.33D-11  0.84D-12  6  1    24.54     1.95
  14      1.14200985    -0.47214900  -130.32024743    -0.00000001     0.00000004  0.44D-12  0.16D-12  6  3    26.27     1.94
  15      1.14200978    -0.47214900  -130.32024744    -0.00000000     0.00000001  0.12D-12  0.22D-13  6  2    27.99     1.94
  16      1.14200976    -0.47214900  -130.32024744     0.00000000     0.00000000  0.29D-13  0.97D-14  6  4    29.77     1.95
  17      1.14200977    -0.47214900  -130.32024744    -0.00000000    -0.00000000  0.14D-14  0.10D-14  6  5    31.53     1.95
  18      1.14200977    -0.47214900  -130.32024744     0.00000000    -0.00000000  0.23D-15  0.24D-15  6  6    33.30     1.95
  19      1.14200978    -0.47214900  -130.32024744     0.00000000    -0.00000000  0.30D-16  0.27D-16  6  5    35.07     1.95
  20      1.14200978    -0.47214900  -130.32024744     0.00000000    -0.00000000  0.58D-17  0.37D-17  6  1    36.81     1.95
  21      1.14200978    -0.47214900  -130.32024744    -0.00000000     0.00000000  0.74D-18  0.54D-18  6  3    38.61     1.96
  22      1.14200978    -0.47214900  -130.32024744    -0.00000000     0.00000000  0.10D-18  0.57D-19  6  2    40.40     1.96
  23      1.14200978    -0.47214900  -130.32024744    -0.00000000     0.00000000  0.21D-19  0.11D-19  6  4    42.17     1.96
  24      1.14200978    -0.47214900  -130.32024744    -0.00000000     0.00000000  0.76D-20  0.17D-20  6  6    43.88     1.96
  25      1.14200978    -0.47214900  -130.32024744     0.00000000    -0.00000000  0.26D-20  0.63D-21  6  5    45.58     1.96

 Norm of t1 vector:      0.07645508      S-energy:    -0.00000000      T1 diagnostic:  0.01560633
                                                                       D1 diagnostic:  0.04154353

 Doubles amplitudes (print threshold =  0.500E-01):

         I         J         SYM. A    SYM. B    A         B      T(IJ, AB)

         6         6         2         2         1         1     -0.09580783


 Total CPU time for triples:     20.67 sec


 RESULTS
 =======

  Reference energy                   -129.848098434506
  CCSD singlet pair energy             -0.326315598561
  CCSD triplet pair energy             -0.145833404755
  CCSD correlation energy              -0.472149003317

  Triples (T) contribution             -0.022273850020
  Total correlation energy             -0.494422853337

  CCSD total energy                  -130.320247437823
  CCSD[T] energy                     -130.343584787144
  CCSD-T energy                      -130.342136992192
 !CCSD(T) total energy               -130.342521287843

 Timing summary (sec):

 STEP                 CPU(USER)    SYS     CPU(TOT)    WALL
 Transformation          1.98      0.29      2.27      2.47
 CCSD iterations        43.60      5.31     48.91     48.95
 Triples                20.67      0.51     21.18     21.19

 Program statistics:

 Available memory in ccsd:               994999756
 Min. memory needed in ccsd:               1265322
 Max. memory used in ccsd:                 1555950
 Max. memory used in cckext:               2415326 (25 integral passes)



 **********************************************************************************************************************************
 DATASETS  * FILE   NREC   LENGTH (MB)   RECORD NAMES
              1      20     1044.69       500      610      700      900      950      970     1000      129      960     1100   
                                          VAR    BASINP    GEOM    SYMINP    ZMAT    AOBASIS   BASIS     P2S    ABASIS      S 
                                         1400     1410     1200     1210     1080     1600     1650     1300     1700     1380   
                                           T        V       H0       H01     AOSYM     SMH    MOLCAS    ERIS     OPER     JKOP   

              2       4        3.27       700     1000      520     2100   
                                         GEOM     BASIS   MCVARS     RHF  

 PROGRAMS   *        TOTAL   CCSD(T)        HF       INT
 CPU TIMES  *        93.64     66.28     12.85     14.39
 REAL TIME  *       106.68 SEC
 DISK USED  *         3.13 GB      
 **********************************************************************************************************************************

 CCSD(T)/aug-cc-pVQZ energy=   -130.342521287843

        CCSD(T)         HF-SCF  
   -130.34252129   -129.84809843
 **********************************************************************************************************************************
 Molpro calculation terminated
 Variable memory released
