
 Primary working directories    : /tmp/r2666/281995.maple
 Secondary working directories  : /tmp/r2666/281995.maple
 Wavefunction directory         : /ddn/home4/r2666/wfu/
 Main file repository           : /tmp/r2666/281995.maple/

 SHA1      : d5ffa45e93fdbca01ffc919aa182cfdae0147319
 NAME      : 2015.1.35
 ARCHNAME  : linux/x86_64
 FC        : /opt/intel/composer_xe_2015.1.133/bin/intel64/ifort
 BLASLIB   : -Wl,-_start-group /opt/intel/mkl/lib/intel64/libmkl_intel_ilp64.a /opt/intel/mkl/lib/intel64/libmkl_intel_thread.a /opt/intel/mkl/lib/intel64/libmkl_core.a -Wl,-_end-group
 id        : olemiss

 Nodes     nprocs
 cn086        1

 Using customized tuning parameters: mindgm=1; mindgv=20; mindgc=4; mindgr=1; noblas=0; minvec=7
 default implementation of scratch files=df  

 ***,hno CCSD(T)/TZ-F12 QFF
 memory, 995, m;
 gthresh,energy=1.d-12,zero=1.d-22,oneint=1.d-22,twoint=1.d-22;
 gthresh,optgrad=1.d-8,optstep=1.d-8;
 nocompress;
 geomtyp=xyz
 bohr
 geometry={
 3
         21        21
 H        0.0000000000        1.6598764139       -1.9190992889
 N        0.0000000000       -0.1582280031       -1.1384682572
 O        0.0000000000        0.0401193792        1.1069779552
 }
 
 basis=avqz
   {hf,maxit=500;accu,20;}
 {ccsd(t),nocheck,maxit=250;orbital,IGNORE_ERROR;}

 Variables initialized (889), CPU time= 0.01 sec
 Commands  initialized (702), CPU time= 0.01 sec, 572 directives.
 Default parameters read. Elapsed time= 0.05 sec

 Checking input...
 Passed
1


                                         ***  PROGRAM SYSTEM MOLPRO  ***
                                       Copyright, TTI GmbH Stuttgart, 2015
                                    Version 2015.1 linked Jul  9 2018 13:16:40


 **********************************************************************************************************************************
 LABEL *   hno CCSD(T)/TZ-F12 QFF                                                        
  64 bit serial version                                                                  DATE: 04-Mar-20          TIME: 13:39:41  
 **********************************************************************************************************************************

 SHA1:             d5ffa45e93fdbca01ffc919aa182cfdae0147319
 **********************************************************************************************************************************

 THRESHOLDS:

 ZERO    =  1.00D-22  ONEINT  =  1.00D-22  TWOINT  =  1.00D-22  PREFAC  =  1.00D-14  LOCALI  =  1.00D-09  EORDER  =  1.00D-04
 ENERGY  =  1.00D-12  ETEST   =  0.00D+00  EDENS   =  0.00D+00  THRDEDEF=  1.00D-06  GRADIENT=  1.00D-02  STEP    =  1.00D-03
 ORBITAL =  1.00D-05  CIVEC   =  1.00D-05  COEFF   =  1.00D-04  PRINTCI =  5.00D-02  PUNCHCI =  9.90D+01  OPTGRAD =  3.00D-04
 OPTENERG=  1.00D-06  OPTSTEP =  3.00D-04  THRGRAD =  1.00D-10  COMPRESS=  1.00D-11  VARMIN  =  1.00D-07  VARMAX  =  1.00D-03
 THRDOUB =  0.00D+00  THRDIV  =  1.00D-05  THRRED  =  1.00D-07  THRPSP  =  1.00D+00  THRDC   =  1.00D-10  THRCS   =  1.00D-10
 THRNRM  =  1.00D-08  THREQ   =  0.00D+00  THRDE   =  1.00D+00  THRREF  =  1.00D-05  SPARFAC =  1.00D+00  THRDLP  =  1.00D-07
 THRDIA  =  1.00D-10  THRDLS  =  1.00D-07  THRGPS  =  0.00D+00  THRKEX  =  0.00D+00  THRDIS  =  2.00D-01  THRVAR  =  1.00D-10
 THRLOC  =  1.00D-06  THRGAP  =  1.00D-06  THRLOCT = -1.00D+00  THRGAPT = -1.00D+00  THRORB  =  1.00D-06  THRMLTP =  0.00D+00
 THRCPQCI=  1.00D-10  KEXTA   =  0.00D+00  THRCOARS=  0.00D+00  SYMTOL  =  1.00D-06  GRADTOL =  1.00D-06  THROVL  =  1.00D-08
 THRORTH =  1.00D-08  GRID    =  1.00D-06  GRIDMAX =  1.00D-03  DTMAX   =  0.00D+00  THROCCDE=  1.00D-01  THROCCDE=  1.00D-01



 THRESHOLDS:

 ZERO    =  1.00D-22  ONEINT  =  1.00D-22  TWOINT  =  1.00D-22  PREFAC  =  1.00D-14  LOCALI  =  1.00D-09  EORDER  =  1.00D-04
 ENERGY  =  1.00D-12  ETEST   =  0.00D+00  EDENS   =  0.00D+00  THRDEDEF=  1.00D-06  GRADIENT=  1.00D-02  STEP    =  1.00D-03
 ORBITAL =  1.00D-05  CIVEC   =  1.00D-05  COEFF   =  1.00D-04  PRINTCI =  5.00D-02  PUNCHCI =  9.90D+01  OPTGRAD =  1.00D-08
 OPTENERG=  1.00D-06  OPTSTEP =  1.00D-08  THRGRAD =  1.00D-10  COMPRESS=  1.00D-11  VARMIN  =  1.00D-07  VARMAX  =  1.00D-03
 THRDOUB =  0.00D+00  THRDIV  =  1.00D-05  THRRED  =  1.00D-07  THRPSP  =  1.00D+00  THRDC   =  1.00D-10  THRCS   =  1.00D-10
 THRNRM  =  1.00D-08  THREQ   =  0.00D+00  THRDE   =  1.00D+00  THRREF  =  1.00D-05  SPARFAC =  1.00D+00  THRDLP  =  1.00D-07
 THRDIA  =  1.00D-10  THRDLS  =  1.00D-07  THRGPS  =  0.00D+00  THRKEX  =  0.00D+00  THRDIS  =  2.00D-01  THRVAR  =  1.00D-10
 THRLOC  =  1.00D-06  THRGAP  =  1.00D-06  THRLOCT = -1.00D+00  THRGAPT = -1.00D+00  THRORB  =  1.00D-06  THRMLTP =  0.00D+00
 THRCPQCI=  1.00D-10  KEXTA   =  0.00D+00  THRCOARS=  0.00D+00  SYMTOL  =  1.00D-06  GRADTOL =  1.00D-06  THROVL  =  1.00D-08
 THRORTH =  1.00D-08  GRID    =  1.00D-06  GRIDMAX =  1.00D-03  DTMAX   =  0.00D+00  THROCCDE=  1.00D-01  THROCCDE=  1.00D-01



 Input parameters for SORTINT:

 COMPRESS =    0.000000
 C_FINAL  =    1.000000
 DEBUG    =   -1.000000
 C_SORT1  =    0.000000
 C_SEWARD =    0.000000
 THRESH   =    0.000000
 IO       =  molpro                                                          
 SPRI     =    0.000000
 SETTING GEOMTYP        =    XYZ
 ZUNIT=BOHR
 

 Variable memory set to  995000000 words,  buffer space   230000 words

 SETTING BASIS          =    AVQZ


 Recomputing integrals since basis changed


 Using spherical harmonics

 Library entry H      S aug-cc-pVQZ          selected for orbital group  1
 Library entry H      P aug-cc-pVQZ          selected for orbital group  1
 Library entry H      D aug-cc-pVQZ          selected for orbital group  1
 Library entry H      F aug-cc-pVQZ          selected for orbital group  1
 Library entry N      S aug-cc-pVQZ          selected for orbital group  2
 Library entry N      P aug-cc-pVQZ          selected for orbital group  2
 Library entry N      D aug-cc-pVQZ          selected for orbital group  2
 Library entry N      F aug-cc-pVQZ          selected for orbital group  2
 Library entry N      G aug-cc-pVQZ          selected for orbital group  2
 Library entry O      S aug-cc-pVQZ          selected for orbital group  3
 Library entry O      P aug-cc-pVQZ          selected for orbital group  3
 Library entry O      D aug-cc-pVQZ          selected for orbital group  3
 Library entry O      F aug-cc-pVQZ          selected for orbital group  3
 Library entry O      G aug-cc-pVQZ          selected for orbital group  3


 PROGRAM * SEWARD (Integral evaluation for generally contracted gaussian basis sets)     Author: Roland Lindh, 1990

 Geometry written to block  1 of record 700


 Point group  Cs  



 ATOMIC COORDINATES

 NR  ATOM    CHARGE       X              Y              Z

   1  H       1.00    0.000000000    1.659876414   -1.919099289
   2  N       7.00    0.000000000   -0.158228003   -1.138468257
   3  O       8.00    0.000000000    0.040119379    1.106977955

 Bond lengths in Bohr (Angstrom)

 1-2  1.978607712  2-3  2.254189517
     ( 1.047034111)     ( 1.192865721)

 Bond angles

  1-2-3  108.18899349

 NUCLEAR CHARGE:                   16
 NUMBER OF PRIMITIVE AOS:         293
 NUMBER OF SYMMETRY AOS:          234
 NUMBER OF CONTRACTIONS:          206   ( 130A'  +  76A"  )
 NUMBER OF CORE ORBITALS:           2   (   2A'  +   0A"  )
 NUMBER OF VALENCE ORBITALS:        9   (   7A'  +   2A"  )


 NUCLEAR REPULSION ENERGY   30.71126435

 Eigenvalues of metric

         1 0.577E-04 0.141E-03 0.312E-03 0.432E-03 0.562E-03 0.667E-03 0.979E-03 0.106E-02
         2 0.783E-03 0.159E-02 0.475E-02 0.885E-02 0.100E-01 0.118E-01 0.122E-01 0.180E-01


 Contracted 2-electron integrals neglected if value below      1.0D-22

      109945087. INTEGRALS WRITTEN OUT IN   26849 BLOCKS ON RECORD 1290 OF FILE 1


 NUMBER OF SORTED TWO-ELECTRON INTEGRALS:  115283741.     BUFFER LENGTH:  32768
 NUMBER OF SEGMENTS:   8  SEGMENT LENGTH:   15998004      RECORD LENGTH: 524288

 Memory used in sort:      16.56 MW

 SORT1 READ   109945087. AND WROTE   110865254. INTEGRALS IN    322 RECORDS. CPU TIME:     1.75 SEC, REAL TIME:     2.49 SEC
 SORT2 READ   110865254. AND WROTE   115283741. INTEGRALS IN      8 RECORDS. CPU TIME:     1.24 SEC, REAL TIME:     1.74 SEC

 FILE SIZES:   FILE 1:  1780.6 MBYTE,  FILE 4:  1350.6 MBYTE,   TOTAL:   3131.2 MBYTE

 OPERATOR DM      FOR CENTER  0  COORDINATES:    0.000000    0.000000    0.000000


 **********************************************************************************************************************************
 DATASETS  * FILE   NREC   LENGTH (MB)   RECORD NAMES
              1      19      944.14       500      610      700      900      950      970     1000      129      960     1100   
                                          VAR    BASINP    GEOM    SYMINP    ZMAT    AOBASIS   BASIS     P2S    ABASIS      S 
                                         1400     1410     1200     1210     1080     1600     1650     1300     1700   
                                           T        V       H0       H01     AOSYM     SMH    MOLCAS    ERIS     OPER   

 PROGRAMS   *        TOTAL       INT
 CPU TIMES  *        10.32     10.22
 REAL TIME  *        13.03 SEC
 DISK USED  *         3.13 GB      
 **********************************************************************************************************************************


 PROGRAM * RHF-SCF (CLOSED SHELL)       Authors: W. Meyer, H.-J. Werner


 NUMBER OF ELECTRONS:       8+    8-
 CONVERGENCE THRESHOLDS:    1.00E-10 (Density)    1.00E-13 (Energy)
 MAX. NUMBER OF ITERATIONS:      500
 INTERPOLATION TYPE:            DIIS
 INTERPOLATION STEPS:              2 (START)      1 (STEP)
 LEVEL SHIFTS:                  0.00 (CLOSED)  0.00 (OPEN) 



 Orbital guess generated from atomic densities. Full valence occupancy:    9   2

 Molecular orbital dump at record        2100.2

 Initial occupancy:   7   1

 ITERATION    DDIFF          GRAD             ENERGY        2-EL.EN.            DIPOLE MOMENTS         DIIS   ORB.
    1      0.000D+00      0.000D+00      -129.80097318    154.579192    0.00000    0.59079   -0.97743    0    start
    2      0.000D+00      0.796D-02      -129.82862833    155.832675    0.00000    0.60132   -0.21562    1    diag
    3      0.632D-02      0.586D-02      -129.84894575    155.923691    0.00000    0.55120   -0.57141    2    diag
    4      0.318D-02      0.952D-03      -129.84971391    155.651158    0.00000    0.55899   -0.51271    3    diag
    5      0.593D-03      0.308D-03      -129.84983327    155.742952    0.00000    0.56423   -0.51555    4    diag
    6      0.245D-03      0.888D-04      -129.84985215    155.727061    0.00000    0.56460   -0.51166    5    diag
    7      0.931D-04      0.436D-04      -129.84985745    155.729936    0.00000    0.56585   -0.50927    6    diag
    8      0.635D-04      0.146D-04      -129.84985798    155.729297    0.00000    0.56590   -0.50836    7    diag
    9      0.228D-04      0.273D-05      -129.84985800    155.729194    0.00000    0.56587   -0.50816    8    diag
   10      0.439D-05      0.642D-06      -129.84985800    155.729177    0.00000    0.56584   -0.50813    9    orth
   11      0.924D-06      0.131D-06      -129.84985800    155.729173    0.00000    0.56583   -0.50813    9    diag
   12      0.178D-06      0.263D-07      -129.84985800    155.729173    0.00000    0.56583   -0.50813    9    diag
   13      0.385D-07      0.663D-08      -129.84985800    155.729173    0.00000    0.56583   -0.50813    9    diag
   14      0.100D-07      0.134D-08      -129.84985800    155.729173    0.00000    0.56583   -0.50813    9    diag
   15      0.190D-08      0.394D-09      -129.84985800    155.729173    0.00000    0.56583   -0.50813    9    diag
   16      0.563D-09      0.124D-09      -129.84985800    155.729173    0.00000    0.56583   -0.50813    9    diag
   17      0.114D-09      0.339D-10      -129.84985800    155.729173    0.00000    0.56583   -0.50813    9    diag
   18      0.353D-10      0.113D-10      -129.84985800    155.729173    0.00000    0.56583   -0.50813    9    diag
   19      0.170D-10      0.281D-11      -129.84985800    155.729173    0.00000    0.56583   -0.50813    9    fixocc
   20      0.561D-11      0.461D-12      -129.84985800    155.729173    0.00000    0.56583   -0.50813    9    orth
   21      0.281D-11      0.185D-12      -129.84985800    155.729173    0.00000    0.56583   -0.50813    0    orth

 Final occupancy:   7   1

 !RHF STATE 1.1 Energy               -129.849858003459
 Nuclear energy                        30.71126435
 One-electron energy                 -238.42570891
 Two-electron energy                   77.86458656
 Virial quotient                       -1.00121718
 !RHF STATE 1.1 Dipole moment           0.00000000     0.56582623    -0.50812805
 Dipole moment /Debye                   0.00000000     1.43809263    -1.29144809

 Orbital energies:

         1.1          2.1          3.1          4.1          5.1          6.1          7.1          8.1          9.1
    -20.652114   -15.709365    -1.542196    -0.992278    -0.752426    -0.670467    -0.426123     0.026556     0.079520

         1.2          2.2          3.2
     -0.603298     0.067025     0.111135

 HOMO      7.1    -0.426123 =     -11.5954eV
 LUMO      8.1     0.026556 =       0.7226eV
 LUMO-HOMO         0.452680 =      12.3180eV


 **********************************************************************************************************************************
 DATASETS  * FILE   NREC   LENGTH (MB)   RECORD NAMES
              1      19      944.14       500      610      700      900      950      970     1000      129      960     1100   
                                          VAR    BASINP    GEOM    SYMINP    ZMAT    AOBASIS   BASIS     P2S    ABASIS      S 
                                         1400     1410     1200     1210     1080     1600     1650     1300     1700   
                                           T        V       H0       H01     AOSYM     SMH    MOLCAS    ERIS     OPER   

              2       4        3.27       700     1000      520     2100   
                                         GEOM     BASIS   MCVARS     RHF  

 PROGRAMS   *        TOTAL        HF       INT
 CPU TIMES  *        20.29      9.97     10.22
 REAL TIME  *        25.50 SEC
 DISK USED  *         3.13 GB      
 **********************************************************************************************************************************


 PROGRAM * CCSD (Closed-shell coupled cluster)     Authors: C. Hampel, H.-J. Werner, 1991, M. Deegan, P.J. Knowles, 1992


 Convergence thresholds:  THRVAR = 1.00D-08  THRDEN = 1.00D-12

 CCSD(T)     terms to be evaluated (factor= 1.000)


 Number of core orbitals:           2 (   2   0 )
 Number of closed-shell orbitals:   6 (   5   1 )
 Number of external orbitals:     198 ( 123  75 )

 Molecular orbitals read from record     2100.2  Type=RHF/CANONICAL (state 1.1)

 Number of N-1 electron functions:               6
 Number of N-2 electron functions:              21
 Number of singly external CSFs:               690
 Number of doubly external CSFs:            362646
 Total number of CSFs:                      363337

 Length of J-op  integral file:               0.00 MB
 Length of K-op  integral file:               1.60 MB
 Length of 3-ext integral record:             0.00 MB

 Memory could be reduced to 34.67 Mwords without degradation in triples

 Integral transformation finished. Total CPU:   1.30 sec, npass=  1  Memory used:   9.53 MW

 Reference energy:                   -129.84985800

 MP2 singlet pair energy:              -0.29997671
 MP2 triplet pair energy:              -0.16935066
 MP2 correlation energy:               -0.46932737
 MP2 total energy:                   -130.31918538

 SCS-MP2 correlation energy:           -0.46534580   (PS=  1.200000  PT=  0.333333)
 SCS-MP2 total energy:               -130.31520380

 ITER.      SQ.NORM     CORR.ENERGY   TOTAL ENERGY   ENERGY CHANGE        DEN1      VAR(S)    VAR(P)  DIIS     TIME  TIME/IT
   1      1.11925597    -0.46996093  -130.31981894    -0.00063356     0.01510313  0.30D-02  0.30D-02  1  1     2.47     1.27
   2      1.12956010    -0.47004322  -130.31990123    -0.00008229    -0.01209786  0.95D-04  0.47D-03  2  2     3.62     1.29
   3      1.13554836    -0.47039577  -130.32025377    -0.00035255    -0.00294463  0.44D-04  0.50D-04  3  3     4.79     1.30
   4      1.13812585    -0.47040276  -130.32026076    -0.00000699    -0.00088782  0.38D-05  0.89D-05  4  4     5.94     1.30
   5      1.13911912    -0.47042928  -130.32028728    -0.00002652    -0.00021773  0.10D-05  0.16D-05  5  5     7.09     1.31
   6      1.13944726    -0.47041622  -130.32027422     0.00001306    -0.00004677  0.99D-07  0.39D-06  6  6     8.24     1.31
   7      1.13951894    -0.47041659  -130.32027460    -0.00000038     0.00000189  0.17D-07  0.85D-07  6  1     9.43     1.31
   8      1.13954076    -0.47041707  -130.32027507    -0.00000048    -0.00000095  0.36D-08  0.16D-07  6  2    10.59     1.31
   9      1.13954561    -0.47041673  -130.32027474     0.00000034     0.00000081  0.23D-08  0.17D-08  6  4    11.71     1.32
  10      1.13954781    -0.47041709  -130.32027509    -0.00000036    -0.00000067  0.41D-09  0.20D-09  6  3    12.85     1.32
  11      1.13954747    -0.47041715  -130.32027516    -0.00000006    -0.00000008  0.13D-09  0.29D-10  6  5    14.01     1.32
  12      1.13954657    -0.47041728  -130.32027528    -0.00000012     0.00000033  0.16D-10  0.90D-11  6  6    15.18     1.32
  13      1.13954582    -0.47041731  -130.32027532    -0.00000004     0.00000020  0.50D-11  0.20D-11  6  1    16.32     1.32
  14      1.13954523    -0.47041734  -130.32027534    -0.00000003     0.00000013  0.37D-12  0.38D-12  6  4    17.50     1.32
  15      1.13954505    -0.47041735  -130.32027535    -0.00000001     0.00000003  0.77D-13  0.29D-13  6  2    18.65     1.32
  16      1.13954501    -0.47041735  -130.32027535    -0.00000000     0.00000001  0.22D-13  0.57D-14  6  3    19.85     1.32
  17      1.13954499    -0.47041735  -130.32027535    -0.00000000     0.00000001  0.37D-14  0.94D-15  6  5    21.01     1.32
  18      1.13954499    -0.47041735  -130.32027535     0.00000000     0.00000000  0.71D-15  0.24D-15  6  6    22.16     1.32
  19      1.13954499    -0.47041735  -130.32027535     0.00000000    -0.00000000  0.73D-16  0.47D-16  6  1    23.31     1.32
  20      1.13954499    -0.47041735  -130.32027535     0.00000000    -0.00000000  0.81D-17  0.68D-17  6  4    24.50     1.32
  21      1.13954499    -0.47041735  -130.32027535     0.00000000    -0.00000000  0.46D-18  0.58D-18  6  3    25.68     1.32
  22      1.13954499    -0.47041735  -130.32027535     0.00000000    -0.00000000  0.12D-18  0.13D-18  6  2    26.82     1.32
  23      1.13954499    -0.47041735  -130.32027535     0.00000000    -0.00000000  0.87D-20  0.27D-19  6  1    28.00     1.32

 Norm of t1 vector:      0.07414977      S-energy:     0.00000000      T1 diagnostic:  0.01513576
                                                                       D1 diagnostic:  0.04021542

 Doubles amplitudes (print threshold =  0.500E-01):

         I         J         SYM. A    SYM. B    A         B      T(IJ, AB)

         6         6         2         2         1         1     -0.09012577


 Total CPU time for triples:     13.93 sec


 RESULTS
 =======

  Reference energy                   -129.849858003459
  CCSD singlet pair energy             -0.324823828105
  CCSD triplet pair energy             -0.145593520752
  CCSD correlation energy              -0.470417348853

  Triples (T) contribution             -0.021857351917
  Total correlation energy             -0.492274700770

  CCSD total energy                  -130.320275352312
  CCSD[T] energy                     -130.343137635967
  CCSD-T energy                      -130.341764919589
 !CCSD(T) total energy               -130.342132704229

 Timing summary (sec):

 STEP                 CPU(USER)    SYS     CPU(TOT)    WALL
 Transformation          1.31      0.30      1.61      1.62
 CCSD iterations        26.70      3.67     30.37     30.36
 Triples                13.93      0.40     14.33     14.33

 Program statistics:

 Available memory in ccsd:               994999756
 Min. memory needed in ccsd:               1265322
 Max. memory used in ccsd:                 1555950
 Max. memory used in cckext:               2415326 (23 integral passes)



 **********************************************************************************************************************************
 DATASETS  * FILE   NREC   LENGTH (MB)   RECORD NAMES
              1      20     1044.69       500      610      700      900      950      970     1000      129      960     1100   
                                          VAR    BASINP    GEOM    SYMINP    ZMAT    AOBASIS   BASIS     P2S    ABASIS      S 
                                         1400     1410     1200     1210     1080     1600     1650     1300     1700     1380   
                                           T        V       H0       H01     AOSYM     SMH    MOLCAS    ERIS     OPER     JKOP   

              2       4        3.27       700     1000      520     2100   
                                         GEOM     BASIS   MCVARS     RHF  

 PROGRAMS   *        TOTAL   CCSD(T)        HF       INT
 CPU TIMES  *        62.24     41.95      9.97     10.22
 REAL TIME  *        71.84 SEC
 DISK USED  *         3.13 GB      
 **********************************************************************************************************************************

 CCSD(T)/aug-cc-pVQZ energy=   -130.342132704229

        CCSD(T)         HF-SCF  
   -130.34213270   -129.84985800
 **********************************************************************************************************************************
 Molpro calculation terminated
 Variable memory released
