
 Primary working directories    : /tmp/r2666/281978.maple
 Secondary working directories  : /tmp/r2666/281978.maple
 Wavefunction directory         : /ddn/home4/r2666/wfu/
 Main file repository           : /tmp/r2666/281978.maple/

 SHA1      : d5ffa45e93fdbca01ffc919aa182cfdae0147319
 NAME      : 2015.1.35
 ARCHNAME  : linux/x86_64
 FC        : /opt/intel/composer_xe_2015.1.133/bin/intel64/ifort
 BLASLIB   : -Wl,-_start-group /opt/intel/mkl/lib/intel64/libmkl_intel_ilp64.a /opt/intel/mkl/lib/intel64/libmkl_intel_thread.a /opt/intel/mkl/lib/intel64/libmkl_core.a -Wl,-_end-group
 id        : olemiss

 Nodes     nprocs
 cn089        1

 Using customized tuning parameters: mindgm=1; mindgv=20; mindgc=4; mindgr=1; noblas=0; minvec=7
 default implementation of scratch files=df  

 ***,hno CCSD(T)/TZ-F12 QFF
 memory, 995, m;
 gthresh,energy=1.d-12,zero=1.d-22,oneint=1.d-22,twoint=1.d-22;
 gthresh,optgrad=1.d-8,optstep=1.d-8;
 nocompress;
 geomtyp=xyz
 bohr
 geometry={
 3
          4         4
 H        0.0000000000        1.6529654272       -1.9148952743
 N        0.0000000000       -0.1533843471       -1.1549179393
 O        0.0000000000        0.0421867099        1.1192236226
 }
 
 basis=avqz
   {hf,maxit=500;accu,20;}
 {ccsd(t),nocheck,maxit=250;orbital,IGNORE_ERROR;}

 Variables initialized (889), CPU time= 0.00 sec
 Commands  initialized (702), CPU time= 0.01 sec, 572 directives.
 Default parameters read. Elapsed time= 0.06 sec

 Checking input...
 Passed
1


                                         ***  PROGRAM SYSTEM MOLPRO  ***
                                       Copyright, TTI GmbH Stuttgart, 2015
                                    Version 2015.1 linked Jul  9 2018 13:16:40


 **********************************************************************************************************************************
 LABEL *   hno CCSD(T)/TZ-F12 QFF                                                        
  64 bit serial version                                                                  DATE: 04-Mar-20          TIME: 13:38:14  
 **********************************************************************************************************************************

 SHA1:             d5ffa45e93fdbca01ffc919aa182cfdae0147319
 **********************************************************************************************************************************

 THRESHOLDS:

 ZERO    =  1.00D-22  ONEINT  =  1.00D-22  TWOINT  =  1.00D-22  PREFAC  =  1.00D-14  LOCALI  =  1.00D-09  EORDER  =  1.00D-04
 ENERGY  =  1.00D-12  ETEST   =  0.00D+00  EDENS   =  0.00D+00  THRDEDEF=  1.00D-06  GRADIENT=  1.00D-02  STEP    =  1.00D-03
 ORBITAL =  1.00D-05  CIVEC   =  1.00D-05  COEFF   =  1.00D-04  PRINTCI =  5.00D-02  PUNCHCI =  9.90D+01  OPTGRAD =  3.00D-04
 OPTENERG=  1.00D-06  OPTSTEP =  3.00D-04  THRGRAD =  1.00D-10  COMPRESS=  1.00D-11  VARMIN  =  1.00D-07  VARMAX  =  1.00D-03
 THRDOUB =  0.00D+00  THRDIV  =  1.00D-05  THRRED  =  1.00D-07  THRPSP  =  1.00D+00  THRDC   =  1.00D-10  THRCS   =  1.00D-10
 THRNRM  =  1.00D-08  THREQ   =  0.00D+00  THRDE   =  1.00D+00  THRREF  =  1.00D-05  SPARFAC =  1.00D+00  THRDLP  =  1.00D-07
 THRDIA  =  1.00D-10  THRDLS  =  1.00D-07  THRGPS  =  0.00D+00  THRKEX  =  0.00D+00  THRDIS  =  2.00D-01  THRVAR  =  1.00D-10
 THRLOC  =  1.00D-06  THRGAP  =  1.00D-06  THRLOCT = -1.00D+00  THRGAPT = -1.00D+00  THRORB  =  1.00D-06  THRMLTP =  0.00D+00
 THRCPQCI=  1.00D-10  KEXTA   =  0.00D+00  THRCOARS=  0.00D+00  SYMTOL  =  1.00D-06  GRADTOL =  1.00D-06  THROVL  =  1.00D-08
 THRORTH =  1.00D-08  GRID    =  1.00D-06  GRIDMAX =  1.00D-03  DTMAX   =  0.00D+00  THROCCDE=  1.00D-01  THROCCDE=  1.00D-01



 THRESHOLDS:

 ZERO    =  1.00D-22  ONEINT  =  1.00D-22  TWOINT  =  1.00D-22  PREFAC  =  1.00D-14  LOCALI  =  1.00D-09  EORDER  =  1.00D-04
 ENERGY  =  1.00D-12  ETEST   =  0.00D+00  EDENS   =  0.00D+00  THRDEDEF=  1.00D-06  GRADIENT=  1.00D-02  STEP    =  1.00D-03
 ORBITAL =  1.00D-05  CIVEC   =  1.00D-05  COEFF   =  1.00D-04  PRINTCI =  5.00D-02  PUNCHCI =  9.90D+01  OPTGRAD =  1.00D-08
 OPTENERG=  1.00D-06  OPTSTEP =  1.00D-08  THRGRAD =  1.00D-10  COMPRESS=  1.00D-11  VARMIN  =  1.00D-07  VARMAX  =  1.00D-03
 THRDOUB =  0.00D+00  THRDIV  =  1.00D-05  THRRED  =  1.00D-07  THRPSP  =  1.00D+00  THRDC   =  1.00D-10  THRCS   =  1.00D-10
 THRNRM  =  1.00D-08  THREQ   =  0.00D+00  THRDE   =  1.00D+00  THRREF  =  1.00D-05  SPARFAC =  1.00D+00  THRDLP  =  1.00D-07
 THRDIA  =  1.00D-10  THRDLS  =  1.00D-07  THRGPS  =  0.00D+00  THRKEX  =  0.00D+00  THRDIS  =  2.00D-01  THRVAR  =  1.00D-10
 THRLOC  =  1.00D-06  THRGAP  =  1.00D-06  THRLOCT = -1.00D+00  THRGAPT = -1.00D+00  THRORB  =  1.00D-06  THRMLTP =  0.00D+00
 THRCPQCI=  1.00D-10  KEXTA   =  0.00D+00  THRCOARS=  0.00D+00  SYMTOL  =  1.00D-06  GRADTOL =  1.00D-06  THROVL  =  1.00D-08
 THRORTH =  1.00D-08  GRID    =  1.00D-06  GRIDMAX =  1.00D-03  DTMAX   =  0.00D+00  THROCCDE=  1.00D-01  THROCCDE=  1.00D-01



 Input parameters for SORTINT:

 COMPRESS =    0.000000
 C_FINAL  =    1.000000
 DEBUG    =   -1.000000
 C_SORT1  =    0.000000
 C_SEWARD =    0.000000
 THRESH   =    0.000000
 IO       =  molpro                                                          
 SPRI     =    0.000000
 SETTING GEOMTYP        =    XYZ
 ZUNIT=BOHR
 

 Variable memory set to  995000000 words,  buffer space   230000 words

 SETTING BASIS          =    AVQZ


 Recomputing integrals since basis changed


 Using spherical harmonics

 Library entry H      S aug-cc-pVQZ          selected for orbital group  1
 Library entry H      P aug-cc-pVQZ          selected for orbital group  1
 Library entry H      D aug-cc-pVQZ          selected for orbital group  1
 Library entry H      F aug-cc-pVQZ          selected for orbital group  1
 Library entry N      S aug-cc-pVQZ          selected for orbital group  2
 Library entry N      P aug-cc-pVQZ          selected for orbital group  2
 Library entry N      D aug-cc-pVQZ          selected for orbital group  2
 Library entry N      F aug-cc-pVQZ          selected for orbital group  2
 Library entry N      G aug-cc-pVQZ          selected for orbital group  2
 Library entry O      S aug-cc-pVQZ          selected for orbital group  3
 Library entry O      P aug-cc-pVQZ          selected for orbital group  3
 Library entry O      D aug-cc-pVQZ          selected for orbital group  3
 Library entry O      F aug-cc-pVQZ          selected for orbital group  3
 Library entry O      G aug-cc-pVQZ          selected for orbital group  3


 PROGRAM * SEWARD (Integral evaluation for generally contracted gaussian basis sets)     Author: Roland Lindh, 1990

 Geometry written to block  1 of record 700


 Point group  Cs  



 ATOMIC COORDINATES

 NR  ATOM    CHARGE       X              Y              Z

   1  H       1.00    0.000000000    1.652965427   -1.914895274
   2  N       7.00    0.000000000   -0.153384347   -1.154917939
   3  O       8.00    0.000000000    0.042186710    1.119223623

 Bond lengths in Bohr (Angstrom)

 1-2  1.959710452  2-3  2.282535406
     ( 1.037034111)     ( 1.207865720)

 Bond angles

  1-2-3  107.90251459

 NUCLEAR CHARGE:                   16
 NUMBER OF PRIMITIVE AOS:         293
 NUMBER OF SYMMETRY AOS:          234
 NUMBER OF CONTRACTIONS:          206   ( 130A'  +  76A"  )
 NUMBER OF CORE ORBITALS:           2   (   2A'  +   0A"  )
 NUMBER OF VALENCE ORBITALS:        9   (   7A'  +   2A"  )


 NUCLEAR REPULSION ENERGY   30.43491944

 Eigenvalues of metric

         1 0.580E-04 0.143E-03 0.316E-03 0.435E-03 0.584E-03 0.663E-03 0.982E-03 0.108E-02
         2 0.817E-03 0.155E-02 0.487E-02 0.890E-02 0.991E-02 0.122E-01 0.124E-01 0.180E-01


 Contracted 2-electron integrals neglected if value below      1.0D-22

      109945097. INTEGRALS WRITTEN OUT IN   26849 BLOCKS ON RECORD 1290 OF FILE 1


 NUMBER OF SORTED TWO-ELECTRON INTEGRALS:  115283741.     BUFFER LENGTH:  32768
 NUMBER OF SEGMENTS:   8  SEGMENT LENGTH:   15998004      RECORD LENGTH: 524288

 Memory used in sort:      16.56 MW

 SORT1 READ   109945097. AND WROTE   110865264. INTEGRALS IN    322 RECORDS. CPU TIME:     1.79 SEC, REAL TIME:     2.47 SEC
 SORT2 READ   110865264. AND WROTE   115283741. INTEGRALS IN      8 RECORDS. CPU TIME:     1.21 SEC, REAL TIME:     1.74 SEC

 FILE SIZES:   FILE 1:  1780.6 MBYTE,  FILE 4:  1350.6 MBYTE,   TOTAL:   3131.2 MBYTE

 OPERATOR DM      FOR CENTER  0  COORDINATES:    0.000000    0.000000    0.000000


 **********************************************************************************************************************************
 DATASETS  * FILE   NREC   LENGTH (MB)   RECORD NAMES
              1      19      944.14       500      610      700      900      950      970     1000      129      960     1100   
                                          VAR    BASINP    GEOM    SYMINP    ZMAT    AOBASIS   BASIS     P2S    ABASIS      S 
                                         1400     1410     1200     1210     1080     1600     1650     1300     1700   
                                           T        V       H0       H01     AOSYM     SMH    MOLCAS    ERIS     OPER   

 PROGRAMS   *        TOTAL       INT
 CPU TIMES  *        10.41     10.31
 REAL TIME  *        12.91 SEC
 DISK USED  *         3.13 GB      
 **********************************************************************************************************************************


 PROGRAM * RHF-SCF (CLOSED SHELL)       Authors: W. Meyer, H.-J. Werner


 NUMBER OF ELECTRONS:       8+    8-
 CONVERGENCE THRESHOLDS:    1.00E-10 (Density)    1.00E-13 (Energy)
 MAX. NUMBER OF ITERATIONS:      500
 INTERPOLATION TYPE:            DIIS
 INTERPOLATION STEPS:              2 (START)      1 (STEP)
 LEVEL SHIFTS:                  0.00 (CLOSED)  0.00 (OPEN) 



 Orbital guess generated from atomic densities. Full valence occupancy:    9   2

 Molecular orbital dump at record        2100.2

 Initial occupancy:   7   1

 ITERATION    DDIFF          GRAD             ENERGY        2-EL.EN.            DIPOLE MOMENTS         DIIS   ORB.
    1      0.000D+00      0.000D+00      -129.79778243    154.090860    0.00000    0.60116   -1.02310    0    start
    2      0.000D+00      0.806D-02      -129.82508371    155.305432    0.00000    0.61154   -0.21295    1    diag
    3      0.649D-02      0.610D-02      -129.84729565    155.432336    0.00000    0.56032   -0.59407    2    diag
    4      0.330D-02      0.972D-03      -129.84809672    155.149223    0.00000    0.56796   -0.53276    3    diag
    5      0.606D-03      0.314D-03      -129.84822050    155.241538    0.00000    0.57305   -0.53524    4    diag
    6      0.250D-03      0.902D-04      -129.84824006    155.225571    0.00000    0.57333   -0.53110    5    diag
    7      0.948D-04      0.450D-04      -129.84824579    155.228257    0.00000    0.57452   -0.52848    6    diag
    8      0.656D-04      0.157D-04      -129.84824643    155.227572    0.00000    0.57455   -0.52746    7    diag
    9      0.253D-04      0.299D-05      -129.84824646    155.227462    0.00000    0.57452   -0.52725    8    diag
   10      0.500D-05      0.677D-06      -129.84824646    155.227446    0.00000    0.57449   -0.52722    9    orth
   11      0.975D-06      0.135D-06      -129.84824646    155.227443    0.00000    0.57448   -0.52722    9    diag
   12      0.177D-06      0.275D-07      -129.84824646    155.227443    0.00000    0.57448   -0.52722    9    diag
   13      0.381D-07      0.705D-08      -129.84824646    155.227443    0.00000    0.57448   -0.52721    9    diag
   14      0.103D-07      0.137D-08      -129.84824646    155.227443    0.00000    0.57448   -0.52721    9    diag
   15      0.187D-08      0.392D-09      -129.84824646    155.227443    0.00000    0.57448   -0.52721    9    diag
   16      0.559D-09      0.118D-09      -129.84824646    155.227443    0.00000    0.57448   -0.52721    9    diag
   17      0.106D-09      0.300D-10      -129.84824646    155.227443    0.00000    0.57448   -0.52721    9    diag
   18      0.291D-10      0.994D-11      -129.84824646    155.227443    0.00000    0.57448   -0.52721    9    diag
   19      0.146D-10      0.237D-11      -129.84824646    155.227443    0.00000    0.57448   -0.52721    0    orth

 Final occupancy:   7   1

 !RHF STATE 1.1 Energy               -129.848246462135
 Nuclear energy                        30.43491944
 One-electron energy                 -237.89688734
 Two-electron energy                   77.61372143
 Virial quotient                       -1.00155152
 !RHF STATE 1.1 Dipole moment           0.00000000     0.57447870    -0.52721483
 Dipole moment /Debye                   0.00000000     1.46008357    -1.33995868

 Orbital energies:

         1.1          2.1          3.1          4.1          5.1          6.1          7.1          8.1          9.1
    -20.653324   -15.710645    -1.530031    -0.998193    -0.748897    -0.666088    -0.431590     0.026393     0.079490

         1.2          2.2          3.2
     -0.595953     0.063330     0.110155

 HOMO      7.1    -0.431590 =     -11.7442eV
 LUMO      8.1     0.026393 =       0.7182eV
 LUMO-HOMO         0.457983 =      12.4624eV


 **********************************************************************************************************************************
 DATASETS  * FILE   NREC   LENGTH (MB)   RECORD NAMES
              1      19      944.14       500      610      700      900      950      970     1000      129      960     1100   
                                          VAR    BASINP    GEOM    SYMINP    ZMAT    AOBASIS   BASIS     P2S    ABASIS      S 
                                         1400     1410     1200     1210     1080     1600     1650     1300     1700   
                                           T        V       H0       H01     AOSYM     SMH    MOLCAS    ERIS     OPER   

              2       4        3.27       700     1000      520     2100   
                                         GEOM     BASIS   MCVARS     RHF  

 PROGRAMS   *        TOTAL        HF       INT
 CPU TIMES  *        19.61      9.20     10.31
 REAL TIME  *        24.11 SEC
 DISK USED  *         3.13 GB      
 **********************************************************************************************************************************


 PROGRAM * CCSD (Closed-shell coupled cluster)     Authors: C. Hampel, H.-J. Werner, 1991, M. Deegan, P.J. Knowles, 1992


 Convergence thresholds:  THRVAR = 1.00D-08  THRDEN = 1.00D-12

 CCSD(T)     terms to be evaluated (factor= 1.000)


 Number of core orbitals:           2 (   2   0 )
 Number of closed-shell orbitals:   6 (   5   1 )
 Number of external orbitals:     198 ( 123  75 )

 Molecular orbitals read from record     2100.2  Type=RHF/CANONICAL (state 1.1)

 Number of N-1 electron functions:               6
 Number of N-2 electron functions:              21
 Number of singly external CSFs:               690
 Number of doubly external CSFs:            362646
 Total number of CSFs:                      363337

 Length of J-op  integral file:               0.00 MB
 Length of K-op  integral file:               1.60 MB
 Length of 3-ext integral record:             0.00 MB

 Memory could be reduced to 34.67 Mwords without degradation in triples

 Integral transformation finished. Total CPU:   1.30 sec, npass=  1  Memory used:   9.53 MW

 Reference energy:                   -129.84824646

 MP2 singlet pair energy:              -0.30127455
 MP2 triplet pair energy:              -0.17022582
 MP2 correlation energy:               -0.47150038
 MP2 total energy:                   -130.31974684

 SCS-MP2 correlation energy:           -0.46744775   (PS=  1.200000  PT=  0.333333)
 SCS-MP2 total energy:               -130.31569421

 ITER.      SQ.NORM     CORR.ENERGY   TOTAL ENERGY   ENERGY CHANGE        DEN1      VAR(S)    VAR(P)  DIIS     TIME  TIME/IT
   1      1.12051559    -0.47157630  -130.31982276    -0.00007592     0.01619998  0.31D-02  0.31D-02  1  1     2.45     1.26
   2      1.13112054    -0.47154667  -130.31979313     0.00002963    -0.01241599  0.10D-03  0.48D-03  2  2     3.58     1.29
   3      1.13734289    -0.47191479  -130.32016125    -0.00036812    -0.00301651  0.47D-04  0.53D-04  3  3     4.73     1.29
   4      1.14006946    -0.47192388  -130.32017034    -0.00000908    -0.00092576  0.41D-05  0.95D-05  4  4     5.94     1.30
   5      1.14113779    -0.47195237  -130.32019883    -0.00002849    -0.00023315  0.10D-05  0.16D-05  5  5     7.13     1.30
   6      1.14148417    -0.47193774  -130.32018420     0.00001463    -0.00005000  0.96D-07  0.40D-06  6  6     8.34     1.31
   7      1.14155422    -0.47193848  -130.32018494    -0.00000074     0.00000279  0.15D-07  0.90D-07  6  1     9.47     1.31
   8      1.14157595    -0.47193885  -130.32018531    -0.00000036    -0.00000095  0.34D-08  0.17D-07  6  2    10.63     1.31
   9      1.14158047    -0.47193851  -130.32018497     0.00000034     0.00000090  0.25D-08  0.20D-08  6  4    11.76     1.31
  10      1.14158282    -0.47193887  -130.32018533    -0.00000036    -0.00000072  0.46D-09  0.23D-09  6  3    12.91     1.31
  11      1.14158256    -0.47193893  -130.32018539    -0.00000006    -0.00000012  0.14D-09  0.33D-10  6  5    14.07     1.31
  12      1.14158164    -0.47193907  -130.32018553    -0.00000014     0.00000035  0.17D-10  0.10D-10  6  6    15.25     1.31
  13      1.14158083    -0.47193911  -130.32018557    -0.00000004     0.00000021  0.53D-11  0.23D-11  6  1    16.43     1.31
  14      1.14158019    -0.47193914  -130.32018560    -0.00000003     0.00000015  0.35D-12  0.47D-12  6  4    17.61     1.31
  15      1.14157999    -0.47193914  -130.32018561    -0.00000001     0.00000003  0.71D-13  0.37D-13  6  2    18.79     1.31
  16      1.14157994    -0.47193915  -130.32018561    -0.00000000     0.00000001  0.20D-13  0.66D-14  6  3    19.97     1.31
  17      1.14157991    -0.47193915  -130.32018561    -0.00000000     0.00000001  0.36D-14  0.89D-15  6  5    21.09     1.31
  18      1.14157991    -0.47193915  -130.32018561    -0.00000000     0.00000000  0.76D-15  0.22D-15  6  6    22.21     1.31
  19      1.14157991    -0.47193915  -130.32018561    -0.00000000     0.00000000  0.96D-16  0.45D-16  6  1    23.37     1.31
  20      1.14157991    -0.47193915  -130.32018561     0.00000000    -0.00000000  0.87D-17  0.67D-17  6  4    24.49     1.31
  21      1.14157991    -0.47193915  -130.32018561     0.00000000    -0.00000000  0.41D-18  0.59D-18  6  3    25.68     1.31
  22      1.14157991    -0.47193915  -130.32018561     0.00000000    -0.00000000  0.10D-18  0.12D-18  6  2    26.86     1.31
  23      1.14157991    -0.47193915  -130.32018561     0.00000000     0.00000000  0.29D-19  0.44D-19  6  5    28.01     1.31
  24      1.14157991    -0.47193915  -130.32018561    -0.00000000     0.00000000  0.21D-20  0.91D-20  6  1    29.14     1.31

 Norm of t1 vector:      0.07608577      S-energy:     0.00000000      T1 diagnostic:  0.01553094
                                                                       D1 diagnostic:  0.04209844

 Doubles amplitudes (print threshold =  0.500E-01):

         I         J         SYM. A    SYM. B    A         B      T(IJ, AB)

         6         6         2         2         1         1     -0.09859663


 Total CPU time for triples:     14.44 sec


 RESULTS
 =======

  Reference energy                   -129.848246462135
  CCSD singlet pair energy             -0.326146561739
  CCSD triplet pair energy             -0.145792584875
  CCSD correlation energy              -0.471939146614

  Triples (T) contribution             -0.022256617077
  Total correlation energy             -0.494195763691

  CCSD total energy                  -130.320185608749
  CCSD[T] energy                     -130.343499103299
  CCSD-T energy                      -130.342062714724
 !CCSD(T) total energy               -130.342442225826

 Timing summary (sec):

 STEP                 CPU(USER)    SYS     CPU(TOT)    WALL
 Transformation          1.32      0.30      1.62      1.63
 CCSD iterations        27.82      3.75     31.57     31.57
 Triples                14.44      0.39     14.83     14.82

 Program statistics:

 Available memory in ccsd:               994999756
 Min. memory needed in ccsd:               1265322
 Max. memory used in ccsd:                 1555950
 Max. memory used in cckext:               2415326 (24 integral passes)



 **********************************************************************************************************************************
 DATASETS  * FILE   NREC   LENGTH (MB)   RECORD NAMES
              1      20     1044.69       500      610      700      900      950      970     1000      129      960     1100   
                                          VAR    BASINP    GEOM    SYMINP    ZMAT    AOBASIS   BASIS     P2S    ABASIS      S 
                                         1400     1410     1200     1210     1080     1600     1650     1300     1700     1380   
                                           T        V       H0       H01     AOSYM     SMH    MOLCAS    ERIS     OPER     JKOP   

              2       4        3.27       700     1000      520     2100   
                                         GEOM     BASIS   MCVARS     RHF  

 PROGRAMS   *        TOTAL   CCSD(T)        HF       INT
 CPU TIMES  *        63.21     43.59      9.20     10.31
 REAL TIME  *        72.16 SEC
 DISK USED  *         3.13 GB      
 **********************************************************************************************************************************

 CCSD(T)/aug-cc-pVQZ energy=   -130.342442225826

        CCSD(T)         HF-SCF  
   -130.34244223   -129.84824646
 **********************************************************************************************************************************
 Molpro calculation terminated
 Variable memory released
