
 Primary working directories    : /tmp/r2666/282084.maple
 Secondary working directories  : /tmp/r2666/282084.maple
 Wavefunction directory         : /ddn/home4/r2666/wfu/
 Main file repository           : /tmp/r2666/282084.maple/

 SHA1      : d5ffa45e93fdbca01ffc919aa182cfdae0147319
 NAME      : 2015.1.35
 ARCHNAME  : linux/x86_64
 FC        : /opt/intel/composer_xe_2015.1.133/bin/intel64/ifort
 BLASLIB   : -Wl,-_start-group /opt/intel/mkl/lib/intel64/libmkl_intel_ilp64.a /opt/intel/mkl/lib/intel64/libmkl_intel_thread.a /opt/intel/mkl/lib/intel64/libmkl_core.a -Wl,-_end-group
 id        : olemiss

 Nodes     nprocs
 cn089        1

 Using customized tuning parameters: mindgm=1; mindgv=20; mindgc=4; mindgr=1; noblas=0; minvec=7
 default implementation of scratch files=df  

 ***,hno CCSD(T)/TZ-F12 QFF
 memory, 995, m;
 gthresh,energy=1.d-12,zero=1.d-22,oneint=1.d-22,twoint=1.d-22;
 gthresh,optgrad=1.d-8,optstep=1.d-8;
 nocompress;
 geomtyp=xyz
 bohr
 geometry={
 3
        110       110
 H        0.0000000000        1.6738228769       -1.9392761901
 N        0.0000000000       -0.1640990632       -1.1569277669
 O        0.0000000000        0.0320439762        1.1456143660
 }
 
 basis=avqz
   {hf,maxit=500;accu,20;}
 {ccsd(t),nocheck,maxit=250;orbital,IGNORE_ERROR;}

 Variables initialized (889), CPU time= 0.01 sec
 Commands  initialized (702), CPU time= 0.00 sec, 572 directives.
 Default parameters read. Elapsed time= 0.05 sec

 Checking input...
 Passed
1


                                         ***  PROGRAM SYSTEM MOLPRO  ***
                                       Copyright, TTI GmbH Stuttgart, 2015
                                    Version 2015.1 linked Jul  9 2018 13:16:40


 **********************************************************************************************************************************
 LABEL *   hno CCSD(T)/TZ-F12 QFF                                                        
  64 bit serial version                                                                  DATE: 04-Mar-20          TIME: 13:44:42  
 **********************************************************************************************************************************

 SHA1:             d5ffa45e93fdbca01ffc919aa182cfdae0147319
 **********************************************************************************************************************************

 THRESHOLDS:

 ZERO    =  1.00D-22  ONEINT  =  1.00D-22  TWOINT  =  1.00D-22  PREFAC  =  1.00D-14  LOCALI  =  1.00D-09  EORDER  =  1.00D-04
 ENERGY  =  1.00D-12  ETEST   =  0.00D+00  EDENS   =  0.00D+00  THRDEDEF=  1.00D-06  GRADIENT=  1.00D-02  STEP    =  1.00D-03
 ORBITAL =  1.00D-05  CIVEC   =  1.00D-05  COEFF   =  1.00D-04  PRINTCI =  5.00D-02  PUNCHCI =  9.90D+01  OPTGRAD =  3.00D-04
 OPTENERG=  1.00D-06  OPTSTEP =  3.00D-04  THRGRAD =  1.00D-10  COMPRESS=  1.00D-11  VARMIN  =  1.00D-07  VARMAX  =  1.00D-03
 THRDOUB =  0.00D+00  THRDIV  =  1.00D-05  THRRED  =  1.00D-07  THRPSP  =  1.00D+00  THRDC   =  1.00D-10  THRCS   =  1.00D-10
 THRNRM  =  1.00D-08  THREQ   =  0.00D+00  THRDE   =  1.00D+00  THRREF  =  1.00D-05  SPARFAC =  1.00D+00  THRDLP  =  1.00D-07
 THRDIA  =  1.00D-10  THRDLS  =  1.00D-07  THRGPS  =  0.00D+00  THRKEX  =  0.00D+00  THRDIS  =  2.00D-01  THRVAR  =  1.00D-10
 THRLOC  =  1.00D-06  THRGAP  =  1.00D-06  THRLOCT = -1.00D+00  THRGAPT = -1.00D+00  THRORB  =  1.00D-06  THRMLTP =  0.00D+00
 THRCPQCI=  1.00D-10  KEXTA   =  0.00D+00  THRCOARS=  0.00D+00  SYMTOL  =  1.00D-06  GRADTOL =  1.00D-06  THROVL  =  1.00D-08
 THRORTH =  1.00D-08  GRID    =  1.00D-06  GRIDMAX =  1.00D-03  DTMAX   =  0.00D+00  THROCCDE=  1.00D-01  THROCCDE=  1.00D-01



 THRESHOLDS:

 ZERO    =  1.00D-22  ONEINT  =  1.00D-22  TWOINT  =  1.00D-22  PREFAC  =  1.00D-14  LOCALI  =  1.00D-09  EORDER  =  1.00D-04
 ENERGY  =  1.00D-12  ETEST   =  0.00D+00  EDENS   =  0.00D+00  THRDEDEF=  1.00D-06  GRADIENT=  1.00D-02  STEP    =  1.00D-03
 ORBITAL =  1.00D-05  CIVEC   =  1.00D-05  COEFF   =  1.00D-04  PRINTCI =  5.00D-02  PUNCHCI =  9.90D+01  OPTGRAD =  1.00D-08
 OPTENERG=  1.00D-06  OPTSTEP =  1.00D-08  THRGRAD =  1.00D-10  COMPRESS=  1.00D-11  VARMIN  =  1.00D-07  VARMAX  =  1.00D-03
 THRDOUB =  0.00D+00  THRDIV  =  1.00D-05  THRRED  =  1.00D-07  THRPSP  =  1.00D+00  THRDC   =  1.00D-10  THRCS   =  1.00D-10
 THRNRM  =  1.00D-08  THREQ   =  0.00D+00  THRDE   =  1.00D+00  THRREF  =  1.00D-05  SPARFAC =  1.00D+00  THRDLP  =  1.00D-07
 THRDIA  =  1.00D-10  THRDLS  =  1.00D-07  THRGPS  =  0.00D+00  THRKEX  =  0.00D+00  THRDIS  =  2.00D-01  THRVAR  =  1.00D-10
 THRLOC  =  1.00D-06  THRGAP  =  1.00D-06  THRLOCT = -1.00D+00  THRGAPT = -1.00D+00  THRORB  =  1.00D-06  THRMLTP =  0.00D+00
 THRCPQCI=  1.00D-10  KEXTA   =  0.00D+00  THRCOARS=  0.00D+00  SYMTOL  =  1.00D-06  GRADTOL =  1.00D-06  THROVL  =  1.00D-08
 THRORTH =  1.00D-08  GRID    =  1.00D-06  GRIDMAX =  1.00D-03  DTMAX   =  0.00D+00  THROCCDE=  1.00D-01  THROCCDE=  1.00D-01



 Input parameters for SORTINT:

 COMPRESS =    0.000000
 C_FINAL  =    1.000000
 DEBUG    =   -1.000000
 C_SORT1  =    0.000000
 C_SEWARD =    0.000000
 THRESH   =    0.000000
 IO       =  molpro                                                          
 SPRI     =    0.000000
 SETTING GEOMTYP        =    XYZ
 ZUNIT=BOHR
 

 Variable memory set to  995000000 words,  buffer space   230000 words

 SETTING BASIS          =    AVQZ


 Recomputing integrals since basis changed


 Using spherical harmonics

 Library entry H      S aug-cc-pVQZ          selected for orbital group  1
 Library entry H      P aug-cc-pVQZ          selected for orbital group  1
 Library entry H      D aug-cc-pVQZ          selected for orbital group  1
 Library entry H      F aug-cc-pVQZ          selected for orbital group  1
 Library entry N      S aug-cc-pVQZ          selected for orbital group  2
 Library entry N      P aug-cc-pVQZ          selected for orbital group  2
 Library entry N      D aug-cc-pVQZ          selected for orbital group  2
 Library entry N      F aug-cc-pVQZ          selected for orbital group  2
 Library entry N      G aug-cc-pVQZ          selected for orbital group  2
 Library entry O      S aug-cc-pVQZ          selected for orbital group  3
 Library entry O      P aug-cc-pVQZ          selected for orbital group  3
 Library entry O      D aug-cc-pVQZ          selected for orbital group  3
 Library entry O      F aug-cc-pVQZ          selected for orbital group  3
 Library entry O      G aug-cc-pVQZ          selected for orbital group  3


 PROGRAM * SEWARD (Integral evaluation for generally contracted gaussian basis sets)     Author: Roland Lindh, 1990

 Geometry written to block  1 of record 700


 Point group  Cs  



 ATOMIC COORDINATES

 NR  ATOM    CHARGE       X              Y              Z

   1  H       1.00    0.000000000    1.673822877   -1.939276190
   2  N       7.00    0.000000000   -0.164099063   -1.156927767
   3  O       8.00    0.000000000    0.032043976    1.145614366

 Bond lengths in Bohr (Angstrom)

 1-2  1.997504972  2-3  2.310881296
     ( 1.057034110)     ( 1.222865719)

 Bond angles

  1-2-3  108.18899349

 NUCLEAR CHARGE:                   16
 NUMBER OF PRIMITIVE AOS:         293
 NUMBER OF SYMMETRY AOS:          234
 NUMBER OF CONTRACTIONS:          206   ( 130A'  +  76A"  )
 NUMBER OF CORE ORBITALS:           2   (   2A'  +   0A"  )
 NUMBER OF VALENCE ORBITALS:        9   (   7A'  +   2A"  )


 NUCLEAR REPULSION ENERGY   30.02681961

 Eigenvalues of metric

         1 0.611E-04 0.149E-03 0.323E-03 0.438E-03 0.613E-03 0.696E-03 0.104E-02 0.111E-02
         2 0.864E-03 0.166E-02 0.514E-02 0.902E-02 0.102E-01 0.126E-01 0.130E-01 0.196E-01


 Contracted 2-electron integrals neglected if value below      1.0D-22

      109945094. INTEGRALS WRITTEN OUT IN   26849 BLOCKS ON RECORD 1290 OF FILE 1


 NUMBER OF SORTED TWO-ELECTRON INTEGRALS:  115283741.     BUFFER LENGTH:  32768
 NUMBER OF SEGMENTS:   8  SEGMENT LENGTH:   15998004      RECORD LENGTH: 524288

 Memory used in sort:      16.56 MW

 SORT1 READ   109945094. AND WROTE   110865261. INTEGRALS IN    322 RECORDS. CPU TIME:     1.69 SEC, REAL TIME:     2.52 SEC
 SORT2 READ   110865261. AND WROTE   115283741. INTEGRALS IN      8 RECORDS. CPU TIME:     1.24 SEC, REAL TIME:     1.77 SEC

 FILE SIZES:   FILE 1:  1780.6 MBYTE,  FILE 4:  1350.6 MBYTE,   TOTAL:   3131.2 MBYTE

 OPERATOR DM      FOR CENTER  0  COORDINATES:    0.000000    0.000000    0.000000


 **********************************************************************************************************************************
 DATASETS  * FILE   NREC   LENGTH (MB)   RECORD NAMES
              1      19      944.14       500      610      700      900      950      970     1000      129      960     1100   
                                          VAR    BASINP    GEOM    SYMINP    ZMAT    AOBASIS   BASIS     P2S    ABASIS      S 
                                         1400     1410     1200     1210     1080     1600     1650     1300     1700   
                                           T        V       H0       H01     AOSYM     SMH    MOLCAS    ERIS     OPER   

 PROGRAMS   *        TOTAL       INT
 CPU TIMES  *        10.25     10.16
 REAL TIME  *        13.14 SEC
 DISK USED  *         3.13 GB      
 **********************************************************************************************************************************


 PROGRAM * RHF-SCF (CLOSED SHELL)       Authors: W. Meyer, H.-J. Werner


 NUMBER OF ELECTRONS:       8+    8-
 CONVERGENCE THRESHOLDS:    1.00E-10 (Density)    1.00E-13 (Energy)
 MAX. NUMBER OF ITERATIONS:      500
 INTERPOLATION TYPE:            DIIS
 INTERPOLATION STEPS:              2 (START)      1 (STEP)
 LEVEL SHIFTS:                  0.00 (CLOSED)  0.00 (OPEN) 



 Orbital guess generated from atomic densities. Full valence occupancy:    9   2

 Molecular orbital dump at record        2100.2

 Initial occupancy:   7   1

 ITERATION    DDIFF          GRAD             ENERGY        2-EL.EN.            DIPOLE MOMENTS         DIIS   ORB.
    1      0.000D+00      0.000D+00      -129.79159269    153.345155    0.00000    0.59776   -1.07589    0    start
    2      0.000D+00      0.827D-02      -129.81828185    154.551248    0.00000    0.61930   -0.19730    1    diag
    3      0.677D-02      0.654D-02      -129.84407518    154.707555    0.00000    0.56169   -0.61549    2    diag
    4      0.349D-02      0.989D-03      -129.84491351    154.409888    0.00000    0.56868   -0.55164    3    diag
    5      0.618D-03      0.324D-03      -129.84504708    154.505350    0.00000    0.57407   -0.55399    4    diag
    6      0.260D-03      0.938D-04      -129.84506854    154.488888    0.00000    0.57429   -0.54951    5    diag
    7      0.996D-04      0.473D-04      -129.84507500    154.491535    0.00000    0.57550   -0.54669    6    diag
    8      0.693D-04      0.173D-04      -129.84507583    154.490776    0.00000    0.57553   -0.54554    7    diag
    9      0.288D-04      0.340D-05      -129.84507587    154.490644    0.00000    0.57549   -0.54528    8    diag
   10      0.596D-05      0.751D-06      -129.84507587    154.490624    0.00000    0.57546   -0.54526    9    orth
   11      0.109D-05      0.148D-06      -129.84507587    154.490621    0.00000    0.57545   -0.54525    9    diag
   12      0.192D-06      0.310D-07      -129.84507587    154.490621    0.00000    0.57545   -0.54525    9    diag
   13      0.415D-07      0.835D-08      -129.84507587    154.490620    0.00000    0.57545   -0.54525    9    diag
   14      0.119D-07      0.164D-08      -129.84507587    154.490620    0.00000    0.57545   -0.54525    9    diag
   15      0.214D-08      0.465D-09      -129.84507587    154.490620    0.00000    0.57545   -0.54525    9    diag
   16      0.651D-09      0.135D-09      -129.84507587    154.490620    0.00000    0.57545   -0.54525    9    diag
   17      0.115D-09      0.343D-10      -129.84507587    154.490620    0.00000    0.57545   -0.54525    9    diag
   18      0.309D-10      0.114D-10      -129.84507587    154.490620    0.00000    0.57545   -0.54525    9    diag
   19      0.147D-10      0.265D-11      -129.84507587    154.490620    0.00000    0.57545   -0.54525    0    orth

 Final occupancy:   7   1

 !RHF STATE 1.1 Energy               -129.845075870455
 Nuclear energy                        30.02681961
 One-electron energy                 -237.11720567
 Two-electron energy                   77.24531020
 Virial quotient                       -1.00223538
 !RHF STATE 1.1 Dipole moment           0.00000000     0.57544994    -0.54525319
 Dipole moment /Debye                   0.00000000     1.46255206    -1.38580459

 Orbital energies:

         1.1          2.1          3.1          4.1          5.1          6.1          7.1          8.1          9.1
    -20.655184   -15.715879    -1.517515    -0.996758    -0.742165    -0.661866    -0.434747     0.026162     0.079431

         1.2          2.2          3.2
     -0.589179     0.059462     0.109937

 HOMO      7.1    -0.434747 =     -11.8301eV
 LUMO      8.1     0.026162 =       0.7119eV
 LUMO-HOMO         0.460908 =      12.5420eV


 **********************************************************************************************************************************
 DATASETS  * FILE   NREC   LENGTH (MB)   RECORD NAMES
              1      19      944.14       500      610      700      900      950      970     1000      129      960     1100   
                                          VAR    BASINP    GEOM    SYMINP    ZMAT    AOBASIS   BASIS     P2S    ABASIS      S 
                                         1400     1410     1200     1210     1080     1600     1650     1300     1700   
                                           T        V       H0       H01     AOSYM     SMH    MOLCAS    ERIS     OPER   

              2       4        3.27       700     1000      520     2100   
                                         GEOM     BASIS   MCVARS     RHF  

 PROGRAMS   *        TOTAL        HF       INT
 CPU TIMES  *        19.43      9.18     10.16
 REAL TIME  *        24.61 SEC
 DISK USED  *         3.13 GB      
 **********************************************************************************************************************************


 PROGRAM * CCSD (Closed-shell coupled cluster)     Authors: C. Hampel, H.-J. Werner, 1991, M. Deegan, P.J. Knowles, 1992


 Convergence thresholds:  THRVAR = 1.00D-08  THRDEN = 1.00D-12

 CCSD(T)     terms to be evaluated (factor= 1.000)


 Number of core orbitals:           2 (   2   0 )
 Number of closed-shell orbitals:   6 (   5   1 )
 Number of external orbitals:     198 ( 123  75 )

 Molecular orbitals read from record     2100.2  Type=RHF/CANONICAL (state 1.1)

 Number of N-1 electron functions:               6
 Number of N-2 electron functions:              21
 Number of singly external CSFs:               690
 Number of doubly external CSFs:            362646
 Total number of CSFs:                      363337

 Length of J-op  integral file:               0.00 MB
 Length of K-op  integral file:               1.60 MB
 Length of 3-ext integral record:             0.00 MB

 Memory could be reduced to 34.67 Mwords without degradation in triples

 Integral transformation finished. Total CPU:   1.35 sec, npass=  1  Memory used:   9.53 MW

 Reference energy:                   -129.84507587

 MP2 singlet pair energy:              -0.30327120
 MP2 triplet pair energy:              -0.17154004
 MP2 correlation energy:               -0.47481123
 MP2 total energy:                   -130.31988710

 SCS-MP2 correlation energy:           -0.47066146   (PS=  1.200000  PT=  0.333333)
 SCS-MP2 total energy:               -130.31573733

 ITER.      SQ.NORM     CORR.ENERGY   TOTAL ENERGY   ENERGY CHANGE        DEN1      VAR(S)    VAR(P)  DIIS     TIME  TIME/IT
   1      1.12281689    -0.47422372  -130.31929959     0.00058752     0.01771523  0.34D-02  0.34D-02  1  1     2.51     1.28
   2      1.13393428    -0.47404540  -130.31912127     0.00017832    -0.01292286  0.11D-03  0.52D-03  2  2     3.69     1.30
   3      1.14057974    -0.47445063  -130.31952650    -0.00040524    -0.00315218  0.54D-04  0.57D-04  3  3     4.86     1.31
   4      1.14352699    -0.47445737  -130.31953324    -0.00000674    -0.00098809  0.50D-05  0.10D-04  4  4     6.02     1.31
   5      1.14473746    -0.47449031  -130.31956618    -0.00003294    -0.00026261  0.13D-05  0.17D-05  5  5     7.19     1.32
   6      1.14512180    -0.47447357  -130.31954944     0.00001674    -0.00005556  0.12D-06  0.40D-06  6  6     8.38     1.32
   7      1.14519667    -0.47447410  -130.31954998    -0.00000053     0.00000314  0.17D-07  0.93D-07  6  1     9.53     1.32
   8      1.14522032    -0.47447427  -130.31955014    -0.00000017    -0.00000134  0.32D-08  0.20D-07  6  2    10.71     1.32
   9      1.14522553    -0.47447382  -130.31954969     0.00000045     0.00000112  0.27D-08  0.24D-08  6  4    11.87     1.33
  10      1.14522823    -0.47447421  -130.31955008    -0.00000039    -0.00000083  0.52D-09  0.29D-09  6  3    13.04     1.33
  11      1.14522803    -0.47447427  -130.31955014    -0.00000006    -0.00000015  0.17D-09  0.41D-10  6  5    14.23     1.33
  12      1.14522701    -0.47447443  -130.31955030    -0.00000016     0.00000038  0.21D-10  0.12D-10  6  6    15.44     1.33
  13      1.14522608    -0.47447447  -130.31955034    -0.00000004     0.00000023  0.66D-11  0.27D-11  6  1    16.59     1.33
  14      1.14522532    -0.47447451  -130.31955038    -0.00000004     0.00000017  0.39D-12  0.58D-12  6  4    17.76     1.33
  15      1.14522509    -0.47447452  -130.31955039    -0.00000001     0.00000004  0.91D-13  0.46D-13  6  2    18.93     1.33
  16      1.14522503    -0.47447452  -130.31955039    -0.00000000     0.00000001  0.24D-13  0.84D-14  6  3    20.08     1.33
  17      1.14522500    -0.47447452  -130.31955039    -0.00000000     0.00000001  0.44D-14  0.11D-14  6  5    21.26     1.33
  18      1.14522499    -0.47447452  -130.31955039    -0.00000000     0.00000000  0.96D-15  0.28D-15  6  6    22.47     1.33
  19      1.14522499    -0.47447452  -130.31955039    -0.00000000     0.00000000  0.13D-15  0.58D-16  6  1    23.66     1.33
  20      1.14522500    -0.47447452  -130.31955039     0.00000000    -0.00000000  0.12D-16  0.85D-17  6  4    24.86     1.33
  21      1.14522500    -0.47447452  -130.31955039     0.00000000    -0.00000000  0.59D-18  0.67D-18  6  3    26.02     1.33
  22      1.14522500    -0.47447452  -130.31955039     0.00000000    -0.00000000  0.15D-18  0.12D-18  6  2    27.16     1.33
  23      1.14522500    -0.47447452  -130.31955039     0.00000000     0.00000000  0.43D-19  0.47D-19  6  5    28.32     1.33
  24      1.14522500    -0.47447452  -130.31955039    -0.00000000     0.00000000  0.36D-20  0.10D-19  6  1    29.46     1.33

 Norm of t1 vector:      0.07953107      S-energy:    -0.00000000      T1 diagnostic:  0.01623421
                                                                       D1 diagnostic:  0.04419471

 Doubles amplitudes (print threshold =  0.500E-01):

         I         J         SYM. A    SYM. B    A         B      T(IJ, AB)

         6         6         2         2         1         1     -0.10646620


 Total CPU time for triples:     14.48 sec


 RESULTS
 =======

  Reference energy                   -129.845075870455
  CCSD singlet pair energy             -0.328334985041
  CCSD triplet pair energy             -0.146139535578
  CCSD correlation energy              -0.474474520619

  Triples (T) contribution             -0.022877296043
  Total correlation energy             -0.497351816662

  CCSD total energy                  -130.319550391073
  CCSD[T] energy                     -130.343574758269
  CCSD-T energy                      -130.342024561207
 !CCSD(T) total energy               -130.342427687116

 Timing summary (sec):

 STEP                 CPU(USER)    SYS     CPU(TOT)    WALL
 Transformation          1.37      0.29      1.66      1.80
 CCSD iterations        28.10      3.82     31.92     31.92
 Triples                14.48      0.40     14.88     14.88

 Program statistics:

 Available memory in ccsd:               994999756
 Min. memory needed in ccsd:               1265322
 Max. memory used in ccsd:                 1555950
 Max. memory used in cckext:               2415326 (24 integral passes)



 **********************************************************************************************************************************
 DATASETS  * FILE   NREC   LENGTH (MB)   RECORD NAMES
              1      20     1044.69       500      610      700      900      950      970     1000      129      960     1100   
                                          VAR    BASINP    GEOM    SYMINP    ZMAT    AOBASIS   BASIS     P2S    ABASIS      S 
                                         1400     1410     1200     1210     1080     1600     1650     1300     1700     1380   
                                           T        V       H0       H01     AOSYM     SMH    MOLCAS    ERIS     OPER     JKOP   

              2       4        3.27       700     1000      520     2100   
                                         GEOM     BASIS   MCVARS     RHF  

 PROGRAMS   *        TOTAL   CCSD(T)        HF       INT
 CPU TIMES  *        63.40     43.97      9.18     10.16
 REAL TIME  *        73.30 SEC
 DISK USED  *         3.13 GB      
 **********************************************************************************************************************************

 CCSD(T)/aug-cc-pVQZ energy=   -130.342427687116

        CCSD(T)         HF-SCF  
   -130.34242769   -129.84507587
 **********************************************************************************************************************************
 Molpro calculation terminated
 Variable memory released
