
 Primary working directories    : /tmp/r2666/282019.maple
 Secondary working directories  : /tmp/r2666/282019.maple
 Wavefunction directory         : /ddn/home4/r2666/wfu/
 Main file repository           : /tmp/r2666/282019.maple/

 SHA1      : d5ffa45e93fdbca01ffc919aa182cfdae0147319
 NAME      : 2015.1.35
 ARCHNAME  : linux/x86_64
 FC        : /opt/intel/composer_xe_2015.1.133/bin/intel64/ifort
 BLASLIB   : -Wl,-_start-group /opt/intel/mkl/lib/intel64/libmkl_intel_ilp64.a /opt/intel/mkl/lib/intel64/libmkl_intel_thread.a /opt/intel/mkl/lib/intel64/libmkl_core.a -Wl,-_end-group
 id        : olemiss

 Nodes     nprocs
 cn091        1

 Using customized tuning parameters: mindgm=1; mindgv=20; mindgc=4; mindgr=1; noblas=0; minvec=7
 default implementation of scratch files=df  

 ***,hno CCSD(T)/TZ-F12 QFF
 memory, 995, m;
 gthresh,energy=1.d-12,zero=1.d-22,oneint=1.d-22,twoint=1.d-22;
 gthresh,optgrad=1.d-8,optstep=1.d-8;
 nocompress;
 geomtyp=xyz
 bohr
 geometry={
 3
         45        45
 H        0.0000000000        1.6647122751       -1.9321189941
 N        0.0000000000       -0.1573172911       -1.1606938596
 O        0.0000000000        0.0343728060        1.1422232627
 }
 
 basis=avqz
   {hf,maxit=500;accu,20;}
 {ccsd(t),nocheck,maxit=250;orbital,IGNORE_ERROR;}

 Variables initialized (889), CPU time= 0.00 sec
 Commands  initialized (702), CPU time= 0.01 sec, 572 directives.
 Default parameters read. Elapsed time= 0.06 sec

 Checking input...
 Passed
1


                                         ***  PROGRAM SYSTEM MOLPRO  ***
                                       Copyright, TTI GmbH Stuttgart, 2015
                                    Version 2015.1 linked Jul  9 2018 13:16:40


 **********************************************************************************************************************************
 LABEL *   hno CCSD(T)/TZ-F12 QFF                                                        
  64 bit serial version                                                                  DATE: 04-Mar-20          TIME: 13:41:25  
 **********************************************************************************************************************************

 SHA1:             d5ffa45e93fdbca01ffc919aa182cfdae0147319
 **********************************************************************************************************************************

 THRESHOLDS:

 ZERO    =  1.00D-22  ONEINT  =  1.00D-22  TWOINT  =  1.00D-22  PREFAC  =  1.00D-14  LOCALI  =  1.00D-09  EORDER  =  1.00D-04
 ENERGY  =  1.00D-12  ETEST   =  0.00D+00  EDENS   =  0.00D+00  THRDEDEF=  1.00D-06  GRADIENT=  1.00D-02  STEP    =  1.00D-03
 ORBITAL =  1.00D-05  CIVEC   =  1.00D-05  COEFF   =  1.00D-04  PRINTCI =  5.00D-02  PUNCHCI =  9.90D+01  OPTGRAD =  3.00D-04
 OPTENERG=  1.00D-06  OPTSTEP =  3.00D-04  THRGRAD =  1.00D-10  COMPRESS=  1.00D-11  VARMIN  =  1.00D-07  VARMAX  =  1.00D-03
 THRDOUB =  0.00D+00  THRDIV  =  1.00D-05  THRRED  =  1.00D-07  THRPSP  =  1.00D+00  THRDC   =  1.00D-10  THRCS   =  1.00D-10
 THRNRM  =  1.00D-08  THREQ   =  0.00D+00  THRDE   =  1.00D+00  THRREF  =  1.00D-05  SPARFAC =  1.00D+00  THRDLP  =  1.00D-07
 THRDIA  =  1.00D-10  THRDLS  =  1.00D-07  THRGPS  =  0.00D+00  THRKEX  =  0.00D+00  THRDIS  =  2.00D-01  THRVAR  =  1.00D-10
 THRLOC  =  1.00D-06  THRGAP  =  1.00D-06  THRLOCT = -1.00D+00  THRGAPT = -1.00D+00  THRORB  =  1.00D-06  THRMLTP =  0.00D+00
 THRCPQCI=  1.00D-10  KEXTA   =  0.00D+00  THRCOARS=  0.00D+00  SYMTOL  =  1.00D-06  GRADTOL =  1.00D-06  THROVL  =  1.00D-08
 THRORTH =  1.00D-08  GRID    =  1.00D-06  GRIDMAX =  1.00D-03  DTMAX   =  0.00D+00  THROCCDE=  1.00D-01  THROCCDE=  1.00D-01



 THRESHOLDS:

 ZERO    =  1.00D-22  ONEINT  =  1.00D-22  TWOINT  =  1.00D-22  PREFAC  =  1.00D-14  LOCALI  =  1.00D-09  EORDER  =  1.00D-04
 ENERGY  =  1.00D-12  ETEST   =  0.00D+00  EDENS   =  0.00D+00  THRDEDEF=  1.00D-06  GRADIENT=  1.00D-02  STEP    =  1.00D-03
 ORBITAL =  1.00D-05  CIVEC   =  1.00D-05  COEFF   =  1.00D-04  PRINTCI =  5.00D-02  PUNCHCI =  9.90D+01  OPTGRAD =  1.00D-08
 OPTENERG=  1.00D-06  OPTSTEP =  1.00D-08  THRGRAD =  1.00D-10  COMPRESS=  1.00D-11  VARMIN  =  1.00D-07  VARMAX  =  1.00D-03
 THRDOUB =  0.00D+00  THRDIV  =  1.00D-05  THRRED  =  1.00D-07  THRPSP  =  1.00D+00  THRDC   =  1.00D-10  THRCS   =  1.00D-10
 THRNRM  =  1.00D-08  THREQ   =  0.00D+00  THRDE   =  1.00D+00  THRREF  =  1.00D-05  SPARFAC =  1.00D+00  THRDLP  =  1.00D-07
 THRDIA  =  1.00D-10  THRDLS  =  1.00D-07  THRGPS  =  0.00D+00  THRKEX  =  0.00D+00  THRDIS  =  2.00D-01  THRVAR  =  1.00D-10
 THRLOC  =  1.00D-06  THRGAP  =  1.00D-06  THRLOCT = -1.00D+00  THRGAPT = -1.00D+00  THRORB  =  1.00D-06  THRMLTP =  0.00D+00
 THRCPQCI=  1.00D-10  KEXTA   =  0.00D+00  THRCOARS=  0.00D+00  SYMTOL  =  1.00D-06  GRADTOL =  1.00D-06  THROVL  =  1.00D-08
 THRORTH =  1.00D-08  GRID    =  1.00D-06  GRIDMAX =  1.00D-03  DTMAX   =  0.00D+00  THROCCDE=  1.00D-01  THROCCDE=  1.00D-01



 Input parameters for SORTINT:

 COMPRESS =    0.000000
 C_FINAL  =    1.000000
 DEBUG    =   -1.000000
 C_SORT1  =    0.000000
 C_SEWARD =    0.000000
 THRESH   =    0.000000
 IO       =  molpro                                                          
 SPRI     =    0.000000
 SETTING GEOMTYP        =    XYZ
 ZUNIT=BOHR
 

 Variable memory set to  995000000 words,  buffer space   230000 words

 SETTING BASIS          =    AVQZ


 Recomputing integrals since basis changed


 Using spherical harmonics

 Library entry H      S aug-cc-pVQZ          selected for orbital group  1
 Library entry H      P aug-cc-pVQZ          selected for orbital group  1
 Library entry H      D aug-cc-pVQZ          selected for orbital group  1
 Library entry H      F aug-cc-pVQZ          selected for orbital group  1
 Library entry N      S aug-cc-pVQZ          selected for orbital group  2
 Library entry N      P aug-cc-pVQZ          selected for orbital group  2
 Library entry N      D aug-cc-pVQZ          selected for orbital group  2
 Library entry N      F aug-cc-pVQZ          selected for orbital group  2
 Library entry N      G aug-cc-pVQZ          selected for orbital group  2
 Library entry O      S aug-cc-pVQZ          selected for orbital group  3
 Library entry O      P aug-cc-pVQZ          selected for orbital group  3
 Library entry O      D aug-cc-pVQZ          selected for orbital group  3
 Library entry O      F aug-cc-pVQZ          selected for orbital group  3
 Library entry O      G aug-cc-pVQZ          selected for orbital group  3


 PROGRAM * SEWARD (Integral evaluation for generally contracted gaussian basis sets)     Author: Roland Lindh, 1990

 Geometry written to block  1 of record 700


 Point group  Cs  



 ATOMIC COORDINATES

 NR  ATOM    CHARGE       X              Y              Z

   1  H       1.00    0.000000000    1.664712275   -1.932118994
   2  N       7.00    0.000000000   -0.157317291   -1.160693860
   3  O       8.00    0.000000000    0.034372806    1.142223263

 Bond lengths in Bohr (Angstrom)

 1-2  1.978607712  2-3  2.310881296
     ( 1.047034111)     ( 1.222865719)

 Bond angles

  1-2-3  108.18899349

 NUCLEAR CHARGE:                   16
 NUMBER OF PRIMITIVE AOS:         293
 NUMBER OF SYMMETRY AOS:          234
 NUMBER OF CONTRACTIONS:          206   ( 130A'  +  76A"  )
 NUMBER OF CORE ORBITALS:           2   (   2A'  +   0A"  )
 NUMBER OF VALENCE ORBITALS:        9   (   7A'  +   2A"  )


 NUCLEAR REPULSION ENERGY   30.06994795

 Eigenvalues of metric

         1 0.602E-04 0.147E-03 0.322E-03 0.438E-03 0.610E-03 0.683E-03 0.102E-02 0.110E-02
         2 0.860E-03 0.161E-02 0.508E-02 0.899E-02 0.101E-01 0.126E-01 0.129E-01 0.191E-01


 Contracted 2-electron integrals neglected if value below      1.0D-22

      109945082. INTEGRALS WRITTEN OUT IN   26849 BLOCKS ON RECORD 1290 OF FILE 1


 NUMBER OF SORTED TWO-ELECTRON INTEGRALS:  115283741.     BUFFER LENGTH:  32768
 NUMBER OF SEGMENTS:   8  SEGMENT LENGTH:   15998004      RECORD LENGTH: 524288

 Memory used in sort:      16.56 MW

 SORT1 READ   109945082. AND WROTE   110865249. INTEGRALS IN    322 RECORDS. CPU TIME:     2.35 SEC, REAL TIME:     3.40 SEC
 SORT2 READ   110865249. AND WROTE   115283741. INTEGRALS IN      8 RECORDS. CPU TIME:     1.77 SEC, REAL TIME:     2.58 SEC

 FILE SIZES:   FILE 1:  1780.6 MBYTE,  FILE 4:  1350.6 MBYTE,   TOTAL:   3131.2 MBYTE

 OPERATOR DM      FOR CENTER  0  COORDINATES:    0.000000    0.000000    0.000000


 **********************************************************************************************************************************
 DATASETS  * FILE   NREC   LENGTH (MB)   RECORD NAMES
              1      19      944.14       500      610      700      900      950      970     1000      129      960     1100   
                                          VAR    BASINP    GEOM    SYMINP    ZMAT    AOBASIS   BASIS     P2S    ABASIS      S 
                                         1400     1410     1200     1210     1080     1600     1650     1300     1700   
                                           T        V       H0       H01     AOSYM     SMH    MOLCAS    ERIS     OPER   

 PROGRAMS   *        TOTAL       INT
 CPU TIMES  *        14.53     14.41
 REAL TIME  *        18.30 SEC
 DISK USED  *         3.13 GB      
 **********************************************************************************************************************************


 PROGRAM * RHF-SCF (CLOSED SHELL)       Authors: W. Meyer, H.-J. Werner


 NUMBER OF ELECTRONS:       8+    8-
 CONVERGENCE THRESHOLDS:    1.00E-10 (Density)    1.00E-13 (Energy)
 MAX. NUMBER OF ITERATIONS:      500
 INTERPOLATION TYPE:            DIIS
 INTERPOLATION STEPS:              2 (START)      1 (STEP)
 LEVEL SHIFTS:                  0.00 (CLOSED)  0.00 (OPEN) 



 Orbital guess generated from atomic densities. Full valence occupancy:    9   2

 Molecular orbital dump at record        2100.2

 Initial occupancy:   7   1

 ITERATION    DDIFF          GRAD             ENERGY        2-EL.EN.            DIPOLE MOMENTS         DIIS   ORB.
    1      0.000D+00      0.000D+00      -129.79247453    153.428365    0.00000    0.60386   -1.07396    0    start
    2      0.000D+00      0.823D-02      -129.81920101    154.623809    0.00000    0.61966   -0.20139    1    diag
    3      0.673D-02      0.648D-02      -129.84448077    154.782686    0.00000    0.56477   -0.61627    2    diag
    4      0.347D-02      0.990D-03      -129.84531764    154.486393    0.00000    0.57183   -0.55238    3    diag
    5      0.618D-03      0.322D-03      -129.84544925    154.581031    0.00000    0.57709   -0.55468    4    diag
    6      0.258D-03      0.929D-04      -129.84547025    154.564721    0.00000    0.57731   -0.55024    5    diag
    7      0.985D-04      0.470D-04      -129.84547660    154.567319    0.00000    0.57849   -0.54742    6    diag
    8      0.687D-04      0.172D-04      -129.84547742    154.566569    0.00000    0.57852   -0.54627    7    diag
    9      0.286D-04      0.336D-05      -129.84547745    154.566441    0.00000    0.57848   -0.54602    8    diag
   10      0.588D-05      0.739D-06      -129.84547745    154.566423    0.00000    0.57845   -0.54599    9    orth
   11      0.107D-05      0.145D-06      -129.84547745    154.566420    0.00000    0.57844   -0.54599    9    diag
   12      0.188D-06      0.305D-07      -129.84547745    154.566420    0.00000    0.57844   -0.54599    9    diag
   13      0.404D-07      0.821D-08      -129.84547745    154.566420    0.00000    0.57844   -0.54599    9    diag
   14      0.116D-07      0.161D-08      -129.84547745    154.566420    0.00000    0.57844   -0.54599    9    diag
   15      0.208D-08      0.459D-09      -129.84547745    154.566420    0.00000    0.57844   -0.54599    9    diag
   16      0.637D-09      0.134D-09      -129.84547745    154.566420    0.00000    0.57844   -0.54599    9    diag
   17      0.113D-09      0.341D-10      -129.84547745    154.566420    0.00000    0.57844   -0.54599    9    diag
   18      0.308D-10      0.113D-10      -129.84547745    154.566420    0.00000    0.57844   -0.54599    9    diag
   19      0.143D-10      0.269D-11      -129.84547745    154.566420    0.00000    0.57844   -0.54599    9    fixocc
   20      0.574D-11      0.447D-12      -129.84547745    154.566420    0.00000    0.57844   -0.54599    9    orth
   21      0.254D-11      0.210D-12      -129.84547745    154.566420    0.00000    0.57844   -0.54599    0    orth

 Final occupancy:   7   1

 !RHF STATE 1.1 Energy               -129.845477454882
 Nuclear energy                        30.06994795
 One-electron energy                 -237.19863530
 Two-electron energy                   77.28320990
 Virial quotient                       -1.00211682
 !RHF STATE 1.1 Dipole moment           0.00000000     0.57844092    -0.54599065
 Dipole moment /Debye                   0.00000000     1.47015387    -1.38767893

 Orbital energies:

         1.1          2.1          3.1          4.1          5.1          6.1          7.1          8.1          9.1
    -20.655025   -15.714550    -1.517666    -0.999285    -0.743297    -0.661884    -0.435345     0.026174     0.079433

         1.2          2.2          3.2
     -0.589056     0.059436     0.109724

 HOMO      7.1    -0.435345 =     -11.8464eV
 LUMO      8.1     0.026174 =       0.7122eV
 LUMO-HOMO         0.461520 =      12.5586eV


 **********************************************************************************************************************************
 DATASETS  * FILE   NREC   LENGTH (MB)   RECORD NAMES
              1      19      944.14       500      610      700      900      950      970     1000      129      960     1100   
                                          VAR    BASINP    GEOM    SYMINP    ZMAT    AOBASIS   BASIS     P2S    ABASIS      S 
                                         1400     1410     1200     1210     1080     1600     1650     1300     1700   
                                           T        V       H0       H01     AOSYM     SMH    MOLCAS    ERIS     OPER   

              2       4        3.27       700     1000      520     2100   
                                         GEOM     BASIS   MCVARS     RHF  

 PROGRAMS   *        TOTAL        HF       INT
 CPU TIMES  *        27.75     13.22     14.41
 REAL TIME  *        34.84 SEC
 DISK USED  *         3.13 GB      
 **********************************************************************************************************************************


 PROGRAM * CCSD (Closed-shell coupled cluster)     Authors: C. Hampel, H.-J. Werner, 1991, M. Deegan, P.J. Knowles, 1992


 Convergence thresholds:  THRVAR = 1.00D-08  THRDEN = 1.00D-12

 CCSD(T)     terms to be evaluated (factor= 1.000)


 Number of core orbitals:           2 (   2   0 )
 Number of closed-shell orbitals:   6 (   5   1 )
 Number of external orbitals:     198 ( 123  75 )

 Molecular orbitals read from record     2100.2  Type=RHF/CANONICAL (state 1.1)

 Number of N-1 electron functions:               6
 Number of N-2 electron functions:              21
 Number of singly external CSFs:               690
 Number of doubly external CSFs:            362646
 Total number of CSFs:                      363337

 Length of J-op  integral file:               0.00 MB
 Length of K-op  integral file:               1.60 MB
 Length of 3-ext integral record:             0.00 MB

 Memory could be reduced to 34.67 Mwords without degradation in triples

 Integral transformation finished. Total CPU:   1.96 sec, npass=  1  Memory used:   9.53 MW

 Reference energy:                   -129.84547745

 MP2 singlet pair energy:              -0.30304740
 MP2 triplet pair energy:              -0.17140324
 MP2 correlation energy:               -0.47445064
 MP2 total energy:                   -130.31992810

 SCS-MP2 correlation energy:           -0.47030779   (PS=  1.200000  PT=  0.333333)
 SCS-MP2 total energy:               -130.31578524

 ITER.      SQ.NORM     CORR.ENERGY   TOTAL ENERGY   ENERGY CHANGE        DEN1      VAR(S)    VAR(P)  DIIS     TIME  TIME/IT
   1      1.12248290    -0.47389006  -130.31936752     0.00056058     0.01759865  0.33D-02  0.34D-02  1  1     3.52     1.74
   2      1.13353846    -0.47371973  -130.31919718     0.00017033    -0.01286768  0.11D-03  0.51D-03  2  2     5.10     1.76
   3      1.14012829    -0.47411845  -130.31959591    -0.00039873    -0.00313168  0.53D-04  0.57D-04  3  3     6.81     1.81
   4      1.14305752    -0.47412663  -130.31960408    -0.00000817    -0.00098101  0.48D-05  0.10D-04  4  4     8.59     1.86
   5      1.14425206    -0.47415889  -130.31963635    -0.00003227    -0.00025910  0.12D-05  0.17D-05  5  5    10.44     1.90
   6      1.14463211    -0.47414226  -130.31961972     0.00001663    -0.00005506  0.11D-06  0.40D-06  6  6    12.18     1.91
   7      1.14470534    -0.47414299  -130.31962044    -0.00000073     0.00000332  0.16D-07  0.94D-07  6  1    13.79     1.89
   8      1.14472842    -0.47414318  -130.31962064    -0.00000019    -0.00000122  0.32D-08  0.19D-07  6  2    15.40     1.88
   9      1.14473329    -0.47414277  -130.31962022     0.00000042     0.00000109  0.27D-08  0.23D-08  6  4    17.01     1.87
  10      1.14473593    -0.47414315  -130.31962060    -0.00000038    -0.00000081  0.52D-09  0.29D-09  6  3    18.66     1.87
  11      1.14473573    -0.47414321  -130.31962067    -0.00000006    -0.00000016  0.17D-09  0.41D-10  6  5    20.35     1.87
  12      1.14473473    -0.47414337  -130.31962082    -0.00000016     0.00000038  0.21D-10  0.12D-10  6  6    22.06     1.88
  13      1.14473382    -0.47414341  -130.31962086    -0.00000004     0.00000023  0.63D-11  0.27D-11  6  1    23.78     1.88
  14      1.14473308    -0.47414345  -130.31962090    -0.00000004     0.00000017  0.37D-12  0.59D-12  6  4    25.39     1.87
  15      1.14473284    -0.47414346  -130.31962091    -0.00000001     0.00000004  0.81D-13  0.46D-13  6  2    27.00     1.87
  16      1.14473278    -0.47414346  -130.31962091    -0.00000000     0.00000001  0.21D-13  0.83D-14  6  3    28.64     1.86
  17      1.14473275    -0.47414346  -130.31962091    -0.00000000     0.00000001  0.40D-14  0.11D-14  6  5    30.25     1.86
  18      1.14473275    -0.47414346  -130.31962091    -0.00000000     0.00000000  0.90D-15  0.26D-15  6  6    31.94     1.86
  19      1.14473275    -0.47414346  -130.31962091    -0.00000000     0.00000000  0.13D-15  0.53D-16  6  1    33.69     1.87
  20      1.14473275    -0.47414346  -130.31962091     0.00000000    -0.00000000  0.11D-16  0.79D-17  6  4    35.37     1.87
  21      1.14473275    -0.47414346  -130.31962091     0.00000000    -0.00000000  0.53D-18  0.64D-18  6  3    36.98     1.87
  22      1.14473275    -0.47414346  -130.31962091     0.00000000    -0.00000000  0.13D-18  0.11D-18  6  2    38.53     1.86
  23      1.14473275    -0.47414346  -130.31962091     0.00000000     0.00000000  0.38D-19  0.41D-19  6  5    40.12     1.86
  24      1.14473275    -0.47414346  -130.31962091    -0.00000000     0.00000000  0.33D-20  0.89D-20  6  1    41.71     1.86

 Norm of t1 vector:      0.07912495      S-energy:    -0.00000000      T1 diagnostic:  0.01615131
                                                                       D1 diagnostic:  0.04416871

 Doubles amplitudes (print threshold =  0.500E-01):

         I         J         SYM. A    SYM. B    A         B      T(IJ, AB)

         6         6         2         2         1         1     -0.10652283


 Total CPU time for triples:     20.32 sec


 RESULTS
 =======

  Reference energy                   -129.845477454882
  CCSD singlet pair energy             -0.328052883598
  CCSD triplet pair energy             -0.146090574523
  CCSD correlation energy              -0.474143458121

  Triples (T) contribution             -0.022810161135
  Total correlation energy             -0.496953619256

  CCSD total energy                  -130.319620913003
  CCSD[T] energy                     -130.343567722613
  CCSD-T energy                      -130.342031676205
 !CCSD(T) total energy               -130.342431074138

 Timing summary (sec):

 STEP                 CPU(USER)    SYS     CPU(TOT)    WALL
 Transformation          1.98      0.28      2.26      3.69
 CCSD iterations        39.75      4.89     44.64     44.63
 Triples                20.32      0.50     20.82     20.83

 Program statistics:

 Available memory in ccsd:               994999756
 Min. memory needed in ccsd:               1265322
 Max. memory used in ccsd:                 1555950
 Max. memory used in cckext:               2415326 (24 integral passes)



 **********************************************************************************************************************************
 DATASETS  * FILE   NREC   LENGTH (MB)   RECORD NAMES
              1      20     1044.69       500      610      700      900      950      970     1000      129      960     1100   
                                          VAR    BASINP    GEOM    SYMINP    ZMAT    AOBASIS   BASIS     P2S    ABASIS      S 
                                         1400     1410     1200     1210     1080     1600     1650     1300     1700     1380   
                                           T        V       H0       H01     AOSYM     SMH    MOLCAS    ERIS     OPER     JKOP   

              2       4        3.27       700     1000      520     2100   
                                         GEOM     BASIS   MCVARS     RHF  

 PROGRAMS   *        TOTAL   CCSD(T)        HF       INT
 CPU TIMES  *        89.83     62.07     13.22     14.41
 REAL TIME  *       104.05 SEC
 DISK USED  *         3.13 GB      
 **********************************************************************************************************************************

 CCSD(T)/aug-cc-pVQZ energy=   -130.342431074138

        CCSD(T)         HF-SCF  
   -130.34243107   -129.84547745
 **********************************************************************************************************************************
 Molpro calculation terminated
 Variable memory released
