
 Primary working directories    : /tmp/r2666/282082.maple
 Secondary working directories  : /tmp/r2666/282082.maple
 Wavefunction directory         : /ddn/home4/r2666/wfu/
 Main file repository           : /tmp/r2666/282082.maple/

 SHA1      : d5ffa45e93fdbca01ffc919aa182cfdae0147319
 NAME      : 2015.1.35
 ARCHNAME  : linux/x86_64
 FC        : /opt/intel/composer_xe_2015.1.133/bin/intel64/ifort
 BLASLIB   : -Wl,-_start-group /opt/intel/mkl/lib/intel64/libmkl_intel_ilp64.a /opt/intel/mkl/lib/intel64/libmkl_intel_thread.a /opt/intel/mkl/lib/intel64/libmkl_core.a -Wl,-_end-group
 id        : olemiss

 Nodes     nprocs
 cn080        1

 Using customized tuning parameters: mindgm=1; mindgv=20; mindgc=4; mindgr=1; noblas=0; minvec=7
 default implementation of scratch files=df  

 ***,hno CCSD(T)/TZ-F12 QFF
 memory, 995, m;
 gthresh,energy=1.d-12,zero=1.d-22,oneint=1.d-22,twoint=1.d-22;
 gthresh,optgrad=1.d-8,optstep=1.d-8;
 nocompress;
 geomtyp=xyz
 bohr
 geometry={
 3
        108       108
 H        0.0000000000        1.6730169914       -1.9371054457
 N        0.0000000000       -0.1642516276       -1.1532239909
 O        0.0000000000        0.0330024262        1.1397398457
 }
 
 basis=avqz
   {hf,maxit=500;accu,20;}
 {ccsd(t),nocheck,maxit=250;orbital,IGNORE_ERROR;}

 Variables initialized (889), CPU time= 0.00 sec
 Commands  initialized (702), CPU time= 0.01 sec, 572 directives.
 Default parameters read. Elapsed time= 0.05 sec

 Checking input...
 Passed
1


                                         ***  PROGRAM SYSTEM MOLPRO  ***
                                       Copyright, TTI GmbH Stuttgart, 2015
                                    Version 2015.1 linked Jul  9 2018 13:16:40


 **********************************************************************************************************************************
 LABEL *   hno CCSD(T)/TZ-F12 QFF                                                        
  64 bit serial version                                                                  DATE: 04-Mar-20          TIME: 13:44:39  
 **********************************************************************************************************************************

 SHA1:             d5ffa45e93fdbca01ffc919aa182cfdae0147319
 **********************************************************************************************************************************

 THRESHOLDS:

 ZERO    =  1.00D-22  ONEINT  =  1.00D-22  TWOINT  =  1.00D-22  PREFAC  =  1.00D-14  LOCALI  =  1.00D-09  EORDER  =  1.00D-04
 ENERGY  =  1.00D-12  ETEST   =  0.00D+00  EDENS   =  0.00D+00  THRDEDEF=  1.00D-06  GRADIENT=  1.00D-02  STEP    =  1.00D-03
 ORBITAL =  1.00D-05  CIVEC   =  1.00D-05  COEFF   =  1.00D-04  PRINTCI =  5.00D-02  PUNCHCI =  9.90D+01  OPTGRAD =  3.00D-04
 OPTENERG=  1.00D-06  OPTSTEP =  3.00D-04  THRGRAD =  1.00D-10  COMPRESS=  1.00D-11  VARMIN  =  1.00D-07  VARMAX  =  1.00D-03
 THRDOUB =  0.00D+00  THRDIV  =  1.00D-05  THRRED  =  1.00D-07  THRPSP  =  1.00D+00  THRDC   =  1.00D-10  THRCS   =  1.00D-10
 THRNRM  =  1.00D-08  THREQ   =  0.00D+00  THRDE   =  1.00D+00  THRREF  =  1.00D-05  SPARFAC =  1.00D+00  THRDLP  =  1.00D-07
 THRDIA  =  1.00D-10  THRDLS  =  1.00D-07  THRGPS  =  0.00D+00  THRKEX  =  0.00D+00  THRDIS  =  2.00D-01  THRVAR  =  1.00D-10
 THRLOC  =  1.00D-06  THRGAP  =  1.00D-06  THRLOCT = -1.00D+00  THRGAPT = -1.00D+00  THRORB  =  1.00D-06  THRMLTP =  0.00D+00
 THRCPQCI=  1.00D-10  KEXTA   =  0.00D+00  THRCOARS=  0.00D+00  SYMTOL  =  1.00D-06  GRADTOL =  1.00D-06  THROVL  =  1.00D-08
 THRORTH =  1.00D-08  GRID    =  1.00D-06  GRIDMAX =  1.00D-03  DTMAX   =  0.00D+00  THROCCDE=  1.00D-01  THROCCDE=  1.00D-01



 THRESHOLDS:

 ZERO    =  1.00D-22  ONEINT  =  1.00D-22  TWOINT  =  1.00D-22  PREFAC  =  1.00D-14  LOCALI  =  1.00D-09  EORDER  =  1.00D-04
 ENERGY  =  1.00D-12  ETEST   =  0.00D+00  EDENS   =  0.00D+00  THRDEDEF=  1.00D-06  GRADIENT=  1.00D-02  STEP    =  1.00D-03
 ORBITAL =  1.00D-05  CIVEC   =  1.00D-05  COEFF   =  1.00D-04  PRINTCI =  5.00D-02  PUNCHCI =  9.90D+01  OPTGRAD =  1.00D-08
 OPTENERG=  1.00D-06  OPTSTEP =  1.00D-08  THRGRAD =  1.00D-10  COMPRESS=  1.00D-11  VARMIN  =  1.00D-07  VARMAX  =  1.00D-03
 THRDOUB =  0.00D+00  THRDIV  =  1.00D-05  THRRED  =  1.00D-07  THRPSP  =  1.00D+00  THRDC   =  1.00D-10  THRCS   =  1.00D-10
 THRNRM  =  1.00D-08  THREQ   =  0.00D+00  THRDE   =  1.00D+00  THRREF  =  1.00D-05  SPARFAC =  1.00D+00  THRDLP  =  1.00D-07
 THRDIA  =  1.00D-10  THRDLS  =  1.00D-07  THRGPS  =  0.00D+00  THRKEX  =  0.00D+00  THRDIS  =  2.00D-01  THRVAR  =  1.00D-10
 THRLOC  =  1.00D-06  THRGAP  =  1.00D-06  THRLOCT = -1.00D+00  THRGAPT = -1.00D+00  THRORB  =  1.00D-06  THRMLTP =  0.00D+00
 THRCPQCI=  1.00D-10  KEXTA   =  0.00D+00  THRCOARS=  0.00D+00  SYMTOL  =  1.00D-06  GRADTOL =  1.00D-06  THROVL  =  1.00D-08
 THRORTH =  1.00D-08  GRID    =  1.00D-06  GRIDMAX =  1.00D-03  DTMAX   =  0.00D+00  THROCCDE=  1.00D-01  THROCCDE=  1.00D-01



 Input parameters for SORTINT:

 COMPRESS =    0.000000
 C_FINAL  =    1.000000
 DEBUG    =   -1.000000
 C_SORT1  =    0.000000
 C_SEWARD =    0.000000
 THRESH   =    0.000000
 IO       =  molpro                                                          
 SPRI     =    0.000000
 SETTING GEOMTYP        =    XYZ
 ZUNIT=BOHR
 

 Variable memory set to  995000000 words,  buffer space   230000 words

 SETTING BASIS          =    AVQZ


 Recomputing integrals since basis changed


 Using spherical harmonics

 Library entry H      S aug-cc-pVQZ          selected for orbital group  1
 Library entry H      P aug-cc-pVQZ          selected for orbital group  1
 Library entry H      D aug-cc-pVQZ          selected for orbital group  1
 Library entry H      F aug-cc-pVQZ          selected for orbital group  1
 Library entry N      S aug-cc-pVQZ          selected for orbital group  2
 Library entry N      P aug-cc-pVQZ          selected for orbital group  2
 Library entry N      D aug-cc-pVQZ          selected for orbital group  2
 Library entry N      F aug-cc-pVQZ          selected for orbital group  2
 Library entry N      G aug-cc-pVQZ          selected for orbital group  2
 Library entry O      S aug-cc-pVQZ          selected for orbital group  3
 Library entry O      P aug-cc-pVQZ          selected for orbital group  3
 Library entry O      D aug-cc-pVQZ          selected for orbital group  3
 Library entry O      F aug-cc-pVQZ          selected for orbital group  3
 Library entry O      G aug-cc-pVQZ          selected for orbital group  3


 PROGRAM * SEWARD (Integral evaluation for generally contracted gaussian basis sets)     Author: Roland Lindh, 1990

 Geometry written to block  1 of record 700


 Point group  Cs  



 ATOMIC COORDINATES

 NR  ATOM    CHARGE       X              Y              Z

   1  H       1.00    0.000000000    1.673016991   -1.937105446
   2  N       7.00    0.000000000   -0.164251628   -1.153223991
   3  O       8.00    0.000000000    0.033002426    1.139739846

 Bond lengths in Bohr (Angstrom)

 1-2  1.997504972  2-3  2.301432666
     ( 1.057034110)     ( 1.217865719)

 Bond angles

  1-2-3  108.18899349

 NUCLEAR CHARGE:                   16
 NUMBER OF PRIMITIVE AOS:         293
 NUMBER OF SYMMETRY AOS:          234
 NUMBER OF CONTRACTIONS:          206   ( 130A'  +  76A"  )
 NUMBER OF CORE ORBITALS:           2   (   2A'  +   0A"  )
 NUMBER OF VALENCE ORBITALS:        9   (   7A'  +   2A"  )


 NUCLEAR REPULSION ENERGY   30.13151686

 Eigenvalues of metric

         1 0.607E-04 0.148E-03 0.322E-03 0.437E-03 0.605E-03 0.693E-03 0.103E-02 0.110E-02
         2 0.851E-03 0.166E-02 0.508E-02 0.899E-02 0.102E-01 0.125E-01 0.128E-01 0.194E-01


 Contracted 2-electron integrals neglected if value below      1.0D-22

      109945081. INTEGRALS WRITTEN OUT IN   26849 BLOCKS ON RECORD 1290 OF FILE 1


 NUMBER OF SORTED TWO-ELECTRON INTEGRALS:  115283741.     BUFFER LENGTH:  32768
 NUMBER OF SEGMENTS:   8  SEGMENT LENGTH:   15998004      RECORD LENGTH: 524288

 Memory used in sort:      16.56 MW

 SORT1 READ   109945081. AND WROTE   110865248. INTEGRALS IN    322 RECORDS. CPU TIME:     2.01 SEC, REAL TIME:     2.67 SEC
 SORT2 READ   110865248. AND WROTE   115283741. INTEGRALS IN      8 RECORDS. CPU TIME:     1.39 SEC, REAL TIME:     1.87 SEC

 FILE SIZES:   FILE 1:  1780.6 MBYTE,  FILE 4:  1350.6 MBYTE,   TOTAL:   3131.2 MBYTE

 OPERATOR DM      FOR CENTER  0  COORDINATES:    0.000000    0.000000    0.000000


 **********************************************************************************************************************************
 DATASETS  * FILE   NREC   LENGTH (MB)   RECORD NAMES
              1      19      944.14       500      610      700      900      950      970     1000      129      960     1100   
                                          VAR    BASINP    GEOM    SYMINP    ZMAT    AOBASIS   BASIS     P2S    ABASIS      S 
                                         1400     1410     1200     1210     1080     1600     1650     1300     1700   
                                           T        V       H0       H01     AOSYM     SMH    MOLCAS    ERIS     OPER   

 PROGRAMS   *        TOTAL       INT
 CPU TIMES  *        11.17     11.09
 REAL TIME  *        13.76 SEC
 DISK USED  *         3.13 GB      
 **********************************************************************************************************************************


 PROGRAM * RHF-SCF (CLOSED SHELL)       Authors: W. Meyer, H.-J. Werner


 NUMBER OF ELECTRONS:       8+    8-
 CONVERGENCE THRESHOLDS:    1.00E-10 (Density)    1.00E-13 (Energy)
 MAX. NUMBER OF ITERATIONS:      500
 INTERPOLATION TYPE:            DIIS
 INTERPOLATION STEPS:              2 (START)      1 (STEP)
 LEVEL SHIFTS:                  0.00 (CLOSED)  0.00 (OPEN) 



 Orbital guess generated from atomic densities. Full valence occupancy:    9   2

 Molecular orbital dump at record        2100.2

 Initial occupancy:   7   1

 ITERATION    DDIFF          GRAD             ENERGY        2-EL.EN.            DIPOLE MOMENTS         DIIS   ORB.
    1      0.000D+00      0.000D+00      -129.79323210    153.532392    0.00000    0.59562   -1.05944    0    start
    2      0.000D+00      0.822D-02      -129.82014183    154.750006    0.00000    0.61621   -0.20048    1    diag
    3      0.669D-02      0.643D-02      -129.84500683    154.894435    0.00000    0.55943   -0.60811    2    diag
    4      0.344D-02      0.983D-03      -129.84583425    154.600597    0.00000    0.56655   -0.54509    3    diag
    5      0.614D-03      0.321D-03      -129.84596580    154.695576    0.00000    0.57194   -0.54752    4    diag
    6      0.258D-03      0.932D-04      -129.84598691    154.679187    0.00000    0.57219   -0.54313    5    diag
    7      0.988D-04      0.468D-04      -129.84599319    154.681881    0.00000    0.57341   -0.54038    6    diag
    8      0.685D-04      0.169D-04      -129.84599396    154.681142    0.00000    0.57345   -0.53927    7    diag
    9      0.278D-04      0.329D-05      -129.84599400    154.681015    0.00000    0.57341   -0.53903    8    diag
   10      0.567D-05      0.734D-06      -129.84599400    154.680996    0.00000    0.57337   -0.53900    9    orth
   11      0.106D-05      0.145D-06      -129.84599400    154.680992    0.00000    0.57337   -0.53900    9    diag
   12      0.190D-06      0.300D-07      -129.84599400    154.680992    0.00000    0.57336   -0.53900    9    diag
   13      0.409D-07      0.796D-08      -129.84599400    154.680992    0.00000    0.57336   -0.53900    9    diag
   14      0.116D-07      0.156D-08      -129.84599400    154.680992    0.00000    0.57336   -0.53900    9    diag
   15      0.208D-08      0.442D-09      -129.84599400    154.680992    0.00000    0.57336   -0.53900    9    diag
   16      0.626D-09      0.129D-09      -129.84599400    154.680992    0.00000    0.57336   -0.53900    9    diag
   17      0.112D-09      0.327D-10      -129.84599400    154.680992    0.00000    0.57336   -0.53900    9    diag
   18      0.299D-10      0.108D-10      -129.84599400    154.680992    0.00000    0.57336   -0.53900    9    diag
   19      0.154D-10      0.244D-11      -129.84599400    154.680992    0.00000    0.57336   -0.53900    9    fixocc
   20      0.368D-11      0.384D-12      -129.84599400    154.680992    0.00000    0.57336   -0.53900    9    orth
   21      0.484D-11      0.221D-12      -129.84599400    154.680992    0.00000    0.57336   -0.53900    0    orth

 Final occupancy:   7   1

 !RHF STATE 1.1 Energy               -129.845994001860
 Nuclear energy                        30.13151686
 One-electron energy                 -237.31800686
 Two-electron energy                   77.34049600
 Virial quotient                       -1.00209480
 !RHF STATE 1.1 Dipole moment           0.00000000     0.57336289    -0.53899662
 Dipole moment /Debye                   0.00000000     1.45724767    -1.36990302

 Orbital energies:

         1.1          2.1          3.1          4.1          5.1          6.1          7.1          8.1          9.1
    -20.654713   -15.715021    -1.521506    -0.995587    -0.743659    -0.663281    -0.433250     0.026226     0.079447

         1.2          2.2          3.2
     -0.591490     0.060766     0.110129

 HOMO      7.1    -0.433250 =     -11.7893eV
 LUMO      8.1     0.026226 =       0.7136eV
 LUMO-HOMO         0.459476 =      12.5030eV


 **********************************************************************************************************************************
 DATASETS  * FILE   NREC   LENGTH (MB)   RECORD NAMES
              1      19      944.14       500      610      700      900      950      970     1000      129      960     1100   
                                          VAR    BASINP    GEOM    SYMINP    ZMAT    AOBASIS   BASIS     P2S    ABASIS      S 
                                         1400     1410     1200     1210     1080     1600     1650     1300     1700   
                                           T        V       H0       H01     AOSYM     SMH    MOLCAS    ERIS     OPER   

              2       4        3.27       700     1000      520     2100   
                                         GEOM     BASIS   MCVARS     RHF  

 PROGRAMS   *        TOTAL        HF       INT
 CPU TIMES  *        21.74     10.56     11.09
 REAL TIME  *        27.10 SEC
 DISK USED  *         3.13 GB      
 **********************************************************************************************************************************


 PROGRAM * CCSD (Closed-shell coupled cluster)     Authors: C. Hampel, H.-J. Werner, 1991, M. Deegan, P.J. Knowles, 1992


 Convergence thresholds:  THRVAR = 1.00D-08  THRDEN = 1.00D-12

 CCSD(T)     terms to be evaluated (factor= 1.000)


 Number of core orbitals:           2 (   2   0 )
 Number of closed-shell orbitals:   6 (   5   1 )
 Number of external orbitals:     198 ( 123  75 )

 Molecular orbitals read from record     2100.2  Type=RHF/CANONICAL (state 1.1)

 Number of N-1 electron functions:               6
 Number of N-2 electron functions:              21
 Number of singly external CSFs:               690
 Number of doubly external CSFs:            362646
 Total number of CSFs:                      363337

 Length of J-op  integral file:               0.00 MB
 Length of K-op  integral file:               1.60 MB
 Length of 3-ext integral record:             0.00 MB

 Memory could be reduced to 34.67 Mwords without degradation in triples

 Integral transformation finished. Total CPU:   1.57 sec, npass=  1  Memory used:   9.53 MW

 Reference energy:                   -129.84599400

 MP2 singlet pair energy:              -0.30274999
 MP2 triplet pair energy:              -0.17118884
 MP2 correlation energy:               -0.47393883
 MP2 total energy:                   -130.31993283

 SCS-MP2 correlation energy:           -0.46981749   (PS=  1.200000  PT=  0.333333)
 SCS-MP2 total energy:               -130.31581149

 ITER.      SQ.NORM     CORR.ENERGY   TOTAL ENERGY   ENERGY CHANGE        DEN1      VAR(S)    VAR(P)  DIIS     TIME  TIME/IT
   1      1.12227154    -0.47355732  -130.31955133     0.00038150     0.01728094  0.33D-02  0.33D-02  1  1     2.84     1.41
   2      1.13325821    -0.47342501  -130.31941901     0.00013232    -0.01278874  0.11D-03  0.51D-03  2  2     4.13     1.43
   3      1.13979869    -0.47382202  -130.31981603    -0.00039702    -0.00312044  0.52D-04  0.56D-04  3  3     5.36     1.42
   4      1.14268337    -0.47382855  -130.31982255    -0.00000652    -0.00097181  0.48D-05  0.10D-04  4  4     6.61     1.42
   5      1.14385599    -0.47386038  -130.31985439    -0.00003184    -0.00025492  0.12D-05  0.17D-05  5  5     7.88     1.42
   6      1.14423033    -0.47384430  -130.31983830     0.00001609    -0.00005401  0.12D-06  0.40D-06  6  6     9.12     1.43
   7      1.14430476    -0.47384477  -130.31983877    -0.00000047     0.00000290  0.17D-07  0.92D-07  6  1    10.40     1.43
   8      1.14432817    -0.47384499  -130.31983899    -0.00000022    -0.00000129  0.33D-08  0.19D-07  6  2    11.64     1.43
   9      1.14433339    -0.47384455  -130.31983855     0.00000044     0.00000106  0.26D-08  0.23D-08  6  4    12.93     1.43
  10      1.14433602    -0.47384494  -130.31983894    -0.00000039    -0.00000080  0.50D-09  0.28D-09  6  3    14.20     1.43
  11      1.14433580    -0.47384500  -130.31983900    -0.00000006    -0.00000014  0.16D-09  0.39D-10  6  5    15.47     1.43
  12      1.14433479    -0.47384515  -130.31983915    -0.00000015     0.00000037  0.20D-10  0.12D-10  6  6    16.72     1.43
  13      1.14433389    -0.47384519  -130.31983920    -0.00000004     0.00000023  0.64D-11  0.26D-11  6  1    18.01     1.43
  14      1.14433316    -0.47384523  -130.31983923    -0.00000004     0.00000017  0.39D-12  0.54D-12  6  4    19.22     1.43
  15      1.14433294    -0.47384524  -130.31983924    -0.00000001     0.00000004  0.90D-13  0.42D-13  6  2    20.45     1.43
  16      1.14433288    -0.47384524  -130.31983924    -0.00000000     0.00000001  0.24D-13  0.79D-14  6  3    21.66     1.43
  17      1.14433285    -0.47384524  -130.31983924    -0.00000000     0.00000001  0.44D-14  0.11D-14  6  5    22.85     1.43
  18      1.14433285    -0.47384524  -130.31983924    -0.00000000     0.00000000  0.93D-15  0.28D-15  6  6    24.07     1.43
  19      1.14433285    -0.47384524  -130.31983924    -0.00000000     0.00000000  0.12D-15  0.57D-16  6  1    25.31     1.43
  20      1.14433285    -0.47384524  -130.31983924     0.00000000    -0.00000000  0.11D-16  0.83D-17  6  4    26.50     1.43
  21      1.14433285    -0.47384524  -130.31983924     0.00000000    -0.00000000  0.56D-18  0.67D-18  6  3    27.72     1.43
  22      1.14433285    -0.47384524  -130.31983924     0.00000000    -0.00000000  0.14D-18  0.14D-18  6  2    28.94     1.42
  23      1.14433285    -0.47384524  -130.31983924     0.00000000     0.00000000  0.42D-19  0.51D-19  6  5    30.22     1.43
  24      1.14433285    -0.47384524  -130.31983924    -0.00000000     0.00000000  0.33D-20  0.11D-19  6  1    31.50     1.43

 Norm of t1 vector:      0.07866073      S-energy:    -0.00000000      T1 diagnostic:  0.01605655
                                                                       D1 diagnostic:  0.04350691

 Doubles amplitudes (print threshold =  0.500E-01):

         I         J         SYM. A    SYM. B    A         B      T(IJ, AB)

         6         6         2         2         1         1     -0.10388109


 Total CPU time for triples:     16.52 sec


 RESULTS
 =======

  Reference energy                   -129.845994001859
  CCSD singlet pair energy             -0.327789120773
  CCSD triplet pair energy             -0.146056118746
  CCSD correlation energy              -0.473845239520

  Triples (T) contribution             -0.022714151934
  Total correlation energy             -0.496559391454

  CCSD total energy                  -130.319839241379
  CCSD[T] energy                     -130.343676970773
  CCSD-T energy                      -130.342155581510
 !CCSD(T) total energy               -130.342553393313

 Timing summary (sec):

 STEP                 CPU(USER)    SYS     CPU(TOT)    WALL
 Transformation          1.58      0.26      1.84      1.84
 CCSD iterations        29.92      4.32     34.24     34.23
 Triples                16.52      0.43     16.95     16.96

 Program statistics:

 Available memory in ccsd:               994999756
 Min. memory needed in ccsd:               1265322
 Max. memory used in ccsd:                 1555950
 Max. memory used in cckext:               2415326 (24 integral passes)



 **********************************************************************************************************************************
 DATASETS  * FILE   NREC   LENGTH (MB)   RECORD NAMES
              1      20     1044.69       500      610      700      900      950      970     1000      129      960     1100   
                                          VAR    BASINP    GEOM    SYMINP    ZMAT    AOBASIS   BASIS     P2S    ABASIS      S 
                                         1400     1410     1200     1210     1080     1600     1650     1300     1700     1380   
                                           T        V       H0       H01     AOSYM     SMH    MOLCAS    ERIS     OPER     JKOP   

              2       4        3.27       700     1000      520     2100   
                                         GEOM     BASIS   MCVARS     RHF  

 PROGRAMS   *        TOTAL   CCSD(T)        HF       INT
 CPU TIMES  *        69.78     48.04     10.56     11.09
 REAL TIME  *        80.16 SEC
 DISK USED  *         3.13 GB      
 **********************************************************************************************************************************

 CCSD(T)/aug-cc-pVQZ energy=   -130.342553393313

        CCSD(T)         HF-SCF  
   -130.34255339   -129.84599400
 **********************************************************************************************************************************
 Molpro calculation terminated
 Variable memory released
