
 Primary working directories    : /tmp/r2666/282055.maple
 Secondary working directories  : /tmp/r2666/282055.maple
 Wavefunction directory         : /ddn/home4/r2666/wfu/
 Main file repository           : /tmp/r2666/282055.maple/

 SHA1      : d5ffa45e93fdbca01ffc919aa182cfdae0147319
 NAME      : 2015.1.35
 ARCHNAME  : linux/x86_64
 FC        : /opt/intel/composer_xe_2015.1.133/bin/intel64/ifort
 BLASLIB   : -Wl,-_start-group /opt/intel/mkl/lib/intel64/libmkl_intel_ilp64.a /opt/intel/mkl/lib/intel64/libmkl_intel_thread.a /opt/intel/mkl/lib/intel64/libmkl_core.a -Wl,-_end-group
 id        : olemiss

 Nodes     nprocs
 cn086        1

 Using customized tuning parameters: mindgm=1; mindgv=20; mindgc=4; mindgr=1; noblas=0; minvec=7
 default implementation of scratch files=df  

 ***,hno CCSD(T)/TZ-F12 QFF
 memory, 995, m;
 gthresh,energy=1.d-12,zero=1.d-22,oneint=1.d-22,twoint=1.d-22;
 gthresh,optgrad=1.d-8,optstep=1.d-8;
 nocompress;
 geomtyp=xyz
 bohr
 geometry={
 3
         81        81
 H        0.0000000000        1.6688795811       -1.9406390226
 N        0.0000000000       -0.1560496014       -1.1519683068
 O        0.0000000000        0.0289378102        1.1420177384
 }
 
 basis=avqz
   {hf,maxit=500;accu,20;}
 {ccsd(t),nocheck,maxit=250;orbital,IGNORE_ERROR;}

 Variables initialized (889), CPU time= 0.01 sec
 Commands  initialized (702), CPU time= 0.00 sec, 572 directives.
 Default parameters read. Elapsed time= 0.05 sec

 Checking input...
 Passed
1


                                         ***  PROGRAM SYSTEM MOLPRO  ***
                                       Copyright, TTI GmbH Stuttgart, 2015
                                    Version 2015.1 linked Jul  9 2018 13:16:40


 **********************************************************************************************************************************
 LABEL *   hno CCSD(T)/TZ-F12 QFF                                                        
  64 bit serial version                                                                  DATE: 04-Mar-20          TIME: 13:43:34  
 **********************************************************************************************************************************

 SHA1:             d5ffa45e93fdbca01ffc919aa182cfdae0147319
 **********************************************************************************************************************************

 THRESHOLDS:

 ZERO    =  1.00D-22  ONEINT  =  1.00D-22  TWOINT  =  1.00D-22  PREFAC  =  1.00D-14  LOCALI  =  1.00D-09  EORDER  =  1.00D-04
 ENERGY  =  1.00D-12  ETEST   =  0.00D+00  EDENS   =  0.00D+00  THRDEDEF=  1.00D-06  GRADIENT=  1.00D-02  STEP    =  1.00D-03
 ORBITAL =  1.00D-05  CIVEC   =  1.00D-05  COEFF   =  1.00D-04  PRINTCI =  5.00D-02  PUNCHCI =  9.90D+01  OPTGRAD =  3.00D-04
 OPTENERG=  1.00D-06  OPTSTEP =  3.00D-04  THRGRAD =  1.00D-10  COMPRESS=  1.00D-11  VARMIN  =  1.00D-07  VARMAX  =  1.00D-03
 THRDOUB =  0.00D+00  THRDIV  =  1.00D-05  THRRED  =  1.00D-07  THRPSP  =  1.00D+00  THRDC   =  1.00D-10  THRCS   =  1.00D-10
 THRNRM  =  1.00D-08  THREQ   =  0.00D+00  THRDE   =  1.00D+00  THRREF  =  1.00D-05  SPARFAC =  1.00D+00  THRDLP  =  1.00D-07
 THRDIA  =  1.00D-10  THRDLS  =  1.00D-07  THRGPS  =  0.00D+00  THRKEX  =  0.00D+00  THRDIS  =  2.00D-01  THRVAR  =  1.00D-10
 THRLOC  =  1.00D-06  THRGAP  =  1.00D-06  THRLOCT = -1.00D+00  THRGAPT = -1.00D+00  THRORB  =  1.00D-06  THRMLTP =  0.00D+00
 THRCPQCI=  1.00D-10  KEXTA   =  0.00D+00  THRCOARS=  0.00D+00  SYMTOL  =  1.00D-06  GRADTOL =  1.00D-06  THROVL  =  1.00D-08
 THRORTH =  1.00D-08  GRID    =  1.00D-06  GRIDMAX =  1.00D-03  DTMAX   =  0.00D+00  THROCCDE=  1.00D-01  THROCCDE=  1.00D-01



 THRESHOLDS:

 ZERO    =  1.00D-22  ONEINT  =  1.00D-22  TWOINT  =  1.00D-22  PREFAC  =  1.00D-14  LOCALI  =  1.00D-09  EORDER  =  1.00D-04
 ENERGY  =  1.00D-12  ETEST   =  0.00D+00  EDENS   =  0.00D+00  THRDEDEF=  1.00D-06  GRADIENT=  1.00D-02  STEP    =  1.00D-03
 ORBITAL =  1.00D-05  CIVEC   =  1.00D-05  COEFF   =  1.00D-04  PRINTCI =  5.00D-02  PUNCHCI =  9.90D+01  OPTGRAD =  1.00D-08
 OPTENERG=  1.00D-06  OPTSTEP =  1.00D-08  THRGRAD =  1.00D-10  COMPRESS=  1.00D-11  VARMIN  =  1.00D-07  VARMAX  =  1.00D-03
 THRDOUB =  0.00D+00  THRDIV  =  1.00D-05  THRRED  =  1.00D-07  THRPSP  =  1.00D+00  THRDC   =  1.00D-10  THRCS   =  1.00D-10
 THRNRM  =  1.00D-08  THREQ   =  0.00D+00  THRDE   =  1.00D+00  THRREF  =  1.00D-05  SPARFAC =  1.00D+00  THRDLP  =  1.00D-07
 THRDIA  =  1.00D-10  THRDLS  =  1.00D-07  THRGPS  =  0.00D+00  THRKEX  =  0.00D+00  THRDIS  =  2.00D-01  THRVAR  =  1.00D-10
 THRLOC  =  1.00D-06  THRGAP  =  1.00D-06  THRLOCT = -1.00D+00  THRGAPT = -1.00D+00  THRORB  =  1.00D-06  THRMLTP =  0.00D+00
 THRCPQCI=  1.00D-10  KEXTA   =  0.00D+00  THRCOARS=  0.00D+00  SYMTOL  =  1.00D-06  GRADTOL =  1.00D-06  THROVL  =  1.00D-08
 THRORTH =  1.00D-08  GRID    =  1.00D-06  GRIDMAX =  1.00D-03  DTMAX   =  0.00D+00  THROCCDE=  1.00D-01  THROCCDE=  1.00D-01



 Input parameters for SORTINT:

 COMPRESS =    0.000000
 C_FINAL  =    1.000000
 DEBUG    =   -1.000000
 C_SORT1  =    0.000000
 C_SEWARD =    0.000000
 THRESH   =    0.000000
 IO       =  molpro                                                          
 SPRI     =    0.000000
 SETTING GEOMTYP        =    XYZ
 ZUNIT=BOHR
 

 Variable memory set to  995000000 words,  buffer space   230000 words

 SETTING BASIS          =    AVQZ


 Recomputing integrals since basis changed


 Using spherical harmonics

 Library entry H      S aug-cc-pVQZ          selected for orbital group  1
 Library entry H      P aug-cc-pVQZ          selected for orbital group  1
 Library entry H      D aug-cc-pVQZ          selected for orbital group  1
 Library entry H      F aug-cc-pVQZ          selected for orbital group  1
 Library entry N      S aug-cc-pVQZ          selected for orbital group  2
 Library entry N      P aug-cc-pVQZ          selected for orbital group  2
 Library entry N      D aug-cc-pVQZ          selected for orbital group  2
 Library entry N      F aug-cc-pVQZ          selected for orbital group  2
 Library entry N      G aug-cc-pVQZ          selected for orbital group  2
 Library entry O      S aug-cc-pVQZ          selected for orbital group  3
 Library entry O      P aug-cc-pVQZ          selected for orbital group  3
 Library entry O      D aug-cc-pVQZ          selected for orbital group  3
 Library entry O      F aug-cc-pVQZ          selected for orbital group  3
 Library entry O      G aug-cc-pVQZ          selected for orbital group  3


 PROGRAM * SEWARD (Integral evaluation for generally contracted gaussian basis sets)     Author: Roland Lindh, 1990

 Geometry written to block  1 of record 700


 Point group  Cs  



 ATOMIC COORDINATES

 NR  ATOM    CHARGE       X              Y              Z

   1  H       1.00    0.000000000    1.668879581   -1.940639023
   2  N       7.00    0.000000000   -0.156049601   -1.151968307
   3  O       8.00    0.000000000    0.028937810    1.142017738

 Bond lengths in Bohr (Angstrom)

 1-2  1.988056342  2-3  2.301432666
     ( 1.052034110)     ( 1.217865720)

 Bond angles

  1-2-3  108.76195129

 NUCLEAR CHARGE:                   16
 NUMBER OF PRIMITIVE AOS:         293
 NUMBER OF SYMMETRY AOS:          234
 NUMBER OF CONTRACTIONS:          206   ( 130A'  +  76A"  )
 NUMBER OF CORE ORBITALS:           2   (   2A'  +   0A"  )
 NUMBER OF VALENCE ORBITALS:        9   (   7A'  +   2A"  )


 NUCLEAR REPULSION ENERGY   30.14482386

 Eigenvalues of metric

         1 0.602E-04 0.147E-03 0.321E-03 0.437E-03 0.601E-03 0.685E-03 0.102E-02 0.110E-02
         2 0.849E-03 0.163E-02 0.503E-02 0.899E-02 0.101E-01 0.125E-01 0.128E-01 0.191E-01


 Contracted 2-electron integrals neglected if value below      1.0D-22

      109945081. INTEGRALS WRITTEN OUT IN   26849 BLOCKS ON RECORD 1290 OF FILE 1


 NUMBER OF SORTED TWO-ELECTRON INTEGRALS:  115283741.     BUFFER LENGTH:  32768
 NUMBER OF SEGMENTS:   8  SEGMENT LENGTH:   15998004      RECORD LENGTH: 524288

 Memory used in sort:      16.56 MW

 SORT1 READ   109945081. AND WROTE   110865248. INTEGRALS IN    322 RECORDS. CPU TIME:     1.78 SEC, REAL TIME:     2.53 SEC
 SORT2 READ   110865248. AND WROTE   115283741. INTEGRALS IN      8 RECORDS. CPU TIME:     1.24 SEC, REAL TIME:     1.76 SEC

 FILE SIZES:   FILE 1:  1780.6 MBYTE,  FILE 4:  1350.6 MBYTE,   TOTAL:   3131.2 MBYTE

 OPERATOR DM      FOR CENTER  0  COORDINATES:    0.000000    0.000000    0.000000


 **********************************************************************************************************************************
 DATASETS  * FILE   NREC   LENGTH (MB)   RECORD NAMES
              1      19      944.14       500      610      700      900      950      970     1000      129      960     1100   
                                          VAR    BASINP    GEOM    SYMINP    ZMAT    AOBASIS   BASIS     P2S    ABASIS      S 
                                         1400     1410     1200     1210     1080     1600     1650     1300     1700   
                                           T        V       H0       H01     AOSYM     SMH    MOLCAS    ERIS     OPER   

 PROGRAMS   *        TOTAL       INT
 CPU TIMES  *        10.48     10.39
 REAL TIME  *        13.23 SEC
 DISK USED  *         3.13 GB      
 **********************************************************************************************************************************


 PROGRAM * RHF-SCF (CLOSED SHELL)       Authors: W. Meyer, H.-J. Werner


 NUMBER OF ELECTRONS:       8+    8-
 CONVERGENCE THRESHOLDS:    1.00E-10 (Density)    1.00E-13 (Energy)
 MAX. NUMBER OF ITERATIONS:      500
 INTERPOLATION TYPE:            DIIS
 INTERPOLATION STEPS:              2 (START)      1 (STEP)
 LEVEL SHIFTS:                  0.00 (CLOSED)  0.00 (OPEN) 



 Orbital guess generated from atomic densities. Full valence occupancy:    9   2

 Molecular orbital dump at record        2100.2

 Initial occupancy:   7   1

 ITERATION    DDIFF          GRAD             ENERGY        2-EL.EN.            DIPOLE MOMENTS         DIIS   ORB.
    1      0.000D+00      0.000D+00      -129.79369824    153.556897    0.00000    0.60386   -1.05990    0    start
    2      0.000D+00      0.820D-02      -129.82061436    154.771694    0.00000    0.61601   -0.20498    1    diag
    3      0.667D-02      0.639D-02      -129.84517958    154.916868    0.00000    0.56330   -0.61086    2    diag
    4      0.343D-02      0.986D-03      -129.84600771    154.623438    0.00000    0.57016   -0.54766    3    diag
    5      0.615D-03      0.320D-03      -129.84613806    154.718186    0.00000    0.57554   -0.55013    4    diag
    6      0.257D-03      0.925D-04      -129.84615887    154.701883    0.00000    0.57579   -0.54576    5    diag
    7      0.980D-04      0.465D-04      -129.84616507    154.704550    0.00000    0.57700   -0.54302    6    diag
    8      0.680D-04      0.168D-04      -129.84616583    154.703821    0.00000    0.57704   -0.54191    7    diag
    9      0.276D-04      0.327D-05      -129.84616586    154.703695    0.00000    0.57700   -0.54167    8    diag
   10      0.564D-05      0.732D-06      -129.84616586    154.703676    0.00000    0.57697   -0.54164    9    orth
   11      0.106D-05      0.144D-06      -129.84616586    154.703673    0.00000    0.57696   -0.54164    9    diag
   12      0.189D-06      0.298D-07      -129.84616586    154.703673    0.00000    0.57696   -0.54164    9    diag
   13      0.404D-07      0.790D-08      -129.84616586    154.703673    0.00000    0.57696   -0.54164    9    diag
   14      0.114D-07      0.155D-08      -129.84616586    154.703672    0.00000    0.57696   -0.54164    9    diag
   15      0.206D-08      0.440D-09      -129.84616586    154.703672    0.00000    0.57696   -0.54164    9    diag
   16      0.621D-09      0.129D-09      -129.84616586    154.703672    0.00000    0.57696   -0.54164    9    diag
   17      0.111D-09      0.323D-10      -129.84616586    154.703672    0.00000    0.57696   -0.54164    9    diag
   18      0.292D-10      0.106D-10      -129.84616586    154.703672    0.00000    0.57696   -0.54164    9    diag
   19      0.138D-10      0.241D-11      -129.84616586    154.703672    0.00000    0.57696   -0.54164    9    fixocc
   20      0.486D-11      0.367D-12      -129.84616586    154.703672    0.00000    0.57696   -0.54164    0    orth

 Final occupancy:   7   1

 !RHF STATE 1.1 Energy               -129.846165864584
 Nuclear energy                        30.14482386
 One-electron energy                 -237.34282595
 Two-electron energy                   77.35183622
 Virial quotient                       -1.00205197
 !RHF STATE 1.1 Dipole moment           0.00000000     0.57695723    -0.54164109
 Dipole moment /Debye                   0.00000000     1.46638295    -1.37662415

 Orbital energies:

         1.1          2.1          3.1          4.1          5.1          6.1          7.1          8.1          9.1
    -20.654767   -15.714245    -1.521283    -0.997187    -0.744206    -0.663384    -0.433155     0.026185     0.079434

         1.2          2.2          3.2
     -0.591350     0.060671     0.109997

 HOMO      7.1    -0.433155 =     -11.7867eV
 LUMO      8.1     0.026185 =       0.7125eV
 LUMO-HOMO         0.459340 =      12.4993eV


 **********************************************************************************************************************************
 DATASETS  * FILE   NREC   LENGTH (MB)   RECORD NAMES
              1      19      944.14       500      610      700      900      950      970     1000      129      960     1100   
                                          VAR    BASINP    GEOM    SYMINP    ZMAT    AOBASIS   BASIS     P2S    ABASIS      S 
                                         1400     1410     1200     1210     1080     1600     1650     1300     1700   
                                           T        V       H0       H01     AOSYM     SMH    MOLCAS    ERIS     OPER   

              2       4        3.27       700     1000      520     2100   
                                         GEOM     BASIS   MCVARS     RHF  

 PROGRAMS   *        TOTAL        HF       INT
 CPU TIMES  *        19.82      9.34     10.39
 REAL TIME  *        25.35 SEC
 DISK USED  *         3.13 GB      
 **********************************************************************************************************************************


 PROGRAM * CCSD (Closed-shell coupled cluster)     Authors: C. Hampel, H.-J. Werner, 1991, M. Deegan, P.J. Knowles, 1992


 Convergence thresholds:  THRVAR = 1.00D-08  THRDEN = 1.00D-12

 CCSD(T)     terms to be evaluated (factor= 1.000)


 Number of core orbitals:           2 (   2   0 )
 Number of closed-shell orbitals:   6 (   5   1 )
 Number of external orbitals:     198 ( 123  75 )

 Molecular orbitals read from record     2100.2  Type=RHF/CANONICAL (state 1.1)

 Number of N-1 electron functions:               6
 Number of N-2 electron functions:              21
 Number of singly external CSFs:               690
 Number of doubly external CSFs:            362646
 Total number of CSFs:                      363337

 Length of J-op  integral file:               0.00 MB
 Length of K-op  integral file:               1.60 MB
 Length of 3-ext integral record:             0.00 MB

 Memory could be reduced to 34.67 Mwords without degradation in triples

 Integral transformation finished. Total CPU:   1.42 sec, npass=  1  Memory used:   9.53 MW

 Reference energy:                   -129.84616586

 MP2 singlet pair energy:              -0.30263774
 MP2 triplet pair energy:              -0.17112090
 MP2 correlation energy:               -0.47375864
 MP2 total energy:                   -130.31992451

 SCS-MP2 correlation energy:           -0.46964052   (PS=  1.200000  PT=  0.333333)
 SCS-MP2 total energy:               -130.31580638

 ITER.      SQ.NORM     CORR.ENERGY   TOTAL ENERGY   ENERGY CHANGE        DEN1      VAR(S)    VAR(P)  DIIS     TIME  TIME/IT
   1      1.12212008    -0.47339073  -130.31955660     0.00036791     0.01723438  0.33D-02  0.33D-02  1  1     2.57     1.29
   2      1.13308464    -0.47325993  -130.31942579     0.00013080    -0.01276712  0.11D-03  0.51D-03  2  2     3.74     1.31
   3      1.13960783    -0.47365517  -130.31982104    -0.00039525    -0.00311125  0.52D-04  0.56D-04  3  3     4.92     1.32
   4      1.14249090    -0.47366209  -130.31982795    -0.00000692    -0.00096996  0.48D-05  0.10D-04  4  4     6.12     1.32
   5      1.14366394    -0.47369372  -130.31985958    -0.00003163    -0.00025466  0.12D-05  0.17D-05  5  5     7.28     1.32
   6      1.14403945    -0.47367764  -130.31984351     0.00001608    -0.00005408  0.12D-06  0.40D-06  6  6     8.48     1.33
   7      1.14411422    -0.47367820  -130.31984406    -0.00000056     0.00000293  0.17D-07  0.93D-07  6  1     9.66     1.33
   8      1.14413764    -0.47367845  -130.31984432    -0.00000026    -0.00000126  0.34D-08  0.19D-07  6  2    10.76     1.33
   9      1.14414283    -0.47367803  -130.31984389     0.00000043     0.00000106  0.27D-08  0.23D-08  6  4    11.94     1.33
  10      1.14414546    -0.47367842  -130.31984428    -0.00000039    -0.00000081  0.52D-09  0.28D-09  6  3    13.13     1.33
  11      1.14414522    -0.47367848  -130.31984434    -0.00000006    -0.00000014  0.17D-09  0.40D-10  6  5    14.29     1.33
  12      1.14414421    -0.47367863  -130.31984450    -0.00000015     0.00000038  0.21D-10  0.12D-10  6  6    15.45     1.33
  13      1.14414330    -0.47367868  -130.31984454    -0.00000004     0.00000023  0.64D-11  0.26D-11  6  1    16.63     1.33
  14      1.14414257    -0.47367871  -130.31984458    -0.00000004     0.00000017  0.40D-12  0.55D-12  6  4    17.79     1.33
  15      1.14414234    -0.47367872  -130.31984458    -0.00000001     0.00000004  0.88D-13  0.44D-13  6  2    18.95     1.33
  16      1.14414228    -0.47367872  -130.31984459    -0.00000000     0.00000001  0.24D-13  0.80D-14  6  3    20.13     1.33
  17      1.14414226    -0.47367872  -130.31984459    -0.00000000     0.00000001  0.43D-14  0.11D-14  6  5    21.27     1.33
  18      1.14414225    -0.47367872  -130.31984459    -0.00000000     0.00000000  0.93D-15  0.27D-15  6  6    22.43     1.33
  19      1.14414225    -0.47367872  -130.31984459    -0.00000000     0.00000000  0.12D-15  0.56D-16  6  1    23.59     1.33
  20      1.14414225    -0.47367872  -130.31984459     0.00000000    -0.00000000  0.11D-16  0.83D-17  6  4    24.75     1.33
  21      1.14414225    -0.47367872  -130.31984459     0.00000000    -0.00000000  0.55D-18  0.70D-18  6  3    25.92     1.33
  22      1.14414225    -0.47367872  -130.31984459     0.00000000    -0.00000000  0.14D-18  0.15D-18  6  2    27.08     1.33
  23      1.14414225    -0.47367872  -130.31984459     0.00000000     0.00000000  0.40D-19  0.56D-19  6  5    28.29     1.33
  24      1.14414225    -0.47367872  -130.31984459    -0.00000000     0.00000000  0.31D-20  0.12D-19  6  1    29.51     1.33

 Norm of t1 vector:      0.07861416      S-energy:    -0.00000000      T1 diagnostic:  0.01604705
                                                                       D1 diagnostic:  0.04355159

 Doubles amplitudes (print threshold =  0.500E-01):

         I         J         SYM. A    SYM. B    A         B      T(IJ, AB)

         6         6         2         2         1         1     -0.10390681


 Total CPU time for triples:     14.51 sec


 RESULTS
 =======

  Reference energy                   -129.846165864584
  CCSD singlet pair energy             -0.327648685537
  CCSD triplet pair energy             -0.146030036886
  CCSD correlation energy              -0.473678722424

  Triples (T) contribution             -0.022686914434
  Total correlation energy             -0.496365636858

  CCSD total energy                  -130.319844587008
  CCSD[T] energy                     -130.343652957410
  CCSD-T energy                      -130.342134877822
 !CCSD(T) total energy               -130.342531501442

 Timing summary (sec):

 STEP                 CPU(USER)    SYS     CPU(TOT)    WALL
 Transformation          1.43      0.28      1.71      3.01
 CCSD iterations        28.09      3.83     31.92     31.91
 Triples                14.51      0.42     14.93     14.93

 Program statistics:

 Available memory in ccsd:               994999756
 Min. memory needed in ccsd:               1265322
 Max. memory used in ccsd:                 1555950
 Max. memory used in cckext:               2415326 (24 integral passes)



 **********************************************************************************************************************************
 DATASETS  * FILE   NREC   LENGTH (MB)   RECORD NAMES
              1      20     1044.69       500      610      700      900      950      970     1000      129      960     1100   
                                          VAR    BASINP    GEOM    SYMINP    ZMAT    AOBASIS   BASIS     P2S    ABASIS      S 
                                         1400     1410     1200     1210     1080     1600     1650     1300     1700     1380   
                                           T        V       H0       H01     AOSYM     SMH    MOLCAS    ERIS     OPER     JKOP   

              2       4        3.27       700     1000      520     2100   
                                         GEOM     BASIS   MCVARS     RHF  

 PROGRAMS   *        TOTAL   CCSD(T)        HF       INT
 CPU TIMES  *        63.87     44.04      9.34     10.39
 REAL TIME  *        75.25 SEC
 DISK USED  *         3.13 GB      
 **********************************************************************************************************************************

 CCSD(T)/aug-cc-pVQZ energy=   -130.342531501442

        CCSD(T)         HF-SCF  
   -130.34253150   -129.84616586
 **********************************************************************************************************************************
 Molpro calculation terminated
 Variable memory released
