
 Primary working directories    : /tmp/r2666/282025.maple
 Secondary working directories  : /tmp/r2666/282025.maple
 Wavefunction directory         : /ddn/home4/r2666/wfu/
 Main file repository           : /tmp/r2666/282025.maple/

 SHA1      : d5ffa45e93fdbca01ffc919aa182cfdae0147319
 NAME      : 2015.1.35
 ARCHNAME  : linux/x86_64
 FC        : /opt/intel/composer_xe_2015.1.133/bin/intel64/ifort
 BLASLIB   : -Wl,-_start-group /opt/intel/mkl/lib/intel64/libmkl_intel_ilp64.a /opt/intel/mkl/lib/intel64/libmkl_intel_thread.a /opt/intel/mkl/lib/intel64/libmkl_core.a -Wl,-_end-group
 id        : olemiss

 Nodes     nprocs
 cn083        1

 Using customized tuning parameters: mindgm=1; mindgv=20; mindgc=4; mindgr=1; noblas=0; minvec=7
 default implementation of scratch files=df  

 ***,hno CCSD(T)/TZ-F12 QFF
 memory, 995, m;
 gthresh,energy=1.d-12,zero=1.d-22,oneint=1.d-22,twoint=1.d-22;
 gthresh,optgrad=1.d-8,optstep=1.d-8;
 nocompress;
 geomtyp=xyz
 bohr
 geometry={
 3
         51        51
 H        0.0000000000        1.6650243097       -1.9213150022
 N        0.0000000000       -0.1638476599       -1.1418309818
 O        0.0000000000        0.0405911403        1.1125563930
 }
 
 basis=avqz
   {hf,maxit=500;accu,20;}
 {ccsd(t),nocheck,maxit=250;orbital,IGNORE_ERROR;}

 Variables initialized (889), CPU time= 0.00 sec
 Commands  initialized (702), CPU time= 0.02 sec, 572 directives.
 Default parameters read. Elapsed time= 0.05 sec

 Checking input...
 Passed
1


                                         ***  PROGRAM SYSTEM MOLPRO  ***
                                       Copyright, TTI GmbH Stuttgart, 2015
                                    Version 2015.1 linked Jul  9 2018 13:16:40


 **********************************************************************************************************************************
 LABEL *   hno CCSD(T)/TZ-F12 QFF                                                        
  64 bit serial version                                                                  DATE: 04-Mar-20          TIME: 13:41:44  
 **********************************************************************************************************************************

 SHA1:             d5ffa45e93fdbca01ffc919aa182cfdae0147319
 **********************************************************************************************************************************

 THRESHOLDS:

 ZERO    =  1.00D-22  ONEINT  =  1.00D-22  TWOINT  =  1.00D-22  PREFAC  =  1.00D-14  LOCALI  =  1.00D-09  EORDER  =  1.00D-04
 ENERGY  =  1.00D-12  ETEST   =  0.00D+00  EDENS   =  0.00D+00  THRDEDEF=  1.00D-06  GRADIENT=  1.00D-02  STEP    =  1.00D-03
 ORBITAL =  1.00D-05  CIVEC   =  1.00D-05  COEFF   =  1.00D-04  PRINTCI =  5.00D-02  PUNCHCI =  9.90D+01  OPTGRAD =  3.00D-04
 OPTENERG=  1.00D-06  OPTSTEP =  3.00D-04  THRGRAD =  1.00D-10  COMPRESS=  1.00D-11  VARMIN  =  1.00D-07  VARMAX  =  1.00D-03
 THRDOUB =  0.00D+00  THRDIV  =  1.00D-05  THRRED  =  1.00D-07  THRPSP  =  1.00D+00  THRDC   =  1.00D-10  THRCS   =  1.00D-10
 THRNRM  =  1.00D-08  THREQ   =  0.00D+00  THRDE   =  1.00D+00  THRREF  =  1.00D-05  SPARFAC =  1.00D+00  THRDLP  =  1.00D-07
 THRDIA  =  1.00D-10  THRDLS  =  1.00D-07  THRGPS  =  0.00D+00  THRKEX  =  0.00D+00  THRDIS  =  2.00D-01  THRVAR  =  1.00D-10
 THRLOC  =  1.00D-06  THRGAP  =  1.00D-06  THRLOCT = -1.00D+00  THRGAPT = -1.00D+00  THRORB  =  1.00D-06  THRMLTP =  0.00D+00
 THRCPQCI=  1.00D-10  KEXTA   =  0.00D+00  THRCOARS=  0.00D+00  SYMTOL  =  1.00D-06  GRADTOL =  1.00D-06  THROVL  =  1.00D-08
 THRORTH =  1.00D-08  GRID    =  1.00D-06  GRIDMAX =  1.00D-03  DTMAX   =  0.00D+00  THROCCDE=  1.00D-01  THROCCDE=  1.00D-01



 THRESHOLDS:

 ZERO    =  1.00D-22  ONEINT  =  1.00D-22  TWOINT  =  1.00D-22  PREFAC  =  1.00D-14  LOCALI  =  1.00D-09  EORDER  =  1.00D-04
 ENERGY  =  1.00D-12  ETEST   =  0.00D+00  EDENS   =  0.00D+00  THRDEDEF=  1.00D-06  GRADIENT=  1.00D-02  STEP    =  1.00D-03
 ORBITAL =  1.00D-05  CIVEC   =  1.00D-05  COEFF   =  1.00D-04  PRINTCI =  5.00D-02  PUNCHCI =  9.90D+01  OPTGRAD =  1.00D-08
 OPTENERG=  1.00D-06  OPTSTEP =  1.00D-08  THRGRAD =  1.00D-10  COMPRESS=  1.00D-11  VARMIN  =  1.00D-07  VARMAX  =  1.00D-03
 THRDOUB =  0.00D+00  THRDIV  =  1.00D-05  THRRED  =  1.00D-07  THRPSP  =  1.00D+00  THRDC   =  1.00D-10  THRCS   =  1.00D-10
 THRNRM  =  1.00D-08  THREQ   =  0.00D+00  THRDE   =  1.00D+00  THRREF  =  1.00D-05  SPARFAC =  1.00D+00  THRDLP  =  1.00D-07
 THRDIA  =  1.00D-10  THRDLS  =  1.00D-07  THRGPS  =  0.00D+00  THRKEX  =  0.00D+00  THRDIS  =  2.00D-01  THRVAR  =  1.00D-10
 THRLOC  =  1.00D-06  THRGAP  =  1.00D-06  THRLOCT = -1.00D+00  THRGAPT = -1.00D+00  THRORB  =  1.00D-06  THRMLTP =  0.00D+00
 THRCPQCI=  1.00D-10  KEXTA   =  0.00D+00  THRCOARS=  0.00D+00  SYMTOL  =  1.00D-06  GRADTOL =  1.00D-06  THROVL  =  1.00D-08
 THRORTH =  1.00D-08  GRID    =  1.00D-06  GRIDMAX =  1.00D-03  DTMAX   =  0.00D+00  THROCCDE=  1.00D-01  THROCCDE=  1.00D-01



 Input parameters for SORTINT:

 COMPRESS =    0.000000
 C_FINAL  =    1.000000
 DEBUG    =   -1.000000
 C_SORT1  =    0.000000
 C_SEWARD =    0.000000
 THRESH   =    0.000000
 IO       =  molpro                                                          
 SPRI     =    0.000000
 SETTING GEOMTYP        =    XYZ
 ZUNIT=BOHR
 

 Variable memory set to  995000000 words,  buffer space   230000 words

 SETTING BASIS          =    AVQZ


 Recomputing integrals since basis changed


 Using spherical harmonics

 Library entry H      S aug-cc-pVQZ          selected for orbital group  1
 Library entry H      P aug-cc-pVQZ          selected for orbital group  1
 Library entry H      D aug-cc-pVQZ          selected for orbital group  1
 Library entry H      F aug-cc-pVQZ          selected for orbital group  1
 Library entry N      S aug-cc-pVQZ          selected for orbital group  2
 Library entry N      P aug-cc-pVQZ          selected for orbital group  2
 Library entry N      D aug-cc-pVQZ          selected for orbital group  2
 Library entry N      F aug-cc-pVQZ          selected for orbital group  2
 Library entry N      G aug-cc-pVQZ          selected for orbital group  2
 Library entry O      S aug-cc-pVQZ          selected for orbital group  3
 Library entry O      P aug-cc-pVQZ          selected for orbital group  3
 Library entry O      D aug-cc-pVQZ          selected for orbital group  3
 Library entry O      F aug-cc-pVQZ          selected for orbital group  3
 Library entry O      G aug-cc-pVQZ          selected for orbital group  3


 PROGRAM * SEWARD (Integral evaluation for generally contracted gaussian basis sets)     Author: Roland Lindh, 1990

 Geometry written to block  1 of record 700


 Point group  Cs  



 ATOMIC COORDINATES

 NR  ATOM    CHARGE       X              Y              Z

   1  H       1.00    0.000000000    1.665024310   -1.921315002
   2  N       7.00    0.000000000   -0.163847660   -1.141830982
   3  O       8.00    0.000000000    0.040591140    1.112556393

 Bond lengths in Bohr (Angstrom)

 1-2  1.988056342  2-3  2.263638147
     ( 1.052034110)     ( 1.197865721)

 Bond angles

  1-2-3  107.90251459

 NUCLEAR CHARGE:                   16
 NUMBER OF PRIMITIVE AOS:         293
 NUMBER OF SYMMETRY AOS:          234
 NUMBER OF CONTRACTIONS:          206   ( 130A'  +  76A"  )
 NUMBER OF CORE ORBITALS:           2   (   2A'  +   0A"  )
 NUMBER OF VALENCE ORBITALS:        9   (   7A'  +   2A"  )


 NUCLEAR REPULSION ENERGY   30.58460601

 Eigenvalues of metric

         1 0.585E-04 0.144E-03 0.314E-03 0.434E-03 0.572E-03 0.677E-03 0.994E-03 0.106E-02
         2 0.797E-03 0.162E-02 0.483E-02 0.888E-02 0.101E-01 0.120E-01 0.123E-01 0.184E-01


 Contracted 2-electron integrals neglected if value below      1.0D-22

      109945072. INTEGRALS WRITTEN OUT IN   26849 BLOCKS ON RECORD 1290 OF FILE 1


 NUMBER OF SORTED TWO-ELECTRON INTEGRALS:  115283741.     BUFFER LENGTH:  32768
 NUMBER OF SEGMENTS:   8  SEGMENT LENGTH:   15998004      RECORD LENGTH: 524288

 Memory used in sort:      16.56 MW

 SORT1 READ   109945072. AND WROTE   110865239. INTEGRALS IN    322 RECORDS. CPU TIME:     1.91 SEC, REAL TIME:     2.77 SEC
 SORT2 READ   110865239. AND WROTE   115283741. INTEGRALS IN      8 RECORDS. CPU TIME:     1.36 SEC, REAL TIME:     1.93 SEC

 FILE SIZES:   FILE 1:  1780.6 MBYTE,  FILE 4:  1350.6 MBYTE,   TOTAL:   3131.2 MBYTE

 OPERATOR DM      FOR CENTER  0  COORDINATES:    0.000000    0.000000    0.000000


 **********************************************************************************************************************************
 DATASETS  * FILE   NREC   LENGTH (MB)   RECORD NAMES
              1      19      944.14       500      610      700      900      950      970     1000      129      960     1100   
                                          VAR    BASINP    GEOM    SYMINP    ZMAT    AOBASIS   BASIS     P2S    ABASIS      S 
                                         1400     1410     1200     1210     1080     1600     1650     1300     1700   
                                           T        V       H0       H01     AOSYM     SMH    MOLCAS    ERIS     OPER   

 PROGRAMS   *        TOTAL       INT
 CPU TIMES  *        11.28     11.18
 REAL TIME  *        14.24 SEC
 DISK USED  *         3.13 GB      
 **********************************************************************************************************************************


 PROGRAM * RHF-SCF (CLOSED SHELL)       Authors: W. Meyer, H.-J. Werner


 NUMBER OF ELECTRONS:       8+    8-
 CONVERGENCE THRESHOLDS:    1.00E-10 (Density)    1.00E-13 (Energy)
 MAX. NUMBER OF ITERATIONS:      500
 INTERPOLATION TYPE:            DIIS
 INTERPOLATION STEPS:              2 (START)      1 (STEP)
 LEVEL SHIFTS:                  0.00 (CLOSED)  0.00 (OPEN) 



 Orbital guess generated from atomic densities. Full valence occupancy:    9   2

 Molecular orbital dump at record        2100.2

 Initial occupancy:   7   1

 ITERATION    DDIFF          GRAD             ENERGY        2-EL.EN.            DIPOLE MOMENTS         DIIS   ORB.
    1      0.000D+00      0.000D+00      -129.79934902    154.349073    0.00000    0.58742   -0.99322    0    start
    2      0.000D+00      0.802D-02      -129.82691072    155.599172    0.00000    0.60412   -0.21078    1    diag
    3      0.640D-02      0.599D-02      -129.84821395    155.699855    0.00000    0.55070   -0.57732    2    diag
    4      0.324D-02      0.958D-03      -129.84899417    155.422683    0.00000    0.55848   -0.51782    3    diag
    5      0.597D-03      0.312D-03      -129.84911660    155.515265    0.00000    0.56377   -0.52056    4    diag
    6      0.248D-03      0.901D-04      -129.84913608    155.499232    0.00000    0.56410   -0.51656    5    diag
    7      0.946D-04      0.444D-04      -129.84914161    155.502089    0.00000    0.56536   -0.51409    6    diag
    8      0.648D-04      0.150D-04      -129.84914219    155.501427    0.00000    0.56541   -0.51314    7    diag
    9      0.238D-04      0.285D-05      -129.84914221    155.501320    0.00000    0.56537   -0.51294    8    diag
   10      0.463D-05      0.660D-06      -129.84914221    155.501302    0.00000    0.56534   -0.51291    9    orth
   11      0.951D-06      0.134D-06      -129.84914221    155.501298    0.00000    0.56533   -0.51291    9    diag
   12      0.181D-06      0.271D-07      -129.84914221    155.501298    0.00000    0.56533   -0.51291    9    diag
   13      0.392D-07      0.689D-08      -129.84914221    155.501298    0.00000    0.56533   -0.51291    9    diag
   14      0.104D-07      0.138D-08      -129.84914221    155.501298    0.00000    0.56533   -0.51291    9    diag
   15      0.194D-08      0.404D-09      -129.84914221    155.501298    0.00000    0.56533   -0.51291    9    diag
   16      0.579D-09      0.125D-09      -129.84914221    155.501298    0.00000    0.56533   -0.51291    9    diag
   17      0.116D-09      0.345D-10      -129.84914221    155.501298    0.00000    0.56533   -0.51291    9    diag
   18      0.339D-10      0.116D-10      -129.84914221    155.501298    0.00000    0.56533   -0.51291    0    orth

 Final occupancy:   7   1

 !RHF STATE 1.1 Energy               -129.849142212806
 Nuclear energy                        30.58460601
 One-electron energy                 -238.18439730
 Two-electron energy                   77.75064907
 Virial quotient                       -1.00142827
 !RHF STATE 1.1 Dipole moment           0.00000000     0.56533038    -0.51290540
 Dipole moment /Debye                   0.00000000     1.43683238    -1.30359010

 Orbital energies:

         1.1          2.1          3.1          4.1          5.1          6.1          7.1          8.1          9.1
    -20.652633   -15.710963    -1.538095    -0.991991    -0.750349    -0.668955    -0.427594     0.026512     0.079513

         1.2          2.2          3.2
     -0.600970     0.065859     0.110971

 HOMO      7.1    -0.427594 =     -11.6354eV
 LUMO      8.1     0.026512 =       0.7214eV
 LUMO-HOMO         0.454107 =      12.3569eV


 **********************************************************************************************************************************
 DATASETS  * FILE   NREC   LENGTH (MB)   RECORD NAMES
              1      19      944.14       500      610      700      900      950      970     1000      129      960     1100   
                                          VAR    BASINP    GEOM    SYMINP    ZMAT    AOBASIS   BASIS     P2S    ABASIS      S 
                                         1400     1410     1200     1210     1080     1600     1650     1300     1700   
                                           T        V       H0       H01     AOSYM     SMH    MOLCAS    ERIS     OPER   

              2       4        3.27       700     1000      520     2100   
                                         GEOM     BASIS   MCVARS     RHF  

 PROGRAMS   *        TOTAL        HF       INT
 CPU TIMES  *        20.52      9.24     11.18
 REAL TIME  *        25.87 SEC
 DISK USED  *         3.13 GB      
 **********************************************************************************************************************************


 PROGRAM * CCSD (Closed-shell coupled cluster)     Authors: C. Hampel, H.-J. Werner, 1991, M. Deegan, P.J. Knowles, 1992


 Convergence thresholds:  THRVAR = 1.00D-08  THRDEN = 1.00D-12

 CCSD(T)     terms to be evaluated (factor= 1.000)


 Number of core orbitals:           2 (   2   0 )
 Number of closed-shell orbitals:   6 (   5   1 )
 Number of external orbitals:     198 ( 123  75 )

 Molecular orbitals read from record     2100.2  Type=RHF/CANONICAL (state 1.1)

 Number of N-1 electron functions:               6
 Number of N-2 electron functions:              21
 Number of singly external CSFs:               690
 Number of doubly external CSFs:            362646
 Total number of CSFs:                      363337

 Length of J-op  integral file:               0.00 MB
 Length of K-op  integral file:               1.60 MB
 Length of 3-ext integral record:             0.00 MB

 Memory could be reduced to 34.67 Mwords without degradation in triples

 Integral transformation finished. Total CPU:   1.53 sec, npass=  1  Memory used:   9.53 MW

 Reference energy:                   -129.84914221

 MP2 singlet pair energy:              -0.30059053
 MP2 triplet pair energy:              -0.16975080
 MP2 correlation energy:               -0.47034134
 MP2 total energy:                   -130.31948355

 SCS-MP2 correlation energy:           -0.46633136   (PS=  1.200000  PT=  0.333333)
 SCS-MP2 total energy:               -130.31547358

 ITER.      SQ.NORM     CORR.ENERGY   TOTAL ENERGY   ENERGY CHANGE        DEN1      VAR(S)    VAR(P)  DIIS     TIME  TIME/IT
   1      1.11994578    -0.47077026  -130.31991247    -0.00042892     0.01555168  0.30D-02  0.31D-02  1  1     2.78     1.40
   2      1.13039641    -0.47081194  -130.31995416    -0.00004168    -0.01224475  0.98D-04  0.48D-03  2  2     4.07     1.43
   3      1.13650296    -0.47117416  -130.32031637    -0.00036222    -0.00298498  0.46D-04  0.51D-04  3  3     5.38     1.44
   4      1.13914068    -0.47118079  -130.32032300    -0.00000663    -0.00090528  0.40D-05  0.91D-05  4  4     6.66     1.45
   5      1.14016724    -0.47120838  -130.32035060    -0.00002760    -0.00022487  0.11D-05  0.16D-05  5  5     7.95     1.45
   6      1.14050326    -0.47119475  -130.32033696     0.00001364    -0.00004807  0.10D-06  0.39D-06  6  6     9.23     1.46
   7      1.14057528    -0.47119509  -130.32033730    -0.00000034     0.00000207  0.17D-07  0.86D-07  6  1    10.52     1.46
   8      1.14059744    -0.47119550  -130.32033772    -0.00000041    -0.00000104  0.35D-08  0.16D-07  6  2    11.82     1.46
   9      1.14060242    -0.47119514  -130.32033735     0.00000036     0.00000086  0.24D-08  0.18D-08  6  4    13.11     1.47
  10      1.14060471    -0.47119550  -130.32033772    -0.00000036    -0.00000069  0.42D-09  0.21D-09  6  3    14.41     1.47
  11      1.14060439    -0.47119557  -130.32033778    -0.00000006    -0.00000009  0.13D-09  0.31D-10  6  5    15.69     1.47
  12      1.14060347    -0.47119570  -130.32033791    -0.00000013     0.00000034  0.17D-10  0.94D-11  6  6    17.01     1.47
  13      1.14060269    -0.47119573  -130.32033795    -0.00000004     0.00000020  0.52D-11  0.20D-11  6  1    18.27     1.47
  14      1.14060208    -0.47119576  -130.32033797    -0.00000003     0.00000014  0.37D-12  0.40D-12  6  4    19.58     1.47
  15      1.14060190    -0.47119577  -130.32033798    -0.00000001     0.00000003  0.81D-13  0.31D-13  6  2    20.90     1.47
  16      1.14060185    -0.47119577  -130.32033798    -0.00000000     0.00000001  0.23D-13  0.61D-14  6  3    22.14     1.47
  17      1.14060183    -0.47119577  -130.32033798    -0.00000000     0.00000001  0.39D-14  0.98D-15  6  5    23.44     1.47
  18      1.14060183    -0.47119577  -130.32033798     0.00000000     0.00000000  0.75D-15  0.26D-15  6  6    24.73     1.47
  19      1.14060183    -0.47119577  -130.32033798     0.00000000    -0.00000000  0.78D-16  0.49D-16  6  1    26.01     1.47
  20      1.14060183    -0.47119577  -130.32033798     0.00000000    -0.00000000  0.85D-17  0.71D-17  6  4    27.28     1.47
  21      1.14060183    -0.47119577  -130.32033798     0.00000000    -0.00000000  0.48D-18  0.59D-18  6  3    28.61     1.47
  22      1.14060183    -0.47119577  -130.32033798     0.00000000    -0.00000000  0.12D-18  0.13D-18  6  2    29.91     1.47
  23      1.14060183    -0.47119577  -130.32033798     0.00000000    -0.00000000  0.90D-20  0.28D-19  6  1    31.22     1.48
  24      1.14060183    -0.47119577  -130.32033798    -0.00000000     0.00000000  0.13D-20  0.54D-20  6  5    32.53     1.48

 Norm of t1 vector:      0.07506932      S-energy:     0.00000000      T1 diagnostic:  0.01532346
                                                                       D1 diagnostic:  0.04083256

 Doubles amplitudes (print threshold =  0.500E-01):

         I         J         SYM. A    SYM. B    A         B      T(IJ, AB)

         6         6         2         2         1         1     -0.09298996


 Total CPU time for triples:     17.19 sec


 RESULTS
 =======

  Reference energy                   -129.849142212806
  CCSD singlet pair energy             -0.325494779420
  CCSD triplet pair energy             -0.145700991435
  CCSD correlation energy              -0.471195770853

  Triples (T) contribution             -0.022042178828
  Total correlation energy             -0.493237949681

  CCSD total energy                  -130.320337983659
  CCSD[T] energy                     -130.343409186772
  CCSD-T energy                      -130.342005666317
 !CCSD(T) total energy               -130.342380162487

 Timing summary (sec):

 STEP                 CPU(USER)    SYS     CPU(TOT)    WALL
 Transformation          1.55      0.29      1.84      1.84
 CCSD iterations        30.98      4.51     35.49     35.51
 Triples                17.19      0.45     17.64     17.63

 Program statistics:

 Available memory in ccsd:               994999756
 Min. memory needed in ccsd:               1265322
 Max. memory used in ccsd:                 1555950
 Max. memory used in cckext:               2415326 (24 integral passes)



 **********************************************************************************************************************************
 DATASETS  * FILE   NREC   LENGTH (MB)   RECORD NAMES
              1      20     1044.69       500      610      700      900      950      970     1000      129      960     1100   
                                          VAR    BASINP    GEOM    SYMINP    ZMAT    AOBASIS   BASIS     P2S    ABASIS      S 
                                         1400     1410     1200     1210     1080     1600     1650     1300     1700     1380   
                                           T        V       H0       H01     AOSYM     SMH    MOLCAS    ERIS     OPER     JKOP   

              2       4        3.27       700     1000      520     2100   
                                         GEOM     BASIS   MCVARS     RHF  

 PROGRAMS   *        TOTAL   CCSD(T)        HF       INT
 CPU TIMES  *        70.26     49.74      9.24     11.18
 REAL TIME  *        80.88 SEC
 DISK USED  *         3.13 GB      
 **********************************************************************************************************************************

 CCSD(T)/aug-cc-pVQZ energy=   -130.342380162487

        CCSD(T)         HF-SCF  
   -130.34238016   -129.84914221
 **********************************************************************************************************************************
 Molpro calculation terminated
 Variable memory released
