
 Primary working directories    : /tmp/r2666/282033.maple
 Secondary working directories  : /tmp/r2666/282033.maple
 Wavefunction directory         : /ddn/home4/r2666/wfu/
 Main file repository           : /tmp/r2666/282033.maple/

 SHA1      : d5ffa45e93fdbca01ffc919aa182cfdae0147319
 NAME      : 2015.1.35
 ARCHNAME  : linux/x86_64
 FC        : /opt/intel/composer_xe_2015.1.133/bin/intel64/ifort
 BLASLIB   : -Wl,-_start-group /opt/intel/mkl/lib/intel64/libmkl_intel_ilp64.a /opt/intel/mkl/lib/intel64/libmkl_intel_thread.a /opt/intel/mkl/lib/intel64/libmkl_core.a -Wl,-_end-group
 id        : olemiss

 Nodes     nprocs
 cn086        1

 Using customized tuning parameters: mindgm=1; mindgv=20; mindgc=4; mindgr=1; noblas=0; minvec=7
 default implementation of scratch files=df  

 ***,hno CCSD(T)/TZ-F12 QFF
 memory, 995, m;
 gthresh,energy=1.d-12,zero=1.d-22,oneint=1.d-22,twoint=1.d-22;
 gthresh,optgrad=1.d-8,optstep=1.d-8;
 nocompress;
 geomtyp=xyz
 bohr
 geometry={
 3
         59        59
 H        0.0000000000        1.6662496134       -1.9305597149
 N        0.0000000000       -0.1589172208       -1.1424391362
 O        0.0000000000        0.0344353974        1.1224092601
 }
 
 basis=avqz
   {hf,maxit=500;accu,20;}
 {ccsd(t),nocheck,maxit=250;orbital,IGNORE_ERROR;}

 Variables initialized (889), CPU time= 0.01 sec
 Commands  initialized (702), CPU time= 0.01 sec, 572 directives.
 Default parameters read. Elapsed time= 0.06 sec

 Checking input...
 Passed
1


                                         ***  PROGRAM SYSTEM MOLPRO  ***
                                       Copyright, TTI GmbH Stuttgart, 2015
                                    Version 2015.1 linked Jul  9 2018 13:16:40


 **********************************************************************************************************************************
 LABEL *   hno CCSD(T)/TZ-F12 QFF                                                        
  64 bit serial version                                                                  DATE: 04-Mar-20          TIME: 13:42:17  
 **********************************************************************************************************************************

 SHA1:             d5ffa45e93fdbca01ffc919aa182cfdae0147319
 **********************************************************************************************************************************

 THRESHOLDS:

 ZERO    =  1.00D-22  ONEINT  =  1.00D-22  TWOINT  =  1.00D-22  PREFAC  =  1.00D-14  LOCALI  =  1.00D-09  EORDER  =  1.00D-04
 ENERGY  =  1.00D-12  ETEST   =  0.00D+00  EDENS   =  0.00D+00  THRDEDEF=  1.00D-06  GRADIENT=  1.00D-02  STEP    =  1.00D-03
 ORBITAL =  1.00D-05  CIVEC   =  1.00D-05  COEFF   =  1.00D-04  PRINTCI =  5.00D-02  PUNCHCI =  9.90D+01  OPTGRAD =  3.00D-04
 OPTENERG=  1.00D-06  OPTSTEP =  3.00D-04  THRGRAD =  1.00D-10  COMPRESS=  1.00D-11  VARMIN  =  1.00D-07  VARMAX  =  1.00D-03
 THRDOUB =  0.00D+00  THRDIV  =  1.00D-05  THRRED  =  1.00D-07  THRPSP  =  1.00D+00  THRDC   =  1.00D-10  THRCS   =  1.00D-10
 THRNRM  =  1.00D-08  THREQ   =  0.00D+00  THRDE   =  1.00D+00  THRREF  =  1.00D-05  SPARFAC =  1.00D+00  THRDLP  =  1.00D-07
 THRDIA  =  1.00D-10  THRDLS  =  1.00D-07  THRGPS  =  0.00D+00  THRKEX  =  0.00D+00  THRDIS  =  2.00D-01  THRVAR  =  1.00D-10
 THRLOC  =  1.00D-06  THRGAP  =  1.00D-06  THRLOCT = -1.00D+00  THRGAPT = -1.00D+00  THRORB  =  1.00D-06  THRMLTP =  0.00D+00
 THRCPQCI=  1.00D-10  KEXTA   =  0.00D+00  THRCOARS=  0.00D+00  SYMTOL  =  1.00D-06  GRADTOL =  1.00D-06  THROVL  =  1.00D-08
 THRORTH =  1.00D-08  GRID    =  1.00D-06  GRIDMAX =  1.00D-03  DTMAX   =  0.00D+00  THROCCDE=  1.00D-01  THROCCDE=  1.00D-01



 THRESHOLDS:

 ZERO    =  1.00D-22  ONEINT  =  1.00D-22  TWOINT  =  1.00D-22  PREFAC  =  1.00D-14  LOCALI  =  1.00D-09  EORDER  =  1.00D-04
 ENERGY  =  1.00D-12  ETEST   =  0.00D+00  EDENS   =  0.00D+00  THRDEDEF=  1.00D-06  GRADIENT=  1.00D-02  STEP    =  1.00D-03
 ORBITAL =  1.00D-05  CIVEC   =  1.00D-05  COEFF   =  1.00D-04  PRINTCI =  5.00D-02  PUNCHCI =  9.90D+01  OPTGRAD =  1.00D-08
 OPTENERG=  1.00D-06  OPTSTEP =  1.00D-08  THRGRAD =  1.00D-10  COMPRESS=  1.00D-11  VARMIN  =  1.00D-07  VARMAX  =  1.00D-03
 THRDOUB =  0.00D+00  THRDIV  =  1.00D-05  THRRED  =  1.00D-07  THRPSP  =  1.00D+00  THRDC   =  1.00D-10  THRCS   =  1.00D-10
 THRNRM  =  1.00D-08  THREQ   =  0.00D+00  THRDE   =  1.00D+00  THRREF  =  1.00D-05  SPARFAC =  1.00D+00  THRDLP  =  1.00D-07
 THRDIA  =  1.00D-10  THRDLS  =  1.00D-07  THRGPS  =  0.00D+00  THRKEX  =  0.00D+00  THRDIS  =  2.00D-01  THRVAR  =  1.00D-10
 THRLOC  =  1.00D-06  THRGAP  =  1.00D-06  THRLOCT = -1.00D+00  THRGAPT = -1.00D+00  THRORB  =  1.00D-06  THRMLTP =  0.00D+00
 THRCPQCI=  1.00D-10  KEXTA   =  0.00D+00  THRCOARS=  0.00D+00  SYMTOL  =  1.00D-06  GRADTOL =  1.00D-06  THROVL  =  1.00D-08
 THRORTH =  1.00D-08  GRID    =  1.00D-06  GRIDMAX =  1.00D-03  DTMAX   =  0.00D+00  THROCCDE=  1.00D-01  THROCCDE=  1.00D-01



 Input parameters for SORTINT:

 COMPRESS =    0.000000
 C_FINAL  =    1.000000
 DEBUG    =   -1.000000
 C_SORT1  =    0.000000
 C_SEWARD =    0.000000
 THRESH   =    0.000000
 IO       =  molpro                                                          
 SPRI     =    0.000000
 SETTING GEOMTYP        =    XYZ
 ZUNIT=BOHR
 

 Variable memory set to  995000000 words,  buffer space   230000 words

 SETTING BASIS          =    AVQZ


 Recomputing integrals since basis changed


 Using spherical harmonics

 Library entry H      S aug-cc-pVQZ          selected for orbital group  1
 Library entry H      P aug-cc-pVQZ          selected for orbital group  1
 Library entry H      D aug-cc-pVQZ          selected for orbital group  1
 Library entry H      F aug-cc-pVQZ          selected for orbital group  1
 Library entry N      S aug-cc-pVQZ          selected for orbital group  2
 Library entry N      P aug-cc-pVQZ          selected for orbital group  2
 Library entry N      D aug-cc-pVQZ          selected for orbital group  2
 Library entry N      F aug-cc-pVQZ          selected for orbital group  2
 Library entry N      G aug-cc-pVQZ          selected for orbital group  2
 Library entry O      S aug-cc-pVQZ          selected for orbital group  3
 Library entry O      P aug-cc-pVQZ          selected for orbital group  3
 Library entry O      D aug-cc-pVQZ          selected for orbital group  3
 Library entry O      F aug-cc-pVQZ          selected for orbital group  3
 Library entry O      G aug-cc-pVQZ          selected for orbital group  3


 PROGRAM * SEWARD (Integral evaluation for generally contracted gaussian basis sets)     Author: Roland Lindh, 1990

 Geometry written to block  1 of record 700


 Point group  Cs  



 ATOMIC COORDINATES

 NR  ATOM    CHARGE       X              Y              Z

   1  H       1.00    0.000000000    1.666249613   -1.930559715
   2  N       7.00    0.000000000   -0.158917221   -1.142439136
   3  O       8.00    0.000000000    0.034435397    1.122409260

 Bond lengths in Bohr (Angstrom)

 1-2  1.988056342  2-3  2.273086776
     ( 1.052034110)     ( 1.202865721)

 Bond angles

  1-2-3  108.47547239

 NUCLEAR CHARGE:                   16
 NUMBER OF PRIMITIVE AOS:         293
 NUMBER OF SYMMETRY AOS:          234
 NUMBER OF CONTRACTIONS:          206   ( 130A'  +  76A"  )
 NUMBER OF CORE ORBITALS:           2   (   2A'  +   0A"  )
 NUMBER OF VALENCE ORBITALS:        9   (   7A'  +   2A"  )


 NUCLEAR REPULSION ENERGY   30.46812648

 Eigenvalues of metric

         1 0.589E-04 0.144E-03 0.316E-03 0.434E-03 0.578E-03 0.678E-03 0.100E-02 0.107E-02
         2 0.810E-03 0.162E-02 0.487E-02 0.891E-02 0.101E-01 0.121E-01 0.124E-01 0.186E-01


 Contracted 2-electron integrals neglected if value below      1.0D-22

      109945071. INTEGRALS WRITTEN OUT IN   26849 BLOCKS ON RECORD 1290 OF FILE 1


 NUMBER OF SORTED TWO-ELECTRON INTEGRALS:  115283741.     BUFFER LENGTH:  32768
 NUMBER OF SEGMENTS:   8  SEGMENT LENGTH:   15998004      RECORD LENGTH: 524288

 Memory used in sort:      16.56 MW

 SORT1 READ   109945071. AND WROTE   110865238. INTEGRALS IN    322 RECORDS. CPU TIME:     1.75 SEC, REAL TIME:     2.49 SEC
 SORT2 READ   110865238. AND WROTE   115283741. INTEGRALS IN      8 RECORDS. CPU TIME:     1.26 SEC, REAL TIME:     1.76 SEC

 FILE SIZES:   FILE 1:  1780.6 MBYTE,  FILE 4:  1350.6 MBYTE,   TOTAL:   3131.2 MBYTE

 OPERATOR DM      FOR CENTER  0  COORDINATES:    0.000000    0.000000    0.000000


 **********************************************************************************************************************************
 DATASETS  * FILE   NREC   LENGTH (MB)   RECORD NAMES
              1      19      944.14       500      610      700      900      950      970     1000      129      960     1100   
                                          VAR    BASINP    GEOM    SYMINP    ZMAT    AOBASIS   BASIS     P2S    ABASIS      S 
                                         1400     1410     1200     1210     1080     1600     1650     1300     1700   
                                           T        V       H0       H01     AOSYM     SMH    MOLCAS    ERIS     OPER   

 PROGRAMS   *        TOTAL       INT
 CPU TIMES  *        10.56     10.46
 REAL TIME  *        13.22 SEC
 DISK USED  *         3.13 GB      
 **********************************************************************************************************************************


 PROGRAM * RHF-SCF (CLOSED SHELL)       Authors: W. Meyer, H.-J. Werner


 NUMBER OF ELECTRONS:       8+    8-
 CONVERGENCE THRESHOLDS:    1.00E-10 (Density)    1.00E-13 (Energy)
 MAX. NUMBER OF ITERATIONS:      500
 INTERPOLATION TYPE:            DIIS
 INTERPOLATION STEPS:              2 (START)      1 (STEP)
 LEVEL SHIFTS:                  0.00 (CLOSED)  0.00 (OPEN) 



 Orbital guess generated from atomic densities. Full valence occupancy:    9   2

 Molecular orbital dump at record        2100.2

 Initial occupancy:   7   1

 ITERATION    DDIFF          GRAD             ENERGY        2-EL.EN.            DIPOLE MOMENTS         DIIS   ORB.
    1      0.000D+00      0.000D+00      -129.79811334    154.137506    0.00000    0.59461   -1.01058    0    start
    2      0.000D+00      0.807D-02      -129.82553871    155.381433    0.00000    0.60697   -0.21128    1    diag
    3      0.647D-02      0.608D-02      -129.84758085    155.492525    0.00000    0.55526   -0.58722    2    diag
    4      0.328D-02      0.966D-03      -129.84837418    155.211053    0.00000    0.56265   -0.52667    3    diag
    5      0.602D-03      0.314D-03      -129.84849852    155.304282    0.00000    0.56799   -0.52938    4    diag
    6      0.250D-03      0.906D-04      -129.84851831    155.288187    0.00000    0.56831   -0.52529    5    diag
    7      0.955D-04      0.449D-04      -129.84852399    155.290994    0.00000    0.56956   -0.52275    6    diag
    8      0.656D-04      0.155D-04      -129.84852461    155.290319    0.00000    0.56960   -0.52177    7    diag
    9      0.247D-04      0.295D-05      -129.84852464    155.290207    0.00000    0.56957   -0.52155    8    diag
   10      0.486D-05      0.680D-06      -129.84852464    155.290189    0.00000    0.56953   -0.52152    9    orth
   11      0.982D-06      0.137D-06      -129.84852464    155.290185    0.00000    0.56953   -0.52152    9    diag
   12      0.183D-06      0.276D-07      -129.84852464    155.290185    0.00000    0.56953   -0.52152    9    diag
   13      0.394D-07      0.707D-08      -129.84852464    155.290185    0.00000    0.56953   -0.52152    9    diag
   14      0.106D-07      0.140D-08      -129.84852464    155.290185    0.00000    0.56953   -0.52152    9    diag
   15      0.196D-08      0.405D-09      -129.84852464    155.290185    0.00000    0.56953   -0.52152    9    diag
   16      0.583D-09      0.124D-09      -129.84852464    155.290185    0.00000    0.56953   -0.52152    9    diag
   17      0.114D-09      0.332D-10      -129.84852464    155.290185    0.00000    0.56953   -0.52152    9    diag
   18      0.312D-10      0.113D-10      -129.84852464    155.290185    0.00000    0.56953   -0.52152    9    diag
   19      0.153D-10      0.279D-11      -129.84852464    155.290185    0.00000    0.56953   -0.52152    9    fixocc
   20      0.775D-11      0.492D-12      -129.84852464    155.290185    0.00000    0.56953   -0.52152    9    orth
   21      0.400D-11      0.212D-12      -129.84852464    155.290185    0.00000    0.56953   -0.52152    9    diag
   22      0.231D-11      0.142D-12      -129.84852464    155.290185    0.00000    0.56953   -0.52152    0    orth

 Final occupancy:   7   1

 !RHF STATE 1.1 Energy               -129.848524640523
 Nuclear energy                        30.46812648
 One-electron energy                 -237.96174355
 Two-electron energy                   77.64509243
 Virial quotient                       -1.00160066
 !RHF STATE 1.1 Dipole moment           0.00000000     0.56952533    -0.52152094
 Dipole moment /Debye                   0.00000000     1.44749419    -1.32548720

 Orbital energies:

         1.1          2.1          3.1          4.1          5.1          6.1          7.1          8.1          9.1
    -20.653264   -15.711718    -1.533644    -0.993512    -0.748762    -0.667634    -0.428770     0.026402     0.079485

         1.2          2.2          3.2
     -0.598476     0.064534     0.110682

 HOMO      7.1    -0.428770 =     -11.6674eV
 LUMO      8.1     0.026402 =       0.7184eV
 LUMO-HOMO         0.455172 =      12.3859eV


 **********************************************************************************************************************************
 DATASETS  * FILE   NREC   LENGTH (MB)   RECORD NAMES
              1      19      944.14       500      610      700      900      950      970     1000      129      960     1100   
                                          VAR    BASINP    GEOM    SYMINP    ZMAT    AOBASIS   BASIS     P2S    ABASIS      S 
                                         1400     1410     1200     1210     1080     1600     1650     1300     1700   
                                           T        V       H0       H01     AOSYM     SMH    MOLCAS    ERIS     OPER   

              2       4        3.27       700     1000      520     2100   
                                         GEOM     BASIS   MCVARS     RHF  

 PROGRAMS   *        TOTAL        HF       INT
 CPU TIMES  *        20.85     10.29     10.46
 REAL TIME  *        26.44 SEC
 DISK USED  *         3.13 GB      
 **********************************************************************************************************************************


 PROGRAM * CCSD (Closed-shell coupled cluster)     Authors: C. Hampel, H.-J. Werner, 1991, M. Deegan, P.J. Knowles, 1992


 Convergence thresholds:  THRVAR = 1.00D-08  THRDEN = 1.00D-12

 CCSD(T)     terms to be evaluated (factor= 1.000)


 Number of core orbitals:           2 (   2   0 )
 Number of closed-shell orbitals:   6 (   5   1 )
 Number of external orbitals:     198 ( 123  75 )

 Molecular orbitals read from record     2100.2  Type=RHF/CANONICAL (state 1.1)

 Number of N-1 electron functions:               6
 Number of N-2 electron functions:              21
 Number of singly external CSFs:               690
 Number of doubly external CSFs:            362646
 Total number of CSFs:                      363337

 Length of J-op  integral file:               0.00 MB
 Length of K-op  integral file:               1.60 MB
 Length of 3-ext integral record:             0.00 MB

 Memory could be reduced to 34.67 Mwords without degradation in triples

 Integral transformation finished. Total CPU:   1.34 sec, npass=  1  Memory used:   9.53 MW

 Reference energy:                   -129.84852464

 MP2 singlet pair energy:              -0.30109696
 MP2 triplet pair energy:              -0.17008935
 MP2 correlation energy:               -0.47118631
 MP2 total energy:                   -130.31971095

 SCS-MP2 correlation energy:           -0.46714972   (PS=  1.200000  PT=  0.333333)
 SCS-MP2 total energy:               -130.31567436

 ITER.      SQ.NORM     CORR.ENERGY   TOTAL ENERGY   ENERGY CHANGE        DEN1      VAR(S)    VAR(P)  DIIS     TIME  TIME/IT
   1      1.12049431    -0.47141905  -130.31994369    -0.00023275     0.01597029  0.31D-02  0.31D-02  1  1     2.48     1.27
   2      1.13107548    -0.47141812  -130.31994276     0.00000094    -0.01237580  0.10D-03  0.48D-03  2  2     3.67     1.29
   3      1.13728943    -0.47178912  -130.32031377    -0.00037101    -0.00301677  0.48D-04  0.52D-04  3  3     4.84     1.30
   4      1.13999033    -0.47179561  -130.32032025    -0.00000648    -0.00092200  0.42D-05  0.94D-05  4  4     5.99     1.31
   5      1.14105584    -0.47182421  -130.32034885    -0.00002860    -0.00023274  0.11D-05  0.16D-05  5  5     7.13     1.31
   6      1.14140292    -0.47180997  -130.32033461     0.00001424    -0.00004967  0.11D-06  0.40D-06  6  6     8.32     1.32
   7      1.14147624    -0.47181036  -130.32033500    -0.00000039     0.00000224  0.17D-07  0.89D-07  6  1     9.46     1.32
   8      1.14149888    -0.47181075  -130.32033539    -0.00000039    -0.00000111  0.36D-08  0.17D-07  6  2    10.65     1.32
   9      1.14150399    -0.47181037  -130.32033501     0.00000038     0.00000091  0.25D-08  0.19D-08  6  4    11.88     1.32
  10      1.14150638    -0.47181074  -130.32033538    -0.00000037    -0.00000073  0.45D-09  0.23D-09  6  3    13.05     1.32
  11      1.14150607    -0.47181080  -130.32033544    -0.00000006    -0.00000010  0.14D-09  0.33D-10  6  5    14.19     1.32
  12      1.14150512    -0.47181094  -130.32033558    -0.00000014     0.00000035  0.18D-10  0.10D-10  6  6    15.32     1.32
  13      1.14150430    -0.47181098  -130.32033562    -0.00000004     0.00000021  0.56D-11  0.22D-11  6  1    16.46     1.32
  14      1.14150365    -0.47181101  -130.32033565    -0.00000003     0.00000015  0.39D-12  0.44D-12  6  4    17.62     1.32
  15      1.14150345    -0.47181102  -130.32033566    -0.00000001     0.00000003  0.85D-13  0.34D-13  6  2    18.79     1.32
  16      1.14150341    -0.47181102  -130.32033566    -0.00000000     0.00000001  0.24D-13  0.66D-14  6  3    19.95     1.32
  17      1.14150338    -0.47181102  -130.32033566    -0.00000000     0.00000001  0.41D-14  0.10D-14  6  5    21.12     1.32
  18      1.14150338    -0.47181102  -130.32033566     0.00000000     0.00000000  0.81D-15  0.26D-15  6  6    22.27     1.32
  19      1.14150338    -0.47181102  -130.32033566     0.00000000     0.00000000  0.89D-16  0.52D-16  6  1    23.48     1.32
  20      1.14150338    -0.47181102  -130.32033566     0.00000000    -0.00000000  0.93D-17  0.76D-17  6  4    24.67     1.32
  21      1.14150338    -0.47181102  -130.32033566     0.00000000    -0.00000000  0.50D-18  0.65D-18  6  3    25.86     1.32
  22      1.14150338    -0.47181102  -130.32033566     0.00000000    -0.00000000  0.13D-18  0.15D-18  6  2    26.99     1.32
  23      1.14150338    -0.47181102  -130.32033566     0.00000000    -0.00000000  0.96D-20  0.33D-19  6  1    28.15     1.32
  24      1.14150338    -0.47181102  -130.32033566    -0.00000000     0.00000000  0.16D-20  0.62D-20  6  5    29.32     1.32

 Norm of t1 vector:      0.07602376      S-energy:     0.00000000      T1 diagnostic:  0.01551828
                                                                       D1 diagnostic:  0.04152573

 Doubles amplitudes (print threshold =  0.500E-01):

         I         J         SYM. A    SYM. B    A         B      T(IJ, AB)

         6         6         2         2         1         1     -0.09581186


 Total CPU time for triples:     14.28 sec


 RESULTS
 =======

  Reference energy                   -129.848524640523
  CCSD singlet pair energy             -0.326028766267
  CCSD triplet pair energy             -0.145782251113
  CCSD correlation energy              -0.471811017378

  Triples (T) contribution             -0.022204813436
  Total correlation energy             -0.494015830814

  CCSD total energy                  -130.320335657902
  CCSD[T] energy                     -130.343593542128
  CCSD-T energy                      -130.342160030632
 !CCSD(T) total energy               -130.342540471338

 Timing summary (sec):

 STEP                 CPU(USER)    SYS     CPU(TOT)    WALL
 Transformation          1.36      0.30      1.66      1.75
 CCSD iterations        27.96      3.81     31.77     31.80
 Triples                14.28      0.43     14.71     14.70

 Program statistics:

 Available memory in ccsd:               994999756
 Min. memory needed in ccsd:               1265322
 Max. memory used in ccsd:                 1555950
 Max. memory used in cckext:               2415326 (24 integral passes)



 **********************************************************************************************************************************
 DATASETS  * FILE   NREC   LENGTH (MB)   RECORD NAMES
              1      20     1044.69       500      610      700      900      950      970     1000      129      960     1100   
                                          VAR    BASINP    GEOM    SYMINP    ZMAT    AOBASIS   BASIS     P2S    ABASIS      S 
                                         1400     1410     1200     1210     1080     1600     1650     1300     1700     1380   
                                           T        V       H0       H01     AOSYM     SMH    MOLCAS    ERIS     OPER     JKOP   

              2       4        3.27       700     1000      520     2100   
                                         GEOM     BASIS   MCVARS     RHF  

 PROGRAMS   *        TOTAL   CCSD(T)        HF       INT
 CPU TIMES  *        64.47     43.62     10.29     10.46
 REAL TIME  *        74.73 SEC
 DISK USED  *         3.13 GB      
 **********************************************************************************************************************************

 CCSD(T)/aug-cc-pVQZ energy=   -130.342540471338

        CCSD(T)         HF-SCF  
   -130.34254047   -129.84852464
 **********************************************************************************************************************************
 Molpro calculation terminated
 Variable memory released
