
 Primary working directories    : /tmp/r2666/282003.maple
 Secondary working directories  : /tmp/r2666/282003.maple
 Wavefunction directory         : /ddn/home4/r2666/wfu/
 Main file repository           : /tmp/r2666/282003.maple/

 SHA1      : d5ffa45e93fdbca01ffc919aa182cfdae0147319
 NAME      : 2015.1.35
 ARCHNAME  : linux/x86_64
 FC        : /opt/intel/composer_xe_2015.1.133/bin/intel64/ifort
 BLASLIB   : -Wl,-_start-group /opt/intel/mkl/lib/intel64/libmkl_intel_ilp64.a /opt/intel/mkl/lib/intel64/libmkl_intel_thread.a /opt/intel/mkl/lib/intel64/libmkl_core.a -Wl,-_end-group
 id        : olemiss

 Nodes     nprocs
 cn094        1

 Using customized tuning parameters: mindgm=1; mindgv=20; mindgc=4; mindgr=1; noblas=0; minvec=7
 default implementation of scratch files=df  

 ***,hno CCSD(T)/TZ-F12 QFF
 memory, 995, m;
 gthresh,energy=1.d-12,zero=1.d-22,oneint=1.d-22,twoint=1.d-22;
 gthresh,optgrad=1.d-8,optstep=1.d-8;
 nocompress;
 geomtyp=xyz
 bohr
 geometry={
 3
         29        29
 H        0.0000000000        1.6618972017       -1.9304819106
 N        0.0000000000       -0.1531542716       -1.1427785226
 O        0.0000000000        0.0330248599        1.1226708422
 }
 
 basis=avqz
   {hf,maxit=500;accu,20;}
 {ccsd(t),nocheck,maxit=250;orbital,IGNORE_ERROR;}

 Variables initialized (889), CPU time= 0.01 sec
 Commands  initialized (702), CPU time= 0.01 sec, 572 directives.
 Default parameters read. Elapsed time= 0.04 sec

 Checking input...
 Passed
1


                                         ***  PROGRAM SYSTEM MOLPRO  ***
                                       Copyright, TTI GmbH Stuttgart, 2015
                                    Version 2015.1 linked Jul  9 2018 13:16:40


 **********************************************************************************************************************************
 LABEL *   hno CCSD(T)/TZ-F12 QFF                                                        
  64 bit serial version                                                                  DATE: 04-Mar-20          TIME: 13:40:16  
 **********************************************************************************************************************************

 SHA1:             d5ffa45e93fdbca01ffc919aa182cfdae0147319
 **********************************************************************************************************************************

 THRESHOLDS:

 ZERO    =  1.00D-22  ONEINT  =  1.00D-22  TWOINT  =  1.00D-22  PREFAC  =  1.00D-14  LOCALI  =  1.00D-09  EORDER  =  1.00D-04
 ENERGY  =  1.00D-12  ETEST   =  0.00D+00  EDENS   =  0.00D+00  THRDEDEF=  1.00D-06  GRADIENT=  1.00D-02  STEP    =  1.00D-03
 ORBITAL =  1.00D-05  CIVEC   =  1.00D-05  COEFF   =  1.00D-04  PRINTCI =  5.00D-02  PUNCHCI =  9.90D+01  OPTGRAD =  3.00D-04
 OPTENERG=  1.00D-06  OPTSTEP =  3.00D-04  THRGRAD =  1.00D-10  COMPRESS=  1.00D-11  VARMIN  =  1.00D-07  VARMAX  =  1.00D-03
 THRDOUB =  0.00D+00  THRDIV  =  1.00D-05  THRRED  =  1.00D-07  THRPSP  =  1.00D+00  THRDC   =  1.00D-10  THRCS   =  1.00D-10
 THRNRM  =  1.00D-08  THREQ   =  0.00D+00  THRDE   =  1.00D+00  THRREF  =  1.00D-05  SPARFAC =  1.00D+00  THRDLP  =  1.00D-07
 THRDIA  =  1.00D-10  THRDLS  =  1.00D-07  THRGPS  =  0.00D+00  THRKEX  =  0.00D+00  THRDIS  =  2.00D-01  THRVAR  =  1.00D-10
 THRLOC  =  1.00D-06  THRGAP  =  1.00D-06  THRLOCT = -1.00D+00  THRGAPT = -1.00D+00  THRORB  =  1.00D-06  THRMLTP =  0.00D+00
 THRCPQCI=  1.00D-10  KEXTA   =  0.00D+00  THRCOARS=  0.00D+00  SYMTOL  =  1.00D-06  GRADTOL =  1.00D-06  THROVL  =  1.00D-08
 THRORTH =  1.00D-08  GRID    =  1.00D-06  GRIDMAX =  1.00D-03  DTMAX   =  0.00D+00  THROCCDE=  1.00D-01  THROCCDE=  1.00D-01



 THRESHOLDS:

 ZERO    =  1.00D-22  ONEINT  =  1.00D-22  TWOINT  =  1.00D-22  PREFAC  =  1.00D-14  LOCALI  =  1.00D-09  EORDER  =  1.00D-04
 ENERGY  =  1.00D-12  ETEST   =  0.00D+00  EDENS   =  0.00D+00  THRDEDEF=  1.00D-06  GRADIENT=  1.00D-02  STEP    =  1.00D-03
 ORBITAL =  1.00D-05  CIVEC   =  1.00D-05  COEFF   =  1.00D-04  PRINTCI =  5.00D-02  PUNCHCI =  9.90D+01  OPTGRAD =  1.00D-08
 OPTENERG=  1.00D-06  OPTSTEP =  1.00D-08  THRGRAD =  1.00D-10  COMPRESS=  1.00D-11  VARMIN  =  1.00D-07  VARMAX  =  1.00D-03
 THRDOUB =  0.00D+00  THRDIV  =  1.00D-05  THRRED  =  1.00D-07  THRPSP  =  1.00D+00  THRDC   =  1.00D-10  THRCS   =  1.00D-10
 THRNRM  =  1.00D-08  THREQ   =  0.00D+00  THRDE   =  1.00D+00  THRREF  =  1.00D-05  SPARFAC =  1.00D+00  THRDLP  =  1.00D-07
 THRDIA  =  1.00D-10  THRDLS  =  1.00D-07  THRGPS  =  0.00D+00  THRKEX  =  0.00D+00  THRDIS  =  2.00D-01  THRVAR  =  1.00D-10
 THRLOC  =  1.00D-06  THRGAP  =  1.00D-06  THRLOCT = -1.00D+00  THRGAPT = -1.00D+00  THRORB  =  1.00D-06  THRMLTP =  0.00D+00
 THRCPQCI=  1.00D-10  KEXTA   =  0.00D+00  THRCOARS=  0.00D+00  SYMTOL  =  1.00D-06  GRADTOL =  1.00D-06  THROVL  =  1.00D-08
 THRORTH =  1.00D-08  GRID    =  1.00D-06  GRIDMAX =  1.00D-03  DTMAX   =  0.00D+00  THROCCDE=  1.00D-01  THROCCDE=  1.00D-01



 Input parameters for SORTINT:

 COMPRESS =    0.000000
 C_FINAL  =    1.000000
 DEBUG    =   -1.000000
 C_SORT1  =    0.000000
 C_SEWARD =    0.000000
 THRESH   =    0.000000
 IO       =  molpro                                                          
 SPRI     =    0.000000
 SETTING GEOMTYP        =    XYZ
 ZUNIT=BOHR
 

 Variable memory set to  995000000 words,  buffer space   230000 words

 SETTING BASIS          =    AVQZ


 Recomputing integrals since basis changed


 Using spherical harmonics

 Library entry H      S aug-cc-pVQZ          selected for orbital group  1
 Library entry H      P aug-cc-pVQZ          selected for orbital group  1
 Library entry H      D aug-cc-pVQZ          selected for orbital group  1
 Library entry H      F aug-cc-pVQZ          selected for orbital group  1
 Library entry N      S aug-cc-pVQZ          selected for orbital group  2
 Library entry N      P aug-cc-pVQZ          selected for orbital group  2
 Library entry N      D aug-cc-pVQZ          selected for orbital group  2
 Library entry N      F aug-cc-pVQZ          selected for orbital group  2
 Library entry N      G aug-cc-pVQZ          selected for orbital group  2
 Library entry O      S aug-cc-pVQZ          selected for orbital group  3
 Library entry O      P aug-cc-pVQZ          selected for orbital group  3
 Library entry O      D aug-cc-pVQZ          selected for orbital group  3
 Library entry O      F aug-cc-pVQZ          selected for orbital group  3
 Library entry O      G aug-cc-pVQZ          selected for orbital group  3


 PROGRAM * SEWARD (Integral evaluation for generally contracted gaussian basis sets)     Author: Roland Lindh, 1990

 Geometry written to block  1 of record 700


 Point group  Cs  



 ATOMIC COORDINATES

 NR  ATOM    CHARGE       X              Y              Z

   1  H       1.00    0.000000000    1.661897202   -1.930481911
   2  N       7.00    0.000000000   -0.153154272   -1.142778523
   3  O       8.00    0.000000000    0.033024860    1.122670842

 Bond lengths in Bohr (Angstrom)

 1-2  1.978607712  2-3  2.273086776
     ( 1.047034111)     ( 1.202865721)

 Bond angles

  1-2-3  108.76195129

 NUCLEAR CHARGE:                   16
 NUMBER OF PRIMITIVE AOS:         293
 NUMBER OF SYMMETRY AOS:          234
 NUMBER OF CONTRACTIONS:          206   ( 130A'  +  76A"  )
 NUMBER OF CORE ORBITALS:           2   (   2A'  +   0A"  )
 NUMBER OF VALENCE ORBITALS:        9   (   7A'  +   2A"  )


 NUCLEAR REPULSION ENERGY   30.48575795

 Eigenvalues of metric

         1 0.585E-04 0.143E-03 0.315E-03 0.434E-03 0.576E-03 0.670E-03 0.994E-03 0.107E-02
         2 0.808E-03 0.160E-02 0.484E-02 0.890E-02 0.100E-01 0.121E-01 0.124E-01 0.183E-01


 Contracted 2-electron integrals neglected if value below      1.0D-22

      109945070. INTEGRALS WRITTEN OUT IN   26849 BLOCKS ON RECORD 1290 OF FILE 1


 NUMBER OF SORTED TWO-ELECTRON INTEGRALS:  115283741.     BUFFER LENGTH:  32768
 NUMBER OF SEGMENTS:   8  SEGMENT LENGTH:   15998004      RECORD LENGTH: 524288

 Memory used in sort:      16.56 MW

 SORT1 READ   109945070. AND WROTE   110865237. INTEGRALS IN    322 RECORDS. CPU TIME:     1.77 SEC, REAL TIME:     2.50 SEC
 SORT2 READ   110865237. AND WROTE   115283741. INTEGRALS IN      8 RECORDS. CPU TIME:     1.29 SEC, REAL TIME:     1.74 SEC

 FILE SIZES:   FILE 1:  1780.6 MBYTE,  FILE 4:  1350.6 MBYTE,   TOTAL:   3131.2 MBYTE

 OPERATOR DM      FOR CENTER  0  COORDINATES:    0.000000    0.000000    0.000000


 **********************************************************************************************************************************
 DATASETS  * FILE   NREC   LENGTH (MB)   RECORD NAMES
              1      19      944.14       500      610      700      900      950      970     1000      129      960     1100   
                                          VAR    BASINP    GEOM    SYMINP    ZMAT    AOBASIS   BASIS     P2S    ABASIS      S 
                                         1400     1410     1200     1210     1080     1600     1650     1300     1700   
                                           T        V       H0       H01     AOSYM     SMH    MOLCAS    ERIS     OPER   

 PROGRAMS   *        TOTAL       INT
 CPU TIMES  *        10.57     10.48
 REAL TIME  *        13.12 SEC
 DISK USED  *         3.13 GB      
 **********************************************************************************************************************************


 PROGRAM * RHF-SCF (CLOSED SHELL)       Authors: W. Meyer, H.-J. Werner


 NUMBER OF ELECTRONS:       8+    8-
 CONVERGENCE THRESHOLDS:    1.00E-10 (Density)    1.00E-13 (Energy)
 MAX. NUMBER OF ITERATIONS:      500
 INTERPOLATION TYPE:            DIIS
 INTERPOLATION STEPS:              2 (START)      1 (STEP)
 LEVEL SHIFTS:                  0.00 (CLOSED)  0.00 (OPEN) 



 Orbital guess generated from atomic densities. Full valence occupancy:    9   2

 Molecular orbital dump at record        2100.2

 Initial occupancy:   7   1

 ITERATION    DDIFF          GRAD             ENERGY        2-EL.EN.            DIPOLE MOMENTS         DIIS   ORB.
    1      0.000D+00      0.000D+00      -129.79851990    154.171685    0.00000    0.60025   -1.01063    0    start
    2      0.000D+00      0.805D-02      -129.82594189    155.410981    0.00000    0.60728   -0.21456    1    diag
    3      0.644D-02      0.605D-02      -129.84773918    155.523150    0.00000    0.55811   -0.58893    2    diag
    4      0.327D-02      0.967D-03      -129.84853232    155.242256    0.00000    0.56538   -0.52830    3    diag
    5      0.603D-03      0.313D-03      -129.84865563    155.335163    0.00000    0.57068   -0.53100    4    diag
    6      0.249D-03      0.901D-04      -129.84867518    155.319140    0.00000    0.57101   -0.52693    5    diag
    7      0.949D-04      0.447D-04      -129.84868080    155.321920    0.00000    0.57224   -0.52439    6    diag
    8      0.652D-04      0.154D-04      -129.84868141    155.321250    0.00000    0.57228   -0.52341    7    diag
    9      0.245D-04      0.293D-05      -129.84868144    155.321140    0.00000    0.57225   -0.52320    8    diag
   10      0.483D-05      0.677D-06      -129.84868144    155.321122    0.00000    0.57222   -0.52317    9    orth
   11      0.978D-06      0.136D-06      -129.84868144    155.321119    0.00000    0.57221   -0.52317    9    diag
   12      0.182D-06      0.273D-07      -129.84868144    155.321118    0.00000    0.57221   -0.52316    9    diag
   13      0.388D-07      0.697D-08      -129.84868144    155.321118    0.00000    0.57221   -0.52316    9    diag
   14      0.104D-07      0.138D-08      -129.84868144    155.321118    0.00000    0.57221   -0.52316    9    diag
   15      0.193D-08      0.398D-09      -129.84868144    155.321118    0.00000    0.57221   -0.52316    9    diag
   16      0.572D-09      0.121D-09      -129.84868144    155.321118    0.00000    0.57221   -0.52316    9    diag
   17      0.111D-09      0.321D-10      -129.84868144    155.321118    0.00000    0.57221   -0.52316    9    diag
   18      0.312D-10      0.109D-10      -129.84868144    155.321118    0.00000    0.57221   -0.52316    9    diag
   19      0.148D-10      0.268D-11      -129.84868144    155.321118    0.00000    0.57221   -0.52316    9    fixocc
   20      0.839D-11      0.508D-12      -129.84868144    155.321118    0.00000    0.57221   -0.52316    0    orth

 Final occupancy:   7   1

 !RHF STATE 1.1 Energy               -129.848681438898
 Nuclear energy                        30.48575795
 One-electron energy                 -237.99499855
 Two-electron energy                   77.66055916
 Virial quotient                       -1.00154870
 !RHF STATE 1.1 Dipole moment           0.00000000     0.57220658    -0.52316401
 Dipole moment /Debye                   0.00000000     1.45430881    -1.32966319

 Orbital energies:

         1.1          2.1          3.1          4.1          5.1          6.1          7.1          8.1          9.1
    -20.653235   -15.710983    -1.533551    -0.994965    -0.749290    -0.667691    -0.428864     0.026382     0.079480

         1.2          2.2          3.2
     -0.598362     0.064483     0.110565

 HOMO      7.1    -0.428864 =     -11.6700eV
 LUMO      8.1     0.026382 =       0.7179eV
 LUMO-HOMO         0.455246 =      12.3879eV


 **********************************************************************************************************************************
 DATASETS  * FILE   NREC   LENGTH (MB)   RECORD NAMES
              1      19      944.14       500      610      700      900      950      970     1000      129      960     1100   
                                          VAR    BASINP    GEOM    SYMINP    ZMAT    AOBASIS   BASIS     P2S    ABASIS      S 
                                         1400     1410     1200     1210     1080     1600     1650     1300     1700   
                                           T        V       H0       H01     AOSYM     SMH    MOLCAS    ERIS     OPER   

              2       4        3.27       700     1000      520     2100   
                                         GEOM     BASIS   MCVARS     RHF  

 PROGRAMS   *        TOTAL        HF       INT
 CPU TIMES  *        20.08      9.51     10.48
 REAL TIME  *        25.03 SEC
 DISK USED  *         3.13 GB      
 **********************************************************************************************************************************


 PROGRAM * CCSD (Closed-shell coupled cluster)     Authors: C. Hampel, H.-J. Werner, 1991, M. Deegan, P.J. Knowles, 1992


 Convergence thresholds:  THRVAR = 1.00D-08  THRDEN = 1.00D-12

 CCSD(T)     terms to be evaluated (factor= 1.000)


 Number of core orbitals:           2 (   2   0 )
 Number of closed-shell orbitals:   6 (   5   1 )
 Number of external orbitals:     198 ( 123  75 )

 Molecular orbitals read from record     2100.2  Type=RHF/CANONICAL (state 1.1)

 Number of N-1 electron functions:               6
 Number of N-2 electron functions:              21
 Number of singly external CSFs:               690
 Number of doubly external CSFs:            362646
 Total number of CSFs:                      363337

 Length of J-op  integral file:               0.00 MB
 Length of K-op  integral file:               1.60 MB
 Length of 3-ext integral record:             0.00 MB

 Memory could be reduced to 34.67 Mwords without degradation in triples

 Integral transformation finished. Total CPU:   1.36 sec, npass=  1  Memory used:   9.53 MW

 Reference energy:                   -129.84868144

 MP2 singlet pair energy:              -0.30098551
 MP2 triplet pair energy:              -0.17002206
 MP2 correlation energy:               -0.47100757
 MP2 total energy:                   -130.31968901

 SCS-MP2 correlation energy:           -0.46697412   (PS=  1.200000  PT=  0.333333)
 SCS-MP2 total energy:               -130.31565556

 ITER.      SQ.NORM     CORR.ENERGY   TOTAL ENERGY   ENERGY CHANGE        DEN1      VAR(S)    VAR(P)  DIIS     TIME  TIME/IT
   1      1.12033436    -0.47125319  -130.31993463    -0.00024562     0.01591929  0.31D-02  0.31D-02  1  1     2.50     1.27
   2      1.13088884    -0.47125450  -130.31993594    -0.00000131    -0.01235147  0.10D-03  0.48D-03  2  2     3.68     1.29
   3      1.13708025    -0.47162310  -130.32030454    -0.00036860    -0.00300705  0.47D-04  0.52D-04  3  3     4.85     1.30
   4      1.13977594    -0.47163014  -130.32031158    -0.00000704    -0.00091938  0.41D-05  0.94D-05  4  4     6.01     1.31
   5      1.14083781    -0.47165850  -130.32033994    -0.00002836    -0.00023177  0.11D-05  0.16D-05  5  5     7.18     1.31
   6      1.14118445    -0.47164430  -130.32032574     0.00001420    -0.00004959  0.10D-06  0.40D-06  6  6     8.34     1.31
   7      1.14125755    -0.47164478  -130.32032621    -0.00000048     0.00000230  0.16D-07  0.90D-07  6  1     9.50     1.32
   8      1.14128005    -0.47164519  -130.32032663    -0.00000042    -0.00000106  0.36D-08  0.17D-07  6  2    10.67     1.32
   9      1.14128505    -0.47164482  -130.32032626     0.00000037     0.00000090  0.25D-08  0.19D-08  6  4    11.84     1.32
  10      1.14128742    -0.47164520  -130.32032663    -0.00000037    -0.00000072  0.46D-09  0.23D-09  6  3    13.00     1.32
  11      1.14128711    -0.47164526  -130.32032670    -0.00000006    -0.00000010  0.14D-09  0.33D-10  6  5    14.15     1.32
  12      1.14128617    -0.47164539  -130.32032683    -0.00000014     0.00000035  0.18D-10  0.10D-10  6  6    15.33     1.32
  13      1.14128535    -0.47164543  -130.32032687    -0.00000004     0.00000021  0.56D-11  0.22D-11  6  1    16.47     1.32
  14      1.14128470    -0.47164546  -130.32032690    -0.00000003     0.00000015  0.39D-12  0.45D-12  6  4    17.61     1.32
  15      1.14128450    -0.47164547  -130.32032691    -0.00000001     0.00000003  0.82D-13  0.35D-13  6  2    18.76     1.32
  16      1.14128446    -0.47164547  -130.32032691    -0.00000000     0.00000001  0.23D-13  0.66D-14  6  3    19.93     1.32
  17      1.14128443    -0.47164547  -130.32032691    -0.00000000     0.00000001  0.40D-14  0.10D-14  6  5    21.10     1.32
  18      1.14128443    -0.47164547  -130.32032691    -0.00000000     0.00000000  0.80D-15  0.26D-15  6  6    22.29     1.32
  19      1.14128443    -0.47164547  -130.32032691     0.00000000     0.00000000  0.90D-16  0.51D-16  6  1    23.47     1.32
  20      1.14128443    -0.47164547  -130.32032691     0.00000000    -0.00000000  0.93D-17  0.75D-17  6  4    24.64     1.32
  21      1.14128443    -0.47164547  -130.32032691     0.00000000    -0.00000000  0.48D-18  0.66D-18  6  3    25.77     1.32
  22      1.14128443    -0.47164547  -130.32032691     0.00000000    -0.00000000  0.12D-18  0.15D-18  6  2    26.93     1.32
  23      1.14128443    -0.47164547  -130.32032691     0.00000000    -0.00000000  0.95D-20  0.33D-19  6  1    28.12     1.32
  24      1.14128443    -0.47164547  -130.32032691    -0.00000000     0.00000000  0.18D-20  0.62D-20  6  5    29.27     1.32

 Norm of t1 vector:      0.07589148      S-energy:     0.00000000      T1 diagnostic:  0.01549128
                                                                       D1 diagnostic:  0.04154211

 Doubles amplitudes (print threshold =  0.500E-01):

         I         J         SYM. A    SYM. B    A         B      T(IJ, AB)

         6         6         2         2         1         1     -0.09582346


 Total CPU time for triples:     14.07 sec


 RESULTS
 =======

  Reference energy                   -129.848681438898
  CCSD singlet pair energy             -0.325888651401
  CCSD triplet pair energy             -0.145756822961
  CCSD correlation energy              -0.471645474360

  Triples (T) contribution             -0.022174386481
  Total correlation energy             -0.493819860841

  CCSD total energy                  -130.320326913258
  CCSD[T] energy                     -130.343550750378
  CCSD-T energy                      -130.342122391178
 !CCSD(T) total energy               -130.342501299739

 Timing summary (sec):

 STEP                 CPU(USER)    SYS     CPU(TOT)    WALL
 Transformation          1.38      0.26      1.64      1.63
 CCSD iterations        27.89      3.84     31.73     31.77
 Triples                14.07      0.42     14.49     14.49

 Program statistics:

 Available memory in ccsd:               994999756
 Min. memory needed in ccsd:               1265322
 Max. memory used in ccsd:                 1555950
 Max. memory used in cckext:               2415326 (24 integral passes)



 **********************************************************************************************************************************
 DATASETS  * FILE   NREC   LENGTH (MB)   RECORD NAMES
              1      20     1044.69       500      610      700      900      950      970     1000      129      960     1100   
                                          VAR    BASINP    GEOM    SYMINP    ZMAT    AOBASIS   BASIS     P2S    ABASIS      S 
                                         1400     1410     1200     1210     1080     1600     1650     1300     1700     1380   
                                           T        V       H0       H01     AOSYM     SMH    MOLCAS    ERIS     OPER     JKOP   

              2       4        3.27       700     1000      520     2100   
                                         GEOM     BASIS   MCVARS     RHF  

 PROGRAMS   *        TOTAL   CCSD(T)        HF       INT
 CPU TIMES  *        63.45     43.37      9.51     10.48
 REAL TIME  *        72.95 SEC
 DISK USED  *         3.13 GB      
 **********************************************************************************************************************************

 CCSD(T)/aug-cc-pVQZ energy=   -130.342501299739

        CCSD(T)         HF-SCF  
   -130.34250130   -129.84868144
 **********************************************************************************************************************************
 Molpro calculation terminated
 Variable memory released
