
 Primary working directories    : /tmp/r2666/282099.maple
 Secondary working directories  : /tmp/r2666/282099.maple
 Wavefunction directory         : /ddn/home4/r2666/wfu/
 Main file repository           : /tmp/r2666/282099.maple/

 SHA1      : d5ffa45e93fdbca01ffc919aa182cfdae0147319
 NAME      : 2015.1.35
 ARCHNAME  : linux/x86_64
 FC        : /opt/intel/composer_xe_2015.1.133/bin/intel64/ifort
 BLASLIB   : -Wl,-_start-group /opt/intel/mkl/lib/intel64/libmkl_intel_ilp64.a /opt/intel/mkl/lib/intel64/libmkl_intel_thread.a /opt/intel/mkl/lib/intel64/libmkl_core.a -Wl,-_end-group
 id        : olemiss

 Nodes     nprocs
 cn095        1

 Using customized tuning parameters: mindgm=1; mindgv=20; mindgc=4; mindgr=1; noblas=0; minvec=7
 default implementation of scratch files=df  

 ***,hno CCSD(T)/TZ-F12 QFF
 memory, 995, m;
 gthresh,energy=1.d-12,zero=1.d-22,oneint=1.d-22,twoint=1.d-22;
 gthresh,optgrad=1.d-8,optstep=1.d-8;
 nocompress;
 geomtyp=xyz
 bohr
 geometry={
 3
        125       125
 H        0.0000000000        1.6802959859       -1.9363991080
 N        0.0000000000       -0.1737015547       -1.1435743606
 O        0.0000000000        0.0351733588        1.1293838775
 }
 
 basis=avqz
   {hf,maxit=500;accu,20;}
 {ccsd(t),nocheck,maxit=250;orbital,IGNORE_ERROR;}

 Variables initialized (889), CPU time= 0.01 sec
 Commands  initialized (702), CPU time= 0.00 sec, 572 directives.
 Default parameters read. Elapsed time= 0.04 sec

 Checking input...
 Passed
1


                                         ***  PROGRAM SYSTEM MOLPRO  ***
                                       Copyright, TTI GmbH Stuttgart, 2015
                                    Version 2015.1 linked Jul  9 2018 13:16:40


 **********************************************************************************************************************************
 LABEL *   hno CCSD(T)/TZ-F12 QFF                                                        
  64 bit serial version                                                                  DATE: 04-Mar-20          TIME: 13:45:22  
 **********************************************************************************************************************************

 SHA1:             d5ffa45e93fdbca01ffc919aa182cfdae0147319
 **********************************************************************************************************************************

 THRESHOLDS:

 ZERO    =  1.00D-22  ONEINT  =  1.00D-22  TWOINT  =  1.00D-22  PREFAC  =  1.00D-14  LOCALI  =  1.00D-09  EORDER  =  1.00D-04
 ENERGY  =  1.00D-12  ETEST   =  0.00D+00  EDENS   =  0.00D+00  THRDEDEF=  1.00D-06  GRADIENT=  1.00D-02  STEP    =  1.00D-03
 ORBITAL =  1.00D-05  CIVEC   =  1.00D-05  COEFF   =  1.00D-04  PRINTCI =  5.00D-02  PUNCHCI =  9.90D+01  OPTGRAD =  3.00D-04
 OPTENERG=  1.00D-06  OPTSTEP =  3.00D-04  THRGRAD =  1.00D-10  COMPRESS=  1.00D-11  VARMIN  =  1.00D-07  VARMAX  =  1.00D-03
 THRDOUB =  0.00D+00  THRDIV  =  1.00D-05  THRRED  =  1.00D-07  THRPSP  =  1.00D+00  THRDC   =  1.00D-10  THRCS   =  1.00D-10
 THRNRM  =  1.00D-08  THREQ   =  0.00D+00  THRDE   =  1.00D+00  THRREF  =  1.00D-05  SPARFAC =  1.00D+00  THRDLP  =  1.00D-07
 THRDIA  =  1.00D-10  THRDLS  =  1.00D-07  THRGPS  =  0.00D+00  THRKEX  =  0.00D+00  THRDIS  =  2.00D-01  THRVAR  =  1.00D-10
 THRLOC  =  1.00D-06  THRGAP  =  1.00D-06  THRLOCT = -1.00D+00  THRGAPT = -1.00D+00  THRORB  =  1.00D-06  THRMLTP =  0.00D+00
 THRCPQCI=  1.00D-10  KEXTA   =  0.00D+00  THRCOARS=  0.00D+00  SYMTOL  =  1.00D-06  GRADTOL =  1.00D-06  THROVL  =  1.00D-08
 THRORTH =  1.00D-08  GRID    =  1.00D-06  GRIDMAX =  1.00D-03  DTMAX   =  0.00D+00  THROCCDE=  1.00D-01  THROCCDE=  1.00D-01



 THRESHOLDS:

 ZERO    =  1.00D-22  ONEINT  =  1.00D-22  TWOINT  =  1.00D-22  PREFAC  =  1.00D-14  LOCALI  =  1.00D-09  EORDER  =  1.00D-04
 ENERGY  =  1.00D-12  ETEST   =  0.00D+00  EDENS   =  0.00D+00  THRDEDEF=  1.00D-06  GRADIENT=  1.00D-02  STEP    =  1.00D-03
 ORBITAL =  1.00D-05  CIVEC   =  1.00D-05  COEFF   =  1.00D-04  PRINTCI =  5.00D-02  PUNCHCI =  9.90D+01  OPTGRAD =  1.00D-08
 OPTENERG=  1.00D-06  OPTSTEP =  1.00D-08  THRGRAD =  1.00D-10  COMPRESS=  1.00D-11  VARMIN  =  1.00D-07  VARMAX  =  1.00D-03
 THRDOUB =  0.00D+00  THRDIV  =  1.00D-05  THRRED  =  1.00D-07  THRPSP  =  1.00D+00  THRDC   =  1.00D-10  THRCS   =  1.00D-10
 THRNRM  =  1.00D-08  THREQ   =  0.00D+00  THRDE   =  1.00D+00  THRREF  =  1.00D-05  SPARFAC =  1.00D+00  THRDLP  =  1.00D-07
 THRDIA  =  1.00D-10  THRDLS  =  1.00D-07  THRGPS  =  0.00D+00  THRKEX  =  0.00D+00  THRDIS  =  2.00D-01  THRVAR  =  1.00D-10
 THRLOC  =  1.00D-06  THRGAP  =  1.00D-06  THRLOCT = -1.00D+00  THRGAPT = -1.00D+00  THRORB  =  1.00D-06  THRMLTP =  0.00D+00
 THRCPQCI=  1.00D-10  KEXTA   =  0.00D+00  THRCOARS=  0.00D+00  SYMTOL  =  1.00D-06  GRADTOL =  1.00D-06  THROVL  =  1.00D-08
 THRORTH =  1.00D-08  GRID    =  1.00D-06  GRIDMAX =  1.00D-03  DTMAX   =  0.00D+00  THROCCDE=  1.00D-01  THROCCDE=  1.00D-01



 Input parameters for SORTINT:

 COMPRESS =    0.000000
 C_FINAL  =    1.000000
 DEBUG    =   -1.000000
 C_SORT1  =    0.000000
 C_SEWARD =    0.000000
 THRESH   =    0.000000
 IO       =  molpro                                                          
 SPRI     =    0.000000
 SETTING GEOMTYP        =    XYZ
 ZUNIT=BOHR
 

 Variable memory set to  995000000 words,  buffer space   230000 words

 SETTING BASIS          =    AVQZ


 Recomputing integrals since basis changed


 Using spherical harmonics

 Library entry H      S aug-cc-pVQZ          selected for orbital group  1
 Library entry H      P aug-cc-pVQZ          selected for orbital group  1
 Library entry H      D aug-cc-pVQZ          selected for orbital group  1
 Library entry H      F aug-cc-pVQZ          selected for orbital group  1
 Library entry N      S aug-cc-pVQZ          selected for orbital group  2
 Library entry N      P aug-cc-pVQZ          selected for orbital group  2
 Library entry N      D aug-cc-pVQZ          selected for orbital group  2
 Library entry N      F aug-cc-pVQZ          selected for orbital group  2
 Library entry N      G aug-cc-pVQZ          selected for orbital group  2
 Library entry O      S aug-cc-pVQZ          selected for orbital group  3
 Library entry O      P aug-cc-pVQZ          selected for orbital group  3
 Library entry O      D aug-cc-pVQZ          selected for orbital group  3
 Library entry O      F aug-cc-pVQZ          selected for orbital group  3
 Library entry O      G aug-cc-pVQZ          selected for orbital group  3


 PROGRAM * SEWARD (Integral evaluation for generally contracted gaussian basis sets)     Author: Roland Lindh, 1990

 Geometry written to block  1 of record 700


 Point group  Cs  



 ATOMIC COORDINATES

 NR  ATOM    CHARGE       X              Y              Z

   1  H       1.00    0.000000000    1.680295986   -1.936399108
   2  N       7.00    0.000000000   -0.173701555   -1.143574361
   3  O       8.00    0.000000000    0.035173359    1.129383878

 Bond lengths in Bohr (Angstrom)

 1-2  2.016402232  2-3  2.282535406
     ( 1.067034109)     ( 1.207865720)

 Bond angles

  1-2-3  107.90251459

 NUCLEAR CHARGE:                   16
 NUMBER OF PRIMITIVE AOS:         293
 NUMBER OF SYMMETRY AOS:          234
 NUMBER OF CONTRACTIONS:          206   ( 130A'  +  76A"  )
 NUMBER OF CORE ORBITALS:           2   (   2A'  +   0A"  )
 NUMBER OF VALENCE ORBITALS:        9   (   7A'  +   2A"  )


 NUCLEAR REPULSION ENERGY   30.30497083

 Eigenvalues of metric

         1 0.608E-04 0.148E-03 0.320E-03 0.436E-03 0.592E-03 0.702E-03 0.103E-02 0.109E-02
         2 0.828E-03 0.171E-02 0.502E-02 0.896E-02 0.104E-01 0.124E-01 0.126E-01 0.195E-01


 Contracted 2-electron integrals neglected if value below      1.0D-22

      109945090. INTEGRALS WRITTEN OUT IN   26849 BLOCKS ON RECORD 1290 OF FILE 1


 NUMBER OF SORTED TWO-ELECTRON INTEGRALS:  115283741.     BUFFER LENGTH:  32768
 NUMBER OF SEGMENTS:   8  SEGMENT LENGTH:   15998004      RECORD LENGTH: 524288

 Memory used in sort:      16.56 MW

 SORT1 READ   109945090. AND WROTE   110865257. INTEGRALS IN    322 RECORDS. CPU TIME:     1.89 SEC, REAL TIME:     2.81 SEC
 SORT2 READ   110865257. AND WROTE   115283741. INTEGRALS IN      8 RECORDS. CPU TIME:     1.37 SEC, REAL TIME:     1.89 SEC

 FILE SIZES:   FILE 1:  1780.6 MBYTE,  FILE 4:  1350.6 MBYTE,   TOTAL:   3131.2 MBYTE

 OPERATOR DM      FOR CENTER  0  COORDINATES:    0.000000    0.000000    0.000000


 **********************************************************************************************************************************
 DATASETS  * FILE   NREC   LENGTH (MB)   RECORD NAMES
              1      19      944.14       500      610      700      900      950      970     1000      129      960     1100   
                                          VAR    BASINP    GEOM    SYMINP    ZMAT    AOBASIS   BASIS     P2S    ABASIS      S 
                                         1400     1410     1200     1210     1080     1600     1650     1300     1700   
                                           T        V       H0       H01     AOSYM     SMH    MOLCAS    ERIS     OPER   

 PROGRAMS   *        TOTAL       INT
 CPU TIMES  *        11.70     11.62
 REAL TIME  *        14.81 SEC
 DISK USED  *         3.13 GB      
 **********************************************************************************************************************************


 PROGRAM * RHF-SCF (CLOSED SHELL)       Authors: W. Meyer, H.-J. Werner


 NUMBER OF ELECTRONS:       8+    8-
 CONVERGENCE THRESHOLDS:    1.00E-10 (Density)    1.00E-13 (Energy)
 MAX. NUMBER OF ITERATIONS:      500
 INTERPOLATION TYPE:            DIIS
 INTERPOLATION STEPS:              2 (START)      1 (STEP)
 LEVEL SHIFTS:                  0.00 (CLOSED)  0.00 (OPEN) 



 Orbital guess generated from atomic densities. Full valence occupancy:    9   2

 Molecular orbital dump at record        2100.2

 Initial occupancy:   7   1

 ITERATION    DDIFF          GRAD             ENERGY        2-EL.EN.            DIPOLE MOMENTS         DIIS   ORB.
    1      0.000D+00      0.000D+00      -129.79531094    153.835443    0.00000    0.58200   -1.02695    0    start
    2      0.000D+00      0.817D-02      -129.82257323    155.085467    0.00000    0.60920   -0.20034    1    diag
    3      0.659D-02      0.628D-02      -129.84616447    155.203813    0.00000    0.55013   -0.59067    2    diag
    4      0.337D-02      0.970D-03      -129.84697082    154.916504    0.00000    0.55757   -0.52942    3    diag
    5      0.606D-03      0.318D-03      -129.84710029    155.011268    0.00000    0.56308   -0.53207    4    diag
    6      0.255D-03      0.928D-04      -129.84712116    154.994877    0.00000    0.56336   -0.52784    5    diag
    7      0.982D-04      0.461D-04      -129.84712721    154.997719    0.00000    0.56464   -0.52522    6    diag
    8      0.675D-04      0.161D-04      -129.84712789    154.997009    0.00000    0.56469   -0.52419    7    diag
    9      0.260D-04      0.312D-05      -129.84712792    154.996888    0.00000    0.56465   -0.52397    8    diag
   10      0.521D-05      0.708D-06      -129.84712792    154.996868    0.00000    0.56461   -0.52394    9    orth
   11      0.102D-05      0.142D-06      -129.84712792    154.996864    0.00000    0.56461   -0.52394    9    diag
   12      0.190D-06      0.291D-07      -129.84712792    154.996864    0.00000    0.56460   -0.52393    9    diag
   13      0.414D-07      0.757D-08      -129.84712792    154.996864    0.00000    0.56460   -0.52393    9    diag
   14      0.114D-07      0.150D-08      -129.84712792    154.996863    0.00000    0.56460   -0.52393    9    diag
   15      0.209D-08      0.433D-09      -129.84712792    154.996863    0.00000    0.56460   -0.52393    9    diag
   16      0.623D-09      0.130D-09      -129.84712792    154.996863    0.00000    0.56460   -0.52393    9    diag
   17      0.119D-09      0.357D-10      -129.84712792    154.996863    0.00000    0.56460   -0.52393    9    diag
   18      0.338D-10      0.123D-10      -129.84712792    154.996863    0.00000    0.56460   -0.52393    9    diag
   19      0.163D-10      0.300D-11      -129.84712792    154.996863    0.00000    0.56460   -0.52393    9    fixocc
   20      0.532D-11      0.543D-12      -129.84712792    154.996863    0.00000    0.56460   -0.52393    9    orth
   21      0.529D-11      0.211D-12      -129.84712792    154.996863    0.00000    0.56460   -0.52393    9    diag
   22      0.239D-11      0.158D-12      -129.84712792    154.996863    0.00000    0.56460   -0.52393    9    diag
   23      0.184D-11      0.111D-12      -129.84712792    154.996863    0.00000    0.56460   -0.52393    9    diag
   24      0.937D-12      0.106D-12      -129.84712792    154.996863    0.00000    0.56460   -0.52393    9    diag
   25      0.472D-12      0.111D-12      -129.84712792    154.996863    0.00000    0.56460   -0.52393    9    diag
   26      0.416D-12      0.856D-13      -129.84712792    154.996863    0.00000    0.56460   -0.52393    9    diag
   27      0.306D-12      0.112D-12      -129.84712792    154.996863    0.00000    0.56460   -0.52393    9    diag
   28      0.127D-12      0.111D-12      -129.84712792    154.996863    0.00000    0.56460   -0.52393    0    orth

 Final occupancy:   7   1

 !RHF STATE 1.1 Energy               -129.847127921503
 Nuclear energy                        30.30497083
 One-electron energy                 -237.65053048
 Two-electron energy                   77.49843173
 Virial quotient                       -1.00190950
 !RHF STATE 1.1 Dipole moment           0.00000000     0.56460285    -0.52393328
 Dipole moment /Debye                   0.00000000     1.43498331    -1.33161835

 Orbital energies:

         1.1          2.1          3.1          4.1          5.1          6.1          7.1          8.1          9.1
    -20.653910   -15.714712    -1.529669    -0.990647    -0.745605    -0.666097    -0.429799     0.026373     0.079479

         1.2          2.2          3.2
     -0.596394     0.063382     0.110771

 HOMO      7.1    -0.429799 =     -11.6954eV
 LUMO      8.1     0.026373 =       0.7176eV
 LUMO-HOMO         0.456172 =      12.4131eV


 **********************************************************************************************************************************
 DATASETS  * FILE   NREC   LENGTH (MB)   RECORD NAMES
              1      19      944.14       500      610      700      900      950      970     1000      129      960     1100   
                                          VAR    BASINP    GEOM    SYMINP    ZMAT    AOBASIS   BASIS     P2S    ABASIS      S 
                                         1400     1410     1200     1210     1080     1600     1650     1300     1700   
                                           T        V       H0       H01     AOSYM     SMH    MOLCAS    ERIS     OPER   

              2       4        3.27       700     1000      520     2100   
                                         GEOM     BASIS   MCVARS     RHF  

 PROGRAMS   *        TOTAL        HF       INT
 CPU TIMES  *        26.76     15.06     11.62
 REAL TIME  *        33.77 SEC
 DISK USED  *         3.13 GB      
 **********************************************************************************************************************************


 PROGRAM * CCSD (Closed-shell coupled cluster)     Authors: C. Hampel, H.-J. Werner, 1991, M. Deegan, P.J. Knowles, 1992


 Convergence thresholds:  THRVAR = 1.00D-08  THRDEN = 1.00D-12

 CCSD(T)     terms to be evaluated (factor= 1.000)


 Number of core orbitals:           2 (   2   0 )
 Number of closed-shell orbitals:   6 (   5   1 )
 Number of external orbitals:     198 ( 123  75 )

 Molecular orbitals read from record     2100.2  Type=RHF/CANONICAL (state 1.1)

 Number of N-1 electron functions:               6
 Number of N-2 electron functions:              21
 Number of singly external CSFs:               690
 Number of doubly external CSFs:            362646
 Total number of CSFs:                      363337

 Length of J-op  integral file:               0.00 MB
 Length of K-op  integral file:               1.60 MB
 Length of 3-ext integral record:             0.00 MB

 Memory could be reduced to 34.67 Mwords without degradation in triples

 Integral transformation finished. Total CPU:   1.77 sec, npass=  1  Memory used:   9.53 MW

 Reference energy:                   -129.84712792

 MP2 singlet pair energy:              -0.30194871
 MP2 triplet pair energy:              -0.17063635
 MP2 correlation energy:               -0.47258506
 MP2 total energy:                   -130.31971298

 SCS-MP2 correlation energy:           -0.46851218   (PS=  1.200000  PT=  0.333333)
 SCS-MP2 total energy:               -130.31564010

 ITER.      SQ.NORM     CORR.ENERGY   TOTAL ENERGY   ENERGY CHANGE        DEN1      VAR(S)    VAR(P)  DIIS     TIME  TIME/IT
   1      1.12152847    -0.47258074  -130.31970866     0.00000432     0.01654598  0.32D-02  0.32D-02  1  1     3.27     1.62
   2      1.13232151    -0.47253018  -130.31965810     0.00005056    -0.01258100  0.11D-03  0.50D-03  2  2     4.80     1.67
   3      1.13871147    -0.47291731  -130.32004523    -0.00038713    -0.00307852  0.50D-04  0.54D-04  3  3     6.29     1.67
   4      1.14149195    -0.47292218  -130.32005010    -0.00000487    -0.00094676  0.46D-05  0.97D-05  4  4     7.66     1.64
   5      1.14260631    -0.47295255  -130.32008047    -0.00003037    -0.00024335  0.12D-05  0.16D-05  5  5     9.16     1.65
   6      1.14296512    -0.47293762  -130.32006554     0.00001493    -0.00005145  0.12D-06  0.38D-06  6  6    10.70     1.66
   7      1.14304012    -0.47293778  -130.32006571    -0.00000016     0.00000227  0.19D-07  0.87D-07  6  1    12.23     1.67
   8      1.14306365    -0.47293807  -130.32006599    -0.00000028    -0.00000130  0.35D-08  0.18D-07  6  2    13.71     1.68
   9      1.14307248    -0.47293748  -130.32006541     0.00000058    -0.00000036  0.22D-08  0.18D-08  6  3    15.29     1.68
  10      1.14306780    -0.47293826  -130.32006618    -0.00000077     0.00000156  0.31D-09  0.29D-09  6  5    16.79     1.69
  11      1.14306961    -0.47293821  -130.32006613     0.00000005    -0.00000033  0.95D-10  0.25D-10  6  4    18.29     1.69
  12      1.14306919    -0.47293828  -130.32006620    -0.00000007     0.00000002  0.18D-10  0.62D-11  6  6    19.83     1.70
  13      1.14306902    -0.47293828  -130.32006620    -0.00000000    -0.00000004  0.33D-11  0.85D-12  6  1    21.38     1.70
  14      1.14306874    -0.47293829  -130.32006621    -0.00000001     0.00000004  0.43D-12  0.17D-12  6  3    22.94     1.70
  15      1.14306866    -0.47293830  -130.32006622    -0.00000000     0.00000001  0.12D-12  0.22D-13  6  2    24.46     1.70
  16      1.14306865    -0.47293829  -130.32006622     0.00000000     0.00000000  0.30D-13  0.99D-14  6  4    25.95     1.70
  17      1.14306865    -0.47293829  -130.32006622    -0.00000000    -0.00000000  0.14D-14  0.11D-14  6  5    27.45     1.70
  18      1.14306866    -0.47293829  -130.32006622     0.00000000    -0.00000000  0.23D-15  0.24D-15  6  6    28.96     1.70
  19      1.14306866    -0.47293829  -130.32006622     0.00000000    -0.00000000  0.29D-16  0.26D-16  6  5    30.34     1.69
  20      1.14306866    -0.47293829  -130.32006622     0.00000000    -0.00000000  0.57D-17  0.37D-17  6  1    31.85     1.70
  21      1.14306866    -0.47293829  -130.32006622    -0.00000000     0.00000000  0.71D-18  0.54D-18  6  3    33.36     1.70
  22      1.14306866    -0.47293829  -130.32006622    -0.00000000     0.00000000  0.91D-19  0.58D-19  6  2    34.86     1.70
  23      1.14306866    -0.47293829  -130.32006622    -0.00000000     0.00000000  0.20D-19  0.10D-19  6  4    36.37     1.70
  24      1.14306866    -0.47293829  -130.32006622    -0.00000000     0.00000000  0.71D-20  0.16D-20  6  6    37.82     1.70
  25      1.14306866    -0.47293829  -130.32006622     0.00000000    -0.00000000  0.21D-20  0.53D-21  6  5    39.32     1.70

 Norm of t1 vector:      0.07732822      S-energy:    -0.00000000      T1 diagnostic:  0.01578456
                                                                       D1 diagnostic:  0.04215801

 Doubles amplitudes (print threshold =  0.500E-01):

         I         J         SYM. A    SYM. B    A         B      T(IJ, AB)

         6         6         2         2         1         1     -0.09853573


 Total CPU time for triples:     18.15 sec


 RESULTS
 =======

  Reference energy                   -129.847127921503
  CCSD singlet pair energy             -0.326996626053
  CCSD triplet pair energy             -0.145941668257
  CCSD correlation energy              -0.472938294310

  Triples (T) contribution             -0.022459582433
  Total correlation energy             -0.495397876743

  CCSD total energy                  -130.320066215813
  CCSD[T] energy                     -130.343613234630
  CCSD-T energy                      -130.342135049101
 !CCSD(T) total energy               -130.342525798246

 Timing summary (sec):

 STEP                 CPU(USER)    SYS     CPU(TOT)    WALL
 Transformation          1.79      0.32      2.11      2.26
 CCSD iterations        37.53      4.94     42.47     42.48
 Triples                18.15      0.52     18.67     18.67

 Program statistics:

 Available memory in ccsd:               994999756
 Min. memory needed in ccsd:               1265322
 Max. memory used in ccsd:                 1555950
 Max. memory used in cckext:               2415326 (25 integral passes)



 **********************************************************************************************************************************
 DATASETS  * FILE   NREC   LENGTH (MB)   RECORD NAMES
              1      20     1044.69       500      610      700      900      950      970     1000      129      960     1100   
                                          VAR    BASINP    GEOM    SYMINP    ZMAT    AOBASIS   BASIS     P2S    ABASIS      S 
                                         1400     1410     1200     1210     1080     1600     1650     1300     1700     1380   
                                           T        V       H0       H01     AOSYM     SMH    MOLCAS    ERIS     OPER     JKOP   

              2       4        3.27       700     1000      520     2100   
                                         GEOM     BASIS   MCVARS     RHF  

 PROGRAMS   *        TOTAL   CCSD(T)        HF       INT
 CPU TIMES  *        84.27     57.50     15.06     11.62
 REAL TIME  *        97.26 SEC
 DISK USED  *         3.13 GB      
 **********************************************************************************************************************************

 CCSD(T)/aug-cc-pVQZ energy=   -130.342525798246

        CCSD(T)         HF-SCF  
   -130.34252580   -129.84712792
 **********************************************************************************************************************************
 Molpro calculation terminated
 Variable memory released
