
 Primary working directories    : /tmp/r2666/282061.maple
 Secondary working directories  : /tmp/r2666/282061.maple
 Wavefunction directory         : /ddn/home4/r2666/wfu/
 Main file repository           : /tmp/r2666/282061.maple/

 SHA1      : d5ffa45e93fdbca01ffc919aa182cfdae0147319
 NAME      : 2015.1.35
 ARCHNAME  : linux/x86_64
 FC        : /opt/intel/composer_xe_2015.1.133/bin/intel64/ifort
 BLASLIB   : -Wl,-_start-group /opt/intel/mkl/lib/intel64/libmkl_intel_ilp64.a /opt/intel/mkl/lib/intel64/libmkl_intel_thread.a /opt/intel/mkl/lib/intel64/libmkl_core.a -Wl,-_end-group
 id        : olemiss

 Nodes     nprocs
 cn075        1

 Using customized tuning parameters: mindgm=1; mindgv=20; mindgc=4; mindgr=1; noblas=0; minvec=7
 default implementation of scratch files=df  

 ***,hno CCSD(T)/TZ-F12 QFF
 memory, 995, m;
 gthresh,energy=1.d-12,zero=1.d-22,oneint=1.d-22,twoint=1.d-22;
 gthresh,optgrad=1.d-8,optstep=1.d-8;
 nocompress;
 geomtyp=xyz
 bohr
 geometry={
 3
         87        87
 H        0.0000000000        1.6695778576       -1.9249111143
 N        0.0000000000       -0.1672224002       -1.1399328176
 O        0.0000000000        0.0394123326        1.1142543410
 }
 
 basis=avqz
   {hf,maxit=500;accu,20;}
 {ccsd(t),nocheck,maxit=250;orbital,IGNORE_ERROR;}

 Variables initialized (889), CPU time= 0.00 sec
 Commands  initialized (702), CPU time= 0.01 sec, 572 directives.
 Default parameters read. Elapsed time= 0.04 sec

 Checking input...
 Passed
1


                                         ***  PROGRAM SYSTEM MOLPRO  ***
                                       Copyright, TTI GmbH Stuttgart, 2015
                                    Version 2015.1 linked Jul  9 2018 13:16:40


 **********************************************************************************************************************************
 LABEL *   hno CCSD(T)/TZ-F12 QFF                                                        
  64 bit serial version                                                                  DATE: 04-Mar-20          TIME: 13:43:47  
 **********************************************************************************************************************************

 SHA1:             d5ffa45e93fdbca01ffc919aa182cfdae0147319
 **********************************************************************************************************************************

 THRESHOLDS:

 ZERO    =  1.00D-22  ONEINT  =  1.00D-22  TWOINT  =  1.00D-22  PREFAC  =  1.00D-14  LOCALI  =  1.00D-09  EORDER  =  1.00D-04
 ENERGY  =  1.00D-12  ETEST   =  0.00D+00  EDENS   =  0.00D+00  THRDEDEF=  1.00D-06  GRADIENT=  1.00D-02  STEP    =  1.00D-03
 ORBITAL =  1.00D-05  CIVEC   =  1.00D-05  COEFF   =  1.00D-04  PRINTCI =  5.00D-02  PUNCHCI =  9.90D+01  OPTGRAD =  3.00D-04
 OPTENERG=  1.00D-06  OPTSTEP =  3.00D-04  THRGRAD =  1.00D-10  COMPRESS=  1.00D-11  VARMIN  =  1.00D-07  VARMAX  =  1.00D-03
 THRDOUB =  0.00D+00  THRDIV  =  1.00D-05  THRRED  =  1.00D-07  THRPSP  =  1.00D+00  THRDC   =  1.00D-10  THRCS   =  1.00D-10
 THRNRM  =  1.00D-08  THREQ   =  0.00D+00  THRDE   =  1.00D+00  THRREF  =  1.00D-05  SPARFAC =  1.00D+00  THRDLP  =  1.00D-07
 THRDIA  =  1.00D-10  THRDLS  =  1.00D-07  THRGPS  =  0.00D+00  THRKEX  =  0.00D+00  THRDIS  =  2.00D-01  THRVAR  =  1.00D-10
 THRLOC  =  1.00D-06  THRGAP  =  1.00D-06  THRLOCT = -1.00D+00  THRGAPT = -1.00D+00  THRORB  =  1.00D-06  THRMLTP =  0.00D+00
 THRCPQCI=  1.00D-10  KEXTA   =  0.00D+00  THRCOARS=  0.00D+00  SYMTOL  =  1.00D-06  GRADTOL =  1.00D-06  THROVL  =  1.00D-08
 THRORTH =  1.00D-08  GRID    =  1.00D-06  GRIDMAX =  1.00D-03  DTMAX   =  0.00D+00  THROCCDE=  1.00D-01  THROCCDE=  1.00D-01



 THRESHOLDS:

 ZERO    =  1.00D-22  ONEINT  =  1.00D-22  TWOINT  =  1.00D-22  PREFAC  =  1.00D-14  LOCALI  =  1.00D-09  EORDER  =  1.00D-04
 ENERGY  =  1.00D-12  ETEST   =  0.00D+00  EDENS   =  0.00D+00  THRDEDEF=  1.00D-06  GRADIENT=  1.00D-02  STEP    =  1.00D-03
 ORBITAL =  1.00D-05  CIVEC   =  1.00D-05  COEFF   =  1.00D-04  PRINTCI =  5.00D-02  PUNCHCI =  9.90D+01  OPTGRAD =  1.00D-08
 OPTENERG=  1.00D-06  OPTSTEP =  1.00D-08  THRGRAD =  1.00D-10  COMPRESS=  1.00D-11  VARMIN  =  1.00D-07  VARMAX  =  1.00D-03
 THRDOUB =  0.00D+00  THRDIV  =  1.00D-05  THRRED  =  1.00D-07  THRPSP  =  1.00D+00  THRDC   =  1.00D-10  THRCS   =  1.00D-10
 THRNRM  =  1.00D-08  THREQ   =  0.00D+00  THRDE   =  1.00D+00  THRREF  =  1.00D-05  SPARFAC =  1.00D+00  THRDLP  =  1.00D-07
 THRDIA  =  1.00D-10  THRDLS  =  1.00D-07  THRGPS  =  0.00D+00  THRKEX  =  0.00D+00  THRDIS  =  2.00D-01  THRVAR  =  1.00D-10
 THRLOC  =  1.00D-06  THRGAP  =  1.00D-06  THRLOCT = -1.00D+00  THRGAPT = -1.00D+00  THRORB  =  1.00D-06  THRMLTP =  0.00D+00
 THRCPQCI=  1.00D-10  KEXTA   =  0.00D+00  THRCOARS=  0.00D+00  SYMTOL  =  1.00D-06  GRADTOL =  1.00D-06  THROVL  =  1.00D-08
 THRORTH =  1.00D-08  GRID    =  1.00D-06  GRIDMAX =  1.00D-03  DTMAX   =  0.00D+00  THROCCDE=  1.00D-01  THROCCDE=  1.00D-01



 Input parameters for SORTINT:

 COMPRESS =    0.000000
 C_FINAL  =    1.000000
 DEBUG    =   -1.000000
 C_SORT1  =    0.000000
 C_SEWARD =    0.000000
 THRESH   =    0.000000
 IO       =  molpro                                                          
 SPRI     =    0.000000
 SETTING GEOMTYP        =    XYZ
 ZUNIT=BOHR
 

 Variable memory set to  995000000 words,  buffer space   230000 words

 SETTING BASIS          =    AVQZ


 Recomputing integrals since basis changed


 Using spherical harmonics

 Library entry H      S aug-cc-pVQZ          selected for orbital group  1
 Library entry H      P aug-cc-pVQZ          selected for orbital group  1
 Library entry H      D aug-cc-pVQZ          selected for orbital group  1
 Library entry H      F aug-cc-pVQZ          selected for orbital group  1
 Library entry N      S aug-cc-pVQZ          selected for orbital group  2
 Library entry N      P aug-cc-pVQZ          selected for orbital group  2
 Library entry N      D aug-cc-pVQZ          selected for orbital group  2
 Library entry N      F aug-cc-pVQZ          selected for orbital group  2
 Library entry N      G aug-cc-pVQZ          selected for orbital group  2
 Library entry O      S aug-cc-pVQZ          selected for orbital group  3
 Library entry O      P aug-cc-pVQZ          selected for orbital group  3
 Library entry O      D aug-cc-pVQZ          selected for orbital group  3
 Library entry O      F aug-cc-pVQZ          selected for orbital group  3
 Library entry O      G aug-cc-pVQZ          selected for orbital group  3


 PROGRAM * SEWARD (Integral evaluation for generally contracted gaussian basis sets)     Author: Roland Lindh, 1990

 Geometry written to block  1 of record 700


 Point group  Cs  



 ATOMIC COORDINATES

 NR  ATOM    CHARGE       X              Y              Z

   1  H       1.00    0.000000000    1.669577858   -1.924911114
   2  N       7.00    0.000000000   -0.167222400   -1.139932818
   3  O       8.00    0.000000000    0.039412333    1.114254341

 Bond lengths in Bohr (Angstrom)

 1-2  1.997504972  2-3  2.263638147
     ( 1.057034110)     ( 1.197865721)

 Bond angles

  1-2-3  107.90251459

 NUCLEAR CHARGE:                   16
 NUMBER OF PRIMITIVE AOS:         293
 NUMBER OF SYMMETRY AOS:          234
 NUMBER OF CONTRACTIONS:          206   ( 130A'  +  76A"  )
 NUMBER OF CORE ORBITALS:           2   (   2A'  +   0A"  )
 NUMBER OF VALENCE ORBITALS:        9   (   7A'  +   2A"  )


 NUCLEAR REPULSION ENERGY   30.56298038

 Eigenvalues of metric

         1 0.590E-04 0.145E-03 0.315E-03 0.434E-03 0.574E-03 0.683E-03 0.100E-02 0.107E-02
         2 0.799E-03 0.165E-02 0.486E-02 0.889E-02 0.102E-01 0.120E-01 0.123E-01 0.186E-01


 Contracted 2-electron integrals neglected if value below      1.0D-22

      109945089. INTEGRALS WRITTEN OUT IN   26849 BLOCKS ON RECORD 1290 OF FILE 1


 NUMBER OF SORTED TWO-ELECTRON INTEGRALS:  115283741.     BUFFER LENGTH:  32768
 NUMBER OF SEGMENTS:   8  SEGMENT LENGTH:   15998004      RECORD LENGTH: 524288

 Memory used in sort:      16.56 MW

 SORT1 READ   109945089. AND WROTE   110865256. INTEGRALS IN    322 RECORDS. CPU TIME:     1.87 SEC, REAL TIME:     2.64 SEC
 SORT2 READ   110865256. AND WROTE   115283741. INTEGRALS IN      8 RECORDS. CPU TIME:     1.33 SEC, REAL TIME:     1.83 SEC

 FILE SIZES:   FILE 1:  1780.6 MBYTE,  FILE 4:  1350.6 MBYTE,   TOTAL:   3131.2 MBYTE

 OPERATOR DM      FOR CENTER  0  COORDINATES:    0.000000    0.000000    0.000000


 **********************************************************************************************************************************
 DATASETS  * FILE   NREC   LENGTH (MB)   RECORD NAMES
              1      19      944.14       500      610      700      900      950      970     1000      129      960     1100   
                                          VAR    BASINP    GEOM    SYMINP    ZMAT    AOBASIS   BASIS     P2S    ABASIS      S 
                                         1400     1410     1200     1210     1080     1600     1650     1300     1700   
                                           T        V       H0       H01     AOSYM     SMH    MOLCAS    ERIS     OPER   

 PROGRAMS   *        TOTAL       INT
 CPU TIMES  *        10.74     10.67
 REAL TIME  *        13.48 SEC
 DISK USED  *         3.13 GB      
 **********************************************************************************************************************************


 PROGRAM * RHF-SCF (CLOSED SHELL)       Authors: W. Meyer, H.-J. Werner


 NUMBER OF ELECTRONS:       8+    8-
 CONVERGENCE THRESHOLDS:    1.00E-10 (Density)    1.00E-13 (Energy)
 MAX. NUMBER OF ITERATIONS:      500
 INTERPOLATION TYPE:            DIIS
 INTERPOLATION STEPS:              2 (START)      1 (STEP)
 LEVEL SHIFTS:                  0.00 (CLOSED)  0.00 (OPEN) 



 Orbital guess generated from atomic densities. Full valence occupancy:    9   2

 Molecular orbital dump at record        2100.2

 Initial occupancy:   7   1

 ITERATION    DDIFF          GRAD             ENERGY        2-EL.EN.            DIPOLE MOMENTS         DIIS   ORB.
    1      0.000D+00      0.000D+00      -129.79894167    154.305868    0.00000    0.58409   -0.99359    0    start
    2      0.000D+00      0.804D-02      -129.82650272    155.562361    0.00000    0.60356   -0.20862    1    diag
    3      0.642D-02      0.601D-02      -129.84801821    155.661480    0.00000    0.54886   -0.57661    2    diag
    4      0.325D-02      0.958D-03      -129.84879945    155.383596    0.00000    0.55662   -0.51711    3    diag
    5      0.597D-03      0.312D-03      -129.84892281    155.476588    0.00000    0.56197   -0.51989    4    diag
    6      0.249D-03      0.905D-04      -129.84894250    155.460488    0.00000    0.56231   -0.51588    5    diag
    7      0.952D-04      0.446D-04      -129.84894808    155.463372    0.00000    0.56358   -0.51341    6    diag
    8      0.651D-04      0.151D-04      -129.84894866    155.462707    0.00000    0.56363   -0.51246    7    diag
    9      0.239D-04      0.287D-05      -129.84894869    155.462597    0.00000    0.56360   -0.51225    8    diag
   10      0.466D-05      0.665D-06      -129.84894869    155.462579    0.00000    0.56356   -0.51222    9    orth
   11      0.958D-06      0.135D-06      -129.84894869    155.462575    0.00000    0.56356   -0.51222    9    diag
   12      0.183D-06      0.274D-07      -129.84894869    155.462575    0.00000    0.56355   -0.51222    9    diag
   13      0.398D-07      0.698D-08      -129.84894869    155.462575    0.00000    0.56355   -0.51222    9    diag
   14      0.106D-07      0.140D-08      -129.84894869    155.462575    0.00000    0.56355   -0.51222    9    diag
   15      0.198D-08      0.411D-09      -129.84894869    155.462575    0.00000    0.56355   -0.51222    9    diag
   16      0.589D-09      0.128D-09      -129.84894869    155.462575    0.00000    0.56355   -0.51222    9    diag
   17      0.118D-09      0.355D-10      -129.84894869    155.462575    0.00000    0.56355   -0.51222    9    diag
   18      0.341D-10      0.120D-10      -129.84894869    155.462575    0.00000    0.56355   -0.51222    0    orth

 Final occupancy:   7   1

 !RHF STATE 1.1 Energy               -129.848948689689
 Nuclear energy                        30.56298038
 One-electron energy                 -238.14321643
 Two-electron energy                   77.73128736
 Virial quotient                       -1.00148759
 !RHF STATE 1.1 Dipole moment           0.00000000     0.56355382    -0.51221638
 Dipole moment /Debye                   0.00000000     1.43231712    -1.30183891

 Orbital energies:

         1.1          2.1          3.1          4.1          5.1          6.1          7.1          8.1          9.1
    -20.652747   -15.711649    -1.538050    -0.990746    -0.749811    -0.668966    -0.427298     0.026511     0.079510

         1.2          2.2          3.2
     -0.601054     0.065864     0.111070

 HOMO      7.1    -0.427298 =     -11.6274eV
 LUMO      8.1     0.026511 =       0.7214eV
 LUMO-HOMO         0.453809 =      12.3488eV


 **********************************************************************************************************************************
 DATASETS  * FILE   NREC   LENGTH (MB)   RECORD NAMES
              1      19      944.14       500      610      700      900      950      970     1000      129      960     1100   
                                          VAR    BASINP    GEOM    SYMINP    ZMAT    AOBASIS   BASIS     P2S    ABASIS      S 
                                         1400     1410     1200     1210     1080     1600     1650     1300     1700   
                                           T        V       H0       H01     AOSYM     SMH    MOLCAS    ERIS     OPER   

              2       4        3.27       700     1000      520     2100   
                                         GEOM     BASIS   MCVARS     RHF  

 PROGRAMS   *        TOTAL        HF       INT
 CPU TIMES  *        19.58      8.84     10.67
 REAL TIME  *        24.38 SEC
 DISK USED  *         3.13 GB      
 **********************************************************************************************************************************


 PROGRAM * CCSD (Closed-shell coupled cluster)     Authors: C. Hampel, H.-J. Werner, 1991, M. Deegan, P.J. Knowles, 1992


 Convergence thresholds:  THRVAR = 1.00D-08  THRDEN = 1.00D-12

 CCSD(T)     terms to be evaluated (factor= 1.000)


 Number of core orbitals:           2 (   2   0 )
 Number of closed-shell orbitals:   6 (   5   1 )
 Number of external orbitals:     198 ( 123  75 )

 Molecular orbitals read from record     2100.2  Type=RHF/CANONICAL (state 1.1)

 Number of N-1 electron functions:               6
 Number of N-2 electron functions:              21
 Number of singly external CSFs:               690
 Number of doubly external CSFs:            362646
 Total number of CSFs:                      363337

 Length of J-op  integral file:               0.00 MB
 Length of K-op  integral file:               1.60 MB
 Length of 3-ext integral record:             0.00 MB

 Memory could be reduced to 34.67 Mwords without degradation in triples

 Integral transformation finished. Total CPU:   1.44 sec, npass=  1  Memory used:   9.53 MW

 Reference energy:                   -129.84894869

 MP2 singlet pair energy:              -0.30070384
 MP2 triplet pair energy:              -0.16981971
 MP2 correlation energy:               -0.47052355
 MP2 total energy:                   -130.31947224

 SCS-MP2 correlation energy:           -0.46651020   (PS=  1.200000  PT=  0.333333)
 SCS-MP2 total energy:               -130.31545889

 ITER.      SQ.NORM     CORR.ENERGY   TOTAL ENERGY   ENERGY CHANGE        DEN1      VAR(S)    VAR(P)  DIIS     TIME  TIME/IT
   1      1.12011682    -0.47093909  -130.31988778    -0.00041555     0.01560943  0.30D-02  0.31D-02  1  1     2.61     1.29
   2      1.13059941    -0.47097756  -130.31992625    -0.00003847    -0.01227243  0.98D-04  0.48D-03  2  2     3.81     1.32
   3      1.13673434    -0.47134293  -130.32029162    -0.00036537    -0.00299545  0.46D-04  0.51D-04  3  3     5.01     1.33
   4      1.13938123    -0.47134886  -130.32029755    -0.00000593    -0.00090881  0.41D-05  0.92D-05  4  4     6.20     1.33
   5      1.14041541    -0.47137676  -130.32032544    -0.00002790    -0.00022656  0.11D-05  0.16D-05  5  5     7.40     1.34
   6      1.14075351    -0.47136307  -130.32031176     0.00001368    -0.00004831  0.11D-06  0.39D-06  6  6     8.62     1.34
   7      1.14082637    -0.47136332  -130.32031201    -0.00000025     0.00000198  0.18D-07  0.85D-07  6  1     9.82     1.35
   8      1.14084886    -0.47136372  -130.32031241    -0.00000040    -0.00000109  0.36D-08  0.17D-07  6  2    11.03     1.35
   9      1.14085715    -0.47136321  -130.32031190     0.00000051    -0.00000042  0.21D-08  0.16D-08  6  3    12.21     1.35
  10      1.14085271    -0.47136393  -130.32031262    -0.00000073     0.00000148  0.29D-09  0.25D-09  6  5    13.46     1.35
  11      1.14085432    -0.47136389  -130.32031258     0.00000004    -0.00000029  0.86D-10  0.22D-10  6  4    14.75     1.36
  12      1.14085392    -0.47136396  -130.32031265    -0.00000006     0.00000003  0.16D-10  0.55D-11  6  6    15.99     1.36
  13      1.14085375    -0.47136396  -130.32031265    -0.00000000    -0.00000004  0.30D-11  0.76D-12  6  1    17.20     1.36
  14      1.14085350    -0.47136397  -130.32031266    -0.00000001     0.00000003  0.42D-12  0.15D-12  6  3    18.38     1.36
  15      1.14085342    -0.47136397  -130.32031266    -0.00000000     0.00000001  0.11D-12  0.20D-13  6  2    19.64     1.36
  16      1.14085341    -0.47136397  -130.32031266     0.00000000     0.00000000  0.27D-13  0.89D-14  6  4    20.85     1.36
  17      1.14085342    -0.47136397  -130.32031266    -0.00000000    -0.00000000  0.13D-14  0.96D-15  6  5    22.03     1.36
  18      1.14085342    -0.47136397  -130.32031266     0.00000000    -0.00000000  0.22D-15  0.22D-15  6  6    23.25     1.36
  19      1.14085343    -0.47136397  -130.32031266     0.00000000    -0.00000000  0.44D-16  0.23D-16  6  1    24.45     1.36
  20      1.14085343    -0.47136397  -130.32031266     0.00000000    -0.00000000  0.75D-17  0.45D-17  6  2    25.64     1.36
  21      1.14085343    -0.47136397  -130.32031266    -0.00000000     0.00000000  0.97D-18  0.62D-18  6  3    26.86     1.36
  22      1.14085343    -0.47136397  -130.32031266    -0.00000000     0.00000000  0.15D-18  0.11D-18  6  5    28.05     1.36
  23      1.14085343    -0.47136397  -130.32031266    -0.00000000     0.00000000  0.21D-19  0.16D-19  6  4    29.28     1.36
  24      1.14085343    -0.47136397  -130.32031266    -0.00000000     0.00000000  0.47D-20  0.20D-20  6  1    30.50     1.36
  25      1.14085343    -0.47136397  -130.32031266     0.00000000    -0.00000000  0.85D-21  0.44D-21  6  6    31.70     1.36
  26      1.14085343    -0.47136397  -130.32031266     0.00000000    -0.00000000  0.18D-21  0.98D-22  6  3    32.93     1.36

 Norm of t1 vector:      0.07528231      S-energy:     0.00000000      T1 diagnostic:  0.01536694
                                                                       D1 diagnostic:  0.04084055

 Doubles amplitudes (print threshold =  0.500E-01):

         I         J         SYM. A    SYM. B    A         B      T(IJ, AB)

         6         6         2         2         1         1     -0.09299510


 Total CPU time for triples:     15.20 sec


 RESULTS
 =======

  Reference energy                   -129.848948689689
  CCSD singlet pair energy             -0.325637644431
  CCSD triplet pair energy             -0.145726328248
  CCSD correlation energy              -0.471363972678

  Triples (T) contribution             -0.022076461648
  Total correlation energy             -0.493440434326

  CCSD total energy                  -130.320312662367
  CCSD[T] energy                     -130.343423230881
  CCSD-T energy                      -130.342012730285
 !CCSD(T) total energy               -130.342389124015

 Timing summary (sec):

 STEP                 CPU(USER)    SYS     CPU(TOT)    WALL
 Transformation          1.45      0.23      1.68      1.68
 CCSD iterations        31.49      3.90     35.39     35.39
 Triples                15.20      0.41     15.61     15.61

 Program statistics:

 Available memory in ccsd:               994999756
 Min. memory needed in ccsd:               1265322
 Max. memory used in ccsd:                 1555950
 Max. memory used in cckext:               2415326 (26 integral passes)



 **********************************************************************************************************************************
 DATASETS  * FILE   NREC   LENGTH (MB)   RECORD NAMES
              1      20     1044.69       500      610      700      900      950      970     1000      129      960     1100   
                                          VAR    BASINP    GEOM    SYMINP    ZMAT    AOBASIS   BASIS     P2S    ABASIS      S 
                                         1400     1410     1200     1210     1080     1600     1650     1300     1700     1380   
                                           T        V       H0       H01     AOSYM     SMH    MOLCAS    ERIS     OPER     JKOP   

              2       4        3.27       700     1000      520     2100   
                                         GEOM     BASIS   MCVARS     RHF  

 PROGRAMS   *        TOTAL   CCSD(T)        HF       INT
 CPU TIMES  *        67.74     48.16      8.84     10.67
 REAL TIME  *        77.09 SEC
 DISK USED  *         3.13 GB      
 **********************************************************************************************************************************

 CCSD(T)/aug-cc-pVQZ energy=   -130.342389124015

        CCSD(T)         HF-SCF  
   -130.34238912   -129.84894869
 **********************************************************************************************************************************
 Molpro calculation terminated
 Variable memory released
