
 Primary working directories    : /tmp/r2666/282067.maple
 Secondary working directories  : /tmp/r2666/282067.maple
 Wavefunction directory         : /ddn/home4/r2666/wfu/
 Main file repository           : /tmp/r2666/282067.maple/

 SHA1      : d5ffa45e93fdbca01ffc919aa182cfdae0147319
 NAME      : 2015.1.35
 ARCHNAME  : linux/x86_64
 FC        : /opt/intel/composer_xe_2015.1.133/bin/intel64/ifort
 BLASLIB   : -Wl,-_start-group /opt/intel/mkl/lib/intel64/libmkl_intel_ilp64.a /opt/intel/mkl/lib/intel64/libmkl_intel_thread.a /opt/intel/mkl/lib/intel64/libmkl_core.a -Wl,-_end-group
 id        : olemiss

 Nodes     nprocs
 cn094        1

 Using customized tuning parameters: mindgm=1; mindgv=20; mindgc=4; mindgr=1; noblas=0; minvec=7
 default implementation of scratch files=df  

 ***,hno CCSD(T)/TZ-F12 QFF
 memory, 995, m;
 gthresh,energy=1.d-12,zero=1.d-22,oneint=1.d-22,twoint=1.d-22;
 gthresh,optgrad=1.d-8,optstep=1.d-8;
 nocompress;
 geomtyp=xyz
 bohr
 geometry={
 3
         93        93
 H        0.0000000000        1.6708005244       -1.9341680295
 N        0.0000000000       -0.1622797470       -1.1405416489
 O        0.0000000000        0.0332470127        1.1241200874
 }
 
 basis=avqz
   {hf,maxit=500;accu,20;}
 {ccsd(t),nocheck,maxit=250;orbital,IGNORE_ERROR;}

 Variables initialized (889), CPU time= 0.00 sec
 Commands  initialized (702), CPU time= 0.02 sec, 572 directives.
 Default parameters read. Elapsed time= 0.06 sec

 Checking input...
 Passed
1


                                         ***  PROGRAM SYSTEM MOLPRO  ***
                                       Copyright, TTI GmbH Stuttgart, 2015
                                    Version 2015.1 linked Jul  9 2018 13:16:40


 **********************************************************************************************************************************
 LABEL *   hno CCSD(T)/TZ-F12 QFF                                                        
  64 bit serial version                                                                  DATE: 04-Mar-20          TIME: 13:43:59  
 **********************************************************************************************************************************

 SHA1:             d5ffa45e93fdbca01ffc919aa182cfdae0147319
 **********************************************************************************************************************************

 THRESHOLDS:

 ZERO    =  1.00D-22  ONEINT  =  1.00D-22  TWOINT  =  1.00D-22  PREFAC  =  1.00D-14  LOCALI  =  1.00D-09  EORDER  =  1.00D-04
 ENERGY  =  1.00D-12  ETEST   =  0.00D+00  EDENS   =  0.00D+00  THRDEDEF=  1.00D-06  GRADIENT=  1.00D-02  STEP    =  1.00D-03
 ORBITAL =  1.00D-05  CIVEC   =  1.00D-05  COEFF   =  1.00D-04  PRINTCI =  5.00D-02  PUNCHCI =  9.90D+01  OPTGRAD =  3.00D-04
 OPTENERG=  1.00D-06  OPTSTEP =  3.00D-04  THRGRAD =  1.00D-10  COMPRESS=  1.00D-11  VARMIN  =  1.00D-07  VARMAX  =  1.00D-03
 THRDOUB =  0.00D+00  THRDIV  =  1.00D-05  THRRED  =  1.00D-07  THRPSP  =  1.00D+00  THRDC   =  1.00D-10  THRCS   =  1.00D-10
 THRNRM  =  1.00D-08  THREQ   =  0.00D+00  THRDE   =  1.00D+00  THRREF  =  1.00D-05  SPARFAC =  1.00D+00  THRDLP  =  1.00D-07
 THRDIA  =  1.00D-10  THRDLS  =  1.00D-07  THRGPS  =  0.00D+00  THRKEX  =  0.00D+00  THRDIS  =  2.00D-01  THRVAR  =  1.00D-10
 THRLOC  =  1.00D-06  THRGAP  =  1.00D-06  THRLOCT = -1.00D+00  THRGAPT = -1.00D+00  THRORB  =  1.00D-06  THRMLTP =  0.00D+00
 THRCPQCI=  1.00D-10  KEXTA   =  0.00D+00  THRCOARS=  0.00D+00  SYMTOL  =  1.00D-06  GRADTOL =  1.00D-06  THROVL  =  1.00D-08
 THRORTH =  1.00D-08  GRID    =  1.00D-06  GRIDMAX =  1.00D-03  DTMAX   =  0.00D+00  THROCCDE=  1.00D-01  THROCCDE=  1.00D-01



 THRESHOLDS:

 ZERO    =  1.00D-22  ONEINT  =  1.00D-22  TWOINT  =  1.00D-22  PREFAC  =  1.00D-14  LOCALI  =  1.00D-09  EORDER  =  1.00D-04
 ENERGY  =  1.00D-12  ETEST   =  0.00D+00  EDENS   =  0.00D+00  THRDEDEF=  1.00D-06  GRADIENT=  1.00D-02  STEP    =  1.00D-03
 ORBITAL =  1.00D-05  CIVEC   =  1.00D-05  COEFF   =  1.00D-04  PRINTCI =  5.00D-02  PUNCHCI =  9.90D+01  OPTGRAD =  1.00D-08
 OPTENERG=  1.00D-06  OPTSTEP =  1.00D-08  THRGRAD =  1.00D-10  COMPRESS=  1.00D-11  VARMIN  =  1.00D-07  VARMAX  =  1.00D-03
 THRDOUB =  0.00D+00  THRDIV  =  1.00D-05  THRRED  =  1.00D-07  THRPSP  =  1.00D+00  THRDC   =  1.00D-10  THRCS   =  1.00D-10
 THRNRM  =  1.00D-08  THREQ   =  0.00D+00  THRDE   =  1.00D+00  THRREF  =  1.00D-05  SPARFAC =  1.00D+00  THRDLP  =  1.00D-07
 THRDIA  =  1.00D-10  THRDLS  =  1.00D-07  THRGPS  =  0.00D+00  THRKEX  =  0.00D+00  THRDIS  =  2.00D-01  THRVAR  =  1.00D-10
 THRLOC  =  1.00D-06  THRGAP  =  1.00D-06  THRLOCT = -1.00D+00  THRGAPT = -1.00D+00  THRORB  =  1.00D-06  THRMLTP =  0.00D+00
 THRCPQCI=  1.00D-10  KEXTA   =  0.00D+00  THRCOARS=  0.00D+00  SYMTOL  =  1.00D-06  GRADTOL =  1.00D-06  THROVL  =  1.00D-08
 THRORTH =  1.00D-08  GRID    =  1.00D-06  GRIDMAX =  1.00D-03  DTMAX   =  0.00D+00  THROCCDE=  1.00D-01  THROCCDE=  1.00D-01



 Input parameters for SORTINT:

 COMPRESS =    0.000000
 C_FINAL  =    1.000000
 DEBUG    =   -1.000000
 C_SORT1  =    0.000000
 C_SEWARD =    0.000000
 THRESH   =    0.000000
 IO       =  molpro                                                          
 SPRI     =    0.000000
 SETTING GEOMTYP        =    XYZ
 ZUNIT=BOHR
 

 Variable memory set to  995000000 words,  buffer space   230000 words

 SETTING BASIS          =    AVQZ


 Recomputing integrals since basis changed


 Using spherical harmonics

 Library entry H      S aug-cc-pVQZ          selected for orbital group  1
 Library entry H      P aug-cc-pVQZ          selected for orbital group  1
 Library entry H      D aug-cc-pVQZ          selected for orbital group  1
 Library entry H      F aug-cc-pVQZ          selected for orbital group  1
 Library entry N      S aug-cc-pVQZ          selected for orbital group  2
 Library entry N      P aug-cc-pVQZ          selected for orbital group  2
 Library entry N      D aug-cc-pVQZ          selected for orbital group  2
 Library entry N      F aug-cc-pVQZ          selected for orbital group  2
 Library entry N      G aug-cc-pVQZ          selected for orbital group  2
 Library entry O      S aug-cc-pVQZ          selected for orbital group  3
 Library entry O      P aug-cc-pVQZ          selected for orbital group  3
 Library entry O      D aug-cc-pVQZ          selected for orbital group  3
 Library entry O      F aug-cc-pVQZ          selected for orbital group  3
 Library entry O      G aug-cc-pVQZ          selected for orbital group  3


 PROGRAM * SEWARD (Integral evaluation for generally contracted gaussian basis sets)     Author: Roland Lindh, 1990

 Geometry written to block  1 of record 700


 Point group  Cs  



 ATOMIC COORDINATES

 NR  ATOM    CHARGE       X              Y              Z

   1  H       1.00    0.000000000    1.670800524   -1.934168030
   2  N       7.00    0.000000000   -0.162279747   -1.140541649
   3  O       8.00    0.000000000    0.033247013    1.124120087

 Bond lengths in Bohr (Angstrom)

 1-2  1.997504972  2-3  2.273086777
     ( 1.057034110)     ( 1.202865721)

 Bond angles

  1-2-3  108.47547239

 NUCLEAR CHARGE:                   16
 NUMBER OF PRIMITIVE AOS:         293
 NUMBER OF SYMMETRY AOS:          234
 NUMBER OF CONTRACTIONS:          206   ( 130A'  +  76A"  )
 NUMBER OF CORE ORBITALS:           2   (   2A'  +   0A"  )
 NUMBER OF VALENCE ORBITALS:        9   (   7A'  +   2A"  )


 NUCLEAR REPULSION ENERGY   30.44654333

 Eigenvalues of metric

         1 0.594E-04 0.145E-03 0.316E-03 0.434E-03 0.579E-03 0.684E-03 0.101E-02 0.107E-02
         2 0.811E-03 0.165E-02 0.490E-02 0.892E-02 0.102E-01 0.122E-01 0.124E-01 0.188E-01


 Contracted 2-electron integrals neglected if value below      1.0D-22

      109945075. INTEGRALS WRITTEN OUT IN   26849 BLOCKS ON RECORD 1290 OF FILE 1


 NUMBER OF SORTED TWO-ELECTRON INTEGRALS:  115283741.     BUFFER LENGTH:  32768
 NUMBER OF SEGMENTS:   8  SEGMENT LENGTH:   15998004      RECORD LENGTH: 524288

 Memory used in sort:      16.56 MW

 SORT1 READ   109945075. AND WROTE   110865242. INTEGRALS IN    322 RECORDS. CPU TIME:     1.79 SEC, REAL TIME:     2.51 SEC
 SORT2 READ   110865242. AND WROTE   115283741. INTEGRALS IN      8 RECORDS. CPU TIME:     1.27 SEC, REAL TIME:     1.75 SEC

 FILE SIZES:   FILE 1:  1780.6 MBYTE,  FILE 4:  1350.6 MBYTE,   TOTAL:   3131.2 MBYTE

 OPERATOR DM      FOR CENTER  0  COORDINATES:    0.000000    0.000000    0.000000


 **********************************************************************************************************************************
 DATASETS  * FILE   NREC   LENGTH (MB)   RECORD NAMES
              1      19      944.14       500      610      700      900      950      970     1000      129      960     1100   
                                          VAR    BASINP    GEOM    SYMINP    ZMAT    AOBASIS   BASIS     P2S    ABASIS      S 
                                         1400     1410     1200     1210     1080     1600     1650     1300     1700   
                                           T        V       H0       H01     AOSYM     SMH    MOLCAS    ERIS     OPER   

 PROGRAMS   *        TOTAL       INT
 CPU TIMES  *        10.49     10.39
 REAL TIME  *        13.04 SEC
 DISK USED  *         3.13 GB      
 **********************************************************************************************************************************


 PROGRAM * RHF-SCF (CLOSED SHELL)       Authors: W. Meyer, H.-J. Werner


 NUMBER OF ELECTRONS:       8+    8-
 CONVERGENCE THRESHOLDS:    1.00E-10 (Density)    1.00E-13 (Energy)
 MAX. NUMBER OF ITERATIONS:      500
 INTERPOLATION TYPE:            DIIS
 INTERPOLATION STEPS:              2 (START)      1 (STEP)
 LEVEL SHIFTS:                  0.00 (CLOSED)  0.00 (OPEN) 



 Orbital guess generated from atomic densities. Full valence occupancy:    9   2

 Molecular orbital dump at record        2100.2

 Initial occupancy:   7   1

 ITERATION    DDIFF          GRAD             ENERGY        2-EL.EN.            DIPOLE MOMENTS         DIIS   ORB.
    1      0.000D+00      0.000D+00      -129.79769769    154.094635    0.00000    0.59134   -1.01105    0    start
    2      0.000D+00      0.808D-02      -129.82511885    155.344759    0.00000    0.60645   -0.20916    1    diag
    3      0.648D-02      0.611D-02      -129.84738027    155.454351    0.00000    0.55348   -0.58658    2    diag
    4      0.330D-02      0.966D-03      -129.84817458    155.172162    0.00000    0.56083   -0.52604    3    diag
    5      0.602D-03      0.314D-03      -129.84829986    155.265804    0.00000    0.56624   -0.52878    4    diag
    6      0.251D-03      0.911D-04      -129.84831986    155.249640    0.00000    0.56656   -0.52468    5    diag
    7      0.960D-04      0.451D-04      -129.84832560    155.252475    0.00000    0.56783   -0.52214    6    diag
    8      0.659D-04      0.155D-04      -129.84832623    155.251796    0.00000    0.56788   -0.52115    7    diag
    9      0.248D-04      0.297D-05      -129.84832625    155.251682    0.00000    0.56784   -0.52094    8    diag
   10      0.490D-05      0.685D-06      -129.84832626    155.251663    0.00000    0.56780   -0.52091    9    orth
   11      0.990D-06      0.138D-06      -129.84832626    155.251659    0.00000    0.56780   -0.52091    9    diag
   12      0.185D-06      0.279D-07      -129.84832626    155.251659    0.00000    0.56780   -0.52091    9    diag
   13      0.399D-07      0.715D-08      -129.84832626    155.251659    0.00000    0.56780   -0.52091    9    diag
   14      0.108D-07      0.142D-08      -129.84832626    155.251659    0.00000    0.56780   -0.52091    9    diag
   15      0.200D-08      0.413D-09      -129.84832626    155.251659    0.00000    0.56780   -0.52091    9    diag
   16      0.593D-09      0.126D-09      -129.84832626    155.251659    0.00000    0.56780   -0.52091    9    diag
   17      0.117D-09      0.342D-10      -129.84832626    155.251659    0.00000    0.56780   -0.52091    9    diag
   18      0.323D-10      0.117D-10      -129.84832626    155.251659    0.00000    0.56780   -0.52091    9    diag
   19      0.161D-10      0.288D-11      -129.84832626    155.251659    0.00000    0.56780   -0.52091    9    fixocc
   20      0.558D-11      0.506D-12      -129.84832626    155.251659    0.00000    0.56780   -0.52091    9    orth
   21      0.445D-11      0.243D-12      -129.84832626    155.251659    0.00000    0.56780   -0.52091    0    orth

 Final occupancy:   7   1

 !RHF STATE 1.1 Energy               -129.848326256096
 Nuclear energy                        30.44654333
 One-electron energy                 -237.92069911
 Two-electron energy                   77.62582953
 Virial quotient                       -1.00165980
 !RHF STATE 1.1 Dipole moment           0.00000000     0.56779512    -0.52090519
 Dipole moment /Debye                   0.00000000     1.44309672    -1.32392222

 Orbital energies:

         1.1          2.1          3.1          4.1          5.1          6.1          7.1          8.1          9.1
    -20.653371   -15.712400    -1.533597    -0.992261    -0.748218    -0.667640    -0.428476     0.026400     0.079482

         1.2          2.2          3.2
     -0.598557     0.064541     0.110783

 HOMO      7.1    -0.428476 =     -11.6594eV
 LUMO      8.1     0.026400 =       0.7184eV
 LUMO-HOMO         0.454876 =      12.3778eV


 **********************************************************************************************************************************
 DATASETS  * FILE   NREC   LENGTH (MB)   RECORD NAMES
              1      19      944.14       500      610      700      900      950      970     1000      129      960     1100   
                                          VAR    BASINP    GEOM    SYMINP    ZMAT    AOBASIS   BASIS     P2S    ABASIS      S 
                                         1400     1410     1200     1210     1080     1600     1650     1300     1700   
                                           T        V       H0       H01     AOSYM     SMH    MOLCAS    ERIS     OPER   

              2       4        3.27       700     1000      520     2100   
                                         GEOM     BASIS   MCVARS     RHF  

 PROGRAMS   *        TOTAL        HF       INT
 CPU TIMES  *        20.42      9.93     10.39
 REAL TIME  *        25.39 SEC
 DISK USED  *         3.13 GB      
 **********************************************************************************************************************************


 PROGRAM * CCSD (Closed-shell coupled cluster)     Authors: C. Hampel, H.-J. Werner, 1991, M. Deegan, P.J. Knowles, 1992


 Convergence thresholds:  THRVAR = 1.00D-08  THRDEN = 1.00D-12

 CCSD(T)     terms to be evaluated (factor= 1.000)


 Number of core orbitals:           2 (   2   0 )
 Number of closed-shell orbitals:   6 (   5   1 )
 Number of external orbitals:     198 ( 123  75 )

 Molecular orbitals read from record     2100.2  Type=RHF/CANONICAL (state 1.1)

 Number of N-1 electron functions:               6
 Number of N-2 electron functions:              21
 Number of singly external CSFs:               690
 Number of doubly external CSFs:            362646
 Total number of CSFs:                      363337

 Length of J-op  integral file:               0.00 MB
 Length of K-op  integral file:               1.60 MB
 Length of 3-ext integral record:             0.00 MB

 Memory could be reduced to 34.67 Mwords without degradation in triples

 Integral transformation finished. Total CPU:   1.38 sec, npass=  1  Memory used:   9.53 MW

 Reference energy:                   -129.84832626

 MP2 singlet pair energy:              -0.30121020
 MP2 triplet pair energy:              -0.17015853
 MP2 correlation energy:               -0.47136873
 MP2 total energy:                   -130.31969499

 SCS-MP2 correlation energy:           -0.46732866   (PS=  1.200000  PT=  0.333333)
 SCS-MP2 total energy:               -130.31565492

 ITER.      SQ.NORM     CORR.ENERGY   TOTAL ENERGY   ENERGY CHANGE        DEN1      VAR(S)    VAR(P)  DIIS     TIME  TIME/IT
   1      1.12066477    -0.47158795  -130.31991421    -0.00021922     0.01602856  0.31D-02  0.31D-02  1  1     2.53     1.26
   2      1.13127780    -0.47158355  -130.31990980     0.00000440    -0.01240359  0.10D-03  0.49D-03  2  2     3.69     1.29
   3      1.13752012    -0.47195774  -130.32028400    -0.00037420    -0.00302720  0.48D-04  0.52D-04  3  3     4.87     1.30
   4      1.14023019    -0.47196351  -130.32028976    -0.00000576    -0.00092554  0.43D-05  0.95D-05  4  4     6.05     1.30
   5      1.14130350    -0.47199241  -130.32031867    -0.00002890    -0.00023447  0.11D-05  0.16D-05  5  5     7.20     1.31
   6      1.14165267    -0.47197812  -130.32030438     0.00001429    -0.00004990  0.11D-06  0.39D-06  6  6     8.31     1.31
   7      1.14172685    -0.47197841  -130.32030467    -0.00000029     0.00000215  0.18D-07  0.88D-07  6  1     9.50     1.31
   8      1.14174981    -0.47197879  -130.32030504    -0.00000038    -0.00000117  0.36D-08  0.17D-07  6  2    10.69     1.32
   9      1.14175833    -0.47197825  -130.32030451     0.00000054    -0.00000040  0.22D-08  0.17D-08  6  3    11.88     1.32
  10      1.14175371    -0.47197901  -130.32030526    -0.00000076     0.00000153  0.31D-09  0.27D-09  6  5    13.03     1.32
  11      1.14175542    -0.47197896  -130.32030522     0.00000004    -0.00000031  0.93D-10  0.24D-10  6  4    14.21     1.32
  12      1.14175501    -0.47197903  -130.32030529    -0.00000007     0.00000003  0.17D-10  0.60D-11  6  6    15.38     1.32
  13      1.14175484    -0.47197903  -130.32030529    -0.00000000    -0.00000004  0.32D-11  0.82D-12  6  1    16.54     1.32
  14      1.14175457    -0.47197904  -130.32030530    -0.00000001     0.00000004  0.43D-12  0.16D-12  6  3    17.67     1.32
  15      1.14175449    -0.47197905  -130.32030530    -0.00000000     0.00000001  0.12D-12  0.21D-13  6  2    18.85     1.32
  16      1.14175448    -0.47197905  -130.32030530     0.00000000     0.00000000  0.29D-13  0.93D-14  6  4    20.00     1.32
  17      1.14175448    -0.47197905  -130.32030530    -0.00000000    -0.00000000  0.14D-14  0.10D-14  6  5    21.14     1.32
  18      1.14175449    -0.47197905  -130.32030530     0.00000000    -0.00000000  0.23D-15  0.23D-15  6  6    22.30     1.32
  19      1.14175449    -0.47197905  -130.32030530     0.00000000    -0.00000000  0.30D-16  0.27D-16  6  5    23.46     1.32
  20      1.14175449    -0.47197905  -130.32030530     0.00000000    -0.00000000  0.58D-17  0.37D-17  6  1    24.63     1.32
  21      1.14175449    -0.47197905  -130.32030530    -0.00000000     0.00000000  0.74D-18  0.53D-18  6  3    25.78     1.32
  22      1.14175449    -0.47197905  -130.32030530    -0.00000000     0.00000000  0.99D-19  0.56D-19  6  2    26.90     1.32
  23      1.14175449    -0.47197905  -130.32030530    -0.00000000     0.00000000  0.21D-19  0.10D-19  6  4    28.04     1.32
  24      1.14175449    -0.47197905  -130.32030530    -0.00000000     0.00000000  0.76D-20  0.17D-20  6  6    29.22     1.32
  25      1.14175449    -0.47197905  -130.32030530     0.00000000    -0.00000000  0.24D-20  0.60D-21  6  5    30.39     1.32

 Norm of t1 vector:      0.07623716      S-energy:    -0.00000000      T1 diagnostic:  0.01556185
                                                                       D1 diagnostic:  0.04153471

 Doubles amplitudes (print threshold =  0.500E-01):

         I         J         SYM. A    SYM. B    A         B      T(IJ, AB)

         6         6         2         2         1         1     -0.09580855


 Total CPU time for triples:     14.51 sec


 RESULTS
 =======

  Reference energy                   -129.848326256096
  CCSD singlet pair energy             -0.326171357896
  CCSD triplet pair energy             -0.145807689403
  CCSD correlation energy              -0.471979047300

  Triples (T) contribution             -0.022239089204
  Total correlation energy             -0.494218136504

  CCSD total energy                  -130.320305303395
  CCSD[T] energy                     -130.343602632591
  CCSD-T energy                      -130.342162040861
 !CCSD(T) total energy               -130.342544392600

 Timing summary (sec):

 STEP                 CPU(USER)    SYS     CPU(TOT)    WALL
 Transformation          1.40      0.28      1.68      1.67
 CCSD iterations        28.99      3.99     32.98     33.01
 Triples                14.51      0.40     14.91     14.91

 Program statistics:

 Available memory in ccsd:               994999756
 Min. memory needed in ccsd:               1265322
 Max. memory used in ccsd:                 1555950
 Max. memory used in cckext:               2415326 (25 integral passes)



 **********************************************************************************************************************************
 DATASETS  * FILE   NREC   LENGTH (MB)   RECORD NAMES
              1      20     1044.69       500      610      700      900      950      970     1000      129      960     1100   
                                          VAR    BASINP    GEOM    SYMINP    ZMAT    AOBASIS   BASIS     P2S    ABASIS      S 
                                         1400     1410     1200     1210     1080     1600     1650     1300     1700     1380   
                                           T        V       H0       H01     AOSYM     SMH    MOLCAS    ERIS     OPER     JKOP   

              2       4        3.27       700     1000      520     2100   
                                         GEOM     BASIS   MCVARS     RHF  

 PROGRAMS   *        TOTAL   CCSD(T)        HF       INT
 CPU TIMES  *        65.34     44.91      9.93     10.39
 REAL TIME  *        75.01 SEC
 DISK USED  *         3.13 GB      
 **********************************************************************************************************************************

 CCSD(T)/aug-cc-pVQZ energy=   -130.342544392600

        CCSD(T)         HF-SCF  
   -130.34254439   -129.84832626
 **********************************************************************************************************************************
 Molpro calculation terminated
 Variable memory released
