
 Primary working directories    : /tmp/r2666/281979.maple
 Secondary working directories  : /tmp/r2666/281979.maple
 Wavefunction directory         : /ddn/home4/r2666/wfu/
 Main file repository           : /tmp/r2666/281979.maple/

 SHA1      : d5ffa45e93fdbca01ffc919aa182cfdae0147319
 NAME      : 2015.1.35
 ARCHNAME  : linux/x86_64
 FC        : /opt/intel/composer_xe_2015.1.133/bin/intel64/ifort
 BLASLIB   : -Wl,-_start-group /opt/intel/mkl/lib/intel64/libmkl_intel_ilp64.a /opt/intel/mkl/lib/intel64/libmkl_intel_thread.a /opt/intel/mkl/lib/intel64/libmkl_core.a -Wl,-_end-group
 id        : olemiss

 Nodes     nprocs
 cn089        1

 Using customized tuning parameters: mindgm=1; mindgv=20; mindgc=4; mindgr=1; noblas=0; minvec=7
 default implementation of scratch files=df  

 ***,hno CCSD(T)/TZ-F12 QFF
 memory, 995, m;
 gthresh,energy=1.d-12,zero=1.d-22,oneint=1.d-22,twoint=1.d-22;
 gthresh,optgrad=1.d-8,optstep=1.d-8;
 nocompress;
 geomtyp=xyz
 bohr
 geometry={
 3
          5         5
 H        0.0000000000        1.6531870083       -1.9184273249
 N        0.0000000000       -0.1510139152       -1.1533625669
 O        0.0000000000        0.0395946969        1.1212003007
 }
 
 basis=avqz
   {hf,maxit=500;accu,20;}
 {ccsd(t),nocheck,maxit=250;orbital,IGNORE_ERROR;}

 Variables initialized (889), CPU time= 0.00 sec
 Commands  initialized (702), CPU time= 0.02 sec, 572 directives.
 Default parameters read. Elapsed time= 0.06 sec

 Checking input...
 Passed
1


                                         ***  PROGRAM SYSTEM MOLPRO  ***
                                       Copyright, TTI GmbH Stuttgart, 2015
                                    Version 2015.1 linked Jul  9 2018 13:16:40


 **********************************************************************************************************************************
 LABEL *   hno CCSD(T)/TZ-F12 QFF                                                        
  64 bit serial version                                                                  DATE: 04-Mar-20          TIME: 13:38:18  
 **********************************************************************************************************************************

 SHA1:             d5ffa45e93fdbca01ffc919aa182cfdae0147319
 **********************************************************************************************************************************

 THRESHOLDS:

 ZERO    =  1.00D-22  ONEINT  =  1.00D-22  TWOINT  =  1.00D-22  PREFAC  =  1.00D-14  LOCALI  =  1.00D-09  EORDER  =  1.00D-04
 ENERGY  =  1.00D-12  ETEST   =  0.00D+00  EDENS   =  0.00D+00  THRDEDEF=  1.00D-06  GRADIENT=  1.00D-02  STEP    =  1.00D-03
 ORBITAL =  1.00D-05  CIVEC   =  1.00D-05  COEFF   =  1.00D-04  PRINTCI =  5.00D-02  PUNCHCI =  9.90D+01  OPTGRAD =  3.00D-04
 OPTENERG=  1.00D-06  OPTSTEP =  3.00D-04  THRGRAD =  1.00D-10  COMPRESS=  1.00D-11  VARMIN  =  1.00D-07  VARMAX  =  1.00D-03
 THRDOUB =  0.00D+00  THRDIV  =  1.00D-05  THRRED  =  1.00D-07  THRPSP  =  1.00D+00  THRDC   =  1.00D-10  THRCS   =  1.00D-10
 THRNRM  =  1.00D-08  THREQ   =  0.00D+00  THRDE   =  1.00D+00  THRREF  =  1.00D-05  SPARFAC =  1.00D+00  THRDLP  =  1.00D-07
 THRDIA  =  1.00D-10  THRDLS  =  1.00D-07  THRGPS  =  0.00D+00  THRKEX  =  0.00D+00  THRDIS  =  2.00D-01  THRVAR  =  1.00D-10
 THRLOC  =  1.00D-06  THRGAP  =  1.00D-06  THRLOCT = -1.00D+00  THRGAPT = -1.00D+00  THRORB  =  1.00D-06  THRMLTP =  0.00D+00
 THRCPQCI=  1.00D-10  KEXTA   =  0.00D+00  THRCOARS=  0.00D+00  SYMTOL  =  1.00D-06  GRADTOL =  1.00D-06  THROVL  =  1.00D-08
 THRORTH =  1.00D-08  GRID    =  1.00D-06  GRIDMAX =  1.00D-03  DTMAX   =  0.00D+00  THROCCDE=  1.00D-01  THROCCDE=  1.00D-01



 THRESHOLDS:

 ZERO    =  1.00D-22  ONEINT  =  1.00D-22  TWOINT  =  1.00D-22  PREFAC  =  1.00D-14  LOCALI  =  1.00D-09  EORDER  =  1.00D-04
 ENERGY  =  1.00D-12  ETEST   =  0.00D+00  EDENS   =  0.00D+00  THRDEDEF=  1.00D-06  GRADIENT=  1.00D-02  STEP    =  1.00D-03
 ORBITAL =  1.00D-05  CIVEC   =  1.00D-05  COEFF   =  1.00D-04  PRINTCI =  5.00D-02  PUNCHCI =  9.90D+01  OPTGRAD =  1.00D-08
 OPTENERG=  1.00D-06  OPTSTEP =  1.00D-08  THRGRAD =  1.00D-10  COMPRESS=  1.00D-11  VARMIN  =  1.00D-07  VARMAX  =  1.00D-03
 THRDOUB =  0.00D+00  THRDIV  =  1.00D-05  THRRED  =  1.00D-07  THRPSP  =  1.00D+00  THRDC   =  1.00D-10  THRCS   =  1.00D-10
 THRNRM  =  1.00D-08  THREQ   =  0.00D+00  THRDE   =  1.00D+00  THRREF  =  1.00D-05  SPARFAC =  1.00D+00  THRDLP  =  1.00D-07
 THRDIA  =  1.00D-10  THRDLS  =  1.00D-07  THRGPS  =  0.00D+00  THRKEX  =  0.00D+00  THRDIS  =  2.00D-01  THRVAR  =  1.00D-10
 THRLOC  =  1.00D-06  THRGAP  =  1.00D-06  THRLOCT = -1.00D+00  THRGAPT = -1.00D+00  THRORB  =  1.00D-06  THRMLTP =  0.00D+00
 THRCPQCI=  1.00D-10  KEXTA   =  0.00D+00  THRCOARS=  0.00D+00  SYMTOL  =  1.00D-06  GRADTOL =  1.00D-06  THROVL  =  1.00D-08
 THRORTH =  1.00D-08  GRID    =  1.00D-06  GRIDMAX =  1.00D-03  DTMAX   =  0.00D+00  THROCCDE=  1.00D-01  THROCCDE=  1.00D-01



 Input parameters for SORTINT:

 COMPRESS =    0.000000
 C_FINAL  =    1.000000
 DEBUG    =   -1.000000
 C_SORT1  =    0.000000
 C_SEWARD =    0.000000
 THRESH   =    0.000000
 IO       =  molpro                                                          
 SPRI     =    0.000000
 SETTING GEOMTYP        =    XYZ
 ZUNIT=BOHR
 

 Variable memory set to  995000000 words,  buffer space   230000 words

 SETTING BASIS          =    AVQZ


 Recomputing integrals since basis changed


 Using spherical harmonics

 Library entry H      S aug-cc-pVQZ          selected for orbital group  1
 Library entry H      P aug-cc-pVQZ          selected for orbital group  1
 Library entry H      D aug-cc-pVQZ          selected for orbital group  1
 Library entry H      F aug-cc-pVQZ          selected for orbital group  1
 Library entry N      S aug-cc-pVQZ          selected for orbital group  2
 Library entry N      P aug-cc-pVQZ          selected for orbital group  2
 Library entry N      D aug-cc-pVQZ          selected for orbital group  2
 Library entry N      F aug-cc-pVQZ          selected for orbital group  2
 Library entry N      G aug-cc-pVQZ          selected for orbital group  2
 Library entry O      S aug-cc-pVQZ          selected for orbital group  3
 Library entry O      P aug-cc-pVQZ          selected for orbital group  3
 Library entry O      D aug-cc-pVQZ          selected for orbital group  3
 Library entry O      F aug-cc-pVQZ          selected for orbital group  3
 Library entry O      G aug-cc-pVQZ          selected for orbital group  3


 PROGRAM * SEWARD (Integral evaluation for generally contracted gaussian basis sets)     Author: Roland Lindh, 1990

 Geometry written to block  1 of record 700


 Point group  Cs  



 ATOMIC COORDINATES

 NR  ATOM    CHARGE       X              Y              Z

   1  H       1.00    0.000000000    1.653187008   -1.918427325
   2  N       7.00    0.000000000   -0.151013915   -1.153362567
   3  O       8.00    0.000000000    0.039594697    1.121200301

 Bond lengths in Bohr (Angstrom)

 1-2  1.959710452  2-3  2.282535406
     ( 1.037034111)     ( 1.207865720)

 Bond angles

  1-2-3  108.18899349

 NUCLEAR CHARGE:                   16
 NUMBER OF PRIMITIVE AOS:         293
 NUMBER OF SYMMETRY AOS:          234
 NUMBER OF CONTRACTIONS:          206   ( 130A'  +  76A"  )
 NUMBER OF CORE ORBITALS:           2   (   2A'  +   0A"  )
 NUMBER OF VALENCE ORBITALS:        9   (   7A'  +   2A"  )


 NUCLEAR REPULSION ENERGY   30.43073401

 Eigenvalues of metric

         1 0.580E-04 0.143E-03 0.315E-03 0.434E-03 0.583E-03 0.662E-03 0.982E-03 0.108E-02
         2 0.817E-03 0.155E-02 0.486E-02 0.890E-02 0.990E-02 0.122E-01 0.124E-01 0.180E-01


 Contracted 2-electron integrals neglected if value below      1.0D-22

      109945083. INTEGRALS WRITTEN OUT IN   26849 BLOCKS ON RECORD 1290 OF FILE 1


 NUMBER OF SORTED TWO-ELECTRON INTEGRALS:  115283741.     BUFFER LENGTH:  32768
 NUMBER OF SEGMENTS:   8  SEGMENT LENGTH:   15998004      RECORD LENGTH: 524288

 Memory used in sort:      16.56 MW

 SORT1 READ   109945083. AND WROTE   110865250. INTEGRALS IN    322 RECORDS. CPU TIME:     1.79 SEC, REAL TIME:     2.52 SEC
 SORT2 READ   110865250. AND WROTE   115283741. INTEGRALS IN      8 RECORDS. CPU TIME:     1.26 SEC, REAL TIME:     1.76 SEC

 FILE SIZES:   FILE 1:  1780.6 MBYTE,  FILE 4:  1350.6 MBYTE,   TOTAL:   3131.2 MBYTE

 OPERATOR DM      FOR CENTER  0  COORDINATES:    0.000000    0.000000    0.000000


 **********************************************************************************************************************************
 DATASETS  * FILE   NREC   LENGTH (MB)   RECORD NAMES
              1      19      944.14       500      610      700      900      950      970     1000      129      960     1100   
                                          VAR    BASINP    GEOM    SYMINP    ZMAT    AOBASIS   BASIS     P2S    ABASIS      S 
                                         1400     1410     1200     1210     1080     1600     1650     1300     1700   
                                           T        V       H0       H01     AOSYM     SMH    MOLCAS    ERIS     OPER   

 PROGRAMS   *        TOTAL       INT
 CPU TIMES  *        10.53     10.41
 REAL TIME  *        13.81 SEC
 DISK USED  *         3.13 GB      
 **********************************************************************************************************************************


 PROGRAM * RHF-SCF (CLOSED SHELL)       Authors: W. Meyer, H.-J. Werner


 NUMBER OF ELECTRONS:       8+    8-
 CONVERGENCE THRESHOLDS:    1.00E-10 (Density)    1.00E-13 (Energy)
 MAX. NUMBER OF ITERATIONS:      500
 INTERPOLATION TYPE:            DIIS
 INTERPOLATION STEPS:              2 (START)      1 (STEP)
 LEVEL SHIFTS:                  0.00 (CLOSED)  0.00 (OPEN) 



 Orbital guess generated from atomic densities. Full valence occupancy:    9   2

 Molecular orbital dump at record        2100.2

 Initial occupancy:   7   1

 ITERATION    DDIFF          GRAD             ENERGY        2-EL.EN.            DIPOLE MOMENTS         DIIS   ORB.
    1      0.000D+00      0.000D+00      -129.79781135    154.082006    0.00000    0.60363   -1.02374    0    start
    2      0.000D+00      0.806D-02      -129.82510765    155.297981    0.00000    0.61139   -0.21412    1    diag
    3      0.648D-02      0.610D-02      -129.84729641    155.424541    0.00000    0.56144   -0.59518    2    diag
    4      0.329D-02      0.973D-03      -129.84809819    155.141300    0.00000    0.56894   -0.53380    3    diag
    5      0.606D-03      0.314D-03      -129.84822188    155.233700    0.00000    0.57405   -0.53630    4    diag
    6      0.250D-03      0.901D-04      -129.84824141    155.217738    0.00000    0.57434   -0.53216    5    diag
    7      0.948D-04      0.450D-04      -129.84824712    155.220422    0.00000    0.57553   -0.52955    6    diag
    8      0.656D-04      0.157D-04      -129.84824777    155.219739    0.00000    0.57557   -0.52853    7    diag
    9      0.253D-04      0.299D-05      -129.84824780    155.219629    0.00000    0.57553   -0.52831    8    diag
   10      0.501D-05      0.679D-06      -129.84824780    155.219613    0.00000    0.57550   -0.52828    9    orth
   11      0.979D-06      0.135D-06      -129.84824780    155.219610    0.00000    0.57549   -0.52828    9    diag
   12      0.178D-06      0.275D-07      -129.84824780    155.219610    0.00000    0.57549   -0.52828    9    diag
   13      0.380D-07      0.705D-08      -129.84824780    155.219610    0.00000    0.57549   -0.52828    9    diag
   14      0.103D-07      0.137D-08      -129.84824780    155.219610    0.00000    0.57549   -0.52828    9    diag
   15      0.187D-08      0.392D-09      -129.84824780    155.219610    0.00000    0.57549   -0.52828    9    diag
   16      0.560D-09      0.118D-09      -129.84824780    155.219610    0.00000    0.57549   -0.52828    9    diag
   17      0.105D-09      0.299D-10      -129.84824780    155.219610    0.00000    0.57549   -0.52828    9    diag
   18      0.279D-10      0.988D-11      -129.84824780    155.219610    0.00000    0.57549   -0.52828    9    diag
   19      0.135D-10      0.235D-11      -129.84824780    155.219610    0.00000    0.57549   -0.52828    0    orth

 Final occupancy:   7   1

 !RHF STATE 1.1 Energy               -129.848247799058
 Nuclear energy                        30.43073401
 One-electron energy                 -237.88878658
 Two-electron energy                   77.60980477
 Virial quotient                       -1.00156002
 !RHF STATE 1.1 Dipole moment           0.00000000     0.57549100    -0.52827976
 Dipole moment /Debye                   0.00000000     1.46265642    -1.34266527

 Orbital energies:

         1.1          2.1          3.1          4.1          5.1          6.1          7.1          8.1          9.1
    -20.653397   -15.710594    -1.529878    -0.998380    -0.748883    -0.666146    -0.431394     0.026370     0.079483

         1.2          2.2          3.2
     -0.595915     0.063287     0.110140

 HOMO      7.1    -0.431394 =     -11.7388eV
 LUMO      8.1     0.026370 =       0.7176eV
 LUMO-HOMO         0.457765 =      12.4564eV


 **********************************************************************************************************************************
 DATASETS  * FILE   NREC   LENGTH (MB)   RECORD NAMES
              1      19      944.14       500      610      700      900      950      970     1000      129      960     1100   
                                          VAR    BASINP    GEOM    SYMINP    ZMAT    AOBASIS   BASIS     P2S    ABASIS      S 
                                         1400     1410     1200     1210     1080     1600     1650     1300     1700   
                                           T        V       H0       H01     AOSYM     SMH    MOLCAS    ERIS     OPER   

              2       4        3.27       700     1000      520     2100   
                                         GEOM     BASIS   MCVARS     RHF  

 PROGRAMS   *        TOTAL        HF       INT
 CPU TIMES  *        19.59      9.06     10.41
 REAL TIME  *        25.23 SEC
 DISK USED  *         3.13 GB      
 **********************************************************************************************************************************


 PROGRAM * CCSD (Closed-shell coupled cluster)     Authors: C. Hampel, H.-J. Werner, 1991, M. Deegan, P.J. Knowles, 1992


 Convergence thresholds:  THRVAR = 1.00D-08  THRDEN = 1.00D-12

 CCSD(T)     terms to be evaluated (factor= 1.000)


 Number of core orbitals:           2 (   2   0 )
 Number of closed-shell orbitals:   6 (   5   1 )
 Number of external orbitals:     198 ( 123  75 )

 Molecular orbitals read from record     2100.2  Type=RHF/CANONICAL (state 1.1)

 Number of N-1 electron functions:               6
 Number of N-2 electron functions:              21
 Number of singly external CSFs:               690
 Number of doubly external CSFs:            362646
 Total number of CSFs:                      363337

 Length of J-op  integral file:               0.00 MB
 Length of K-op  integral file:               1.60 MB
 Length of 3-ext integral record:             0.00 MB

 Memory could be reduced to 34.67 Mwords without degradation in triples

 Integral transformation finished. Total CPU:   1.40 sec, npass=  1  Memory used:   9.53 MW

 Reference energy:                   -129.84824780

 MP2 singlet pair energy:              -0.30127451
 MP2 triplet pair energy:              -0.17022580
 MP2 correlation energy:               -0.47150032
 MP2 total energy:                   -130.31974811

 SCS-MP2 correlation energy:           -0.46744769   (PS=  1.200000  PT=  0.333333)
 SCS-MP2 total energy:               -130.31569549

 ITER.      SQ.NORM     CORR.ENERGY   TOTAL ENERGY   ENERGY CHANGE        DEN1      VAR(S)    VAR(P)  DIIS     TIME  TIME/IT
   1      1.12052376    -0.47157617  -130.31982396    -0.00007585     0.01620568  0.31D-02  0.31D-02  1  1     2.56     1.27
   2      1.13113316    -0.47154547  -130.31979327     0.00003069    -0.01241891  0.10D-03  0.49D-03  2  2     3.69     1.30
   3      1.13736061    -0.47191428  -130.32016208    -0.00036881    -0.00301706  0.47D-04  0.53D-04  3  3     4.86     1.31
   4      1.14009073    -0.47192323  -130.32017103    -0.00000894    -0.00092657  0.41D-05  0.95D-05  4  4     6.03     1.31
   5      1.14116289    -0.47195178  -130.32019958    -0.00002855    -0.00023383  0.10D-05  0.17D-05  5  5     7.22     1.31
   6      1.14151083    -0.47193714  -130.32018493     0.00001464    -0.00005016  0.97D-07  0.40D-06  6  6     8.39     1.32
   7      1.14158145    -0.47193787  -130.32018567    -0.00000074     0.00000276  0.15D-07  0.90D-07  6  1     9.55     1.32
   8      1.14160332    -0.47193825  -130.32018605    -0.00000037    -0.00000096  0.35D-08  0.17D-07  6  2    10.72     1.32
   9      1.14160790    -0.47193790  -130.32018570     0.00000034     0.00000091  0.26D-08  0.20D-08  6  4    11.89     1.32
  10      1.14161027    -0.47193827  -130.32018607    -0.00000037    -0.00000072  0.47D-09  0.24D-09  6  3    13.06     1.32
  11      1.14161000    -0.47193833  -130.32018613    -0.00000006    -0.00000012  0.15D-09  0.33D-10  6  5    14.23     1.32
  12      1.14160907    -0.47193847  -130.32018627    -0.00000014     0.00000035  0.18D-10  0.10D-10  6  6    15.38     1.32
  13      1.14160826    -0.47193851  -130.32018631    -0.00000004     0.00000021  0.54D-11  0.23D-11  6  1    16.53     1.32
  14      1.14160761    -0.47193854  -130.32018634    -0.00000003     0.00000015  0.35D-12  0.47D-12  6  4    17.72     1.33
  15      1.14160741    -0.47193855  -130.32018635    -0.00000001     0.00000003  0.72D-13  0.37D-13  6  2    18.90     1.33
  16      1.14160736    -0.47193855  -130.32018635    -0.00000000     0.00000001  0.20D-13  0.67D-14  6  3    20.02     1.33
  17      1.14160733    -0.47193855  -130.32018635    -0.00000000     0.00000001  0.36D-14  0.90D-15  6  5    21.19     1.33
  18      1.14160733    -0.47193855  -130.32018635    -0.00000000     0.00000000  0.77D-15  0.22D-15  6  6    22.33     1.33
  19      1.14160733    -0.47193855  -130.32018635    -0.00000000     0.00000000  0.97D-16  0.45D-16  6  1    23.49     1.33
  20      1.14160733    -0.47193855  -130.32018635     0.00000000    -0.00000000  0.89D-17  0.69D-17  6  4    24.71     1.33
  21      1.14160733    -0.47193855  -130.32018635     0.00000000    -0.00000000  0.42D-18  0.61D-18  6  3    25.88     1.33
  22      1.14160733    -0.47193855  -130.32018635     0.00000000    -0.00000000  0.10D-18  0.12D-18  6  2    27.02     1.33
  23      1.14160733    -0.47193855  -130.32018635     0.00000000     0.00000000  0.29D-19  0.47D-19  6  5    28.20     1.33
  24      1.14160733    -0.47193855  -130.32018635    -0.00000000     0.00000000  0.21D-20  0.96D-20  6  1    29.32     1.33

 Norm of t1 vector:      0.07616005      S-energy:     0.00000000      T1 diagnostic:  0.01554610
                                                                       D1 diagnostic:  0.04212412

 Doubles amplitudes (print threshold =  0.500E-01):

         I         J         SYM. A    SYM. B    A         B      T(IJ, AB)

         6         6         2         2         1         1     -0.09860359


 Total CPU time for triples:     14.51 sec


 RESULTS
 =======

  Reference energy                   -129.848247799058
  CCSD singlet pair energy             -0.326147111176
  CCSD triplet pair energy             -0.145791437444
  CCSD correlation energy              -0.471938548620

  Triples (T) contribution             -0.022259730274
  Total correlation energy             -0.494198278893

  CCSD total energy                  -130.320186347678
  CCSD[T] energy                     -130.343504365247
  CCSD-T energy                      -130.342066235824
 !CCSD(T) total energy               -130.342446077951

 Timing summary (sec):

 STEP                 CPU(USER)    SYS     CPU(TOT)    WALL
 Transformation          1.41      0.22      1.63      1.65
 CCSD iterations        27.92      3.96     31.88     31.88
 Triples                14.51      0.42     14.93     14.93

 Program statistics:

 Available memory in ccsd:               994999756
 Min. memory needed in ccsd:               1265322
 Max. memory used in ccsd:                 1555950
 Max. memory used in cckext:               2415326 (24 integral passes)



 **********************************************************************************************************************************
 DATASETS  * FILE   NREC   LENGTH (MB)   RECORD NAMES
              1      20     1044.69       500      610      700      900      950      970     1000      129      960     1100   
                                          VAR    BASINP    GEOM    SYMINP    ZMAT    AOBASIS   BASIS     P2S    ABASIS      S 
                                         1400     1410     1200     1210     1080     1600     1650     1300     1700     1380   
                                           T        V       H0       H01     AOSYM     SMH    MOLCAS    ERIS     OPER     JKOP   

              2       4        3.27       700     1000      520     2100   
                                         GEOM     BASIS   MCVARS     RHF  

 PROGRAMS   *        TOTAL   CCSD(T)        HF       INT
 CPU TIMES  *        63.45     43.86      9.06     10.41
 REAL TIME  *        73.72 SEC
 DISK USED  *         3.13 GB      
 **********************************************************************************************************************************

 CCSD(T)/aug-cc-pVQZ energy=   -130.342446077951

        CCSD(T)         HF-SCF  
   -130.34244608   -129.84824780
 **********************************************************************************************************************************
 Molpro calculation terminated
 Variable memory released
