
 Primary working directories    : /tmp/r2666/282047.maple
 Secondary working directories  : /tmp/r2666/282047.maple
 Wavefunction directory         : /ddn/home4/r2666/wfu/
 Main file repository           : /tmp/r2666/282047.maple/

 SHA1      : d5ffa45e93fdbca01ffc919aa182cfdae0147319
 NAME      : 2015.1.35
 ARCHNAME  : linux/x86_64
 FC        : /opt/intel/composer_xe_2015.1.133/bin/intel64/ifort
 BLASLIB   : -Wl,-_start-group /opt/intel/mkl/lib/intel64/libmkl_intel_ilp64.a /opt/intel/mkl/lib/intel64/libmkl_intel_thread.a /opt/intel/mkl/lib/intel64/libmkl_core.a -Wl,-_end-group
 id        : olemiss

 Nodes     nprocs
 cn075        1

 Using customized tuning parameters: mindgm=1; mindgv=20; mindgc=4; mindgr=1; noblas=0; minvec=7
 default implementation of scratch files=df  

 ***,hno CCSD(T)/TZ-F12 QFF
 memory, 995, m;
 gthresh,energy=1.d-12,zero=1.d-22,oneint=1.d-22,twoint=1.d-22;
 gthresh,optgrad=1.d-8,optstep=1.d-8;
 nocompress;
 geomtyp=xyz
 bohr
 geometry={
 3
         73        73
 H        0.0000000000        1.6676568771       -1.9313481163
 N        0.0000000000       -0.1610207466       -1.1514082676
 O        0.0000000000        0.0351316594        1.1321667929
 }
 
 basis=avqz
   {hf,maxit=500;accu,20;}
 {ccsd(t),nocheck,maxit=250;orbital,IGNORE_ERROR;}

 Variables initialized (889), CPU time= 0.01 sec
 Commands  initialized (702), CPU time= 0.01 sec, 572 directives.
 Default parameters read. Elapsed time= 0.04 sec

 Checking input...
 Passed
1


                                         ***  PROGRAM SYSTEM MOLPRO  ***
                                       Copyright, TTI GmbH Stuttgart, 2015
                                    Version 2015.1 linked Jul  9 2018 13:16:40


 **********************************************************************************************************************************
 LABEL *   hno CCSD(T)/TZ-F12 QFF                                                        
  64 bit serial version                                                                  DATE: 04-Mar-20          TIME: 13:43:06  
 **********************************************************************************************************************************

 SHA1:             d5ffa45e93fdbca01ffc919aa182cfdae0147319
 **********************************************************************************************************************************

 THRESHOLDS:

 ZERO    =  1.00D-22  ONEINT  =  1.00D-22  TWOINT  =  1.00D-22  PREFAC  =  1.00D-14  LOCALI  =  1.00D-09  EORDER  =  1.00D-04
 ENERGY  =  1.00D-12  ETEST   =  0.00D+00  EDENS   =  0.00D+00  THRDEDEF=  1.00D-06  GRADIENT=  1.00D-02  STEP    =  1.00D-03
 ORBITAL =  1.00D-05  CIVEC   =  1.00D-05  COEFF   =  1.00D-04  PRINTCI =  5.00D-02  PUNCHCI =  9.90D+01  OPTGRAD =  3.00D-04
 OPTENERG=  1.00D-06  OPTSTEP =  3.00D-04  THRGRAD =  1.00D-10  COMPRESS=  1.00D-11  VARMIN  =  1.00D-07  VARMAX  =  1.00D-03
 THRDOUB =  0.00D+00  THRDIV  =  1.00D-05  THRRED  =  1.00D-07  THRPSP  =  1.00D+00  THRDC   =  1.00D-10  THRCS   =  1.00D-10
 THRNRM  =  1.00D-08  THREQ   =  0.00D+00  THRDE   =  1.00D+00  THRREF  =  1.00D-05  SPARFAC =  1.00D+00  THRDLP  =  1.00D-07
 THRDIA  =  1.00D-10  THRDLS  =  1.00D-07  THRGPS  =  0.00D+00  THRKEX  =  0.00D+00  THRDIS  =  2.00D-01  THRVAR  =  1.00D-10
 THRLOC  =  1.00D-06  THRGAP  =  1.00D-06  THRLOCT = -1.00D+00  THRGAPT = -1.00D+00  THRORB  =  1.00D-06  THRMLTP =  0.00D+00
 THRCPQCI=  1.00D-10  KEXTA   =  0.00D+00  THRCOARS=  0.00D+00  SYMTOL  =  1.00D-06  GRADTOL =  1.00D-06  THROVL  =  1.00D-08
 THRORTH =  1.00D-08  GRID    =  1.00D-06  GRIDMAX =  1.00D-03  DTMAX   =  0.00D+00  THROCCDE=  1.00D-01  THROCCDE=  1.00D-01



 THRESHOLDS:

 ZERO    =  1.00D-22  ONEINT  =  1.00D-22  TWOINT  =  1.00D-22  PREFAC  =  1.00D-14  LOCALI  =  1.00D-09  EORDER  =  1.00D-04
 ENERGY  =  1.00D-12  ETEST   =  0.00D+00  EDENS   =  0.00D+00  THRDEDEF=  1.00D-06  GRADIENT=  1.00D-02  STEP    =  1.00D-03
 ORBITAL =  1.00D-05  CIVEC   =  1.00D-05  COEFF   =  1.00D-04  PRINTCI =  5.00D-02  PUNCHCI =  9.90D+01  OPTGRAD =  1.00D-08
 OPTENERG=  1.00D-06  OPTSTEP =  1.00D-08  THRGRAD =  1.00D-10  COMPRESS=  1.00D-11  VARMIN  =  1.00D-07  VARMAX  =  1.00D-03
 THRDOUB =  0.00D+00  THRDIV  =  1.00D-05  THRRED  =  1.00D-07  THRPSP  =  1.00D+00  THRDC   =  1.00D-10  THRCS   =  1.00D-10
 THRNRM  =  1.00D-08  THREQ   =  0.00D+00  THRDE   =  1.00D+00  THRREF  =  1.00D-05  SPARFAC =  1.00D+00  THRDLP  =  1.00D-07
 THRDIA  =  1.00D-10  THRDLS  =  1.00D-07  THRGPS  =  0.00D+00  THRKEX  =  0.00D+00  THRDIS  =  2.00D-01  THRVAR  =  1.00D-10
 THRLOC  =  1.00D-06  THRGAP  =  1.00D-06  THRLOCT = -1.00D+00  THRGAPT = -1.00D+00  THRORB  =  1.00D-06  THRMLTP =  0.00D+00
 THRCPQCI=  1.00D-10  KEXTA   =  0.00D+00  THRCOARS=  0.00D+00  SYMTOL  =  1.00D-06  GRADTOL =  1.00D-06  THROVL  =  1.00D-08
 THRORTH =  1.00D-08  GRID    =  1.00D-06  GRIDMAX =  1.00D-03  DTMAX   =  0.00D+00  THROCCDE=  1.00D-01  THROCCDE=  1.00D-01



 Input parameters for SORTINT:

 COMPRESS =    0.000000
 C_FINAL  =    1.000000
 DEBUG    =   -1.000000
 C_SORT1  =    0.000000
 C_SEWARD =    0.000000
 THRESH   =    0.000000
 IO       =  molpro                                                          
 SPRI     =    0.000000
 SETTING GEOMTYP        =    XYZ
 ZUNIT=BOHR
 

 Variable memory set to  995000000 words,  buffer space   230000 words

 SETTING BASIS          =    AVQZ


 Recomputing integrals since basis changed


 Using spherical harmonics

 Library entry H      S aug-cc-pVQZ          selected for orbital group  1
 Library entry H      P aug-cc-pVQZ          selected for orbital group  1
 Library entry H      D aug-cc-pVQZ          selected for orbital group  1
 Library entry H      F aug-cc-pVQZ          selected for orbital group  1
 Library entry N      S aug-cc-pVQZ          selected for orbital group  2
 Library entry N      P aug-cc-pVQZ          selected for orbital group  2
 Library entry N      D aug-cc-pVQZ          selected for orbital group  2
 Library entry N      F aug-cc-pVQZ          selected for orbital group  2
 Library entry N      G aug-cc-pVQZ          selected for orbital group  2
 Library entry O      S aug-cc-pVQZ          selected for orbital group  3
 Library entry O      P aug-cc-pVQZ          selected for orbital group  3
 Library entry O      D aug-cc-pVQZ          selected for orbital group  3
 Library entry O      F aug-cc-pVQZ          selected for orbital group  3
 Library entry O      G aug-cc-pVQZ          selected for orbital group  3


 PROGRAM * SEWARD (Integral evaluation for generally contracted gaussian basis sets)     Author: Roland Lindh, 1990

 Geometry written to block  1 of record 700


 Point group  Cs  



 ATOMIC COORDINATES

 NR  ATOM    CHARGE       X              Y              Z

   1  H       1.00    0.000000000    1.667656877   -1.931348116
   2  N       7.00    0.000000000   -0.161020747   -1.151408268
   3  O       8.00    0.000000000    0.035131659    1.132166793

 Bond lengths in Bohr (Angstrom)

 1-2  1.988056342  2-3  2.291984036
     ( 1.052034110)     ( 1.212865720)

 Bond angles

  1-2-3  108.18899349

 NUCLEAR CHARGE:                   16
 NUMBER OF PRIMITIVE AOS:         293
 NUMBER OF SYMMETRY AOS:          234
 NUMBER OF CONTRACTIONS:          206   ( 130A'  +  76A"  )
 NUMBER OF CORE ORBITALS:           2   (   2A'  +   0A"  )
 NUMBER OF VALENCE ORBITALS:        9   (   7A'  +   2A"  )


 NUCLEAR REPULSION ENERGY   30.25858665

 Eigenvalues of metric

         1 0.598E-04 0.146E-03 0.319E-03 0.436E-03 0.595E-03 0.684E-03 0.102E-02 0.109E-02
         2 0.836E-03 0.163E-02 0.499E-02 0.896E-02 0.101E-01 0.124E-01 0.126E-01 0.189E-01


 Contracted 2-electron integrals neglected if value below      1.0D-22

      109945074. INTEGRALS WRITTEN OUT IN   26849 BLOCKS ON RECORD 1290 OF FILE 1


 NUMBER OF SORTED TWO-ELECTRON INTEGRALS:  115283741.     BUFFER LENGTH:  32768
 NUMBER OF SEGMENTS:   8  SEGMENT LENGTH:   15998004      RECORD LENGTH: 524288

 Memory used in sort:      16.56 MW

 SORT1 READ   109945074. AND WROTE   110865241. INTEGRALS IN    322 RECORDS. CPU TIME:     1.90 SEC, REAL TIME:     2.68 SEC
 SORT2 READ   110865241. AND WROTE   115283741. INTEGRALS IN      8 RECORDS. CPU TIME:     1.40 SEC, REAL TIME:     1.84 SEC

 FILE SIZES:   FILE 1:  1780.6 MBYTE,  FILE 4:  1350.6 MBYTE,   TOTAL:   3131.2 MBYTE

 OPERATOR DM      FOR CENTER  0  COORDINATES:    0.000000    0.000000    0.000000


 **********************************************************************************************************************************
 DATASETS  * FILE   NREC   LENGTH (MB)   RECORD NAMES
              1      19      944.14       500      610      700      900      950      970     1000      129      960     1100   
                                          VAR    BASINP    GEOM    SYMINP    ZMAT    AOBASIS   BASIS     P2S    ABASIS      S 
                                         1400     1410     1200     1210     1080     1600     1650     1300     1700   
                                           T        V       H0       H01     AOSYM     SMH    MOLCAS    ERIS     OPER   

 PROGRAMS   *        TOTAL       INT
 CPU TIMES  *        11.19     11.08
 REAL TIME  *        14.06 SEC
 DISK USED  *         3.13 GB      
 **********************************************************************************************************************************


 PROGRAM * RHF-SCF (CLOSED SHELL)       Authors: W. Meyer, H.-J. Werner


 NUMBER OF ELECTRONS:       8+    8-
 CONVERGENCE THRESHOLDS:    1.00E-10 (Density)    1.00E-13 (Energy)
 MAX. NUMBER OF ITERATIONS:      500
 INTERPOLATION TYPE:            DIIS
 INTERPOLATION STEPS:              2 (START)      1 (STEP)
 LEVEL SHIFTS:                  0.00 (CLOSED)  0.00 (OPEN) 



 Orbital guess generated from atomic densities. Full valence occupancy:    9   2

 Molecular orbital dump at record        2100.2

 Initial occupancy:   7   1

 ITERATION    DDIFF          GRAD             ENERGY        2-EL.EN.            DIPOLE MOMENTS         DIIS   ORB.
    1      0.000D+00      0.000D+00      -129.79522841    153.763393    0.00000    0.59659   -1.04235    0    start
    2      0.000D+00      0.816D-02      -129.82234534    154.986158    0.00000    0.61342   -0.20540    1    diag
    3      0.661D-02      0.629D-02      -129.84608007    155.120305    0.00000    0.55880   -0.60117    2    diag
    4      0.338D-02      0.978D-03      -129.84689552    154.831053    0.00000    0.56608   -0.53897    3    diag
    5      0.610D-03      0.318D-03      -129.84702405    154.925141    0.00000    0.57140   -0.54147    4    diag
    6      0.255D-03      0.921D-04      -129.84704459    154.908897    0.00000    0.57167   -0.53719    5    diag
    7      0.973D-04      0.461D-04      -129.84705064    154.911612    0.00000    0.57289   -0.53451    6    diag
    8      0.674D-04      0.163D-04      -129.84705135    154.910898    0.00000    0.57293   -0.53344    7    diag
    9      0.266D-04      0.316D-05      -129.84705138    154.910777    0.00000    0.57289   -0.53321    8    diag
   10      0.536D-05      0.711D-06      -129.84705138    154.910759    0.00000    0.57285   -0.53318    9    orth
   11      0.103D-05      0.141D-06      -129.84705138    154.910756    0.00000    0.57285   -0.53318    9    diag
   12      0.186D-06      0.289D-07      -129.84705138    154.910756    0.00000    0.57285   -0.53318    9    diag
   13      0.400D-07      0.756D-08      -129.84705138    154.910755    0.00000    0.57285   -0.53318    9    diag
   14      0.111D-07      0.148D-08      -129.84705138    154.910755    0.00000    0.57285   -0.53318    9    diag
   15      0.200D-08      0.421D-09      -129.84705138    154.910755    0.00000    0.57285   -0.53318    9    diag
   16      0.600D-09      0.124D-09      -129.84705138    154.910755    0.00000    0.57285   -0.53318    9    diag
   17      0.110D-09      0.318D-10      -129.84705138    154.910755    0.00000    0.57285   -0.53318    9    diag
   18      0.292D-10      0.106D-10      -129.84705138    154.910755    0.00000    0.57285   -0.53318    9    diag
   19      0.141D-10      0.246D-11      -129.84705138    154.910755    0.00000    0.57285   -0.53318    9    fixocc
   20      0.418D-11      0.416D-12      -129.84705138    154.910755    0.00000    0.57285   -0.53318    9    orth
   21      0.235D-11      0.170D-12      -129.84705138    154.910755    0.00000    0.57285   -0.53318    9    diag
   22      0.224D-11      0.159D-12      -129.84705138    154.910755    0.00000    0.57285   -0.53318    0    orth

 Final occupancy:   7   1

 !RHF STATE 1.1 Energy               -129.847051383224
 Nuclear energy                        30.25858665
 One-electron energy                 -237.56101571
 Two-electron energy                   77.45537767
 Virial quotient                       -1.00189172
 !RHF STATE 1.1 Dipole moment           0.00000000     0.57284555    -0.53317720
 Dipole moment /Debye                   0.00000000     1.45593279    -1.35511252

 Orbital energies:

         1.1          2.1          3.1          4.1          5.1          6.1          7.1          8.1          9.1
    -20.654148   -15.713490    -1.525601    -0.995669    -0.745723    -0.664706    -0.432036     0.026295     0.079464

         1.2          2.2          3.2
     -0.593758     0.062047     0.110232

 HOMO      7.1    -0.432036 =     -11.7563eV
 LUMO      8.1     0.026295 =       0.7155eV
 LUMO-HOMO         0.458331 =      12.4718eV


 **********************************************************************************************************************************
 DATASETS  * FILE   NREC   LENGTH (MB)   RECORD NAMES
              1      19      944.14       500      610      700      900      950      970     1000      129      960     1100   
                                          VAR    BASINP    GEOM    SYMINP    ZMAT    AOBASIS   BASIS     P2S    ABASIS      S 
                                         1400     1410     1200     1210     1080     1600     1650     1300     1700   
                                           T        V       H0       H01     AOSYM     SMH    MOLCAS    ERIS     OPER   

              2       4        3.27       700     1000      520     2100   
                                         GEOM     BASIS   MCVARS     RHF  

 PROGRAMS   *        TOTAL        HF       INT
 CPU TIMES  *        22.13     10.94     11.08
 REAL TIME  *        27.56 SEC
 DISK USED  *         3.13 GB      
 **********************************************************************************************************************************


 PROGRAM * CCSD (Closed-shell coupled cluster)     Authors: C. Hampel, H.-J. Werner, 1991, M. Deegan, P.J. Knowles, 1992


 Convergence thresholds:  THRVAR = 1.00D-08  THRDEN = 1.00D-12

 CCSD(T)     terms to be evaluated (factor= 1.000)


 Number of core orbitals:           2 (   2   0 )
 Number of closed-shell orbitals:   6 (   5   1 )
 Number of external orbitals:     198 ( 123  75 )

 Molecular orbitals read from record     2100.2  Type=RHF/CANONICAL (state 1.1)

 Number of N-1 electron functions:               6
 Number of N-2 electron functions:              21
 Number of singly external CSFs:               690
 Number of doubly external CSFs:            362646
 Total number of CSFs:                      363337

 Length of J-op  integral file:               0.00 MB
 Length of K-op  integral file:               1.60 MB
 Length of 3-ext integral record:             0.00 MB

 Memory could be reduced to 34.67 Mwords without degradation in triples

 Integral transformation finished. Total CPU:   1.47 sec, npass=  1  Memory used:   9.53 MW

 Reference energy:                   -129.84705138

 MP2 singlet pair energy:              -0.30211981
 MP2 triplet pair energy:              -0.17077242
 MP2 correlation energy:               -0.47289223
 MP2 total energy:                   -130.31994362

 SCS-MP2 correlation energy:           -0.46880217   (PS=  1.200000  PT=  0.333333)
 SCS-MP2 total energy:               -130.31585355

 ITER.      SQ.NORM     CORR.ENERGY   TOTAL ENERGY   ENERGY CHANGE        DEN1      VAR(S)    VAR(P)  DIIS     TIME  TIME/IT
   1      1.12156044    -0.47272746  -130.31977884     0.00016477     0.01679562  0.32D-02  0.32D-02  1  1     2.67     1.30
   2      1.13238722    -0.47264336  -130.31969474     0.00008410    -0.01262922  0.11D-03  0.50D-03  2  2     3.85     1.33
   3      1.13879642    -0.47302911  -130.32008050    -0.00038575    -0.00307856  0.50D-04  0.55D-04  3  3     5.05     1.34
   4      1.14161098    -0.47303615  -130.32008753    -0.00000704    -0.00095226  0.45D-05  0.99D-05  4  4     6.24     1.35
   5      1.14273960    -0.47306661  -130.32011800    -0.00003046    -0.00024581  0.12D-05  0.17D-05  5  5     7.48     1.36
   6      1.14310236    -0.47305121  -130.32010259     0.00001541    -0.00005227  0.11D-06  0.40D-06  6  6     8.67     1.36
   7      1.14317559    -0.47305171  -130.32010310    -0.00000051     0.00000275  0.17D-07  0.91D-07  6  1     9.88     1.36
   8      1.14319849    -0.47305200  -130.32010338    -0.00000029    -0.00000118  0.34D-08  0.18D-07  6  2    11.07     1.36
   9      1.14320354    -0.47305159  -130.32010298     0.00000041     0.00000100  0.26D-08  0.21D-08  6  4    12.31     1.36
  10      1.14320606    -0.47305197  -130.32010336    -0.00000038    -0.00000077  0.49D-09  0.26D-09  6  3    13.49     1.36
  11      1.14320581    -0.47305204  -130.32010342    -0.00000006    -0.00000012  0.16D-09  0.37D-10  6  5    14.63     1.35
  12      1.14320483    -0.47305218  -130.32010357    -0.00000015     0.00000036  0.19D-10  0.11D-10  6  6    15.80     1.35
  13      1.14320396    -0.47305222  -130.32010361    -0.00000004     0.00000022  0.60D-11  0.24D-11  6  1    16.98     1.35
  14      1.14320327    -0.47305226  -130.32010364    -0.00000003     0.00000016  0.38D-12  0.50D-12  6  4    18.13     1.35
  15      1.14320306    -0.47305227  -130.32010365    -0.00000001     0.00000003  0.85D-13  0.39D-13  6  2    19.32     1.35
  16      1.14320301    -0.47305227  -130.32010365    -0.00000000     0.00000001  0.23D-13  0.73D-14  6  3    20.52     1.35
  17      1.14320298    -0.47305227  -130.32010365    -0.00000000     0.00000001  0.42D-14  0.10D-14  6  5    21.79     1.35
  18      1.14320298    -0.47305227  -130.32010365    -0.00000000     0.00000000  0.87D-15  0.26D-15  6  6    23.08     1.36
  19      1.14320298    -0.47305227  -130.32010365    -0.00000000     0.00000000  0.11D-15  0.53D-16  6  1    24.32     1.36
  20      1.14320298    -0.47305227  -130.32010365     0.00000000    -0.00000000  0.10D-16  0.78D-17  6  4    25.57     1.36
  21      1.14320298    -0.47305227  -130.32010365     0.00000000    -0.00000000  0.51D-18  0.65D-18  6  3    26.79     1.37
  22      1.14320298    -0.47305227  -130.32010365     0.00000000    -0.00000000  0.13D-18  0.14D-18  6  2    27.99     1.37
  23      1.14320298    -0.47305227  -130.32010365     0.00000000     0.00000000  0.38D-19  0.51D-19  6  5    29.24     1.37
  24      1.14320298    -0.47305227  -130.32010365    -0.00000000     0.00000000  0.29D-20  0.11D-19  6  1    30.43     1.37

 Norm of t1 vector:      0.07760017      S-energy:    -0.00000000      T1 diagnostic:  0.01584007
                                                                       D1 diagnostic:  0.04281943

 Doubles amplitudes (print threshold =  0.500E-01):

         I         J         SYM. A    SYM. B    A         B      T(IJ, AB)

         6         6         2         2         1         1     -0.10125858


 Total CPU time for triples:     15.67 sec


 RESULTS
 =======

  Reference energy                   -129.847051383224
  CCSD singlet pair energy             -0.327104204463
  CCSD triplet pair energy             -0.145948063343
  CCSD correlation energy              -0.473052267808

  Triples (T) contribution             -0.022518834916
  Total correlation energy             -0.495571102724

  CCSD total energy                  -130.320103651032
  CCSD[T] energy                     -130.343717990307
  CCSD-T energy                      -130.342231864378
 !CCSD(T) total energy               -130.342622485948

 Timing summary (sec):

 STEP                 CPU(USER)    SYS     CPU(TOT)    WALL
 Transformation          1.48      0.23      1.71      1.72
 CCSD iterations        28.95      3.87     32.82     32.82
 Triples                15.67      0.40     16.07     16.09

 Program statistics:

 Available memory in ccsd:               994999756
 Min. memory needed in ccsd:               1265322
 Max. memory used in ccsd:                 1555950
 Max. memory used in cckext:               2415326 (24 integral passes)



 **********************************************************************************************************************************
 DATASETS  * FILE   NREC   LENGTH (MB)   RECORD NAMES
              1      20     1044.69       500      610      700      900      950      970     1000      129      960     1100   
                                          VAR    BASINP    GEOM    SYMINP    ZMAT    AOBASIS   BASIS     P2S    ABASIS      S 
                                         1400     1410     1200     1210     1080     1600     1650     1300     1700     1380   
                                           T        V       H0       H01     AOSYM     SMH    MOLCAS    ERIS     OPER     JKOP   

              2       4        3.27       700     1000      520     2100   
                                         GEOM     BASIS   MCVARS     RHF  

 PROGRAMS   *        TOTAL   CCSD(T)        HF       INT
 CPU TIMES  *        68.25     46.12     10.94     11.08
 REAL TIME  *        78.22 SEC
 DISK USED  *         3.13 GB      
 **********************************************************************************************************************************

 CCSD(T)/aug-cc-pVQZ energy=   -130.342622485948

        CCSD(T)         HF-SCF  
   -130.34262249   -129.84705138
 **********************************************************************************************************************************
 Molpro calculation terminated
 Variable memory released
