
 Primary working directories    : /tmp/r2666/281997.maple
 Secondary working directories  : /tmp/r2666/281997.maple
 Wavefunction directory         : /ddn/home4/r2666/wfu/
 Main file repository           : /tmp/r2666/281997.maple/

 SHA1      : d5ffa45e93fdbca01ffc919aa182cfdae0147319
 NAME      : 2015.1.35
 ARCHNAME  : linux/x86_64
 FC        : /opt/intel/composer_xe_2015.1.133/bin/intel64/ifort
 BLASLIB   : -Wl,-_start-group /opt/intel/mkl/lib/intel64/libmkl_intel_ilp64.a /opt/intel/mkl/lib/intel64/libmkl_intel_thread.a /opt/intel/mkl/lib/intel64/libmkl_core.a -Wl,-_end-group
 id        : olemiss

 Nodes     nprocs
 cn086        1

 Using customized tuning parameters: mindgm=1; mindgv=20; mindgc=4; mindgr=1; noblas=0; minvec=7
 default implementation of scratch files=df  

 ***,hno CCSD(T)/TZ-F12 QFF
 memory, 995, m;
 gthresh,energy=1.d-12,zero=1.d-22,oneint=1.d-22,twoint=1.d-22;
 gthresh,optgrad=1.d-8,optstep=1.d-8;
 nocompress;
 geomtyp=xyz
 bohr
 geometry={
 3
         23        23
 H        0.0000000000        1.6606837147       -1.9212590738
 N        0.0000000000       -0.1580857950       -1.1421788795
 O        0.0000000000        0.0391698702        1.1128483623
 }
 
 basis=avqz
   {hf,maxit=500;accu,20;}
 {ccsd(t),nocheck,maxit=250;orbital,IGNORE_ERROR;}

 Variables initialized (889), CPU time= 0.01 sec
 Commands  initialized (702), CPU time= 0.01 sec, 572 directives.
 Default parameters read. Elapsed time= 0.05 sec

 Checking input...
 Passed
1


                                         ***  PROGRAM SYSTEM MOLPRO  ***
                                       Copyright, TTI GmbH Stuttgart, 2015
                                    Version 2015.1 linked Jul  9 2018 13:16:40


 **********************************************************************************************************************************
 LABEL *   hno CCSD(T)/TZ-F12 QFF                                                        
  64 bit serial version                                                                  DATE: 04-Mar-20          TIME: 13:39:44  
 **********************************************************************************************************************************

 SHA1:             d5ffa45e93fdbca01ffc919aa182cfdae0147319
 **********************************************************************************************************************************

 THRESHOLDS:

 ZERO    =  1.00D-22  ONEINT  =  1.00D-22  TWOINT  =  1.00D-22  PREFAC  =  1.00D-14  LOCALI  =  1.00D-09  EORDER  =  1.00D-04
 ENERGY  =  1.00D-12  ETEST   =  0.00D+00  EDENS   =  0.00D+00  THRDEDEF=  1.00D-06  GRADIENT=  1.00D-02  STEP    =  1.00D-03
 ORBITAL =  1.00D-05  CIVEC   =  1.00D-05  COEFF   =  1.00D-04  PRINTCI =  5.00D-02  PUNCHCI =  9.90D+01  OPTGRAD =  3.00D-04
 OPTENERG=  1.00D-06  OPTSTEP =  3.00D-04  THRGRAD =  1.00D-10  COMPRESS=  1.00D-11  VARMIN  =  1.00D-07  VARMAX  =  1.00D-03
 THRDOUB =  0.00D+00  THRDIV  =  1.00D-05  THRRED  =  1.00D-07  THRPSP  =  1.00D+00  THRDC   =  1.00D-10  THRCS   =  1.00D-10
 THRNRM  =  1.00D-08  THREQ   =  0.00D+00  THRDE   =  1.00D+00  THRREF  =  1.00D-05  SPARFAC =  1.00D+00  THRDLP  =  1.00D-07
 THRDIA  =  1.00D-10  THRDLS  =  1.00D-07  THRGPS  =  0.00D+00  THRKEX  =  0.00D+00  THRDIS  =  2.00D-01  THRVAR  =  1.00D-10
 THRLOC  =  1.00D-06  THRGAP  =  1.00D-06  THRLOCT = -1.00D+00  THRGAPT = -1.00D+00  THRORB  =  1.00D-06  THRMLTP =  0.00D+00
 THRCPQCI=  1.00D-10  KEXTA   =  0.00D+00  THRCOARS=  0.00D+00  SYMTOL  =  1.00D-06  GRADTOL =  1.00D-06  THROVL  =  1.00D-08
 THRORTH =  1.00D-08  GRID    =  1.00D-06  GRIDMAX =  1.00D-03  DTMAX   =  0.00D+00  THROCCDE=  1.00D-01  THROCCDE=  1.00D-01



 THRESHOLDS:

 ZERO    =  1.00D-22  ONEINT  =  1.00D-22  TWOINT  =  1.00D-22  PREFAC  =  1.00D-14  LOCALI  =  1.00D-09  EORDER  =  1.00D-04
 ENERGY  =  1.00D-12  ETEST   =  0.00D+00  EDENS   =  0.00D+00  THRDEDEF=  1.00D-06  GRADIENT=  1.00D-02  STEP    =  1.00D-03
 ORBITAL =  1.00D-05  CIVEC   =  1.00D-05  COEFF   =  1.00D-04  PRINTCI =  5.00D-02  PUNCHCI =  9.90D+01  OPTGRAD =  1.00D-08
 OPTENERG=  1.00D-06  OPTSTEP =  1.00D-08  THRGRAD =  1.00D-10  COMPRESS=  1.00D-11  VARMIN  =  1.00D-07  VARMAX  =  1.00D-03
 THRDOUB =  0.00D+00  THRDIV  =  1.00D-05  THRRED  =  1.00D-07  THRPSP  =  1.00D+00  THRDC   =  1.00D-10  THRCS   =  1.00D-10
 THRNRM  =  1.00D-08  THREQ   =  0.00D+00  THRDE   =  1.00D+00  THRREF  =  1.00D-05  SPARFAC =  1.00D+00  THRDLP  =  1.00D-07
 THRDIA  =  1.00D-10  THRDLS  =  1.00D-07  THRGPS  =  0.00D+00  THRKEX  =  0.00D+00  THRDIS  =  2.00D-01  THRVAR  =  1.00D-10
 THRLOC  =  1.00D-06  THRGAP  =  1.00D-06  THRLOCT = -1.00D+00  THRGAPT = -1.00D+00  THRORB  =  1.00D-06  THRMLTP =  0.00D+00
 THRCPQCI=  1.00D-10  KEXTA   =  0.00D+00  THRCOARS=  0.00D+00  SYMTOL  =  1.00D-06  GRADTOL =  1.00D-06  THROVL  =  1.00D-08
 THRORTH =  1.00D-08  GRID    =  1.00D-06  GRIDMAX =  1.00D-03  DTMAX   =  0.00D+00  THROCCDE=  1.00D-01  THROCCDE=  1.00D-01



 Input parameters for SORTINT:

 COMPRESS =    0.000000
 C_FINAL  =    1.000000
 DEBUG    =   -1.000000
 C_SORT1  =    0.000000
 C_SEWARD =    0.000000
 THRESH   =    0.000000
 IO       =  molpro                                                          
 SPRI     =    0.000000
 SETTING GEOMTYP        =    XYZ
 ZUNIT=BOHR
 

 Variable memory set to  995000000 words,  buffer space   230000 words

 SETTING BASIS          =    AVQZ


 Recomputing integrals since basis changed


 Using spherical harmonics

 Library entry H      S aug-cc-pVQZ          selected for orbital group  1
 Library entry H      P aug-cc-pVQZ          selected for orbital group  1
 Library entry H      D aug-cc-pVQZ          selected for orbital group  1
 Library entry H      F aug-cc-pVQZ          selected for orbital group  1
 Library entry N      S aug-cc-pVQZ          selected for orbital group  2
 Library entry N      P aug-cc-pVQZ          selected for orbital group  2
 Library entry N      D aug-cc-pVQZ          selected for orbital group  2
 Library entry N      F aug-cc-pVQZ          selected for orbital group  2
 Library entry N      G aug-cc-pVQZ          selected for orbital group  2
 Library entry O      S aug-cc-pVQZ          selected for orbital group  3
 Library entry O      P aug-cc-pVQZ          selected for orbital group  3
 Library entry O      D aug-cc-pVQZ          selected for orbital group  3
 Library entry O      F aug-cc-pVQZ          selected for orbital group  3
 Library entry O      G aug-cc-pVQZ          selected for orbital group  3


 PROGRAM * SEWARD (Integral evaluation for generally contracted gaussian basis sets)     Author: Roland Lindh, 1990

 Geometry written to block  1 of record 700


 Point group  Cs  



 ATOMIC COORDINATES

 NR  ATOM    CHARGE       X              Y              Z

   1  H       1.00    0.000000000    1.660683715   -1.921259074
   2  N       7.00    0.000000000   -0.158085795   -1.142178880
   3  O       8.00    0.000000000    0.039169870    1.112848362

 Bond lengths in Bohr (Angstrom)

 1-2  1.978607712  2-3  2.263638147
     ( 1.047034111)     ( 1.197865721)

 Bond angles

  1-2-3  108.18899349

 NUCLEAR CHARGE:                   16
 NUMBER OF PRIMITIVE AOS:         293
 NUMBER OF SYMMETRY AOS:          234
 NUMBER OF CONTRACTIONS:          206   ( 130A'  +  76A"  )
 NUMBER OF CORE ORBITALS:           2   (   2A'  +   0A"  )
 NUMBER OF VALENCE ORBITALS:        9   (   7A'  +   2A"  )


 NUCLEAR REPULSION ENERGY   30.60221013

 Eigenvalues of metric

         1 0.581E-04 0.142E-03 0.313E-03 0.433E-03 0.570E-03 0.670E-03 0.987E-03 0.106E-02
         2 0.795E-03 0.160E-02 0.480E-02 0.888E-02 0.100E-01 0.119E-01 0.123E-01 0.181E-01


 Contracted 2-electron integrals neglected if value below      1.0D-22

      109945084. INTEGRALS WRITTEN OUT IN   26849 BLOCKS ON RECORD 1290 OF FILE 1


 NUMBER OF SORTED TWO-ELECTRON INTEGRALS:  115283741.     BUFFER LENGTH:  32768
 NUMBER OF SEGMENTS:   8  SEGMENT LENGTH:   15998004      RECORD LENGTH: 524288

 Memory used in sort:      16.56 MW

 SORT1 READ   109945084. AND WROTE   110865251. INTEGRALS IN    322 RECORDS. CPU TIME:     1.83 SEC, REAL TIME:     2.50 SEC
 SORT2 READ   110865251. AND WROTE   115283741. INTEGRALS IN      8 RECORDS. CPU TIME:     1.24 SEC, REAL TIME:     1.74 SEC

 FILE SIZES:   FILE 1:  1780.6 MBYTE,  FILE 4:  1350.6 MBYTE,   TOTAL:   3131.2 MBYTE

 OPERATOR DM      FOR CENTER  0  COORDINATES:    0.000000    0.000000    0.000000


 **********************************************************************************************************************************
 DATASETS  * FILE   NREC   LENGTH (MB)   RECORD NAMES
              1      19      944.14       500      610      700      900      950      970     1000      129      960     1100   
                                          VAR    BASINP    GEOM    SYMINP    ZMAT    AOBASIS   BASIS     P2S    ABASIS      S 
                                         1400     1410     1200     1210     1080     1600     1650     1300     1700   
                                           T        V       H0       H01     AOSYM     SMH    MOLCAS    ERIS     OPER   

 PROGRAMS   *        TOTAL       INT
 CPU TIMES  *        10.45     10.35
 REAL TIME  *        13.04 SEC
 DISK USED  *         3.13 GB      
 **********************************************************************************************************************************


 PROGRAM * RHF-SCF (CLOSED SHELL)       Authors: W. Meyer, H.-J. Werner


 NUMBER OF ELECTRONS:       8+    8-
 CONVERGENCE THRESHOLDS:    1.00E-10 (Density)    1.00E-13 (Energy)
 MAX. NUMBER OF ITERATIONS:      500
 INTERPOLATION TYPE:            DIIS
 INTERPOLATION STEPS:              2 (START)      1 (STEP)
 LEVEL SHIFTS:                  0.00 (CLOSED)  0.00 (OPEN) 



 Orbital guess generated from atomic densities. Full valence occupancy:    9   2

 Molecular orbital dump at record        2100.2

 Initial occupancy:   7   1

 ITERATION    DDIFF          GRAD             ENERGY        2-EL.EN.            DIPOLE MOMENTS         DIIS   ORB.
    1      0.000D+00      0.000D+00      -129.79976841    154.383411    0.00000    0.59310   -0.99338    0    start
    2      0.000D+00      0.800D-02      -129.82732280    155.628703    0.00000    0.60449   -0.21407    1    diag
    3      0.638D-02      0.595D-02      -129.84838916    155.730528    0.00000    0.55358   -0.57910    2    diag
    4      0.323D-02      0.959D-03      -129.84916915    155.453927    0.00000    0.56125   -0.51951    3    diag
    5      0.598D-03      0.311D-03      -129.84929058    155.546190    0.00000    0.56650   -0.52225    4    diag
    6      0.247D-03      0.896D-04      -129.84930982    155.530229    0.00000    0.56684   -0.51827    5    diag
    7      0.941D-04      0.442D-04      -129.84931529    155.533057    0.00000    0.56808   -0.51580    6    diag
    8      0.644D-04      0.150D-04      -129.84931586    155.532401    0.00000    0.56813   -0.51485    7    diag
    9      0.237D-04      0.283D-05      -129.84931589    155.532295    0.00000    0.56809   -0.51465    8    diag
   10      0.460D-05      0.657D-06      -129.84931589    155.532278    0.00000    0.56806   -0.51462    9    orth
   11      0.947D-06      0.133D-06      -129.84931589    155.532274    0.00000    0.56805   -0.51461    9    diag
   12      0.179D-06      0.268D-07      -129.84931589    155.532274    0.00000    0.56805   -0.51461    9    diag
   13      0.386D-07      0.679D-08      -129.84931589    155.532274    0.00000    0.56805   -0.51461    9    diag
   14      0.102D-07      0.135D-08      -129.84931589    155.532274    0.00000    0.56805   -0.51461    9    diag
   15      0.191D-08      0.395D-09      -129.84931589    155.532274    0.00000    0.56805   -0.51461    9    diag
   16      0.567D-09      0.123D-09      -129.84931589    155.532274    0.00000    0.56805   -0.51461    9    diag
   17      0.113D-09      0.334D-10      -129.84931589    155.532274    0.00000    0.56805   -0.51461    9    diag
   18      0.333D-10      0.112D-10      -129.84931589    155.532274    0.00000    0.56805   -0.51461    9    diag
   19      0.146D-10      0.278D-11      -129.84931589    155.532274    0.00000    0.56805   -0.51461    0    orth

 Final occupancy:   7   1

 !RHF STATE 1.1 Energy               -129.849315889833
 Nuclear energy                        30.60221013
 One-electron energy                 -238.21766307
 Two-electron energy                   77.76613705
 Virial quotient                       -1.00137653
 !RHF STATE 1.1 Dipole moment           0.00000000     0.56804970    -0.51461266
 Dipole moment /Debye                   0.00000000     1.44374377    -1.30792925

 Orbital energies:

         1.1          2.1          3.1          4.1          5.1          6.1          7.1          8.1          9.1
    -20.652601   -15.710225    -1.537998    -0.993440    -0.750865    -0.669014    -0.427699     0.026491     0.079508

         1.2          2.2          3.2
     -0.600853     0.065808     0.110855

 HOMO      7.1    -0.427699 =     -11.6383eV
 LUMO      8.1     0.026491 =       0.7209eV
 LUMO-HOMO         0.454190 =      12.3591eV


 **********************************************************************************************************************************
 DATASETS  * FILE   NREC   LENGTH (MB)   RECORD NAMES
              1      19      944.14       500      610      700      900      950      970     1000      129      960     1100   
                                          VAR    BASINP    GEOM    SYMINP    ZMAT    AOBASIS   BASIS     P2S    ABASIS      S 
                                         1400     1410     1200     1210     1080     1600     1650     1300     1700   
                                           T        V       H0       H01     AOSYM     SMH    MOLCAS    ERIS     OPER   

              2       4        3.27       700     1000      520     2100   
                                         GEOM     BASIS   MCVARS     RHF  

 PROGRAMS   *        TOTAL        HF       INT
 CPU TIMES  *        19.49      9.04     10.35
 REAL TIME  *        24.41 SEC
 DISK USED  *         3.13 GB      
 **********************************************************************************************************************************


 PROGRAM * CCSD (Closed-shell coupled cluster)     Authors: C. Hampel, H.-J. Werner, 1991, M. Deegan, P.J. Knowles, 1992


 Convergence thresholds:  THRVAR = 1.00D-08  THRDEN = 1.00D-12

 CCSD(T)     terms to be evaluated (factor= 1.000)


 Number of core orbitals:           2 (   2   0 )
 Number of closed-shell orbitals:   6 (   5   1 )
 Number of external orbitals:     198 ( 123  75 )

 Molecular orbitals read from record     2100.2  Type=RHF/CANONICAL (state 1.1)

 Number of N-1 electron functions:               6
 Number of N-2 electron functions:              21
 Number of singly external CSFs:               690
 Number of doubly external CSFs:            362646
 Total number of CSFs:                      363337

 Length of J-op  integral file:               0.00 MB
 Length of K-op  integral file:               1.60 MB
 Length of 3-ext integral record:             0.00 MB

 Memory could be reduced to 34.67 Mwords without degradation in triples

 Integral transformation finished. Total CPU:   1.35 sec, npass=  1  Memory used:   9.53 MW

 Reference energy:                   -129.84931589

 MP2 singlet pair energy:              -0.30047868
 MP2 triplet pair energy:              -0.16968342
 MP2 correlation energy:               -0.47016210
 MP2 total energy:                   -130.31947799

 SCS-MP2 correlation energy:           -0.46615521   (PS=  1.200000  PT=  0.333333)
 SCS-MP2 total energy:               -130.31547110

 ITER.      SQ.NORM     CORR.ENERGY   TOTAL ENERGY   ENERGY CHANGE        DEN1      VAR(S)    VAR(P)  DIIS     TIME  TIME/IT
   1      1.11978491    -0.47060369  -130.31991958    -0.00044159     0.01550118  0.30D-02  0.31D-02  1  1     2.50     1.26
   2      1.13020861    -0.47064735  -130.31996324    -0.00004366    -0.01222050  0.98D-04  0.48D-03  2  2     3.63     1.28
   3      1.13629244    -0.47100715  -130.32032304    -0.00035980    -0.00297518  0.45D-04  0.51D-04  3  3     4.74     1.30
   4      1.13892477    -0.47101432  -130.32033021    -0.00000717    -0.00090264  0.39D-05  0.91D-05  4  4     5.93     1.30
   5      1.13994770    -0.47104167  -130.32035756    -0.00002736    -0.00022391  0.10D-05  0.16D-05  5  5     7.08     1.30
   6      1.14028327    -0.47102807  -130.32034396     0.00001360    -0.00004799  0.10D-06  0.39D-06  6  6     8.24     1.31
   7      1.14035505    -0.47102850  -130.32034439    -0.00000043     0.00000212  0.16D-07  0.87D-07  6  1     9.36     1.31
   8      1.14037705    -0.47102894  -130.32034483    -0.00000044    -0.00000099  0.36D-08  0.17D-07  6  2    10.53     1.31
   9      1.14038192    -0.47102859  -130.32034448     0.00000035     0.00000085  0.24D-08  0.18D-08  6  4    11.67     1.31
  10      1.14038419    -0.47102895  -130.32034484    -0.00000036    -0.00000069  0.43D-09  0.21D-09  6  3    12.80     1.31
  11      1.14038387    -0.47102901  -130.32034490    -0.00000006    -0.00000009  0.13D-09  0.31D-10  6  5    13.92     1.31
  12      1.14038296    -0.47102914  -130.32034503    -0.00000013     0.00000034  0.17D-10  0.95D-11  6  6    15.08     1.31
  13      1.14038218    -0.47102918  -130.32034507    -0.00000004     0.00000020  0.52D-11  0.21D-11  6  1    16.18     1.31
  14      1.14038157    -0.47102921  -130.32034510    -0.00000003     0.00000014  0.37D-12  0.41D-12  6  4    17.34     1.31
  15      1.14038138    -0.47102922  -130.32034511    -0.00000001     0.00000003  0.79D-13  0.31D-13  6  2    18.46     1.31
  16      1.14038133    -0.47102922  -130.32034511    -0.00000000     0.00000001  0.22D-13  0.61D-14  6  3    19.63     1.31
  17      1.14038131    -0.47102922  -130.32034511    -0.00000000     0.00000001  0.38D-14  0.96D-15  6  5    20.77     1.31
  18      1.14038131    -0.47102922  -130.32034511     0.00000000     0.00000000  0.74D-15  0.25D-15  6  6    21.91     1.31
  19      1.14038131    -0.47102922  -130.32034511     0.00000000    -0.00000000  0.80D-16  0.48D-16  6  1    23.05     1.31
  20      1.14038131    -0.47102922  -130.32034511     0.00000000    -0.00000000  0.84D-17  0.70D-17  6  4    24.21     1.31
  21      1.14038131    -0.47102922  -130.32034511     0.00000000    -0.00000000  0.46D-18  0.60D-18  6  3    25.34     1.31
  22      1.14038131    -0.47102922  -130.32034511     0.00000000    -0.00000000  0.11D-18  0.14D-18  6  2    26.48     1.31
  23      1.14038131    -0.47102922  -130.32034511     0.00000000    -0.00000000  0.90D-20  0.29D-19  6  1    27.66     1.31
  24      1.14038131    -0.47102922  -130.32034511    -0.00000000     0.00000000  0.14D-20  0.55D-20  6  5    28.79     1.31

 Norm of t1 vector:      0.07493586      S-energy:     0.00000000      T1 diagnostic:  0.01529622
                                                                       D1 diagnostic:  0.04084843

 Doubles amplitudes (print threshold =  0.500E-01):

         I         J         SYM. A    SYM. B    A         B      T(IJ, AB)

         6         6         2         2         1         1     -0.09299577


 Total CPU time for triples:     14.18 sec


 RESULTS
 =======

  Reference energy                   -129.849315889833
  CCSD singlet pair energy             -0.325353891522
  CCSD triplet pair energy             -0.145675326702
  CCSD correlation energy              -0.471029218222

  Triples (T) contribution             -0.022011631880
  Total correlation energy             -0.493040850102

  CCSD total energy                  -130.320345108055
  CCSD[T] energy                     -130.343382199901
  CCSD-T energy                      -130.341983756996
 !CCSD(T) total energy               -130.342356739935

 Timing summary (sec):

 STEP                 CPU(USER)    SYS     CPU(TOT)    WALL
 Transformation          1.36      0.26      1.62      1.62
 CCSD iterations        27.44      4.12     31.56     31.55
 Triples                14.18      0.40     14.58     14.59

 Program statistics:

 Available memory in ccsd:               994999756
 Min. memory needed in ccsd:               1265322
 Max. memory used in ccsd:                 1555950
 Max. memory used in cckext:               2415326 (24 integral passes)



 **********************************************************************************************************************************
 DATASETS  * FILE   NREC   LENGTH (MB)   RECORD NAMES
              1      20     1044.69       500      610      700      900      950      970     1000      129      960     1100   
                                          VAR    BASINP    GEOM    SYMINP    ZMAT    AOBASIS   BASIS     P2S    ABASIS      S 
                                         1400     1410     1200     1210     1080     1600     1650     1300     1700     1380   
                                           T        V       H0       H01     AOSYM     SMH    MOLCAS    ERIS     OPER     JKOP   

              2       4        3.27       700     1000      520     2100   
                                         GEOM     BASIS   MCVARS     RHF  

 PROGRAMS   *        TOTAL   CCSD(T)        HF       INT
 CPU TIMES  *        62.48     42.99      9.04     10.35
 REAL TIME  *        72.20 SEC
 DISK USED  *         3.13 GB      
 **********************************************************************************************************************************

 CCSD(T)/aug-cc-pVQZ energy=   -130.342356739935

        CCSD(T)         HF-SCF  
   -130.34235674   -129.84931589
 **********************************************************************************************************************************
 Molpro calculation terminated
 Variable memory released
