
 Primary working directories    : /tmp/r2666/282006.maple
 Secondary working directories  : /tmp/r2666/282006.maple
 Wavefunction directory         : /ddn/home4/r2666/wfu/
 Main file repository           : /tmp/r2666/282006.maple/

 SHA1      : d5ffa45e93fdbca01ffc919aa182cfdae0147319
 NAME      : 2015.1.35
 ARCHNAME  : linux/x86_64
 FC        : /opt/intel/composer_xe_2015.1.133/bin/intel64/ifort
 BLASLIB   : -Wl,-_start-group /opt/intel/mkl/lib/intel64/libmkl_intel_ilp64.a /opt/intel/mkl/lib/intel64/libmkl_intel_thread.a /opt/intel/mkl/lib/intel64/libmkl_core.a -Wl,-_end-group
 id        : olemiss

 Nodes     nprocs
 cn078        1

 Using customized tuning parameters: mindgm=1; mindgv=20; mindgc=4; mindgr=1; noblas=0; minvec=7
 default implementation of scratch files=df  

 ***,hno CCSD(T)/TZ-F12 QFF
 memory, 995, m;
 gthresh,energy=1.d-12,zero=1.d-22,oneint=1.d-22,twoint=1.d-22;
 gthresh,optgrad=1.d-8,optstep=1.d-8;
 nocompress;
 geomtyp=xyz
 bohr
 geometry={
 3
         32        32
 H        0.0000000000        1.6620784798       -1.9220414947
 N        0.0000000000       -0.1601770606       -1.1511503065
 O        0.0000000000        0.0398663709        1.1226022102
 }
 
 basis=avqz
   {hf,maxit=500;accu,20;}
 {ccsd(t),nocheck,maxit=250;orbital,IGNORE_ERROR;}

 Variables initialized (889), CPU time= 0.01 sec
 Commands  initialized (702), CPU time= 0.00 sec, 572 directives.
 Default parameters read. Elapsed time= 0.05 sec

 Checking input...
 Passed
1


                                         ***  PROGRAM SYSTEM MOLPRO  ***
                                       Copyright, TTI GmbH Stuttgart, 2015
                                    Version 2015.1 linked Jul  9 2018 13:16:40


 **********************************************************************************************************************************
 LABEL *   hno CCSD(T)/TZ-F12 QFF                                                        
  64 bit serial version                                                                  DATE: 04-Mar-20          TIME: 13:40:44  
 **********************************************************************************************************************************

 SHA1:             d5ffa45e93fdbca01ffc919aa182cfdae0147319
 **********************************************************************************************************************************

 THRESHOLDS:

 ZERO    =  1.00D-22  ONEINT  =  1.00D-22  TWOINT  =  1.00D-22  PREFAC  =  1.00D-14  LOCALI  =  1.00D-09  EORDER  =  1.00D-04
 ENERGY  =  1.00D-12  ETEST   =  0.00D+00  EDENS   =  0.00D+00  THRDEDEF=  1.00D-06  GRADIENT=  1.00D-02  STEP    =  1.00D-03
 ORBITAL =  1.00D-05  CIVEC   =  1.00D-05  COEFF   =  1.00D-04  PRINTCI =  5.00D-02  PUNCHCI =  9.90D+01  OPTGRAD =  3.00D-04
 OPTENERG=  1.00D-06  OPTSTEP =  3.00D-04  THRGRAD =  1.00D-10  COMPRESS=  1.00D-11  VARMIN  =  1.00D-07  VARMAX  =  1.00D-03
 THRDOUB =  0.00D+00  THRDIV  =  1.00D-05  THRRED  =  1.00D-07  THRPSP  =  1.00D+00  THRDC   =  1.00D-10  THRCS   =  1.00D-10
 THRNRM  =  1.00D-08  THREQ   =  0.00D+00  THRDE   =  1.00D+00  THRREF  =  1.00D-05  SPARFAC =  1.00D+00  THRDLP  =  1.00D-07
 THRDIA  =  1.00D-10  THRDLS  =  1.00D-07  THRGPS  =  0.00D+00  THRKEX  =  0.00D+00  THRDIS  =  2.00D-01  THRVAR  =  1.00D-10
 THRLOC  =  1.00D-06  THRGAP  =  1.00D-06  THRLOCT = -1.00D+00  THRGAPT = -1.00D+00  THRORB  =  1.00D-06  THRMLTP =  0.00D+00
 THRCPQCI=  1.00D-10  KEXTA   =  0.00D+00  THRCOARS=  0.00D+00  SYMTOL  =  1.00D-06  GRADTOL =  1.00D-06  THROVL  =  1.00D-08
 THRORTH =  1.00D-08  GRID    =  1.00D-06  GRIDMAX =  1.00D-03  DTMAX   =  0.00D+00  THROCCDE=  1.00D-01  THROCCDE=  1.00D-01



 THRESHOLDS:

 ZERO    =  1.00D-22  ONEINT  =  1.00D-22  TWOINT  =  1.00D-22  PREFAC  =  1.00D-14  LOCALI  =  1.00D-09  EORDER  =  1.00D-04
 ENERGY  =  1.00D-12  ETEST   =  0.00D+00  EDENS   =  0.00D+00  THRDEDEF=  1.00D-06  GRADIENT=  1.00D-02  STEP    =  1.00D-03
 ORBITAL =  1.00D-05  CIVEC   =  1.00D-05  COEFF   =  1.00D-04  PRINTCI =  5.00D-02  PUNCHCI =  9.90D+01  OPTGRAD =  1.00D-08
 OPTENERG=  1.00D-06  OPTSTEP =  1.00D-08  THRGRAD =  1.00D-10  COMPRESS=  1.00D-11  VARMIN  =  1.00D-07  VARMAX  =  1.00D-03
 THRDOUB =  0.00D+00  THRDIV  =  1.00D-05  THRRED  =  1.00D-07  THRPSP  =  1.00D+00  THRDC   =  1.00D-10  THRCS   =  1.00D-10
 THRNRM  =  1.00D-08  THREQ   =  0.00D+00  THRDE   =  1.00D+00  THRREF  =  1.00D-05  SPARFAC =  1.00D+00  THRDLP  =  1.00D-07
 THRDIA  =  1.00D-10  THRDLS  =  1.00D-07  THRGPS  =  0.00D+00  THRKEX  =  0.00D+00  THRDIS  =  2.00D-01  THRVAR  =  1.00D-10
 THRLOC  =  1.00D-06  THRGAP  =  1.00D-06  THRLOCT = -1.00D+00  THRGAPT = -1.00D+00  THRORB  =  1.00D-06  THRMLTP =  0.00D+00
 THRCPQCI=  1.00D-10  KEXTA   =  0.00D+00  THRCOARS=  0.00D+00  SYMTOL  =  1.00D-06  GRADTOL =  1.00D-06  THROVL  =  1.00D-08
 THRORTH =  1.00D-08  GRID    =  1.00D-06  GRIDMAX =  1.00D-03  DTMAX   =  0.00D+00  THROCCDE=  1.00D-01  THROCCDE=  1.00D-01



 Input parameters for SORTINT:

 COMPRESS =    0.000000
 C_FINAL  =    1.000000
 DEBUG    =   -1.000000
 C_SORT1  =    0.000000
 C_SEWARD =    0.000000
 THRESH   =    0.000000
 IO       =  molpro                                                          
 SPRI     =    0.000000
 SETTING GEOMTYP        =    XYZ
 ZUNIT=BOHR
 

 Variable memory set to  995000000 words,  buffer space   230000 words

 SETTING BASIS          =    AVQZ


 Recomputing integrals since basis changed


 Using spherical harmonics

 Library entry H      S aug-cc-pVQZ          selected for orbital group  1
 Library entry H      P aug-cc-pVQZ          selected for orbital group  1
 Library entry H      D aug-cc-pVQZ          selected for orbital group  1
 Library entry H      F aug-cc-pVQZ          selected for orbital group  1
 Library entry N      S aug-cc-pVQZ          selected for orbital group  2
 Library entry N      P aug-cc-pVQZ          selected for orbital group  2
 Library entry N      D aug-cc-pVQZ          selected for orbital group  2
 Library entry N      F aug-cc-pVQZ          selected for orbital group  2
 Library entry N      G aug-cc-pVQZ          selected for orbital group  2
 Library entry O      S aug-cc-pVQZ          selected for orbital group  3
 Library entry O      P aug-cc-pVQZ          selected for orbital group  3
 Library entry O      D aug-cc-pVQZ          selected for orbital group  3
 Library entry O      F aug-cc-pVQZ          selected for orbital group  3
 Library entry O      G aug-cc-pVQZ          selected for orbital group  3


 PROGRAM * SEWARD (Integral evaluation for generally contracted gaussian basis sets)     Author: Roland Lindh, 1990

 Geometry written to block  1 of record 700


 Point group  Cs  



 ATOMIC COORDINATES

 NR  ATOM    CHARGE       X              Y              Z

   1  H       1.00    0.000000000    1.662078480   -1.922041495
   2  N       7.00    0.000000000   -0.160177061   -1.151150306
   3  O       8.00    0.000000000    0.039866371    1.122602210

 Bond lengths in Bohr (Angstrom)

 1-2  1.978607712  2-3  2.282535406
     ( 1.047034111)     ( 1.207865720)

 Bond angles

  1-2-3  107.90251459

 NUCLEAR CHARGE:                   16
 NUMBER OF PRIMITIVE AOS:         293
 NUMBER OF SYMMETRY AOS:          234
 NUMBER OF CONTRACTIONS:          206   ( 130A'  +  76A"  )
 NUMBER OF CORE ORBITALS:           2   (   2A'  +   0A"  )
 NUMBER OF VALENCE ORBITALS:        9   (   7A'  +   2A"  )


 NUCLEAR REPULSION ENERGY   30.39090739

 Eigenvalues of metric

         1 0.589E-04 0.145E-03 0.317E-03 0.435E-03 0.587E-03 0.676E-03 0.100E-02 0.108E-02
         2 0.821E-03 0.160E-02 0.492E-02 0.893E-02 0.101E-01 0.123E-01 0.124E-01 0.185E-01


 Contracted 2-electron integrals neglected if value below      1.0D-22

      109945088. INTEGRALS WRITTEN OUT IN   26849 BLOCKS ON RECORD 1290 OF FILE 1


 NUMBER OF SORTED TWO-ELECTRON INTEGRALS:  115283741.     BUFFER LENGTH:  32768
 NUMBER OF SEGMENTS:   8  SEGMENT LENGTH:   15998004      RECORD LENGTH: 524288

 Memory used in sort:      16.56 MW

 SORT1 READ   109945088. AND WROTE   110865255. INTEGRALS IN    322 RECORDS. CPU TIME:     1.79 SEC, REAL TIME:     2.48 SEC
 SORT2 READ   110865255. AND WROTE   115283741. INTEGRALS IN      8 RECORDS. CPU TIME:     1.24 SEC, REAL TIME:     1.73 SEC

 FILE SIZES:   FILE 1:  1780.6 MBYTE,  FILE 4:  1350.6 MBYTE,   TOTAL:   3131.2 MBYTE

 OPERATOR DM      FOR CENTER  0  COORDINATES:    0.000000    0.000000    0.000000


 **********************************************************************************************************************************
 DATASETS  * FILE   NREC   LENGTH (MB)   RECORD NAMES
              1      19      944.14       500      610      700      900      950      970     1000      129      960     1100   
                                          VAR    BASINP    GEOM    SYMINP    ZMAT    AOBASIS   BASIS     P2S    ABASIS      S 
                                         1400     1410     1200     1210     1080     1600     1650     1300     1700   
                                           T        V       H0       H01     AOSYM     SMH    MOLCAS    ERIS     OPER   

 PROGRAMS   *        TOTAL       INT
 CPU TIMES  *        10.38     10.29
 REAL TIME  *        12.96 SEC
 DISK USED  *         3.13 GB      
 **********************************************************************************************************************************


 PROGRAM * RHF-SCF (CLOSED SHELL)       Authors: W. Meyer, H.-J. Werner


 NUMBER OF ELECTRONS:       8+    8-
 CONVERGENCE THRESHOLDS:    1.00E-10 (Density)    1.00E-13 (Energy)
 MAX. NUMBER OF ITERATIONS:      500
 INTERPOLATION TYPE:            DIIS
 INTERPOLATION STEPS:              2 (START)      1 (STEP)
 LEVEL SHIFTS:                  0.00 (CLOSED)  0.00 (OPEN) 



 Orbital guess generated from atomic densities. Full valence occupancy:    9   2

 Molecular orbital dump at record        2100.2

 Initial occupancy:   7   1

 ITERATION    DDIFF          GRAD             ENERGY        2-EL.EN.            DIPOLE MOMENTS         DIIS   ORB.
    1      0.000D+00      0.000D+00      -129.79706766    154.005513    0.00000    0.59506   -1.02480    0    start
    2      0.000D+00      0.810D-02      -129.82436383    155.231220    0.00000    0.61089   -0.20882    1    diag
    3      0.652D-02      0.616D-02      -129.84704251    155.355609    0.00000    0.55708   -0.59309    2    diag
    4      0.332D-02      0.971D-03      -129.84784502    155.071129    0.00000    0.56466   -0.53182    3    diag
    5      0.606D-03      0.316D-03      -129.84797066    155.164247    0.00000    0.56988   -0.53435    4    diag
    6      0.252D-03      0.911D-04      -129.84799065    155.148139    0.00000    0.57017   -0.53018    5    diag
    7      0.959D-04      0.454D-04      -129.84799648    155.150876    0.00000    0.57138   -0.52756    6    diag
    8      0.663D-04      0.158D-04      -129.84799714    155.150183    0.00000    0.57142   -0.52654    7    diag
    9      0.255D-04      0.303D-05      -129.84799717    155.150069    0.00000    0.57139   -0.52632    8    diag
   10      0.507D-05      0.688D-06      -129.84799717    155.150052    0.00000    0.57135   -0.52629    9    orth
   11      0.991D-06      0.137D-06      -129.84799717    155.150048    0.00000    0.57135   -0.52629    9    diag
   12      0.181D-06      0.280D-07      -129.84799717    155.150048    0.00000    0.57134   -0.52629    9    diag
   13      0.391D-07      0.721D-08      -129.84799717    155.150048    0.00000    0.57134   -0.52629    9    diag
   14      0.106D-07      0.141D-08      -129.84799717    155.150048    0.00000    0.57134   -0.52629    9    diag
   15      0.194D-08      0.404D-09      -129.84799717    155.150048    0.00000    0.57134   -0.52629    9    diag
   16      0.579D-09      0.121D-09      -129.84799717    155.150048    0.00000    0.57134   -0.52629    9    diag
   17      0.110D-09      0.317D-10      -129.84799717    155.150048    0.00000    0.57134   -0.52629    9    diag
   18      0.297D-10      0.107D-10      -129.84799717    155.150048    0.00000    0.57134   -0.52629    9    diag
   19      0.150D-10      0.257D-11      -129.84799717    155.150048    0.00000    0.57134   -0.52629    9    fixocc
   20      0.501D-11      0.474D-12      -129.84799717    155.150048    0.00000    0.57134   -0.52629    9    orth
   21      0.440D-11      0.201D-12      -129.84799717    155.150048    0.00000    0.57134   -0.52629    9    diag
   22      0.249D-11      0.171D-12      -129.84799717    155.150048    0.00000    0.57134   -0.52629    9    diag
   23      0.178D-11      0.116D-12      -129.84799717    155.150048    0.00000    0.57134   -0.52629    9    diag
   24      0.666D-12      0.111D-12      -129.84799717    155.150048    0.00000    0.57134   -0.52629    0    orth

 Final occupancy:   7   1

 !RHF STATE 1.1 Energy               -129.847997173827
 Nuclear energy                        30.39090739
 One-electron energy                 -237.81392865
 Two-electron energy                   77.57502409
 Virial quotient                       -1.00167525
 !RHF STATE 1.1 Dipole moment           0.00000000     0.57134421    -0.52628808
 Dipole moment /Debye                   0.00000000     1.45211701    -1.33760327

 Orbital energies:

         1.1          2.1          3.1          4.1          5.1          6.1          7.1          8.1          9.1
    -20.653500   -15.712002    -1.529883    -0.995591    -0.747805    -0.666078    -0.430996     0.026386     0.079488

         1.2          2.2          3.2
     -0.596086     0.063355     0.110366

 HOMO      7.1    -0.430996 =     -11.7280eV
 LUMO      8.1     0.026386 =       0.7180eV
 LUMO-HOMO         0.457382 =      12.4460eV


 **********************************************************************************************************************************
 DATASETS  * FILE   NREC   LENGTH (MB)   RECORD NAMES
              1      19      944.14       500      610      700      900      950      970     1000      129      960     1100   
                                          VAR    BASINP    GEOM    SYMINP    ZMAT    AOBASIS   BASIS     P2S    ABASIS      S 
                                         1400     1410     1200     1210     1080     1600     1650     1300     1700   
                                           T        V       H0       H01     AOSYM     SMH    MOLCAS    ERIS     OPER   

              2       4        3.27       700     1000      520     2100   
                                         GEOM     BASIS   MCVARS     RHF  

 PROGRAMS   *        TOTAL        HF       INT
 CPU TIMES  *        21.61     11.23     10.29
 REAL TIME  *        26.93 SEC
 DISK USED  *         3.13 GB      
 **********************************************************************************************************************************


 PROGRAM * CCSD (Closed-shell coupled cluster)     Authors: C. Hampel, H.-J. Werner, 1991, M. Deegan, P.J. Knowles, 1992


 Convergence thresholds:  THRVAR = 1.00D-08  THRDEN = 1.00D-12

 CCSD(T)     terms to be evaluated (factor= 1.000)


 Number of core orbitals:           2 (   2   0 )
 Number of closed-shell orbitals:   6 (   5   1 )
 Number of external orbitals:     198 ( 123  75 )

 Molecular orbitals read from record     2100.2  Type=RHF/CANONICAL (state 1.1)

 Number of N-1 electron functions:               6
 Number of N-2 electron functions:              21
 Number of singly external CSFs:               690
 Number of doubly external CSFs:            362646
 Total number of CSFs:                      363337

 Length of J-op  integral file:               0.00 MB
 Length of K-op  integral file:               1.60 MB
 Length of 3-ext integral record:             0.00 MB

 Memory could be reduced to 34.67 Mwords without degradation in triples

 Integral transformation finished. Total CPU:   1.33 sec, npass=  1  Memory used:   9.53 MW

 Reference energy:                   -129.84799717

 MP2 singlet pair energy:              -0.30149437
 MP2 triplet pair energy:              -0.17035991
 MP2 correlation energy:               -0.47185428
 MP2 total energy:                   -130.31985146

 SCS-MP2 correlation energy:           -0.46779497   (PS=  1.200000  PT=  0.333333)
 SCS-MP2 total energy:               -130.31579214

 ITER.      SQ.NORM     CORR.ENERGY   TOTAL ENERGY   ENERGY CHANGE        DEN1      VAR(S)    VAR(P)  DIIS     TIME  TIME/IT
   1      1.12084534    -0.47190362  -130.31990079    -0.00004934     0.01631246  0.31D-02  0.32D-02  1  1     2.45     1.26
   2      1.13151041    -0.47186712  -130.31986430     0.00003650    -0.01246944  0.10D-03  0.49D-03  2  2     3.60     1.28
   3      1.13778577    -0.47224125  -130.32023843    -0.00037413    -0.00303650  0.48D-04  0.53D-04  3  3     4.75     1.29
   4      1.14052866    -0.47224896  -130.32024613    -0.00000770    -0.00093231  0.42D-05  0.95D-05  4  4     5.88     1.30
   5      1.14161144    -0.47227806  -130.32027524    -0.00002911    -0.00023638  0.11D-05  0.16D-05  5  5     7.06     1.31
   6      1.14196168    -0.47226333  -130.32026050     0.00001473    -0.00005046  0.10D-06  0.39D-06  6  6     8.20     1.31
   7      1.14203324    -0.47226388  -130.32026106    -0.00000055     0.00000262  0.16D-07  0.89D-07  6  1     9.34     1.31
   8      1.14205550    -0.47226422  -130.32026139    -0.00000034    -0.00000106  0.34D-08  0.17D-07  6  2    10.51     1.31
   9      1.14206033    -0.47226385  -130.32026102     0.00000037     0.00000093  0.25D-08  0.20D-08  6  4    11.70     1.31
  10      1.14206273    -0.47226422  -130.32026139    -0.00000037    -0.00000073  0.46D-09  0.24D-09  6  3    12.87     1.31
  11      1.14206246    -0.47226428  -130.32026145    -0.00000006    -0.00000012  0.15D-09  0.34D-10  6  5    14.03     1.31
  12      1.14206152    -0.47226442  -130.32026159    -0.00000014     0.00000035  0.18D-10  0.10D-10  6  6    15.21     1.31
  13      1.14206069    -0.47226446  -130.32026163    -0.00000004     0.00000021  0.55D-11  0.23D-11  6  1    16.35     1.31
  14      1.14206004    -0.47226449  -130.32026166    -0.00000003     0.00000015  0.37D-12  0.47D-12  6  4    17.44     1.31
  15      1.14205984    -0.47226450  -130.32026167    -0.00000001     0.00000003  0.79D-13  0.36D-13  6  2    18.57     1.31
  16      1.14205979    -0.47226450  -130.32026167    -0.00000000     0.00000001  0.22D-13  0.67D-14  6  3    19.71     1.31
  17      1.14205976    -0.47226450  -130.32026167    -0.00000000     0.00000001  0.39D-14  0.97D-15  6  5    20.88     1.31
  18      1.14205976    -0.47226450  -130.32026167    -0.00000000     0.00000000  0.81D-15  0.25D-15  6  6    22.07     1.31
  19      1.14205976    -0.47226450  -130.32026167    -0.00000000     0.00000000  0.95D-16  0.49D-16  6  1    23.25     1.31
  20      1.14205976    -0.47226450  -130.32026167     0.00000000    -0.00000000  0.91D-17  0.72D-17  6  4    24.42     1.31
  21      1.14205976    -0.47226450  -130.32026167     0.00000000    -0.00000000  0.46D-18  0.61D-18  6  3    25.54     1.31
  22      1.14205976    -0.47226450  -130.32026167     0.00000000    -0.00000000  0.11D-18  0.13D-18  6  2    26.69     1.31
  23      1.14205976    -0.47226450  -130.32026167     0.00000000     0.00000000  0.34D-19  0.47D-19  6  5    27.85     1.31
  24      1.14205976    -0.47226450  -130.32026167    -0.00000000     0.00000000  0.26D-20  0.10D-19  6  1    29.02     1.31

 Norm of t1 vector:      0.07648200      S-energy:    -0.00000000      T1 diagnostic:  0.01561182
                                                                       D1 diagnostic:  0.04211890

 Doubles amplitudes (print threshold =  0.500E-01):

         I         J         SYM. A    SYM. B    A         B      T(IJ, AB)

         6         6         2         2         1         1     -0.09856614


 Total CPU time for triples:     14.56 sec


 RESULTS
 =======

  Reference energy                   -129.847997173827
  CCSD singlet pair energy             -0.326423330888
  CCSD triplet pair energy             -0.145841168813
  CCSD correlation energy              -0.472264499701

  Triples (T) contribution             -0.022322385723
  Total correlation energy             -0.494586885424

  CCSD total energy                  -130.320261673529
  CCSD[T] energy                     -130.343650767509
  CCSD-T energy                      -130.342200932937
 !CCSD(T) total energy               -130.342584059251

 Timing summary (sec):

 STEP                 CPU(USER)    SYS     CPU(TOT)    WALL
 Transformation          1.34      0.28      1.62      1.62
 CCSD iterations        27.68      3.85     31.53     31.54
 Triples                14.56      0.36     14.92     14.92

 Program statistics:

 Available memory in ccsd:               994999756
 Min. memory needed in ccsd:               1265322
 Max. memory used in ccsd:                 1555950
 Max. memory used in cckext:               2415326 (24 integral passes)



 **********************************************************************************************************************************
 DATASETS  * FILE   NREC   LENGTH (MB)   RECORD NAMES
              1      20     1044.69       500      610      700      900      950      970     1000      129      960     1100   
                                          VAR    BASINP    GEOM    SYMINP    ZMAT    AOBASIS   BASIS     P2S    ABASIS      S 
                                         1400     1410     1200     1210     1080     1600     1650     1300     1700     1380   
                                           T        V       H0       H01     AOSYM     SMH    MOLCAS    ERIS     OPER     JKOP   

              2       4        3.27       700     1000      520     2100   
                                         GEOM     BASIS   MCVARS     RHF  

 PROGRAMS   *        TOTAL   CCSD(T)        HF       INT
 CPU TIMES  *        65.21     43.59     11.23     10.29
 REAL TIME  *        75.04 SEC
 DISK USED  *         3.13 GB      
 **********************************************************************************************************************************

 CCSD(T)/aug-cc-pVQZ energy=   -130.342584059251

        CCSD(T)         HF-SCF  
   -130.34258406   -129.84799717
 **********************************************************************************************************************************
 Molpro calculation terminated
 Variable memory released
