
 Primary working directories    : /tmp/r2666/282008.maple
 Secondary working directories  : /tmp/r2666/282008.maple
 Wavefunction directory         : /ddn/home4/r2666/wfu/
 Main file repository           : /tmp/r2666/282008.maple/

 SHA1      : d5ffa45e93fdbca01ffc919aa182cfdae0147319
 NAME      : 2015.1.35
 ARCHNAME  : linux/x86_64
 FC        : /opt/intel/composer_xe_2015.1.133/bin/intel64/ifort
 BLASLIB   : -Wl,-_start-group /opt/intel/mkl/lib/intel64/libmkl_intel_ilp64.a /opt/intel/mkl/lib/intel64/libmkl_intel_thread.a /opt/intel/mkl/lib/intel64/libmkl_core.a -Wl,-_end-group
 id        : olemiss

 Nodes     nprocs
 cn089        1

 Using customized tuning parameters: mindgm=1; mindgv=20; mindgc=4; mindgr=1; noblas=0; minvec=7
 default implementation of scratch files=df  

 ***,hno CCSD(T)/TZ-F12 QFF
 memory, 995, m;
 gthresh,energy=1.d-12,zero=1.d-22,oneint=1.d-22,twoint=1.d-22;
 gthresh,optgrad=1.d-8,optstep=1.d-8;
 nocompress;
 geomtyp=xyz
 bohr
 geometry={
 3
         34        34
 H        0.0000000000        1.6625065754       -1.9291318417
 N        0.0000000000       -0.1553971036       -1.1480334533
 O        0.0000000000        0.0346583183        1.1265757040
 }
 
 basis=avqz
   {hf,maxit=500;accu,20;}
 {ccsd(t),nocheck,maxit=250;orbital,IGNORE_ERROR;}

 Variables initialized (889), CPU time= 0.00 sec
 Commands  initialized (702), CPU time= 0.02 sec, 572 directives.
 Default parameters read. Elapsed time= 0.07 sec

 Checking input...
 Passed
1


                                         ***  PROGRAM SYSTEM MOLPRO  ***
                                       Copyright, TTI GmbH Stuttgart, 2015
                                    Version 2015.1 linked Jul  9 2018 13:16:40


 **********************************************************************************************************************************
 LABEL *   hno CCSD(T)/TZ-F12 QFF                                                        
  64 bit serial version                                                                  DATE: 04-Mar-20          TIME: 13:40:53  
 **********************************************************************************************************************************

 SHA1:             d5ffa45e93fdbca01ffc919aa182cfdae0147319
 **********************************************************************************************************************************

 THRESHOLDS:

 ZERO    =  1.00D-22  ONEINT  =  1.00D-22  TWOINT  =  1.00D-22  PREFAC  =  1.00D-14  LOCALI  =  1.00D-09  EORDER  =  1.00D-04
 ENERGY  =  1.00D-12  ETEST   =  0.00D+00  EDENS   =  0.00D+00  THRDEDEF=  1.00D-06  GRADIENT=  1.00D-02  STEP    =  1.00D-03
 ORBITAL =  1.00D-05  CIVEC   =  1.00D-05  COEFF   =  1.00D-04  PRINTCI =  5.00D-02  PUNCHCI =  9.90D+01  OPTGRAD =  3.00D-04
 OPTENERG=  1.00D-06  OPTSTEP =  3.00D-04  THRGRAD =  1.00D-10  COMPRESS=  1.00D-11  VARMIN  =  1.00D-07  VARMAX  =  1.00D-03
 THRDOUB =  0.00D+00  THRDIV  =  1.00D-05  THRRED  =  1.00D-07  THRPSP  =  1.00D+00  THRDC   =  1.00D-10  THRCS   =  1.00D-10
 THRNRM  =  1.00D-08  THREQ   =  0.00D+00  THRDE   =  1.00D+00  THRREF  =  1.00D-05  SPARFAC =  1.00D+00  THRDLP  =  1.00D-07
 THRDIA  =  1.00D-10  THRDLS  =  1.00D-07  THRGPS  =  0.00D+00  THRKEX  =  0.00D+00  THRDIS  =  2.00D-01  THRVAR  =  1.00D-10
 THRLOC  =  1.00D-06  THRGAP  =  1.00D-06  THRLOCT = -1.00D+00  THRGAPT = -1.00D+00  THRORB  =  1.00D-06  THRMLTP =  0.00D+00
 THRCPQCI=  1.00D-10  KEXTA   =  0.00D+00  THRCOARS=  0.00D+00  SYMTOL  =  1.00D-06  GRADTOL =  1.00D-06  THROVL  =  1.00D-08
 THRORTH =  1.00D-08  GRID    =  1.00D-06  GRIDMAX =  1.00D-03  DTMAX   =  0.00D+00  THROCCDE=  1.00D-01  THROCCDE=  1.00D-01



 THRESHOLDS:

 ZERO    =  1.00D-22  ONEINT  =  1.00D-22  TWOINT  =  1.00D-22  PREFAC  =  1.00D-14  LOCALI  =  1.00D-09  EORDER  =  1.00D-04
 ENERGY  =  1.00D-12  ETEST   =  0.00D+00  EDENS   =  0.00D+00  THRDEDEF=  1.00D-06  GRADIENT=  1.00D-02  STEP    =  1.00D-03
 ORBITAL =  1.00D-05  CIVEC   =  1.00D-05  COEFF   =  1.00D-04  PRINTCI =  5.00D-02  PUNCHCI =  9.90D+01  OPTGRAD =  1.00D-08
 OPTENERG=  1.00D-06  OPTSTEP =  1.00D-08  THRGRAD =  1.00D-10  COMPRESS=  1.00D-11  VARMIN  =  1.00D-07  VARMAX  =  1.00D-03
 THRDOUB =  0.00D+00  THRDIV  =  1.00D-05  THRRED  =  1.00D-07  THRPSP  =  1.00D+00  THRDC   =  1.00D-10  THRCS   =  1.00D-10
 THRNRM  =  1.00D-08  THREQ   =  0.00D+00  THRDE   =  1.00D+00  THRREF  =  1.00D-05  SPARFAC =  1.00D+00  THRDLP  =  1.00D-07
 THRDIA  =  1.00D-10  THRDLS  =  1.00D-07  THRGPS  =  0.00D+00  THRKEX  =  0.00D+00  THRDIS  =  2.00D-01  THRVAR  =  1.00D-10
 THRLOC  =  1.00D-06  THRGAP  =  1.00D-06  THRLOCT = -1.00D+00  THRGAPT = -1.00D+00  THRORB  =  1.00D-06  THRMLTP =  0.00D+00
 THRCPQCI=  1.00D-10  KEXTA   =  0.00D+00  THRCOARS=  0.00D+00  SYMTOL  =  1.00D-06  GRADTOL =  1.00D-06  THROVL  =  1.00D-08
 THRORTH =  1.00D-08  GRID    =  1.00D-06  GRIDMAX =  1.00D-03  DTMAX   =  0.00D+00  THROCCDE=  1.00D-01  THROCCDE=  1.00D-01



 Input parameters for SORTINT:

 COMPRESS =    0.000000
 C_FINAL  =    1.000000
 DEBUG    =   -1.000000
 C_SORT1  =    0.000000
 C_SEWARD =    0.000000
 THRESH   =    0.000000
 IO       =  molpro                                                          
 SPRI     =    0.000000
 SETTING GEOMTYP        =    XYZ
 ZUNIT=BOHR
 

 Variable memory set to  995000000 words,  buffer space   230000 words

 SETTING BASIS          =    AVQZ


 Recomputing integrals since basis changed


 Using spherical harmonics

 Library entry H      S aug-cc-pVQZ          selected for orbital group  1
 Library entry H      P aug-cc-pVQZ          selected for orbital group  1
 Library entry H      D aug-cc-pVQZ          selected for orbital group  1
 Library entry H      F aug-cc-pVQZ          selected for orbital group  1
 Library entry N      S aug-cc-pVQZ          selected for orbital group  2
 Library entry N      P aug-cc-pVQZ          selected for orbital group  2
 Library entry N      D aug-cc-pVQZ          selected for orbital group  2
 Library entry N      F aug-cc-pVQZ          selected for orbital group  2
 Library entry N      G aug-cc-pVQZ          selected for orbital group  2
 Library entry O      S aug-cc-pVQZ          selected for orbital group  3
 Library entry O      P aug-cc-pVQZ          selected for orbital group  3
 Library entry O      D aug-cc-pVQZ          selected for orbital group  3
 Library entry O      F aug-cc-pVQZ          selected for orbital group  3
 Library entry O      G aug-cc-pVQZ          selected for orbital group  3


 PROGRAM * SEWARD (Integral evaluation for generally contracted gaussian basis sets)     Author: Roland Lindh, 1990

 Geometry written to block  1 of record 700


 Point group  Cs  



 ATOMIC COORDINATES

 NR  ATOM    CHARGE       X              Y              Z

   1  H       1.00    0.000000000    1.662506575   -1.929131842
   2  N       7.00    0.000000000   -0.155397104   -1.148033453
   3  O       8.00    0.000000000    0.034658318    1.126575704

 Bond lengths in Bohr (Angstrom)

 1-2  1.978607712  2-3  2.282535406
     ( 1.047034111)     ( 1.207865720)

 Bond angles

  1-2-3  108.47547239

 NUCLEAR CHARGE:                   16
 NUMBER OF PRIMITIVE AOS:         293
 NUMBER OF SYMMETRY AOS:          234
 NUMBER OF CONTRACTIONS:          206   ( 130A'  +  76A"  )
 NUMBER OF CORE ORBITALS:           2   (   2A'  +   0A"  )
 NUMBER OF VALENCE ORBITALS:        9   (   7A'  +   2A"  )


 NUCLEAR REPULSION ENERGY   30.38259235

 Eigenvalues of metric

         1 0.589E-04 0.144E-03 0.317E-03 0.435E-03 0.585E-03 0.674E-03 0.100E-02 0.108E-02
         2 0.821E-03 0.160E-02 0.490E-02 0.893E-02 0.100E-01 0.122E-01 0.125E-01 0.185E-01


 Contracted 2-electron integrals neglected if value below      1.0D-22

      109945079. INTEGRALS WRITTEN OUT IN   26849 BLOCKS ON RECORD 1290 OF FILE 1


 NUMBER OF SORTED TWO-ELECTRON INTEGRALS:  115283741.     BUFFER LENGTH:  32768
 NUMBER OF SEGMENTS:   8  SEGMENT LENGTH:   15998004      RECORD LENGTH: 524288

 Memory used in sort:      16.56 MW

 SORT1 READ   109945079. AND WROTE   110865246. INTEGRALS IN    322 RECORDS. CPU TIME:     1.82 SEC, REAL TIME:     2.52 SEC
 SORT2 READ   110865246. AND WROTE   115283741. INTEGRALS IN      8 RECORDS. CPU TIME:     1.34 SEC, REAL TIME:     1.76 SEC

 FILE SIZES:   FILE 1:  1780.6 MBYTE,  FILE 4:  1350.6 MBYTE,   TOTAL:   3131.2 MBYTE

 OPERATOR DM      FOR CENTER  0  COORDINATES:    0.000000    0.000000    0.000000


 **********************************************************************************************************************************
 DATASETS  * FILE   NREC   LENGTH (MB)   RECORD NAMES
              1      19      944.14       500      610      700      900      950      970     1000      129      960     1100   
                                          VAR    BASINP    GEOM    SYMINP    ZMAT    AOBASIS   BASIS     P2S    ABASIS      S 
                                         1400     1410     1200     1210     1080     1600     1650     1300     1700   
                                           T        V       H0       H01     AOSYM     SMH    MOLCAS    ERIS     OPER   

 PROGRAMS   *        TOTAL       INT
 CPU TIMES  *        10.62     10.51
 REAL TIME  *        13.17 SEC
 DISK USED  *         3.13 GB      
 **********************************************************************************************************************************


 PROGRAM * RHF-SCF (CLOSED SHELL)       Authors: W. Meyer, H.-J. Werner


 NUMBER OF ELECTRONS:       8+    8-
 CONVERGENCE THRESHOLDS:    1.00E-10 (Density)    1.00E-13 (Energy)
 MAX. NUMBER OF ITERATIONS:      500
 INTERPOLATION TYPE:            DIIS
 INTERPOLATION STEPS:              2 (START)      1 (STEP)
 LEVEL SHIFTS:                  0.00 (CLOSED)  0.00 (OPEN) 



 Orbital guess generated from atomic densities. Full valence occupancy:    9   2

 Molecular orbital dump at record        2100.2

 Initial occupancy:   7   1

 ITERATION    DDIFF          GRAD             ENERGY        2-EL.EN.            DIPOLE MOMENTS         DIIS   ORB.
    1      0.000D+00      0.000D+00      -129.79712003    153.987873    0.00000    0.60003   -1.02606    0    start
    2      0.000D+00      0.809D-02      -129.82440572    155.216386    0.00000    0.61052   -0.21119    1    diag
    3      0.652D-02      0.615D-02      -129.84703553    155.340118    0.00000    0.55930   -0.59534    2    diag
    4      0.332D-02      0.973D-03      -129.84783952    155.055366    0.00000    0.56659   -0.53391    3    diag
    5      0.607D-03      0.315D-03      -129.84796497    155.148659    0.00000    0.57187   -0.53649    4    diag
    6      0.252D-03      0.909D-04      -129.84798490    155.132562    0.00000    0.57217   -0.53233    5    diag
    7      0.958D-04      0.453D-04      -129.84799070    155.135297    0.00000    0.57339   -0.52972    6    diag
    8      0.661D-04      0.158D-04      -129.84799136    155.134607    0.00000    0.57343   -0.52870    7    diag
    9      0.255D-04      0.303D-05      -129.84799139    155.134493    0.00000    0.57339   -0.52848    8    diag
   10      0.507D-05      0.691D-06      -129.84799139    155.134475    0.00000    0.57336   -0.52845    9    orth
   11      0.999D-06      0.138D-06      -129.84799139    155.134472    0.00000    0.57335   -0.52844    9    diag
   12      0.183D-06      0.280D-07      -129.84799139    155.134472    0.00000    0.57335   -0.52844    9    diag
   13      0.391D-07      0.721D-08      -129.84799139    155.134472    0.00000    0.57335   -0.52844    9    diag
   14      0.106D-07      0.141D-08      -129.84799139    155.134472    0.00000    0.57335   -0.52844    9    diag
   15      0.194D-08      0.405D-09      -129.84799139    155.134472    0.00000    0.57335   -0.52844    9    diag
   16      0.580D-09      0.121D-09      -129.84799139    155.134472    0.00000    0.57335   -0.52844    9    diag
   17      0.109D-09      0.314D-10      -129.84799139    155.134472    0.00000    0.57335   -0.52844    9    diag
   18      0.289D-10      0.105D-10      -129.84799139    155.134472    0.00000    0.57335   -0.52844    9    diag
   19      0.144D-10      0.253D-11      -129.84799139    155.134472    0.00000    0.57335   -0.52844    9    fixocc
   20      0.445D-11      0.452D-12      -129.84799139    155.134472    0.00000    0.57335   -0.52844    0    orth

 Final occupancy:   7   1

 !RHF STATE 1.1 Energy               -129.847991391036
 Nuclear energy                        30.38259235
 One-electron energy                 -237.79781953
 Two-electron energy                   77.56723579
 Virial quotient                       -1.00169201
 !RHF STATE 1.1 Dipole moment           0.00000000     0.57334872    -0.52844318
 Dipole moment /Debye                   0.00000000     1.45721164    -1.34308061

 Orbital energies:

         1.1          2.1          3.1          4.1          5.1          6.1          7.1          8.1          9.1
    -20.653646   -15.711899    -1.529587    -0.995951    -0.747778    -0.666193    -0.430608     0.026340     0.079473

         1.2          2.2          3.2
     -0.596011     0.063268     0.110338

 HOMO      7.1    -0.430608 =     -11.7174eV
 LUMO      8.1     0.026340 =       0.7168eV
 LUMO-HOMO         0.456948 =      12.4342eV


 **********************************************************************************************************************************
 DATASETS  * FILE   NREC   LENGTH (MB)   RECORD NAMES
              1      19      944.14       500      610      700      900      950      970     1000      129      960     1100   
                                          VAR    BASINP    GEOM    SYMINP    ZMAT    AOBASIS   BASIS     P2S    ABASIS      S 
                                         1400     1410     1200     1210     1080     1600     1650     1300     1700   
                                           T        V       H0       H01     AOSYM     SMH    MOLCAS    ERIS     OPER   

              2       4        3.27       700     1000      520     2100   
                                         GEOM     BASIS   MCVARS     RHF  

 PROGRAMS   *        TOTAL        HF       INT
 CPU TIMES  *        20.18      9.56     10.51
 REAL TIME  *        25.14 SEC
 DISK USED  *         3.13 GB      
 **********************************************************************************************************************************


 PROGRAM * CCSD (Closed-shell coupled cluster)     Authors: C. Hampel, H.-J. Werner, 1991, M. Deegan, P.J. Knowles, 1992


 Convergence thresholds:  THRVAR = 1.00D-08  THRDEN = 1.00D-12

 CCSD(T)     terms to be evaluated (factor= 1.000)


 Number of core orbitals:           2 (   2   0 )
 Number of closed-shell orbitals:   6 (   5   1 )
 Number of external orbitals:     198 ( 123  75 )

 Molecular orbitals read from record     2100.2  Type=RHF/CANONICAL (state 1.1)

 Number of N-1 electron functions:               6
 Number of N-2 electron functions:              21
 Number of singly external CSFs:               690
 Number of doubly external CSFs:            362646
 Total number of CSFs:                      363337

 Length of J-op  integral file:               0.00 MB
 Length of K-op  integral file:               1.60 MB
 Length of 3-ext integral record:             0.00 MB

 Memory could be reduced to 34.67 Mwords without degradation in triples

 Integral transformation finished. Total CPU:   1.39 sec, npass=  1  Memory used:   9.53 MW

 Reference energy:                   -129.84799139

 MP2 singlet pair energy:              -0.30149469
 MP2 triplet pair energy:              -0.17036088
 MP2 correlation energy:               -0.47185557
 MP2 total energy:                   -130.31984696

 SCS-MP2 correlation energy:           -0.46779595   (PS=  1.200000  PT=  0.333333)
 SCS-MP2 total energy:               -130.31578734

 ITER.      SQ.NORM     CORR.ENERGY   TOTAL ENERGY   ENERGY CHANGE        DEN1      VAR(S)    VAR(P)  DIIS     TIME  TIME/IT
   1      1.12086197    -0.47190438  -130.31989578    -0.00004882     0.01632475  0.31D-02  0.32D-02  1  1     2.52     1.27
   2      1.13153604    -0.47186556  -130.31985695     0.00003883    -0.01247550  0.10D-03  0.49D-03  2  2     3.65     1.30
   3      1.13782172    -0.47224108  -130.32023247    -0.00037552    -0.00303759  0.48D-04  0.53D-04  3  3     4.84     1.31
   4      1.14057175    -0.47224847  -130.32023986    -0.00000739    -0.00093396  0.43D-05  0.96D-05  4  4     6.01     1.31
   5      1.14166241    -0.47227769  -130.32026908    -0.00002923    -0.00023780  0.11D-05  0.17D-05  5  5     7.19     1.32
   6      1.14201584    -0.47226292  -130.32025431     0.00001477    -0.00005078  0.11D-06  0.40D-06  6  6     8.35     1.32
   7      1.14208856    -0.47226346  -130.32025485    -0.00000054     0.00000257  0.16D-07  0.90D-07  6  1     9.51     1.32
   8      1.14211110    -0.47226382  -130.32025521    -0.00000036    -0.00000109  0.35D-08  0.18D-07  6  2    10.66     1.32
   9      1.14211606    -0.47226344  -130.32025483     0.00000038     0.00000094  0.26D-08  0.20D-08  6  4    11.80     1.32
  10      1.14211849    -0.47226382  -130.32025521    -0.00000038    -0.00000074  0.47D-09  0.24D-09  6  3    12.97     1.33
  11      1.14211821    -0.47226388  -130.32025527    -0.00000006    -0.00000011  0.15D-09  0.35D-10  6  5    14.14     1.33
  12      1.14211725    -0.47226402  -130.32025541    -0.00000014     0.00000036  0.18D-10  0.11D-10  6  6    15.34     1.33
  13      1.14211641    -0.47226406  -130.32025545    -0.00000004     0.00000021  0.57D-11  0.23D-11  6  1    16.53     1.33
  14      1.14211575    -0.47226409  -130.32025549    -0.00000003     0.00000015  0.38D-12  0.48D-12  6  4    17.71     1.33
  15      1.14211554    -0.47226410  -130.32025549    -0.00000001     0.00000003  0.82D-13  0.37D-13  6  2    18.90     1.33
  16      1.14211549    -0.47226410  -130.32025549    -0.00000000     0.00000001  0.23D-13  0.69D-14  6  3    20.06     1.33
  17      1.14211546    -0.47226410  -130.32025550    -0.00000000     0.00000001  0.40D-14  0.10D-14  6  5    21.20     1.33
  18      1.14211546    -0.47226410  -130.32025550    -0.00000000     0.00000000  0.83D-15  0.25D-15  6  6    22.36     1.33
  19      1.14211546    -0.47226410  -130.32025550    -0.00000000     0.00000000  0.98D-16  0.51D-16  6  1    23.51     1.33
  20      1.14211546    -0.47226410  -130.32025550     0.00000000    -0.00000000  0.95D-17  0.75D-17  6  4    24.67     1.33
  21      1.14211546    -0.47226410  -130.32025550     0.00000000    -0.00000000  0.48D-18  0.65D-18  6  3    25.86     1.33
  22      1.14211547    -0.47226410  -130.32025550     0.00000000    -0.00000000  0.12D-18  0.14D-18  6  2    27.02     1.33
  23      1.14211547    -0.47226410  -130.32025550     0.00000000    -0.00000000  0.98D-20  0.33D-19  6  1    28.15     1.33
  24      1.14211547    -0.47226410  -130.32025550    -0.00000000     0.00000000  0.18D-20  0.64D-20  6  5    29.33     1.33
  25      1.14211547    -0.47226410  -130.32025550     0.00000000     0.00000000  0.12D-20  0.15D-20  6  6    30.48     1.33

 Norm of t1 vector:      0.07663556      S-energy:     0.00000000      T1 diagnostic:  0.01564317
                                                                       D1 diagnostic:  0.04217074

 Doubles amplitudes (print threshold =  0.500E-01):

         I         J         SYM. A    SYM. B    A         B      T(IJ, AB)

         6         6         2         2         1         1     -0.09857697


 Total CPU time for triples:     14.47 sec


 RESULTS
 =======

  Reference energy                   -129.847991391036
  CCSD singlet pair energy             -0.326424445652
  CCSD triplet pair energy             -0.145839658852
  CCSD correlation energy              -0.472264104503

  Triples (T) contribution             -0.022328886085
  Total correlation energy             -0.494592990588

  CCSD total energy                  -130.320255495539
  CCSD[T] energy                     -130.343654033718
  CCSD-T energy                      -130.342200560367
 !CCSD(T) total energy               -130.342584381624

 Timing summary (sec):

 STEP                 CPU(USER)    SYS     CPU(TOT)    WALL
 Transformation          1.40      0.25      1.65      1.65
 CCSD iterations        29.09      4.10     33.19     33.20
 Triples                14.47      0.43     14.90     14.90

 Program statistics:

 Available memory in ccsd:               994999756
 Min. memory needed in ccsd:               1265322
 Max. memory used in ccsd:                 1555950
 Max. memory used in cckext:               2415326 (25 integral passes)



 **********************************************************************************************************************************
 DATASETS  * FILE   NREC   LENGTH (MB)   RECORD NAMES
              1      20     1044.69       500      610      700      900      950      970     1000      129      960     1100   
                                          VAR    BASINP    GEOM    SYMINP    ZMAT    AOBASIS   BASIS     P2S    ABASIS      S 
                                         1400     1410     1200     1210     1080     1600     1650     1300     1700     1380   
                                           T        V       H0       H01     AOSYM     SMH    MOLCAS    ERIS     OPER     JKOP   

              2       4        3.27       700     1000      520     2100   
                                         GEOM     BASIS   MCVARS     RHF  

 PROGRAMS   *        TOTAL   CCSD(T)        HF       INT
 CPU TIMES  *        65.15     44.97      9.56     10.51
 REAL TIME  *        74.92 SEC
 DISK USED  *         3.13 GB      
 **********************************************************************************************************************************

 CCSD(T)/aug-cc-pVQZ energy=   -130.342584381624

        CCSD(T)         HF-SCF  
   -130.34258438   -129.84799139
 **********************************************************************************************************************************
 Molpro calculation terminated
 Variable memory released
