
 Primary working directories    : /tmp/r2666/282102.maple
 Secondary working directories  : /tmp/r2666/282102.maple
 Wavefunction directory         : /ddn/home4/r2666/wfu/
 Main file repository           : /tmp/r2666/282102.maple/

 SHA1      : d5ffa45e93fdbca01ffc919aa182cfdae0147319
 NAME      : 2015.1.35
 ARCHNAME  : linux/x86_64
 FC        : /opt/intel/composer_xe_2015.1.133/bin/intel64/ifort
 BLASLIB   : -Wl,-_start-group /opt/intel/mkl/lib/intel64/libmkl_intel_ilp64.a /opt/intel/mkl/lib/intel64/libmkl_intel_thread.a /opt/intel/mkl/lib/intel64/libmkl_core.a -Wl,-_end-group
 id        : olemiss

 Nodes     nprocs
 cn075        1

 Using customized tuning parameters: mindgm=1; mindgv=20; mindgc=4; mindgr=1; noblas=0; minvec=7
 default implementation of scratch files=df  

 ***,hno CCSD(T)/TZ-F12 QFF
 memory, 995, m;
 gthresh,energy=1.d-12,zero=1.d-22,oneint=1.d-22,twoint=1.d-22;
 gthresh,optgrad=1.d-8,optstep=1.d-8;
 nocompress;
 geomtyp=xyz
 bohr
 geometry={
 3
        128       128
 H        0.0000000000        1.6813159480       -1.9421358265
 N        0.0000000000       -0.1711446793       -1.1457266445
 O        0.0000000000        0.0315965213        1.1372728800
 }
 
 basis=avqz
   {hf,maxit=500;accu,20;}
 {ccsd(t),nocheck,maxit=250;orbital,IGNORE_ERROR;}

 Variables initialized (889), CPU time= 0.01 sec
 Commands  initialized (702), CPU time= 0.01 sec, 572 directives.
 Default parameters read. Elapsed time= 0.05 sec

 Checking input...
 Passed
1


                                         ***  PROGRAM SYSTEM MOLPRO  ***
                                       Copyright, TTI GmbH Stuttgart, 2015
                                    Version 2015.1 linked Jul  9 2018 13:16:40


 **********************************************************************************************************************************
 LABEL *   hno CCSD(T)/TZ-F12 QFF                                                        
  64 bit serial version                                                                  DATE: 04-Mar-20          TIME: 13:45:28  
 **********************************************************************************************************************************

 SHA1:             d5ffa45e93fdbca01ffc919aa182cfdae0147319
 **********************************************************************************************************************************

 THRESHOLDS:

 ZERO    =  1.00D-22  ONEINT  =  1.00D-22  TWOINT  =  1.00D-22  PREFAC  =  1.00D-14  LOCALI  =  1.00D-09  EORDER  =  1.00D-04
 ENERGY  =  1.00D-12  ETEST   =  0.00D+00  EDENS   =  0.00D+00  THRDEDEF=  1.00D-06  GRADIENT=  1.00D-02  STEP    =  1.00D-03
 ORBITAL =  1.00D-05  CIVEC   =  1.00D-05  COEFF   =  1.00D-04  PRINTCI =  5.00D-02  PUNCHCI =  9.90D+01  OPTGRAD =  3.00D-04
 OPTENERG=  1.00D-06  OPTSTEP =  3.00D-04  THRGRAD =  1.00D-10  COMPRESS=  1.00D-11  VARMIN  =  1.00D-07  VARMAX  =  1.00D-03
 THRDOUB =  0.00D+00  THRDIV  =  1.00D-05  THRRED  =  1.00D-07  THRPSP  =  1.00D+00  THRDC   =  1.00D-10  THRCS   =  1.00D-10
 THRNRM  =  1.00D-08  THREQ   =  0.00D+00  THRDE   =  1.00D+00  THRREF  =  1.00D-05  SPARFAC =  1.00D+00  THRDLP  =  1.00D-07
 THRDIA  =  1.00D-10  THRDLS  =  1.00D-07  THRGPS  =  0.00D+00  THRKEX  =  0.00D+00  THRDIS  =  2.00D-01  THRVAR  =  1.00D-10
 THRLOC  =  1.00D-06  THRGAP  =  1.00D-06  THRLOCT = -1.00D+00  THRGAPT = -1.00D+00  THRORB  =  1.00D-06  THRMLTP =  0.00D+00
 THRCPQCI=  1.00D-10  KEXTA   =  0.00D+00  THRCOARS=  0.00D+00  SYMTOL  =  1.00D-06  GRADTOL =  1.00D-06  THROVL  =  1.00D-08
 THRORTH =  1.00D-08  GRID    =  1.00D-06  GRIDMAX =  1.00D-03  DTMAX   =  0.00D+00  THROCCDE=  1.00D-01  THROCCDE=  1.00D-01



 THRESHOLDS:

 ZERO    =  1.00D-22  ONEINT  =  1.00D-22  TWOINT  =  1.00D-22  PREFAC  =  1.00D-14  LOCALI  =  1.00D-09  EORDER  =  1.00D-04
 ENERGY  =  1.00D-12  ETEST   =  0.00D+00  EDENS   =  0.00D+00  THRDEDEF=  1.00D-06  GRADIENT=  1.00D-02  STEP    =  1.00D-03
 ORBITAL =  1.00D-05  CIVEC   =  1.00D-05  COEFF   =  1.00D-04  PRINTCI =  5.00D-02  PUNCHCI =  9.90D+01  OPTGRAD =  1.00D-08
 OPTENERG=  1.00D-06  OPTSTEP =  1.00D-08  THRGRAD =  1.00D-10  COMPRESS=  1.00D-11  VARMIN  =  1.00D-07  VARMAX  =  1.00D-03
 THRDOUB =  0.00D+00  THRDIV  =  1.00D-05  THRRED  =  1.00D-07  THRPSP  =  1.00D+00  THRDC   =  1.00D-10  THRCS   =  1.00D-10
 THRNRM  =  1.00D-08  THREQ   =  0.00D+00  THRDE   =  1.00D+00  THRREF  =  1.00D-05  SPARFAC =  1.00D+00  THRDLP  =  1.00D-07
 THRDIA  =  1.00D-10  THRDLS  =  1.00D-07  THRGPS  =  0.00D+00  THRKEX  =  0.00D+00  THRDIS  =  2.00D-01  THRVAR  =  1.00D-10
 THRLOC  =  1.00D-06  THRGAP  =  1.00D-06  THRLOCT = -1.00D+00  THRGAPT = -1.00D+00  THRORB  =  1.00D-06  THRMLTP =  0.00D+00
 THRCPQCI=  1.00D-10  KEXTA   =  0.00D+00  THRCOARS=  0.00D+00  SYMTOL  =  1.00D-06  GRADTOL =  1.00D-06  THROVL  =  1.00D-08
 THRORTH =  1.00D-08  GRID    =  1.00D-06  GRIDMAX =  1.00D-03  DTMAX   =  0.00D+00  THROCCDE=  1.00D-01  THROCCDE=  1.00D-01



 Input parameters for SORTINT:

 COMPRESS =    0.000000
 C_FINAL  =    1.000000
 DEBUG    =   -1.000000
 C_SORT1  =    0.000000
 C_SEWARD =    0.000000
 THRESH   =    0.000000
 IO       =  molpro                                                          
 SPRI     =    0.000000
 SETTING GEOMTYP        =    XYZ
 ZUNIT=BOHR
 

 Variable memory set to  995000000 words,  buffer space   230000 words

 SETTING BASIS          =    AVQZ


 Recomputing integrals since basis changed


 Using spherical harmonics

 Library entry H      S aug-cc-pVQZ          selected for orbital group  1
 Library entry H      P aug-cc-pVQZ          selected for orbital group  1
 Library entry H      D aug-cc-pVQZ          selected for orbital group  1
 Library entry H      F aug-cc-pVQZ          selected for orbital group  1
 Library entry N      S aug-cc-pVQZ          selected for orbital group  2
 Library entry N      P aug-cc-pVQZ          selected for orbital group  2
 Library entry N      D aug-cc-pVQZ          selected for orbital group  2
 Library entry N      F aug-cc-pVQZ          selected for orbital group  2
 Library entry N      G aug-cc-pVQZ          selected for orbital group  2
 Library entry O      S aug-cc-pVQZ          selected for orbital group  3
 Library entry O      P aug-cc-pVQZ          selected for orbital group  3
 Library entry O      D aug-cc-pVQZ          selected for orbital group  3
 Library entry O      F aug-cc-pVQZ          selected for orbital group  3
 Library entry O      G aug-cc-pVQZ          selected for orbital group  3


 PROGRAM * SEWARD (Integral evaluation for generally contracted gaussian basis sets)     Author: Roland Lindh, 1990

 Geometry written to block  1 of record 700


 Point group  Cs  



 ATOMIC COORDINATES

 NR  ATOM    CHARGE       X              Y              Z

   1  H       1.00    0.000000000    1.681315948   -1.942135826
   2  N       7.00    0.000000000   -0.171144679   -1.145726645
   3  O       8.00    0.000000000    0.031596521    1.137272880

 Bond lengths in Bohr (Angstrom)

 1-2  2.016402232  2-3  2.291984036
     ( 1.067034109)     ( 1.212865720)

 Bond angles

  1-2-3  108.18899349

 NUCLEAR CHARGE:                   16
 NUMBER OF PRIMITIVE AOS:         293
 NUMBER OF SYMMETRY AOS:          234
 NUMBER OF CONTRACTIONS:          206   ( 130A'  +  76A"  )
 NUMBER OF CORE ORBITALS:           2   (   2A'  +   0A"  )
 NUMBER OF VALENCE ORBITALS:        9   (   7A'  +   2A"  )


 NUCLEAR REPULSION ENERGY   30.19449632

 Eigenvalues of metric

         1 0.612E-04 0.149E-03 0.321E-03 0.437E-03 0.599E-03 0.704E-03 0.104E-02 0.109E-02
         2 0.841E-03 0.171E-02 0.507E-02 0.898E-02 0.104E-01 0.125E-01 0.128E-01 0.197E-01


 Contracted 2-electron integrals neglected if value below      1.0D-22

      109945098. INTEGRALS WRITTEN OUT IN   26849 BLOCKS ON RECORD 1290 OF FILE 1


 NUMBER OF SORTED TWO-ELECTRON INTEGRALS:  115283741.     BUFFER LENGTH:  32768
 NUMBER OF SEGMENTS:   8  SEGMENT LENGTH:   15998004      RECORD LENGTH: 524288

 Memory used in sort:      16.56 MW

 SORT1 READ   109945098. AND WROTE   110865265. INTEGRALS IN    322 RECORDS. CPU TIME:     1.88 SEC, REAL TIME:     2.69 SEC
 SORT2 READ   110865265. AND WROTE   115283741. INTEGRALS IN      8 RECORDS. CPU TIME:     1.42 SEC, REAL TIME:     1.85 SEC

 FILE SIZES:   FILE 1:  1780.6 MBYTE,  FILE 4:  1350.6 MBYTE,   TOTAL:   3131.2 MBYTE

 OPERATOR DM      FOR CENTER  0  COORDINATES:    0.000000    0.000000    0.000000


 **********************************************************************************************************************************
 DATASETS  * FILE   NREC   LENGTH (MB)   RECORD NAMES
              1      19      944.13       500      610      700      900      950      970     1000      129      960     1100   
                                          VAR    BASINP    GEOM    SYMINP    ZMAT    AOBASIS   BASIS     P2S    ABASIS      S 
                                         1400     1410     1200     1210     1080     1600     1650     1300     1700   
                                           T        V       H0       H01     AOSYM     SMH    MOLCAS    ERIS     OPER   

 PROGRAMS   *        TOTAL       INT
 CPU TIMES  *        11.11     11.02
 REAL TIME  *        13.92 SEC
 DISK USED  *         3.13 GB      
 **********************************************************************************************************************************


 PROGRAM * RHF-SCF (CLOSED SHELL)       Authors: W. Meyer, H.-J. Werner


 NUMBER OF ELECTRONS:       8+    8-
 CONVERGENCE THRESHOLDS:    1.00E-10 (Density)    1.00E-13 (Energy)
 MAX. NUMBER OF ITERATIONS:      500
 INTERPOLATION TYPE:            DIIS
 INTERPOLATION STEPS:              2 (START)      1 (STEP)
 LEVEL SHIFTS:                  0.00 (CLOSED)  0.00 (OPEN) 



 Orbital guess generated from atomic densities. Full valence occupancy:    9   2

 Molecular orbital dump at record        2100.2

 Initial occupancy:   7   1

 ITERATION    DDIFF          GRAD             ENERGY        2-EL.EN.            DIPOLE MOMENTS         DIIS   ORB.
    1      0.000D+00      0.000D+00      -129.79384512    153.636893    0.00000    0.58686   -1.04413    0    start
    2      0.000D+00      0.821D-02      -129.82092204    154.877566    0.00000    0.61229   -0.19909    1    diag
    3      0.666D-02      0.638D-02      -129.84536302    155.007220    0.00000    0.55369   -0.59948    2    diag
    4      0.342D-02      0.977D-03      -129.84618134    154.715832    0.00000    0.56085   -0.53731    3    diag
    5      0.610D-03      0.320D-03      -129.84631280    154.811166    0.00000    0.56639   -0.53989    4    diag
    6      0.257D-03      0.934D-04      -129.84633401    154.794704    0.00000    0.56665   -0.53557    5    diag
    7      0.990D-04      0.466D-04      -129.84634022    154.797497    0.00000    0.56792   -0.53289    6    diag
    8      0.683D-04      0.166D-04      -129.84634095    154.796771    0.00000    0.56796   -0.53182    7    diag
    9      0.270D-04      0.323D-05      -129.84634099    154.796644    0.00000    0.56792   -0.53158    8    diag
   10      0.548D-05      0.727D-06      -129.84634099    154.796624    0.00000    0.56789   -0.53155    9    orth
   11      0.105D-05      0.145D-06      -129.84634099    154.796620    0.00000    0.56788   -0.53155    9    diag
   12      0.192D-06      0.297D-07      -129.84634099    154.796620    0.00000    0.56788   -0.53155    9    diag
   13      0.417D-07      0.782D-08      -129.84634099    154.796620    0.00000    0.56788   -0.53154    9    diag
   14      0.116D-07      0.154D-08      -129.84634099    154.796619    0.00000    0.56788   -0.53154    9    diag
   15      0.212D-08      0.440D-09      -129.84634099    154.796620    0.00000    0.56788   -0.53154    9    diag
   16      0.631D-09      0.130D-09      -129.84634099    154.796619    0.00000    0.56788   -0.53154    9    diag
   17      0.116D-09      0.344D-10      -129.84634099    154.796620    0.00000    0.56788   -0.53154    9    diag
   18      0.323D-10      0.117D-10      -129.84634099    154.796620    0.00000    0.56788   -0.53154    9    diag
   19      0.155D-10      0.280D-11      -129.84634099    154.796620    0.00000    0.56788   -0.53154    9    fixocc
   20      0.788D-11      0.531D-12      -129.84634099    154.796620    0.00000    0.56788   -0.53154    9    orth
   21      0.640D-11      0.222D-12      -129.84634099    154.796620    0.00000    0.56788   -0.53154    9    diag
   22      0.246D-11      0.149D-12      -129.84634099    154.796620    0.00000    0.56788   -0.53154    0    orth

 Final occupancy:   7   1

 !RHF STATE 1.1 Energy               -129.846340988299
 Nuclear energy                        30.19449632
 One-electron energy                 -237.43914706
 Two-electron energy                   77.39830975
 Virial quotient                       -1.00206537
 !RHF STATE 1.1 Dipole moment           0.00000000     0.56787805    -0.53154458
 Dipole moment /Debye                   0.00000000     1.44330749    -1.35096308

 Orbital energies:

         1.1          2.1          3.1          4.1          5.1          6.1          7.1          8.1          9.1
    -20.654445   -15.715508    -1.525440    -0.991981    -0.744054    -0.664714    -0.431140     0.026283     0.079458

         1.2          2.2          3.2
     -0.593984     0.062069     0.110537

 HOMO      7.1    -0.431140 =     -11.7319eV
 LUMO      8.1     0.026283 =       0.7152eV
 LUMO-HOMO         0.457422 =      12.4471eV


 **********************************************************************************************************************************
 DATASETS  * FILE   NREC   LENGTH (MB)   RECORD NAMES
              1      19      944.13       500      610      700      900      950      970     1000      129      960     1100   
                                          VAR    BASINP    GEOM    SYMINP    ZMAT    AOBASIS   BASIS     P2S    ABASIS      S 
                                         1400     1410     1200     1210     1080     1600     1650     1300     1700   
                                           T        V       H0       H01     AOSYM     SMH    MOLCAS    ERIS     OPER   

              2       4        3.27       700     1000      520     2100   
                                         GEOM     BASIS   MCVARS     RHF  

 PROGRAMS   *        TOTAL        HF       INT
 CPU TIMES  *        21.79     10.68     11.02
 REAL TIME  *        27.29 SEC
 DISK USED  *         3.13 GB      
 **********************************************************************************************************************************


 PROGRAM * CCSD (Closed-shell coupled cluster)     Authors: C. Hampel, H.-J. Werner, 1991, M. Deegan, P.J. Knowles, 1992


 Convergence thresholds:  THRVAR = 1.00D-08  THRDEN = 1.00D-12

 CCSD(T)     terms to be evaluated (factor= 1.000)


 Number of core orbitals:           2 (   2   0 )
 Number of closed-shell orbitals:   6 (   5   1 )
 Number of external orbitals:     198 ( 123  75 )

 Molecular orbitals read from record     2100.2  Type=RHF/CANONICAL (state 1.1)

 Number of N-1 electron functions:               6
 Number of N-2 electron functions:              21
 Number of singly external CSFs:               690
 Number of doubly external CSFs:            362646
 Total number of CSFs:                      363337

 Length of J-op  integral file:               0.00 MB
 Length of K-op  integral file:               1.60 MB
 Length of 3-ext integral record:             0.00 MB

 Memory could be reduced to 34.67 Mwords without degradation in triples

 Integral transformation finished. Total CPU:   1.40 sec, npass=  1  Memory used:   9.53 MW

 Reference energy:                   -129.84634099

 MP2 singlet pair energy:              -0.30246205
 MP2 triplet pair energy:              -0.17098109
 MP2 correlation energy:               -0.47344314
 MP2 total energy:                   -130.31978413

 SCS-MP2 correlation energy:           -0.46934269   (PS=  1.200000  PT=  0.333333)
 SCS-MP2 total energy:               -130.31568368

 ITER.      SQ.NORM     CORR.ENERGY   TOTAL ENERGY   ENERGY CHANGE        DEN1      VAR(S)    VAR(P)  DIIS     TIME  TIME/IT
   1      1.12207398    -0.47323783  -130.31957882     0.00020531     0.01697283  0.33D-02  0.33D-02  1  1     2.63     1.33
   2      1.13299731    -0.47314252  -130.31948351     0.00009530    -0.01271368  0.11D-03  0.51D-03  2  2     3.83     1.35
   3      1.13949349    -0.47353825  -130.31987924    -0.00039573    -0.00311023  0.52D-04  0.55D-04  3  3     5.02     1.36
   4      1.14233689    -0.47354312  -130.31988411    -0.00000487    -0.00096331  0.48D-05  0.10D-04  4  4     6.26     1.37
   5      1.14348995    -0.47357457  -130.31991555    -0.00003144    -0.00025119  0.12D-05  0.16D-05  5  5     7.45     1.36
   6      1.14385933    -0.47355900  -130.31989999     0.00001556    -0.00005303  0.13D-06  0.39D-06  6  6     8.63     1.36
   7      1.14393519    -0.47355922  -130.31990021    -0.00000021     0.00000248  0.19D-07  0.89D-07  6  1     9.82     1.36
   8      1.14395905    -0.47355946  -130.31990045    -0.00000024    -0.00000136  0.34D-08  0.19D-07  6  2    11.02     1.37
   9      1.14396803    -0.47355885  -130.31989984     0.00000061    -0.00000034  0.23D-08  0.19D-08  6  3    12.31     1.38
  10      1.14396318    -0.47355965  -130.31990064    -0.00000080     0.00000160  0.33D-09  0.31D-09  6  5    13.55     1.38
  11      1.14396510    -0.47355960  -130.31990059     0.00000005    -0.00000036  0.10D-09  0.28D-10  6  4    14.83     1.39
  12      1.14396468    -0.47355967  -130.31990066    -0.00000007     0.00000002  0.18D-10  0.67D-11  6  6    16.08     1.39
  13      1.14396450    -0.47355967  -130.31990066     0.00000000    -0.00000005  0.34D-11  0.90D-12  6  1    17.23     1.38
  14      1.14396421    -0.47355968  -130.31990067    -0.00000001     0.00000004  0.44D-12  0.18D-12  6  3    18.44     1.38
  15      1.14396413    -0.47355969  -130.31990068    -0.00000000     0.00000001  0.13D-12  0.23D-13  6  2    19.66     1.38
  16      1.14396411    -0.47355969  -130.31990068     0.00000000     0.00000000  0.32D-13  0.10D-13  6  4    20.83     1.38
  17      1.14396412    -0.47355969  -130.31990068    -0.00000000    -0.00000000  0.15D-14  0.11D-14  6  5    22.08     1.38
  18      1.14396412    -0.47355969  -130.31990068     0.00000000    -0.00000000  0.24D-15  0.25D-15  6  6    23.31     1.38
  19      1.14396413    -0.47355969  -130.31990068     0.00000000    -0.00000000  0.30D-16  0.27D-16  6  5    24.57     1.38
  20      1.14396413    -0.47355969  -130.31990068     0.00000000    -0.00000000  0.58D-17  0.39D-17  6  1    25.86     1.39
  21      1.14396413    -0.47355969  -130.31990068    -0.00000000     0.00000000  0.72D-18  0.56D-18  6  3    27.15     1.39
  22      1.14396413    -0.47355969  -130.31990068    -0.00000000     0.00000000  0.90D-19  0.61D-19  6  2    28.39     1.39
  23      1.14396413    -0.47355969  -130.31990068    -0.00000000     0.00000000  0.20D-19  0.11D-19  6  4    29.64     1.39
  24      1.14396413    -0.47355969  -130.31990068    -0.00000000     0.00000000  0.72D-20  0.17D-20  6  6    30.88     1.39
  25      1.14396413    -0.47355969  -130.31990068     0.00000000    -0.00000000  0.22D-20  0.53D-21  6  5    32.08     1.39

 Norm of t1 vector:      0.07823965      S-energy:    -0.00000000      T1 diagnostic:  0.01597060
                                                                       D1 diagnostic:  0.04285157

 Doubles amplitudes (print threshold =  0.500E-01):

         I         J         SYM. A    SYM. B    A         B      T(IJ, AB)

         6         6         2         2         1         1     -0.10121860


 Total CPU time for triples:     15.24 sec


 RESULTS
 =======

  Reference energy                   -129.846340988299
  CCSD singlet pair energy             -0.327535942773
  CCSD triplet pair energy             -0.146023744195
  CCSD correlation energy              -0.473559686968

  Triples (T) contribution             -0.022622280340
  Total correlation energy             -0.496181967308

  CCSD total energy                  -130.319900675267
  CCSD[T] energy                     -130.343634320291
  CCSD-T energy                      -130.342126555806
 !CCSD(T) total energy               -130.342522955608

 Timing summary (sec):

 STEP                 CPU(USER)    SYS     CPU(TOT)    WALL
 Transformation          1.42      0.32      1.74      1.78
 CCSD iterations        30.67      4.18     34.85     34.86
 Triples                15.24      0.45     15.69     15.71

 Program statistics:

 Available memory in ccsd:               994999756
 Min. memory needed in ccsd:               1265322
 Max. memory used in ccsd:                 1555950
 Max. memory used in cckext:               2415326 (25 integral passes)



 **********************************************************************************************************************************
 DATASETS  * FILE   NREC   LENGTH (MB)   RECORD NAMES
              1      20     1044.69       500      610      700      900      950      970     1000      129      960     1100   
                                          VAR    BASINP    GEOM    SYMINP    ZMAT    AOBASIS   BASIS     P2S    ABASIS      S 
                                         1400     1410     1200     1210     1080     1600     1650     1300     1700     1380   
                                           T        V       H0       H01     AOSYM     SMH    MOLCAS    ERIS     OPER     JKOP   

              2       4        3.27       700     1000      520     2100   
                                         GEOM     BASIS   MCVARS     RHF  

 PROGRAMS   *        TOTAL   CCSD(T)        HF       INT
 CPU TIMES  *        69.14     47.35     10.68     11.02
 REAL TIME  *        79.67 SEC
 DISK USED  *         3.13 GB      
 **********************************************************************************************************************************

 CCSD(T)/aug-cc-pVQZ energy=   -130.342522955608

        CCSD(T)         HF-SCF  
   -130.34252296   -129.84634099
 **********************************************************************************************************************************
 Molpro calculation terminated
 Variable memory released
