
 Primary working directories    : /tmp/r2666/282013.maple
 Secondary working directories  : /tmp/r2666/282013.maple
 Wavefunction directory         : /ddn/home4/r2666/wfu/
 Main file repository           : /tmp/r2666/282013.maple/

 SHA1      : d5ffa45e93fdbca01ffc919aa182cfdae0147319
 NAME      : 2015.1.35
 ARCHNAME  : linux/x86_64
 FC        : /opt/intel/composer_xe_2015.1.133/bin/intel64/ifort
 BLASLIB   : -Wl,-_start-group /opt/intel/mkl/lib/intel64/libmkl_intel_ilp64.a /opt/intel/mkl/lib/intel64/libmkl_intel_thread.a /opt/intel/mkl/lib/intel64/libmkl_core.a -Wl,-_end-group
 id        : olemiss

 Nodes     nprocs
 cn075        1

 Using customized tuning parameters: mindgm=1; mindgv=20; mindgc=4; mindgr=1; noblas=0; minvec=7
 default implementation of scratch files=df  

 ***,hno CCSD(T)/TZ-F12 QFF
 memory, 995, m;
 gthresh,energy=1.d-12,zero=1.d-22,oneint=1.d-22,twoint=1.d-22;
 gthresh,optgrad=1.d-8,optstep=1.d-8;
 nocompress;
 geomtyp=xyz
 bohr
 geometry={
 3
         39        39
 H        0.0000000000        1.6631024700       -1.9277628784
 N        0.0000000000       -0.1576360401       -1.1532954767
 O        0.0000000000        0.0363013601        1.1304687642
 }
 
 basis=avqz
   {hf,maxit=500;accu,20;}
 {ccsd(t),nocheck,maxit=250;orbital,IGNORE_ERROR;}

 Variables initialized (889), CPU time= 0.01 sec
 Commands  initialized (702), CPU time= 0.01 sec, 572 directives.
 Default parameters read. Elapsed time= 0.04 sec

 Checking input...
 Passed
1


                                         ***  PROGRAM SYSTEM MOLPRO  ***
                                       Copyright, TTI GmbH Stuttgart, 2015
                                    Version 2015.1 linked Jul  9 2018 13:16:40


 **********************************************************************************************************************************
 LABEL *   hno CCSD(T)/TZ-F12 QFF                                                        
  64 bit serial version                                                                  DATE: 04-Mar-20          TIME: 13:41:02  
 **********************************************************************************************************************************

 SHA1:             d5ffa45e93fdbca01ffc919aa182cfdae0147319
 **********************************************************************************************************************************

 THRESHOLDS:

 ZERO    =  1.00D-22  ONEINT  =  1.00D-22  TWOINT  =  1.00D-22  PREFAC  =  1.00D-14  LOCALI  =  1.00D-09  EORDER  =  1.00D-04
 ENERGY  =  1.00D-12  ETEST   =  0.00D+00  EDENS   =  0.00D+00  THRDEDEF=  1.00D-06  GRADIENT=  1.00D-02  STEP    =  1.00D-03
 ORBITAL =  1.00D-05  CIVEC   =  1.00D-05  COEFF   =  1.00D-04  PRINTCI =  5.00D-02  PUNCHCI =  9.90D+01  OPTGRAD =  3.00D-04
 OPTENERG=  1.00D-06  OPTSTEP =  3.00D-04  THRGRAD =  1.00D-10  COMPRESS=  1.00D-11  VARMIN  =  1.00D-07  VARMAX  =  1.00D-03
 THRDOUB =  0.00D+00  THRDIV  =  1.00D-05  THRRED  =  1.00D-07  THRPSP  =  1.00D+00  THRDC   =  1.00D-10  THRCS   =  1.00D-10
 THRNRM  =  1.00D-08  THREQ   =  0.00D+00  THRDE   =  1.00D+00  THRREF  =  1.00D-05  SPARFAC =  1.00D+00  THRDLP  =  1.00D-07
 THRDIA  =  1.00D-10  THRDLS  =  1.00D-07  THRGPS  =  0.00D+00  THRKEX  =  0.00D+00  THRDIS  =  2.00D-01  THRVAR  =  1.00D-10
 THRLOC  =  1.00D-06  THRGAP  =  1.00D-06  THRLOCT = -1.00D+00  THRGAPT = -1.00D+00  THRORB  =  1.00D-06  THRMLTP =  0.00D+00
 THRCPQCI=  1.00D-10  KEXTA   =  0.00D+00  THRCOARS=  0.00D+00  SYMTOL  =  1.00D-06  GRADTOL =  1.00D-06  THROVL  =  1.00D-08
 THRORTH =  1.00D-08  GRID    =  1.00D-06  GRIDMAX =  1.00D-03  DTMAX   =  0.00D+00  THROCCDE=  1.00D-01  THROCCDE=  1.00D-01



 THRESHOLDS:

 ZERO    =  1.00D-22  ONEINT  =  1.00D-22  TWOINT  =  1.00D-22  PREFAC  =  1.00D-14  LOCALI  =  1.00D-09  EORDER  =  1.00D-04
 ENERGY  =  1.00D-12  ETEST   =  0.00D+00  EDENS   =  0.00D+00  THRDEDEF=  1.00D-06  GRADIENT=  1.00D-02  STEP    =  1.00D-03
 ORBITAL =  1.00D-05  CIVEC   =  1.00D-05  COEFF   =  1.00D-04  PRINTCI =  5.00D-02  PUNCHCI =  9.90D+01  OPTGRAD =  1.00D-08
 OPTENERG=  1.00D-06  OPTSTEP =  1.00D-08  THRGRAD =  1.00D-10  COMPRESS=  1.00D-11  VARMIN  =  1.00D-07  VARMAX  =  1.00D-03
 THRDOUB =  0.00D+00  THRDIV  =  1.00D-05  THRRED  =  1.00D-07  THRPSP  =  1.00D+00  THRDC   =  1.00D-10  THRCS   =  1.00D-10
 THRNRM  =  1.00D-08  THREQ   =  0.00D+00  THRDE   =  1.00D+00  THRREF  =  1.00D-05  SPARFAC =  1.00D+00  THRDLP  =  1.00D-07
 THRDIA  =  1.00D-10  THRDLS  =  1.00D-07  THRGPS  =  0.00D+00  THRKEX  =  0.00D+00  THRDIS  =  2.00D-01  THRVAR  =  1.00D-10
 THRLOC  =  1.00D-06  THRGAP  =  1.00D-06  THRLOCT = -1.00D+00  THRGAPT = -1.00D+00  THRORB  =  1.00D-06  THRMLTP =  0.00D+00
 THRCPQCI=  1.00D-10  KEXTA   =  0.00D+00  THRCOARS=  0.00D+00  SYMTOL  =  1.00D-06  GRADTOL =  1.00D-06  THROVL  =  1.00D-08
 THRORTH =  1.00D-08  GRID    =  1.00D-06  GRIDMAX =  1.00D-03  DTMAX   =  0.00D+00  THROCCDE=  1.00D-01  THROCCDE=  1.00D-01



 Input parameters for SORTINT:

 COMPRESS =    0.000000
 C_FINAL  =    1.000000
 DEBUG    =   -1.000000
 C_SORT1  =    0.000000
 C_SEWARD =    0.000000
 THRESH   =    0.000000
 IO       =  molpro                                                          
 SPRI     =    0.000000
 SETTING GEOMTYP        =    XYZ
 ZUNIT=BOHR
 

 Variable memory set to  995000000 words,  buffer space   230000 words

 SETTING BASIS          =    AVQZ


 Recomputing integrals since basis changed


 Using spherical harmonics

 Library entry H      S aug-cc-pVQZ          selected for orbital group  1
 Library entry H      P aug-cc-pVQZ          selected for orbital group  1
 Library entry H      D aug-cc-pVQZ          selected for orbital group  1
 Library entry H      F aug-cc-pVQZ          selected for orbital group  1
 Library entry N      S aug-cc-pVQZ          selected for orbital group  2
 Library entry N      P aug-cc-pVQZ          selected for orbital group  2
 Library entry N      D aug-cc-pVQZ          selected for orbital group  2
 Library entry N      F aug-cc-pVQZ          selected for orbital group  2
 Library entry N      G aug-cc-pVQZ          selected for orbital group  2
 Library entry O      S aug-cc-pVQZ          selected for orbital group  3
 Library entry O      P aug-cc-pVQZ          selected for orbital group  3
 Library entry O      D aug-cc-pVQZ          selected for orbital group  3
 Library entry O      F aug-cc-pVQZ          selected for orbital group  3
 Library entry O      G aug-cc-pVQZ          selected for orbital group  3


 PROGRAM * SEWARD (Integral evaluation for generally contracted gaussian basis sets)     Author: Roland Lindh, 1990

 Geometry written to block  1 of record 700


 Point group  Cs  



 ATOMIC COORDINATES

 NR  ATOM    CHARGE       X              Y              Z

   1  H       1.00    0.000000000    1.663102470   -1.927762878
   2  N       7.00    0.000000000   -0.157636040   -1.153295477
   3  O       8.00    0.000000000    0.036301360    1.130468764

 Bond lengths in Bohr (Angstrom)

 1-2  1.978607712  2-3  2.291984036
     ( 1.047034111)     ( 1.212865720)

 Bond angles

  1-2-3  108.18899349

 NUCLEAR CHARGE:                   16
 NUMBER OF PRIMITIVE AOS:         293
 NUMBER OF SYMMETRY AOS:          234
 NUMBER OF CONTRACTIONS:          206   ( 130A'  +  76A"  )
 NUMBER OF CORE ORBITALS:           2   (   2A'  +   0A"  )
 NUMBER OF VALENCE ORBITALS:        9   (   7A'  +   2A"  )


 NUCLEAR REPULSION ENERGY   30.28029324

 Eigenvalues of metric

         1 0.593E-04 0.145E-03 0.319E-03 0.436E-03 0.594E-03 0.677E-03 0.101E-02 0.109E-02
         2 0.834E-03 0.160E-02 0.497E-02 0.895E-02 0.101E-01 0.124E-01 0.126E-01 0.187E-01


 Contracted 2-electron integrals neglected if value below      1.0D-22

      109945087. INTEGRALS WRITTEN OUT IN   26849 BLOCKS ON RECORD 1290 OF FILE 1


 NUMBER OF SORTED TWO-ELECTRON INTEGRALS:  115283741.     BUFFER LENGTH:  32768
 NUMBER OF SEGMENTS:   8  SEGMENT LENGTH:   15998004      RECORD LENGTH: 524288

 Memory used in sort:      16.56 MW

 SORT1 READ   109945087. AND WROTE   110865254. INTEGRALS IN    322 RECORDS. CPU TIME:     1.85 SEC, REAL TIME:     2.68 SEC
 SORT2 READ   110865254. AND WROTE   115283741. INTEGRALS IN      8 RECORDS. CPU TIME:     1.34 SEC, REAL TIME:     1.86 SEC

 FILE SIZES:   FILE 1:  1780.6 MBYTE,  FILE 4:  1350.6 MBYTE,   TOTAL:   3131.2 MBYTE

 OPERATOR DM      FOR CENTER  0  COORDINATES:    0.000000    0.000000    0.000000


 **********************************************************************************************************************************
 DATASETS  * FILE   NREC   LENGTH (MB)   RECORD NAMES
              1      19      944.14       500      610      700      900      950      970     1000      129      960     1100   
                                          VAR    BASINP    GEOM    SYMINP    ZMAT    AOBASIS   BASIS     P2S    ABASIS      S 
                                         1400     1410     1200     1210     1080     1600     1650     1300     1700   
                                           T        V       H0       H01     AOSYM     SMH    MOLCAS    ERIS     OPER   

 PROGRAMS   *        TOTAL       INT
 CPU TIMES  *        10.99     10.89
 REAL TIME  *        14.20 SEC
 DISK USED  *         3.13 GB      
 **********************************************************************************************************************************


 PROGRAM * RHF-SCF (CLOSED SHELL)       Authors: W. Meyer, H.-J. Werner


 NUMBER OF ELECTRONS:       8+    8-
 CONVERGENCE THRESHOLDS:    1.00E-10 (Density)    1.00E-13 (Energy)
 MAX. NUMBER OF ITERATIONS:      500
 INTERPOLATION TYPE:            DIIS
 INTERPOLATION STEPS:              2 (START)      1 (STEP)
 LEVEL SHIFTS:                  0.00 (CLOSED)  0.00 (OPEN) 



 Orbital guess generated from atomic densities. Full valence occupancy:    9   2

 Molecular orbital dump at record        2100.2

 Initial occupancy:   7   1

 ITERATION    DDIFF          GRAD             ENERGY        2-EL.EN.            DIPOLE MOMENTS         DIIS   ORB.
    1      0.000D+00      0.000D+00      -129.79563703    153.805660    0.00000    0.59970   -1.04155    0    start
    2      0.000D+00      0.814D-02      -129.82276338    155.022799    0.00000    0.61373   -0.20747    1    diag
    3      0.659D-02      0.626D-02      -129.84625910    155.158276    0.00000    0.56043   -0.60165    2    diag
    4      0.337D-02      0.978D-03      -129.84707374    154.869718    0.00000    0.56774   -0.53944    3    diag
    5      0.610D-03      0.318D-03      -129.84720133    154.963398    0.00000    0.57300   -0.54191    4    diag
    6      0.254D-03      0.916D-04      -129.84722164    154.947226    0.00000    0.57326   -0.53765    5    diag
    7      0.968D-04      0.459D-04      -129.84722764    154.949916    0.00000    0.57447   -0.53496    6    diag
    8      0.671D-04      0.163D-04      -129.84722834    154.949206    0.00000    0.57450   -0.53390    7    diag
    9      0.265D-04      0.314D-05      -129.84722837    154.949087    0.00000    0.57447   -0.53367    8    diag
   10      0.533D-05      0.706D-06      -129.84722838    154.949069    0.00000    0.57443   -0.53364    9    orth
   11      0.102D-05      0.140D-06      -129.84722838    154.949066    0.00000    0.57443   -0.53364    9    diag
   12      0.184D-06      0.287D-07      -129.84722838    154.949066    0.00000    0.57442   -0.53364    9    diag
   13      0.394D-07      0.749D-08      -129.84722838    154.949066    0.00000    0.57442   -0.53364    9    diag
   14      0.109D-07      0.146D-08      -129.84722838    154.949066    0.00000    0.57442   -0.53364    9    diag
   15      0.197D-08      0.415D-09      -129.84722838    154.949066    0.00000    0.57442   -0.53364    9    diag
   16      0.591D-09      0.123D-09      -129.84722838    154.949066    0.00000    0.57442   -0.53364    9    diag
   17      0.108D-09      0.310D-10      -129.84722838    154.949066    0.00000    0.57442   -0.53364    9    diag
   18      0.288D-10      0.102D-10      -129.84722838    154.949066    0.00000    0.57442   -0.53364    9    diag
   19      0.139D-10      0.236D-11      -129.84722838    154.949066    0.00000    0.57442   -0.53364    9    fixocc
   20      0.461D-11      0.444D-12      -129.84722838    154.949066    0.00000    0.57442   -0.53364    9    orth
   21      0.554D-11      0.190D-12      -129.84722838    154.949066    0.00000    0.57442   -0.53364    9    diag
   22      0.192D-11      0.149D-12      -129.84722838    154.949066    0.00000    0.57442   -0.53364    9    diag
   23      0.153D-11      0.147D-12      -129.84722838    154.949066    0.00000    0.57442   -0.53364    9    diag
   24      0.116D-11      0.110D-12      -129.84722838    154.949066    0.00000    0.57442   -0.53364    0    orth

 Final occupancy:   7   1

 !RHF STATE 1.1 Energy               -129.847228376157
 Nuclear energy                        30.28029324
 One-electron energy                 -237.60205462
 Two-electron energy                   77.47453301
 Virial quotient                       -1.00183168
 !RHF STATE 1.1 Dipole moment           0.00000000     0.57442379    -0.53363873
 Dipole moment /Debye                   0.00000000     1.45994402    -1.35628552

 Orbital energies:

         1.1          2.1          3.1          4.1          5.1          6.1          7.1          8.1          9.1
    -20.654058   -15.712817    -1.525668    -0.996941    -0.746277    -0.664710    -0.432333     0.026300     0.079465

         1.2          2.2          3.2
     -0.593690     0.062036     0.110127

 HOMO      7.1    -0.432333 =     -11.7644eV
 LUMO      8.1     0.026300 =       0.7157eV
 LUMO-HOMO         0.458633 =      12.4800eV


 **********************************************************************************************************************************
 DATASETS  * FILE   NREC   LENGTH (MB)   RECORD NAMES
              1      19      944.14       500      610      700      900      950      970     1000      129      960     1100   
                                          VAR    BASINP    GEOM    SYMINP    ZMAT    AOBASIS   BASIS     P2S    ABASIS      S 
                                         1400     1410     1200     1210     1080     1600     1650     1300     1700   
                                           T        V       H0       H01     AOSYM     SMH    MOLCAS    ERIS     OPER   

              2       4        3.27       700     1000      520     2100   
                                         GEOM     BASIS   MCVARS     RHF  

 PROGRAMS   *        TOTAL        HF       INT
 CPU TIMES  *        22.87     11.88     10.89
 REAL TIME  *        29.78 SEC
 DISK USED  *         3.13 GB      
 **********************************************************************************************************************************


 PROGRAM * CCSD (Closed-shell coupled cluster)     Authors: C. Hampel, H.-J. Werner, 1991, M. Deegan, P.J. Knowles, 1992


 Convergence thresholds:  THRVAR = 1.00D-08  THRDEN = 1.00D-12

 CCSD(T)     terms to be evaluated (factor= 1.000)


 Number of core orbitals:           2 (   2   0 )
 Number of closed-shell orbitals:   6 (   5   1 )
 Number of external orbitals:     198 ( 123  75 )

 Molecular orbitals read from record     2100.2  Type=RHF/CANONICAL (state 1.1)

 Number of N-1 electron functions:               6
 Number of N-2 electron functions:              21
 Number of singly external CSFs:               690
 Number of doubly external CSFs:            362646
 Total number of CSFs:                      363337

 Length of J-op  integral file:               0.00 MB
 Length of K-op  integral file:               1.60 MB
 Length of 3-ext integral record:             0.00 MB

 Memory could be reduced to 34.67 Mwords without degradation in triples

 Integral transformation finished. Total CPU:   1.51 sec, npass=  1  Memory used:   9.53 MW

 Reference energy:                   -129.84722838

 MP2 singlet pair energy:              -0.30200818
 MP2 triplet pair energy:              -0.17070423
 MP2 correlation energy:               -0.47271242
 MP2 total energy:                   -130.31994079

 SCS-MP2 correlation energy:           -0.46862579   (PS=  1.200000  PT=  0.333333)
 SCS-MP2 total energy:               -130.31585416

 ITER.      SQ.NORM     CORR.ENERGY   TOTAL ENERGY   ENERGY CHANGE        DEN1      VAR(S)    VAR(P)  DIIS     TIME  TIME/IT
   1      1.12139322    -0.47256108  -130.31978945     0.00015134     0.01673798  0.32D-02  0.32D-02  1  1     2.77     1.44
   2      1.13218911    -0.47248065  -130.31970903     0.00008042    -0.01260186  0.11D-03  0.50D-03  2  2     4.04     1.46
   3      1.13857077    -0.47286325  -130.32009163    -0.00038260    -0.00306834  0.50D-04  0.54D-04  3  3     5.23     1.46
   4      1.14137656    -0.47287100  -130.32009937    -0.00000775    -0.00094880  0.44D-05  0.98D-05  4  4     6.52     1.47
   5      1.14249750    -0.47290114  -130.32012952    -0.00003014    -0.00024411  0.11D-05  0.17D-05  5  5     7.76     1.47
   6      1.14285819    -0.47288579  -130.32011416     0.00001536    -0.00005203  0.11D-06  0.40D-06  6  6     8.95     1.46
   7      1.14293061    -0.47288639  -130.32011477    -0.00000061     0.00000284  0.16D-07  0.91D-07  6  1    10.18     1.46
   8      1.14295323    -0.47288669  -130.32011507    -0.00000030    -0.00000112  0.34D-08  0.18D-07  6  2    11.39     1.46
   9      1.14295812    -0.47288630  -130.32011468     0.00000039     0.00000098  0.26D-08  0.21D-08  6  4    12.60     1.45
  10      1.14296061    -0.47288668  -130.32011506    -0.00000038    -0.00000076  0.49D-09  0.26D-09  6  3    13.79     1.44
  11      1.14296036    -0.47288674  -130.32011512    -0.00000006    -0.00000013  0.16D-09  0.36D-10  6  5    14.99     1.44
  12      1.14295939    -0.47288689  -130.32011526    -0.00000014     0.00000036  0.19D-10  0.11D-10  6  6    16.16     1.43
  13      1.14295853    -0.47288693  -130.32011531    -0.00000004     0.00000022  0.59D-11  0.24D-11  6  1    17.35     1.43
  14      1.14295785    -0.47288696  -130.32011534    -0.00000003     0.00000016  0.37D-12  0.51D-12  6  4    18.53     1.42
  15      1.14295763    -0.47288697  -130.32011535    -0.00000001     0.00000003  0.81D-13  0.40D-13  6  2    19.76     1.42
  16      1.14295758    -0.47288697  -130.32011535    -0.00000000     0.00000001  0.22D-13  0.73D-14  6  3    20.92     1.41
  17      1.14295755    -0.47288697  -130.32011535    -0.00000000     0.00000001  0.40D-14  0.10D-14  6  5    22.10     1.41
  18      1.14295755    -0.47288697  -130.32011535    -0.00000000     0.00000000  0.85D-15  0.25D-15  6  6    23.26     1.41
  19      1.14295755    -0.47288697  -130.32011535    -0.00000000     0.00000000  0.11D-15  0.51D-16  6  1    24.50     1.41
  20      1.14295755    -0.47288697  -130.32011535     0.00000000    -0.00000000  0.99D-17  0.75D-17  6  4    25.70     1.41
  21      1.14295755    -0.47288697  -130.32011535     0.00000000    -0.00000000  0.48D-18  0.64D-18  6  3    26.92     1.41
  22      1.14295755    -0.47288697  -130.32011535     0.00000000    -0.00000000  0.12D-18  0.13D-18  6  2    28.08     1.41
  23      1.14295755    -0.47288697  -130.32011535     0.00000000     0.00000000  0.35D-19  0.49D-19  6  5    29.28     1.40
  24      1.14295755    -0.47288697  -130.32011535    -0.00000000     0.00000000  0.26D-20  0.10D-19  6  1    30.50     1.40

 Norm of t1 vector:      0.07739595      S-energy:    -0.00000000      T1 diagnostic:  0.01579838
                                                                       D1 diagnostic:  0.04280841

 Doubles amplitudes (print threshold =  0.500E-01):

         I         J         SYM. A    SYM. B    A         B      T(IJ, AB)

         6         6         2         2         1         1     -0.10127688


 Total CPU time for triples:     16.65 sec


 RESULTS
 =======

  Reference energy                   -129.847228376157
  CCSD singlet pair energy             -0.326963590189
  CCSD triplet pair energy             -0.145923382331
  CCSD correlation energy              -0.472886972521

  Triples (T) contribution             -0.022485303014
  Total correlation energy             -0.495372275535

  CCSD total energy                  -130.320115348679
  CCSD[T] energy                     -130.343691049849
  CCSD-T energy                      -130.342211890049
 !CCSD(T) total energy               -130.342600651693

 Timing summary (sec):

 STEP                 CPU(USER)    SYS     CPU(TOT)    WALL
 Transformation          1.52      0.35      1.87      1.93
 CCSD iterations        28.98      4.68     33.66     33.71
 Triples                16.65      0.50     17.15     17.15

 Program statistics:

 Available memory in ccsd:               994999756
 Min. memory needed in ccsd:               1265322
 Max. memory used in ccsd:                 1555950
 Max. memory used in cckext:               2415326 (24 integral passes)



 **********************************************************************************************************************************
 DATASETS  * FILE   NREC   LENGTH (MB)   RECORD NAMES
              1      20     1044.69       500      610      700      900      950      970     1000      129      960     1100   
                                          VAR    BASINP    GEOM    SYMINP    ZMAT    AOBASIS   BASIS     P2S    ABASIS      S 
                                         1400     1410     1200     1210     1080     1600     1650     1300     1700     1380   
                                           T        V       H0       H01     AOSYM     SMH    MOLCAS    ERIS     OPER     JKOP   

              2       4        3.27       700     1000      520     2100   
                                         GEOM     BASIS   MCVARS     RHF  

 PROGRAMS   *        TOTAL   CCSD(T)        HF       INT
 CPU TIMES  *        70.04     47.17     11.88     10.89
 REAL TIME  *        82.61 SEC
 DISK USED  *         3.13 GB      
 **********************************************************************************************************************************

 CCSD(T)/aug-cc-pVQZ energy=   -130.342600651693

        CCSD(T)         HF-SCF  
   -130.34260065   -129.84722838
 **********************************************************************************************************************************
 Molpro calculation terminated
 Variable memory released
