
 Primary working directories    : /tmp/r2666/281987.maple
 Secondary working directories  : /tmp/r2666/281987.maple
 Wavefunction directory         : /ddn/home4/r2666/wfu/
 Main file repository           : /tmp/r2666/281987.maple/

 SHA1      : d5ffa45e93fdbca01ffc919aa182cfdae0147319
 NAME      : 2015.1.35
 ARCHNAME  : linux/x86_64
 FC        : /opt/intel/composer_xe_2015.1.133/bin/intel64/ifort
 BLASLIB   : -Wl,-_start-group /opt/intel/mkl/lib/intel64/libmkl_intel_ilp64.a /opt/intel/mkl/lib/intel64/libmkl_intel_thread.a /opt/intel/mkl/lib/intel64/libmkl_core.a -Wl,-_end-group
 id        : olemiss

 Nodes     nprocs
 cn084        1

 Using customized tuning parameters: mindgm=1; mindgv=20; mindgc=4; mindgr=1; noblas=0; minvec=7
 default implementation of scratch files=df  

 ***,hno CCSD(T)/TZ-F12 QFF
 memory, 995, m;
 gthresh,energy=1.d-12,zero=1.d-22,oneint=1.d-22,twoint=1.d-22;
 gthresh,optgrad=1.d-8,optstep=1.d-8;
 nocompress;
 geomtyp=xyz
 bohr
 geometry={
 3
         13        13
 H        0.0000000000        1.6575223299       -1.9184656207
 N        0.0000000000       -0.1567832567       -1.1530358530
 O        0.0000000000        0.0410287168        1.1209118827
 }
 
 basis=avqz
   {hf,maxit=500;accu,20;}
 {ccsd(t),nocheck,maxit=250;orbital,IGNORE_ERROR;}

 Variables initialized (889), CPU time= 0.01 sec
 Commands  initialized (702), CPU time= 0.00 sec, 572 directives.
 Default parameters read. Elapsed time= 0.04 sec

 Checking input...
 Passed
1


                                         ***  PROGRAM SYSTEM MOLPRO  ***
                                       Copyright, TTI GmbH Stuttgart, 2015
                                    Version 2015.1 linked Jul  9 2018 13:16:40


 **********************************************************************************************************************************
 LABEL *   hno CCSD(T)/TZ-F12 QFF                                                        
  64 bit serial version                                                                  DATE: 04-Mar-20          TIME: 13:39:05  
 **********************************************************************************************************************************

 SHA1:             d5ffa45e93fdbca01ffc919aa182cfdae0147319
 **********************************************************************************************************************************

 THRESHOLDS:

 ZERO    =  1.00D-22  ONEINT  =  1.00D-22  TWOINT  =  1.00D-22  PREFAC  =  1.00D-14  LOCALI  =  1.00D-09  EORDER  =  1.00D-04
 ENERGY  =  1.00D-12  ETEST   =  0.00D+00  EDENS   =  0.00D+00  THRDEDEF=  1.00D-06  GRADIENT=  1.00D-02  STEP    =  1.00D-03
 ORBITAL =  1.00D-05  CIVEC   =  1.00D-05  COEFF   =  1.00D-04  PRINTCI =  5.00D-02  PUNCHCI =  9.90D+01  OPTGRAD =  3.00D-04
 OPTENERG=  1.00D-06  OPTSTEP =  3.00D-04  THRGRAD =  1.00D-10  COMPRESS=  1.00D-11  VARMIN  =  1.00D-07  VARMAX  =  1.00D-03
 THRDOUB =  0.00D+00  THRDIV  =  1.00D-05  THRRED  =  1.00D-07  THRPSP  =  1.00D+00  THRDC   =  1.00D-10  THRCS   =  1.00D-10
 THRNRM  =  1.00D-08  THREQ   =  0.00D+00  THRDE   =  1.00D+00  THRREF  =  1.00D-05  SPARFAC =  1.00D+00  THRDLP  =  1.00D-07
 THRDIA  =  1.00D-10  THRDLS  =  1.00D-07  THRGPS  =  0.00D+00  THRKEX  =  0.00D+00  THRDIS  =  2.00D-01  THRVAR  =  1.00D-10
 THRLOC  =  1.00D-06  THRGAP  =  1.00D-06  THRLOCT = -1.00D+00  THRGAPT = -1.00D+00  THRORB  =  1.00D-06  THRMLTP =  0.00D+00
 THRCPQCI=  1.00D-10  KEXTA   =  0.00D+00  THRCOARS=  0.00D+00  SYMTOL  =  1.00D-06  GRADTOL =  1.00D-06  THROVL  =  1.00D-08
 THRORTH =  1.00D-08  GRID    =  1.00D-06  GRIDMAX =  1.00D-03  DTMAX   =  0.00D+00  THROCCDE=  1.00D-01  THROCCDE=  1.00D-01



 THRESHOLDS:

 ZERO    =  1.00D-22  ONEINT  =  1.00D-22  TWOINT  =  1.00D-22  PREFAC  =  1.00D-14  LOCALI  =  1.00D-09  EORDER  =  1.00D-04
 ENERGY  =  1.00D-12  ETEST   =  0.00D+00  EDENS   =  0.00D+00  THRDEDEF=  1.00D-06  GRADIENT=  1.00D-02  STEP    =  1.00D-03
 ORBITAL =  1.00D-05  CIVEC   =  1.00D-05  COEFF   =  1.00D-04  PRINTCI =  5.00D-02  PUNCHCI =  9.90D+01  OPTGRAD =  1.00D-08
 OPTENERG=  1.00D-06  OPTSTEP =  1.00D-08  THRGRAD =  1.00D-10  COMPRESS=  1.00D-11  VARMIN  =  1.00D-07  VARMAX  =  1.00D-03
 THRDOUB =  0.00D+00  THRDIV  =  1.00D-05  THRRED  =  1.00D-07  THRPSP  =  1.00D+00  THRDC   =  1.00D-10  THRCS   =  1.00D-10
 THRNRM  =  1.00D-08  THREQ   =  0.00D+00  THRDE   =  1.00D+00  THRREF  =  1.00D-05  SPARFAC =  1.00D+00  THRDLP  =  1.00D-07
 THRDIA  =  1.00D-10  THRDLS  =  1.00D-07  THRGPS  =  0.00D+00  THRKEX  =  0.00D+00  THRDIS  =  2.00D-01  THRVAR  =  1.00D-10
 THRLOC  =  1.00D-06  THRGAP  =  1.00D-06  THRLOCT = -1.00D+00  THRGAPT = -1.00D+00  THRORB  =  1.00D-06  THRMLTP =  0.00D+00
 THRCPQCI=  1.00D-10  KEXTA   =  0.00D+00  THRCOARS=  0.00D+00  SYMTOL  =  1.00D-06  GRADTOL =  1.00D-06  THROVL  =  1.00D-08
 THRORTH =  1.00D-08  GRID    =  1.00D-06  GRIDMAX =  1.00D-03  DTMAX   =  0.00D+00  THROCCDE=  1.00D-01  THROCCDE=  1.00D-01



 Input parameters for SORTINT:

 COMPRESS =    0.000000
 C_FINAL  =    1.000000
 DEBUG    =   -1.000000
 C_SORT1  =    0.000000
 C_SEWARD =    0.000000
 THRESH   =    0.000000
 IO       =  molpro                                                          
 SPRI     =    0.000000
 SETTING GEOMTYP        =    XYZ
 ZUNIT=BOHR
 

 Variable memory set to  995000000 words,  buffer space   230000 words

 SETTING BASIS          =    AVQZ


 Recomputing integrals since basis changed


 Using spherical harmonics

 Library entry H      S aug-cc-pVQZ          selected for orbital group  1
 Library entry H      P aug-cc-pVQZ          selected for orbital group  1
 Library entry H      D aug-cc-pVQZ          selected for orbital group  1
 Library entry H      F aug-cc-pVQZ          selected for orbital group  1
 Library entry N      S aug-cc-pVQZ          selected for orbital group  2
 Library entry N      P aug-cc-pVQZ          selected for orbital group  2
 Library entry N      D aug-cc-pVQZ          selected for orbital group  2
 Library entry N      F aug-cc-pVQZ          selected for orbital group  2
 Library entry N      G aug-cc-pVQZ          selected for orbital group  2
 Library entry O      S aug-cc-pVQZ          selected for orbital group  3
 Library entry O      P aug-cc-pVQZ          selected for orbital group  3
 Library entry O      D aug-cc-pVQZ          selected for orbital group  3
 Library entry O      F aug-cc-pVQZ          selected for orbital group  3
 Library entry O      G aug-cc-pVQZ          selected for orbital group  3


 PROGRAM * SEWARD (Integral evaluation for generally contracted gaussian basis sets)     Author: Roland Lindh, 1990

 Geometry written to block  1 of record 700


 Point group  Cs  



 ATOMIC COORDINATES

 NR  ATOM    CHARGE       X              Y              Z

   1  H       1.00    0.000000000    1.657522330   -1.918465621
   2  N       7.00    0.000000000   -0.156783257   -1.153035853
   3  O       8.00    0.000000000    0.041028717    1.120911883

 Bond lengths in Bohr (Angstrom)

 1-2  1.969159082  2-3  2.282535406
     ( 1.042034111)     ( 1.207865720)

 Bond angles

  1-2-3  107.90251459

 NUCLEAR CHARGE:                   16
 NUMBER OF PRIMITIVE AOS:         293
 NUMBER OF SYMMETRY AOS:          234
 NUMBER OF CONTRACTIONS:          206   ( 130A'  +  76A"  )
 NUMBER OF CORE ORBITALS:           2   (   2A'  +   0A"  )
 NUMBER OF VALENCE ORBITALS:        9   (   7A'  +   2A"  )


 NUCLEAR REPULSION ENERGY   30.41282452

 Eigenvalues of metric

         1 0.584E-04 0.144E-03 0.316E-03 0.435E-03 0.586E-03 0.669E-03 0.991E-03 0.108E-02
         2 0.819E-03 0.158E-02 0.489E-02 0.892E-02 0.998E-02 0.122E-01 0.124E-01 0.183E-01


 Contracted 2-electron integrals neglected if value below      1.0D-22

      109945087. INTEGRALS WRITTEN OUT IN   26849 BLOCKS ON RECORD 1290 OF FILE 1


 NUMBER OF SORTED TWO-ELECTRON INTEGRALS:  115283741.     BUFFER LENGTH:  32768
 NUMBER OF SEGMENTS:   8  SEGMENT LENGTH:   15998004      RECORD LENGTH: 524288

 Memory used in sort:      16.56 MW

 SORT1 READ   109945087. AND WROTE   110865254. INTEGRALS IN    322 RECORDS. CPU TIME:     1.85 SEC, REAL TIME:     2.56 SEC
 SORT2 READ   110865254. AND WROTE   115283741. INTEGRALS IN      8 RECORDS. CPU TIME:     1.28 SEC, REAL TIME:     1.83 SEC

 FILE SIZES:   FILE 1:  1780.6 MBYTE,  FILE 4:  1350.6 MBYTE,   TOTAL:   3131.2 MBYTE

 OPERATOR DM      FOR CENTER  0  COORDINATES:    0.000000    0.000000    0.000000


 **********************************************************************************************************************************
 DATASETS  * FILE   NREC   LENGTH (MB)   RECORD NAMES
              1      19      944.14       500      610      700      900      950      970     1000      129      960     1100   
                                          VAR    BASINP    GEOM    SYMINP    ZMAT    AOBASIS   BASIS     P2S    ABASIS      S 
                                         1400     1410     1200     1210     1080     1600     1650     1300     1700   
                                           T        V       H0       H01     AOSYM     SMH    MOLCAS    ERIS     OPER   

 PROGRAMS   *        TOTAL       INT
 CPU TIMES  *        10.75     10.67
 REAL TIME  *        13.24 SEC
 DISK USED  *         3.13 GB      
 **********************************************************************************************************************************


 PROGRAM * RHF-SCF (CLOSED SHELL)       Authors: W. Meyer, H.-J. Werner


 NUMBER OF ELECTRONS:       8+    8-
 CONVERGENCE THRESHOLDS:    1.00E-10 (Density)    1.00E-13 (Energy)
 MAX. NUMBER OF ITERATIONS:      500
 INTERPOLATION TYPE:            DIIS
 INTERPOLATION STEPS:              2 (START)      1 (STEP)
 LEVEL SHIFTS:                  0.00 (CLOSED)  0.00 (OPEN) 



 Orbital guess generated from atomic densities. Full valence occupancy:    9   2

 Molecular orbital dump at record        2100.2

 Initial occupancy:   7   1

 ITERATION    DDIFF          GRAD             ENERGY        2-EL.EN.            DIPOLE MOMENTS         DIIS   ORB.
    1      0.000D+00      0.000D+00      -129.79743954    154.048157    0.00000    0.59815   -1.02400    0    start
    2      0.000D+00      0.808D-02      -129.82473927    155.268213    0.00000    0.61123   -0.21089    1    diag
    3      0.651D-02      0.613D-02      -129.84718545    155.393902    0.00000    0.55872   -0.59360    2    diag
    4      0.331D-02      0.972D-03      -129.84798720    155.110109    0.00000    0.56633   -0.53232    3    diag
    5      0.606D-03      0.315D-03      -129.84811191    155.202824    0.00000    0.57149   -0.53482    4    diag
    6      0.251D-03      0.906D-04      -129.84813168    155.186786    0.00000    0.57177   -0.53066    5    diag
    7      0.954D-04      0.452D-04      -129.84813746    155.189498    0.00000    0.57297   -0.52804    6    diag
    8      0.659D-04      0.157D-04      -129.84813811    155.188809    0.00000    0.57301   -0.52702    7    diag
    9      0.254D-04      0.301D-05      -129.84813814    155.188697    0.00000    0.57297   -0.52680    8    diag
   10      0.504D-05      0.682D-06      -129.84813814    155.188680    0.00000    0.57294   -0.52678    9    orth
   11      0.983D-06      0.136D-06      -129.84813814    155.188677    0.00000    0.57293   -0.52677    9    diag
   12      0.179D-06      0.277D-07      -129.84813814    155.188677    0.00000    0.57293   -0.52677    9    diag
   13      0.386D-07      0.713D-08      -129.84813814    155.188677    0.00000    0.57293   -0.52677    9    diag
   14      0.104D-07      0.139D-08      -129.84813814    155.188677    0.00000    0.57293   -0.52677    9    diag
   15      0.190D-08      0.398D-09      -129.84813814    155.188677    0.00000    0.57293   -0.52677    9    diag
   16      0.569D-09      0.120D-09      -129.84813814    155.188677    0.00000    0.57293   -0.52677    9    diag
   17      0.108D-09      0.308D-10      -129.84813814    155.188677    0.00000    0.57293   -0.52677    9    diag
   18      0.286D-10      0.103D-10      -129.84813814    155.188677    0.00000    0.57293   -0.52677    9    diag
   19      0.144D-10      0.248D-11      -129.84813814    155.188677    0.00000    0.57293   -0.52677    9    fixocc
   20      0.717D-11      0.468D-12      -129.84813814    155.188677    0.00000    0.57293   -0.52677    9    orth
   21      0.263D-11      0.252D-12      -129.84813814    155.188677    0.00000    0.57293   -0.52677    9    diag
   22      0.408D-11      0.139D-12      -129.84813814    155.188677    0.00000    0.57293   -0.52677    9    diag
   23      0.153D-11      0.986D-13      -129.84813814    155.188677    0.00000    0.57293   -0.52677    9    diag
   24      0.818D-12      0.103D-12      -129.84813814    155.188677    0.00000    0.57293   -0.52677    9    diag
   25      0.512D-12      0.901D-13      -129.84813814    155.188677    0.00000    0.57293   -0.52677    0    orth

 Final occupancy:   7   1

 !RHF STATE 1.1 Energy               -129.848138144484
 Nuclear energy                        30.41282452
 One-electron energy                 -237.85530103
 Two-electron energy                   77.59433837
 Virial quotient                       -1.00161395
 !RHF STATE 1.1 Dipole moment           0.00000000     0.57293101    -0.52677225
 Dipole moment /Debye                   0.00000000     1.45615000    -1.33883380

 Orbital energies:

         1.1          2.1          3.1          4.1          5.1          6.1          7.1          8.1          9.1
    -20.653410   -15.711324    -1.529953    -0.996881    -0.748352    -0.666081    -0.431293     0.026389     0.079489

         1.2          2.2          3.2
     -0.596018     0.063343     0.110261

 HOMO      7.1    -0.431293 =     -11.7361eV
 LUMO      8.1     0.026389 =       0.7181eV
 LUMO-HOMO         0.457683 =      12.4542eV


 **********************************************************************************************************************************
 DATASETS  * FILE   NREC   LENGTH (MB)   RECORD NAMES
              1      19      944.14       500      610      700      900      950      970     1000      129      960     1100   
                                          VAR    BASINP    GEOM    SYMINP    ZMAT    AOBASIS   BASIS     P2S    ABASIS      S 
                                         1400     1410     1200     1210     1080     1600     1650     1300     1700   
                                           T        V       H0       H01     AOSYM     SMH    MOLCAS    ERIS     OPER   

              2       4        3.27       700     1000      520     2100   
                                         GEOM     BASIS   MCVARS     RHF  

 PROGRAMS   *        TOTAL        HF       INT
 CPU TIMES  *        22.79     12.04     10.67
 REAL TIME  *        28.16 SEC
 DISK USED  *         3.13 GB      
 **********************************************************************************************************************************


 PROGRAM * CCSD (Closed-shell coupled cluster)     Authors: C. Hampel, H.-J. Werner, 1991, M. Deegan, P.J. Knowles, 1992


 Convergence thresholds:  THRVAR = 1.00D-08  THRDEN = 1.00D-12

 CCSD(T)     terms to be evaluated (factor= 1.000)


 Number of core orbitals:           2 (   2   0 )
 Number of closed-shell orbitals:   6 (   5   1 )
 Number of external orbitals:     198 ( 123  75 )

 Molecular orbitals read from record     2100.2  Type=RHF/CANONICAL (state 1.1)

 Number of N-1 electron functions:               6
 Number of N-2 electron functions:              21
 Number of singly external CSFs:               690
 Number of doubly external CSFs:            362646
 Total number of CSFs:                      363337

 Length of J-op  integral file:               0.00 MB
 Length of K-op  integral file:               1.60 MB
 Length of 3-ext integral record:             0.00 MB

 Memory could be reduced to 34.67 Mwords without degradation in triples

 Integral transformation finished. Total CPU:   1.45 sec, npass=  1  Memory used:   9.53 MW

 Reference energy:                   -129.84813814

 MP2 singlet pair energy:              -0.30138385
 MP2 triplet pair energy:              -0.17029252
 MP2 correlation energy:               -0.47167637
 MP2 total energy:                   -130.31981451

 SCS-MP2 correlation energy:           -0.46762041   (PS=  1.200000  PT=  0.333333)
 SCS-MP2 total energy:               -130.31575855

 ITER.      SQ.NORM     CORR.ENERGY   TOTAL ENERGY   ENERGY CHANGE        DEN1      VAR(S)    VAR(P)  DIIS     TIME  TIME/IT
   1      1.12067949    -0.47173902  -130.31987717    -0.00006265     0.01625587  0.31D-02  0.32D-02  1  1     2.69     1.34
   2      1.13131419    -0.47170597  -130.31984412     0.00003305    -0.01244252  0.10D-03  0.49D-03  2  2     3.90     1.35
   3      1.13756269    -0.47207706  -130.32021520    -0.00037109    -0.00302642  0.47D-04  0.53D-04  3  3     5.10     1.35
   4      1.14029723    -0.47208545  -130.32022360    -0.00000840    -0.00092898  0.42D-05  0.95D-05  4  4     6.28     1.36
   5      1.14137267    -0.47211425  -130.32025239    -0.00002880    -0.00023474  0.11D-05  0.16D-05  5  5     7.43     1.35
   6      1.14172095    -0.47209957  -130.32023772     0.00001468    -0.00005023  0.10D-06  0.40D-06  6  6     8.62     1.35
   7      1.14179174    -0.47210022  -130.32023836    -0.00000065     0.00000271  0.15D-07  0.89D-07  6  1     9.84     1.35
   8      1.14181372    -0.47210057  -130.32023871    -0.00000035    -0.00000100  0.34D-08  0.17D-07  6  2    11.06     1.36
   9      1.14181839    -0.47210021  -130.32023836     0.00000036     0.00000092  0.25D-08  0.20D-08  6  4    12.26     1.36
  10      1.14182077    -0.47210058  -130.32023872    -0.00000037    -0.00000072  0.46D-09  0.24D-09  6  3    13.43     1.36
  11      1.14182050    -0.47210064  -130.32023879    -0.00000006    -0.00000012  0.15D-09  0.33D-10  6  5    14.63     1.36
  12      1.14181957    -0.47210078  -130.32023892    -0.00000014     0.00000035  0.18D-10  0.10D-10  6  6    15.84     1.36
  13      1.14181875    -0.47210082  -130.32023896    -0.00000004     0.00000021  0.54D-11  0.23D-11  6  1    17.10     1.36
  14      1.14181811    -0.47210085  -130.32023900    -0.00000003     0.00000015  0.36D-12  0.47D-12  6  4    18.31     1.36
  15      1.14181790    -0.47210086  -130.32023900    -0.00000001     0.00000003  0.75D-13  0.36D-13  6  2    19.51     1.36
  16      1.14181785    -0.47210086  -130.32023900    -0.00000000     0.00000001  0.21D-13  0.67D-14  6  3    20.71     1.36
  17      1.14181783    -0.47210086  -130.32023900    -0.00000000     0.00000001  0.37D-14  0.93D-15  6  5    21.85     1.36
  18      1.14181783    -0.47210086  -130.32023900    -0.00000000     0.00000000  0.79D-15  0.23D-15  6  6    23.04     1.36
  19      1.14181783    -0.47210086  -130.32023900    -0.00000000     0.00000000  0.96D-16  0.47D-16  6  1    24.22     1.36
  20      1.14181783    -0.47210086  -130.32023900     0.00000000    -0.00000000  0.89D-17  0.70D-17  6  4    25.38     1.36
  21      1.14181783    -0.47210086  -130.32023900     0.00000000    -0.00000000  0.44D-18  0.60D-18  6  3    26.57     1.36
  22      1.14181783    -0.47210086  -130.32023900     0.00000000    -0.00000000  0.11D-18  0.12D-18  6  2    27.77     1.36
  23      1.14181783    -0.47210086  -130.32023900     0.00000000     0.00000000  0.31D-19  0.46D-19  6  5    28.96     1.36
  24      1.14181783    -0.47210086  -130.32023900    -0.00000000     0.00000000  0.23D-20  0.97D-20  6  1    30.18     1.36

 Norm of t1 vector:      0.07628165      S-energy:    -0.00000000      T1 diagnostic:  0.01557093
                                                                       D1 diagnostic:  0.04210874

 Doubles amplitudes (print threshold =  0.500E-01):

         I         J         SYM. A    SYM. B    A         B      T(IJ, AB)

         6         6         2         2         1         1     -0.09858011


 Total CPU time for triples:     14.79 sec


 RESULTS
 =======

  Reference energy                   -129.848138144484
  CCSD singlet pair energy             -0.326284124236
  CCSD triplet pair energy             -0.145816735596
  CCSD correlation energy              -0.472100859833

  Triples (T) contribution             -0.022289270549
  Total correlation energy             -0.494390130382

  CCSD total energy                  -130.320239004317
  CCSD[T] energy                     -130.343590023910
  CCSD-T energy                      -130.342146972332
 !CCSD(T) total energy               -130.342528274867

 Timing summary (sec):

 STEP                 CPU(USER)    SYS     CPU(TOT)    WALL
 Transformation          1.45      0.28      1.73      1.75
 CCSD iterations        28.73      3.94     32.67     32.66
 Triples                14.79      0.41     15.20     15.20

 Program statistics:

 Available memory in ccsd:               994999756
 Min. memory needed in ccsd:               1265322
 Max. memory used in ccsd:                 1555950
 Max. memory used in cckext:               2415326 (24 integral passes)



 **********************************************************************************************************************************
 DATASETS  * FILE   NREC   LENGTH (MB)   RECORD NAMES
              1      20     1044.69       500      610      700      900      950      970     1000      129      960     1100   
                                          VAR    BASINP    GEOM    SYMINP    ZMAT    AOBASIS   BASIS     P2S    ABASIS      S 
                                         1400     1410     1200     1210     1080     1600     1650     1300     1700     1380   
                                           T        V       H0       H01     AOSYM     SMH    MOLCAS    ERIS     OPER     JKOP   

              2       4        3.27       700     1000      520     2100   
                                         GEOM     BASIS   MCVARS     RHF  

 PROGRAMS   *        TOTAL   CCSD(T)        HF       INT
 CPU TIMES  *        67.77     44.98     12.04     10.67
 REAL TIME  *        77.81 SEC
 DISK USED  *         3.13 GB      
 **********************************************************************************************************************************

 CCSD(T)/aug-cc-pVQZ energy=   -130.342528274867

        CCSD(T)         HF-SCF  
   -130.34252827   -129.84813814
 **********************************************************************************************************************************
 Molpro calculation terminated
 Variable memory released
