
 Primary working directories    : /tmp/r2666/282441.maple
 Secondary working directories  : /tmp/r2666/282441.maple
 Wavefunction directory         : /ddn/home4/r2666/wfu/
 Main file repository           : /tmp/r2666/282441.maple/

 SHA1      : d5ffa45e93fdbca01ffc919aa182cfdae0147319
 NAME      : 2015.1.35
 ARCHNAME  : linux/x86_64
 FC        : /opt/intel/composer_xe_2015.1.133/bin/intel64/ifort
 BLASLIB   : -Wl,-_start-group /opt/intel/mkl/lib/intel64/libmkl_intel_ilp64.a /opt/intel/mkl/lib/intel64/libmkl_intel_thread.a /opt/intel/mkl/lib/intel64/libmkl_core.a -Wl,-_end-group
 id        : olemiss

 Nodes     nprocs
 cn078        1

 Using customized tuning parameters: mindgm=1; mindgv=20; mindgc=4; mindgr=1; noblas=0; minvec=7
 default implementation of scratch files=df  

 ***,hno CCSD(T)/TZ-F12 QFF
 memory, 995, m;
 gthresh,energy=1.d-12,zero=1.d-22,oneint=1.d-22,twoint=1.d-22;
 gthresh,optgrad=1.d-8,optstep=1.d-8;
 nocompress;
 geomtyp=xyz
 bohr
 geometry={
 3
         80        80
 H        0.0000000000        1.6686753845       -1.9370835064
 N        0.0000000000       -0.1584613095       -1.1535405780
 O        0.0000000000        0.0315537149        1.1400344934
 }
 
 basis={
 default=aug-cc-pvtz
 s,C,8236.0,1235.0,280.8, 79.27,25.59, 8.997,3.319
 s,C,0.9059,0.3643,0.1285000
 p,C,56.0,18.71,4.133,0.2827,0.3827,0.1209
 d,C,30.0,10.0,3.3,1.097,0.318
 f,C,7.0,2.3,0.7610
 s,N,11420.0,1712.0,389.3,110.0,35.57,12.54,4.644
 s,N,1.293,0.5118,0.1787
 p,N,79.89,26.63,5.948,1.742,0.555,0.1725
 d,N,45.0,15.0,5.0,1.654,0.469
 f,N,9.9,3.3,1.093
 s,O,15330.0,2299.0,522.4,147.3,47.55,16.76,6.207
 s,O,1.752,0.6882,0.2384
 p,O,103.5,34.46,7.749,2.28,0.7156,0.214
 d,O,63.0,21.0,7.0,2.314,0.645
 f,O,12.9,4.3,1.428
 s,mg,164900.0,24710.0,5628.0,1596.0,521.0;
 s,mg,188.0,73.01,29.90,12.54,4.306,1.826;
 s,mg,0.7417,0.0761,0.145,0.033,0.0129;
 p,mg,950.70,316.90,74.86,23.72,8.669,3.363;
 p,mg,1.310,0.4911,0.2364,0.08733,0.03237,0.00745;
 d,mg,1.601,0.686,0.126,0.294,0.0468;
 f,mg,1.372,0.588,0.094,0.252;
 }
   {hf,maxit=500;accu,20;}
 {ccsd(t),nocheck,maxit=250;orbital,IGNORE_ERROR;core}

 Variables initialized (889), CPU time= 0.01 sec
 Commands  initialized (702), CPU time= 0.01 sec, 572 directives.
 Default parameters read. Elapsed time= 0.07 sec

 Checking input...
 Passed
1


                                         ***  PROGRAM SYSTEM MOLPRO  ***
                                       Copyright, TTI GmbH Stuttgart, 2015
                                    Version 2015.1 linked Jul  9 2018 13:16:40


 **********************************************************************************************************************************
 LABEL *   hno CCSD(T)/TZ-F12 QFF                                                        
  64 bit serial version                                                                  DATE: 04-Mar-20          TIME: 13:49:51  
 **********************************************************************************************************************************

 SHA1:             d5ffa45e93fdbca01ffc919aa182cfdae0147319
 **********************************************************************************************************************************

 THRESHOLDS:

 ZERO    =  1.00D-22  ONEINT  =  1.00D-22  TWOINT  =  1.00D-22  PREFAC  =  1.00D-14  LOCALI  =  1.00D-09  EORDER  =  1.00D-04
 ENERGY  =  1.00D-12  ETEST   =  0.00D+00  EDENS   =  0.00D+00  THRDEDEF=  1.00D-06  GRADIENT=  1.00D-02  STEP    =  1.00D-03
 ORBITAL =  1.00D-05  CIVEC   =  1.00D-05  COEFF   =  1.00D-04  PRINTCI =  5.00D-02  PUNCHCI =  9.90D+01  OPTGRAD =  3.00D-04
 OPTENERG=  1.00D-06  OPTSTEP =  3.00D-04  THRGRAD =  1.00D-10  COMPRESS=  1.00D-11  VARMIN  =  1.00D-07  VARMAX  =  1.00D-03
 THRDOUB =  0.00D+00  THRDIV  =  1.00D-05  THRRED  =  1.00D-07  THRPSP  =  1.00D+00  THRDC   =  1.00D-10  THRCS   =  1.00D-10
 THRNRM  =  1.00D-08  THREQ   =  0.00D+00  THRDE   =  1.00D+00  THRREF  =  1.00D-05  SPARFAC =  1.00D+00  THRDLP  =  1.00D-07
 THRDIA  =  1.00D-10  THRDLS  =  1.00D-07  THRGPS  =  0.00D+00  THRKEX  =  0.00D+00  THRDIS  =  2.00D-01  THRVAR  =  1.00D-10
 THRLOC  =  1.00D-06  THRGAP  =  1.00D-06  THRLOCT = -1.00D+00  THRGAPT = -1.00D+00  THRORB  =  1.00D-06  THRMLTP =  0.00D+00
 THRCPQCI=  1.00D-10  KEXTA   =  0.00D+00  THRCOARS=  0.00D+00  SYMTOL  =  1.00D-06  GRADTOL =  1.00D-06  THROVL  =  1.00D-08
 THRORTH =  1.00D-08  GRID    =  1.00D-06  GRIDMAX =  1.00D-03  DTMAX   =  0.00D+00  THROCCDE=  1.00D-01  THROCCDE=  1.00D-01



 THRESHOLDS:

 ZERO    =  1.00D-22  ONEINT  =  1.00D-22  TWOINT  =  1.00D-22  PREFAC  =  1.00D-14  LOCALI  =  1.00D-09  EORDER  =  1.00D-04
 ENERGY  =  1.00D-12  ETEST   =  0.00D+00  EDENS   =  0.00D+00  THRDEDEF=  1.00D-06  GRADIENT=  1.00D-02  STEP    =  1.00D-03
 ORBITAL =  1.00D-05  CIVEC   =  1.00D-05  COEFF   =  1.00D-04  PRINTCI =  5.00D-02  PUNCHCI =  9.90D+01  OPTGRAD =  1.00D-08
 OPTENERG=  1.00D-06  OPTSTEP =  1.00D-08  THRGRAD =  1.00D-10  COMPRESS=  1.00D-11  VARMIN  =  1.00D-07  VARMAX  =  1.00D-03
 THRDOUB =  0.00D+00  THRDIV  =  1.00D-05  THRRED  =  1.00D-07  THRPSP  =  1.00D+00  THRDC   =  1.00D-10  THRCS   =  1.00D-10
 THRNRM  =  1.00D-08  THREQ   =  0.00D+00  THRDE   =  1.00D+00  THRREF  =  1.00D-05  SPARFAC =  1.00D+00  THRDLP  =  1.00D-07
 THRDIA  =  1.00D-10  THRDLS  =  1.00D-07  THRGPS  =  0.00D+00  THRKEX  =  0.00D+00  THRDIS  =  2.00D-01  THRVAR  =  1.00D-10
 THRLOC  =  1.00D-06  THRGAP  =  1.00D-06  THRLOCT = -1.00D+00  THRGAPT = -1.00D+00  THRORB  =  1.00D-06  THRMLTP =  0.00D+00
 THRCPQCI=  1.00D-10  KEXTA   =  0.00D+00  THRCOARS=  0.00D+00  SYMTOL  =  1.00D-06  GRADTOL =  1.00D-06  THROVL  =  1.00D-08
 THRORTH =  1.00D-08  GRID    =  1.00D-06  GRIDMAX =  1.00D-03  DTMAX   =  0.00D+00  THROCCDE=  1.00D-01  THROCCDE=  1.00D-01



 Input parameters for SORTINT:

 COMPRESS =    0.000000
 C_FINAL  =    1.000000
 DEBUG    =   -1.000000
 C_SORT1  =    0.000000
 C_SEWARD =    0.000000
 THRESH   =    0.000000
 IO       =  molpro                                                          
 SPRI     =    0.000000
 SETTING GEOMTYP        =    XYZ
 ZUNIT=BOHR
 

 Variable memory set to  995000000 words,  buffer space   230000 words

 SETTING BASIS          =    USERDEF


 Recomputing integrals since basis changed


 Using spherical harmonics

 Library entry H      S aug-cc-pVTZ          selected for orbital group  1
 Library entry H      P aug-cc-pVTZ          selected for orbital group  1
 Library entry H      D aug-cc-pVTZ          selected for orbital group  1


 PROGRAM * SEWARD (Integral evaluation for generally contracted gaussian basis sets)     Author: Roland Lindh, 1990

 Geometry written to block  1 of record 700


 Point group  Cs  



 ATOMIC COORDINATES

 NR  ATOM    CHARGE       X              Y              Z

   1  H       1.00    0.000000000    1.668675384   -1.937083506
   2  N       7.00    0.000000000   -0.158461310   -1.153540578
   3  O       8.00    0.000000000    0.031553715    1.140034493

 Bond lengths in Bohr (Angstrom)

 1-2  1.988056342  2-3  2.301432666
     ( 1.052034110)     ( 1.217865719)

 Bond angles

  1-2-3  108.47547239

 NUCLEAR CHARGE:                   16
 NUMBER OF PRIMITIVE AOS:         203
 NUMBER OF SYMMETRY AOS:          173
 NUMBER OF CONTRACTIONS:          171   ( 114A'  +  57A"  )
 NUMBER OF CORE ORBITALS:           2   (   2A'  +   0A"  )
 NUMBER OF VALENCE ORBITALS:        9   (   7A'  +   2A"  )


 NUCLEAR REPULSION ENERGY   30.14890874


 Eigenvalues of metric

         1 0.106E-02 0.257E-02 0.338E-02 0.641E-02 0.985E-02 0.137E-01 0.146E-01 0.232E-01
         2 0.364E-01 0.546E-01 0.704E-01 0.943E-01 0.132E+00 0.134E+00 0.140E+00 0.142E+00


 Contracted 2-electron integrals neglected if value below      1.0D-22

       46095623. INTEGRALS WRITTEN OUT IN   11257 BLOCKS ON RECORD 1290 OF FILE 1


 NUMBER OF SORTED TWO-ELECTRON INTEGRALS:   55360566.     BUFFER LENGTH:  32768
 NUMBER OF SEGMENTS:   4  SEGMENT LENGTH:   15997996      RECORD LENGTH: 524288

 Memory used in sort:      16.56 MW

 SORT1 READ    46095623. AND WROTE    46532551. INTEGRALS IN    135 RECORDS. CPU TIME:     0.77 SEC, REAL TIME:     0.99 SEC
 SORT2 READ    46532551. AND WROTE    55360566. INTEGRALS IN      4 RECORDS. CPU TIME:     0.62 SEC, REAL TIME:     0.84 SEC

 FILE SIZES:   FILE 1:   758.5 MBYTE,  FILE 4:   566.3 MBYTE,   TOTAL:   1324.7 MBYTE

 OPERATOR DM      FOR CENTER  0  COORDINATES:    0.000000    0.000000    0.000000


 **********************************************************************************************************************************
 DATASETS  * FILE   NREC   LENGTH (MB)   RECORD NAMES
              1      19      420.90       500      610      700      900      950      970     1000      129      960     1100   
                                          VAR    BASINP    GEOM    SYMINP    ZMAT    AOBASIS   BASIS     P2S    ABASIS      S 
                                         1400     1410     1200     1210     1080     1600     1650     1300     1700   
                                           T        V       H0       H01     AOSYM     SMH    MOLCAS    ERIS     OPER   

 PROGRAMS   *        TOTAL       INT
 CPU TIMES  *         4.08      3.96
 REAL TIME  *         5.50 SEC
 DISK USED  *         1.33 GB      
 **********************************************************************************************************************************


 PROGRAM * RHF-SCF (CLOSED SHELL)       Authors: W. Meyer, H.-J. Werner


 NUMBER OF ELECTRONS:       8+    8-
 CONVERGENCE THRESHOLDS:    1.00E-10 (Density)    1.00E-13 (Energy)
 MAX. NUMBER OF ITERATIONS:      500
 INTERPOLATION TYPE:            DIIS
 INTERPOLATION STEPS:              2 (START)      1 (STEP)
 LEVEL SHIFTS:                  0.00 (CLOSED)  0.00 (OPEN) 



 Orbital guess generated from atomic densities. Full valence occupancy:    9   2

 Molecular orbital dump at record        2100.2

 Initial occupancy:   7   1

 ITERATION    DDIFF          GRAD             ENERGY        2-EL.EN.            DIPOLE MOMENTS         DIIS   ORB.
    1      0.000D+00      0.000D+00      -129.78629710    153.667045    0.00000    0.57663   -1.04635    0    start
    2      0.000D+00      0.888D-02      -129.81284375    154.821925    0.00000    0.60368   -0.19152    1    diag
    3      0.370D-02      0.690D-02      -129.83731329    154.964448    0.00000    0.55238   -0.59910    2    diag
    4      0.146D-02      0.105D-02      -129.83811787    154.682615    0.00000    0.56010   -0.53492    3    diag
    5      0.335D-03      0.342D-03      -129.83824179    154.771625    0.00000    0.56615   -0.53717    4    diag
    6      0.154D-03      0.100D-03      -129.83826205    154.755406    0.00000    0.56667   -0.53287    5    diag
    7      0.611D-04      0.508D-04      -129.83826819    154.757842    0.00000    0.56798   -0.53023    6    diag
    8      0.418D-04      0.179D-04      -129.83826891    154.756970    0.00000    0.56803   -0.52924    7    diag
    9      0.153D-04      0.339D-05      -129.83826894    154.756847    0.00000    0.56798   -0.52904    8    diag
   10      0.316D-05      0.756D-06      -129.83826894    154.756833    0.00000    0.56794   -0.52902    9    orth
   11      0.899D-06      0.149D-06      -129.83826894    154.756829    0.00000    0.56793   -0.52901    9    diag
   12      0.210D-06      0.316D-07      -129.83826894    154.756828    0.00000    0.56793   -0.52901    9    diag
   13      0.514D-07      0.856D-08      -129.83826894    154.756828    0.00000    0.56793   -0.52901    9    diag
   14      0.121D-07      0.150D-08      -129.83826894    154.756828    0.00000    0.56793   -0.52901    9    diag
   15      0.143D-08      0.395D-09      -129.83826894    154.756828    0.00000    0.56793   -0.52901    9    diag
   16      0.337D-09      0.113D-09      -129.83826894    154.756828    0.00000    0.56793   -0.52901    9    diag
   17      0.647D-10      0.292D-10      -129.83826894    154.756828    0.00000    0.56793   -0.52901    9    diag
   18      0.181D-10      0.931D-11      -129.83826894    154.756828    0.00000    0.56793   -0.52901    0    orth

 Final occupancy:   7   1

 !RHF STATE 1.1 Energy               -129.838268944654
 Nuclear energy                        30.14890874
 One-electron energy                 -237.36559155
 Two-electron energy                   77.37841387
 Virial quotient                       -1.00193041
 !RHF STATE 1.1 Dipole moment           0.00000000     0.56793003    -0.52901089
 Dipole moment /Debye                   0.00000000     1.44343960    -1.34452350

 Orbital energies:

         1.1          2.1          3.1          4.1          5.1          6.1          7.1          8.1          9.1
    -20.652265   -15.712220    -1.519855    -0.995382    -0.742177    -0.661432    -0.431538     0.039522     0.192274

         1.2          2.2          3.2
     -0.589514     0.075572     0.239240

 HOMO      7.1    -0.431538 =     -11.7427eV
 LUMO      8.1     0.039522 =       1.0754eV
 LUMO-HOMO         0.471059 =      12.8182eV


 **********************************************************************************************************************************
 DATASETS  * FILE   NREC   LENGTH (MB)   RECORD NAMES
              1      19      420.90       500      610      700      900      950      970     1000      129      960     1100   
                                          VAR    BASINP    GEOM    SYMINP    ZMAT    AOBASIS   BASIS     P2S    ABASIS      S 
                                         1400     1410     1200     1210     1080     1600     1650     1300     1700   
                                           T        V       H0       H01     AOSYM     SMH    MOLCAS    ERIS     OPER   

              2       4        3.13       700     1000      520     2100   
                                         GEOM     BASIS   MCVARS     RHF  

 PROGRAMS   *        TOTAL        HF       INT
 CPU TIMES  *         8.60      4.52      3.96
 REAL TIME  *        10.95 SEC
 DISK USED  *         1.33 GB      
 **********************************************************************************************************************************


 PROGRAM * CCSD (Closed-shell coupled cluster)     Authors: C. Hampel, H.-J. Werner, 1991, M. Deegan, P.J. Knowles, 1992


 Convergence thresholds:  THRVAR = 1.00D-08  THRDEN = 1.00D-12

 CCSD(T)     terms to be evaluated (factor= 1.000)


 Number of closed-shell orbitals:   8 (   7   1 )
 Number of external orbitals:     163 ( 107  56 )

 Molecular orbitals read from record     2100.2  Type=RHF/CANONICAL (state 1.1)

 Number of N-1 electron functions:               8
 Number of N-2 electron functions:              36
 Number of singly external CSFs:               805
 Number of doubly external CSFs:            449165
 Total number of CSFs:                      449971

 Length of J-op  integral file:               0.00 MB
 Length of K-op  integral file:               1.15 MB
 Length of 3-ext integral record:             0.00 MB

 Memory could be reduced to 24.90 Mwords without degradation in triples

 Integral transformation finished. Total CPU:   0.77 sec, npass=  1  Memory used:   6.89 MW

 Reference energy:                   -129.83826894

 MP2 singlet pair energy:              -0.37993047
 MP2 triplet pair energy:              -0.18725413
 MP2 correlation energy:               -0.56718460
 MP2 total energy:                   -130.40545354

 SCS-MP2 correlation energy:           -0.57243024   (PS=  1.200000  PT=  0.333333)
 SCS-MP2 total energy:               -130.41069919

 ITER.      SQ.NORM     CORR.ENERGY   TOTAL ENERGY   ENERGY CHANGE        DEN1      VAR(S)    VAR(P)  DIIS     TIME  TIME/IT
   1      1.12083035    -0.57154146  -130.40981041    -0.00435687     0.01380635  0.35D-02  0.32D-02  1  1     1.67     0.94
   2      1.13197958    -0.57115068  -130.40941962     0.00039079    -0.01399291  0.95D-04  0.52D-03  2  2     2.59     0.96
   3      1.13739089    -0.57148917  -130.40975811    -0.00033849    -0.00239624  0.58D-04  0.71D-04  3  3     3.44     0.97
   4      1.14096449    -0.57148185  -130.40975079     0.00000732    -0.00142328  0.49D-05  0.10D-04  4  4     4.31     0.97
   5      1.14208554    -0.57150743  -130.40977638    -0.00002559    -0.00026472  0.17D-05  0.19D-05  5  5     5.20     0.97
   6      1.14251818    -0.57150082  -130.40976977     0.00000661    -0.00004215  0.14D-06  0.42D-06  6  6     6.08     0.98
   7      1.14260362    -0.57150119  -130.40977013    -0.00000037     0.00000097  0.20D-07  0.98D-07  6  1     6.97     0.98
   8      1.14263828    -0.57149932  -130.40976826     0.00000187    -0.00000496  0.40D-08  0.15D-07  6  2     7.89     0.98
   9      1.14264310    -0.57149938  -130.40976832    -0.00000006     0.00000128  0.18D-08  0.20D-08  6  3     8.80     0.98
  10      1.14264492    -0.57149969  -130.40976864    -0.00000031    -0.00000073  0.44D-09  0.28D-09  6  4     9.68     0.98
  11      1.14264394    -0.57149984  -130.40976878    -0.00000014     0.00000035  0.11D-09  0.29D-10  6  5    10.57     0.98
  12      1.14264304    -0.57149998  -130.40976892    -0.00000014     0.00000035  0.11D-10  0.72D-11  6  6    11.44     0.98
  13      1.14264249    -0.57149999  -130.40976893    -0.00000001     0.00000011  0.46D-11  0.13D-11  6  1    12.31     0.98
  14      1.14264203    -0.57150002  -130.40976896    -0.00000003     0.00000011  0.46D-12  0.44D-12  6  3    13.20     0.98
  15      1.14264185    -0.57150002  -130.40976896    -0.00000000     0.00000002  0.12D-12  0.31D-13  6  2    14.09     0.98
  16      1.14264179    -0.57150002  -130.40976896    -0.00000000     0.00000001  0.25D-13  0.66D-14  6  4    15.00     0.98
  17      1.14264177    -0.57150002  -130.40976897    -0.00000000     0.00000001  0.47D-14  0.12D-14  6  5    15.89     0.98
  18      1.14264177    -0.57150002  -130.40976897    -0.00000000     0.00000000  0.52D-15  0.32D-15  6  6    16.82     0.98
  19      1.14264177    -0.57150002  -130.40976897     0.00000000    -0.00000000  0.67D-16  0.48D-16  6  1    17.73     0.98
  20      1.14264177    -0.57150002  -130.40976897     0.00000000    -0.00000000  0.28D-17  0.11D-16  6  3    18.63     0.98
  21      1.14264177    -0.57150002  -130.40976897     0.00000000    -0.00000000  0.14D-17  0.28D-17  6  2    19.50     0.98
  22      1.14264177    -0.57150002  -130.40976897     0.00000000    -0.00000000  0.33D-18  0.99D-18  6  4    20.42     0.98
  23      1.14264177    -0.57150002  -130.40976897    -0.00000000     0.00000000  0.17D-18  0.14D-18  6  5    21.32     0.98
  24      1.14264177    -0.57150002  -130.40976897     0.00000000    -0.00000000  0.64D-20  0.17D-19  6  1    22.23     0.98
  25      1.14264177    -0.57150002  -130.40976897     0.00000000     0.00000000  0.42D-21  0.17D-20  6  6    23.09     0.98
  26      1.14264177    -0.57150002  -130.40976897    -0.00000000     0.00000000  0.18D-21  0.23D-21  6  1    24.00     0.98

 Norm of t1 vector:      0.07937848      S-energy:     0.00000000      T1 diagnostic:  0.01403227
                                                                       D1 diagnostic:  0.04537340

 Doubles amplitudes (print threshold =  0.500E-01):

         I         J         SYM. A    SYM. B    A         B      T(IJ, AB)

         8         8         2         2         1         1     -0.13751943


 Total CPU time for triples:     14.64 sec


 RESULTS
 =======

  Reference energy                   -129.838268944654

  Correlated core orbitals:             1.1       2.1
  Orbital energies:                   -20.6523  -15.7122
 
  CCSD core-core energy                -0.079238275500
  CCSD core-valence energy             -0.036013134020
  CCSD valence correlation energy      -0.456248611530
 
  CCSD singlet pair energy             -0.408930325193
  CCSD triplet pair energy             -0.162569695860
  CCSD correlation energy              -0.571500021051

  Triples (T) contribution             -0.022604251359
  Total correlation energy             -0.594104272410

  CCSD total energy                  -130.409768965705
  CCSD[T] energy                     -130.433592364444
  CCSD-T energy                      -130.431920323594
 !CCSD(T) total energy               -130.432373217064

 Timing summary (sec):

 STEP                 CPU(USER)    SYS     CPU(TOT)    WALL
 Transformation          0.79      0.19      0.98      0.98
 CCSD iterations        23.21      2.33     25.54     25.56
 Triples                14.64      0.57     15.21     15.20

 Program statistics:

 Available memory in ccsd:               994999644
 Min. memory needed in ccsd:               1368037
 Max. memory used in ccsd:                 1750502
 Max. memory used in cckext:               2014357 (26 integral passes)



 **********************************************************************************************************************************
 DATASETS  * FILE   NREC   LENGTH (MB)   RECORD NAMES
              1      20      499.81       500      610      700      900      950      970     1000      129      960     1100   
                                          VAR    BASINP    GEOM    SYMINP    ZMAT    AOBASIS   BASIS     P2S    ABASIS      S 
                                         1400     1410     1200     1210     1080     1600     1650     1300     1700     1380   
                                           T        V       H0       H01     AOSYM     SMH    MOLCAS    ERIS     OPER     JKOP   

              2       4        3.13       700     1000      520     2100   
                                         GEOM     BASIS   MCVARS     RHF  

 PROGRAMS   *        TOTAL   CCSD(T)        HF       INT
 CPU TIMES  *        47.27     38.68      4.52      3.96
 REAL TIME  *        52.72 SEC
 DISK USED  *         1.33 GB      
 **********************************************************************************************************************************

 CCSD(T)/USERDEF energy=   -130.432373217064

        CCSD(T)         HF-SCF  
   -130.43237322   -129.83826894
 **********************************************************************************************************************************
 Molpro calculation terminated
 Variable memory released
