
 Primary working directories    : /tmp/r2666/282474.maple
 Secondary working directories  : /tmp/r2666/282474.maple
 Wavefunction directory         : /ddn/home4/r2666/wfu/
 Main file repository           : /tmp/r2666/282474.maple/

 SHA1      : d5ffa45e93fdbca01ffc919aa182cfdae0147319
 NAME      : 2015.1.35
 ARCHNAME  : linux/x86_64
 FC        : /opt/intel/composer_xe_2015.1.133/bin/intel64/ifort
 BLASLIB   : -Wl,-_start-group /opt/intel/mkl/lib/intel64/libmkl_intel_ilp64.a /opt/intel/mkl/lib/intel64/libmkl_intel_thread.a /opt/intel/mkl/lib/intel64/libmkl_core.a -Wl,-_end-group
 id        : olemiss

 Nodes     nprocs
 cn052        1

 Using customized tuning parameters: mindgm=1; mindgv=20; mindgc=4; mindgr=1; noblas=0; minvec=7
 default implementation of scratch files=df  

 ***,hno CCSD(T)/TZ-F12 QFF
 memory, 995, m;
 gthresh,energy=1.d-12,zero=1.d-22,oneint=1.d-22,twoint=1.d-22;
 gthresh,optgrad=1.d-8,optstep=1.d-8;
 nocompress;
 geomtyp=xyz
 bohr
 geometry={
 3
        113       113
 H        0.0000000000        1.6751480620       -1.9342225498
 N        0.0000000000       -0.1680523163       -1.1401979117
 O        0.0000000000        0.0346720443        1.1238308706
 }
 
 basis={
 default=aug-cc-pvtz
 s,C,8236.0,1235.0,280.8, 79.27,25.59, 8.997,3.319
 s,C,0.9059,0.3643,0.1285000
 p,C,56.0,18.71,4.133,0.2827,0.3827,0.1209
 d,C,30.0,10.0,3.3,1.097,0.318
 f,C,7.0,2.3,0.7610
 s,N,11420.0,1712.0,389.3,110.0,35.57,12.54,4.644
 s,N,1.293,0.5118,0.1787
 p,N,79.89,26.63,5.948,1.742,0.555,0.1725
 d,N,45.0,15.0,5.0,1.654,0.469
 f,N,9.9,3.3,1.093
 s,O,15330.0,2299.0,522.4,147.3,47.55,16.76,6.207
 s,O,1.752,0.6882,0.2384
 p,O,103.5,34.46,7.749,2.28,0.7156,0.214
 d,O,63.0,21.0,7.0,2.314,0.645
 f,O,12.9,4.3,1.428
 s,mg,164900.0,24710.0,5628.0,1596.0,521.0;
 s,mg,188.0,73.01,29.90,12.54,4.306,1.826;
 s,mg,0.7417,0.0761,0.145,0.033,0.0129;
 p,mg,950.70,316.90,74.86,23.72,8.669,3.363;
 p,mg,1.310,0.4911,0.2364,0.08733,0.03237,0.00745;
 d,mg,1.601,0.686,0.126,0.294,0.0468;
 f,mg,1.372,0.588,0.094,0.252;
 }
   {hf,maxit=500;accu,20;}
 {ccsd(t),nocheck,maxit=250;orbital,IGNORE_ERROR;core}

 Variables initialized (889), CPU time= 0.00 sec
 Commands  initialized (702), CPU time= 0.01 sec, 572 directives.
 Default parameters read. Elapsed time= 0.07 sec

 Checking input...
 Passed
1


                                         ***  PROGRAM SYSTEM MOLPRO  ***
                                       Copyright, TTI GmbH Stuttgart, 2015
                                    Version 2015.1 linked Jul  9 2018 13:16:40


 **********************************************************************************************************************************
 LABEL *   hno CCSD(T)/TZ-F12 QFF                                                        
  64 bit serial version                                                                  DATE: 04-Mar-20          TIME: 13:50:25  
 **********************************************************************************************************************************

 SHA1:             d5ffa45e93fdbca01ffc919aa182cfdae0147319
 **********************************************************************************************************************************

 THRESHOLDS:

 ZERO    =  1.00D-22  ONEINT  =  1.00D-22  TWOINT  =  1.00D-22  PREFAC  =  1.00D-14  LOCALI  =  1.00D-09  EORDER  =  1.00D-04
 ENERGY  =  1.00D-12  ETEST   =  0.00D+00  EDENS   =  0.00D+00  THRDEDEF=  1.00D-06  GRADIENT=  1.00D-02  STEP    =  1.00D-03
 ORBITAL =  1.00D-05  CIVEC   =  1.00D-05  COEFF   =  1.00D-04  PRINTCI =  5.00D-02  PUNCHCI =  9.90D+01  OPTGRAD =  3.00D-04
 OPTENERG=  1.00D-06  OPTSTEP =  3.00D-04  THRGRAD =  1.00D-10  COMPRESS=  1.00D-11  VARMIN  =  1.00D-07  VARMAX  =  1.00D-03
 THRDOUB =  0.00D+00  THRDIV  =  1.00D-05  THRRED  =  1.00D-07  THRPSP  =  1.00D+00  THRDC   =  1.00D-10  THRCS   =  1.00D-10
 THRNRM  =  1.00D-08  THREQ   =  0.00D+00  THRDE   =  1.00D+00  THRREF  =  1.00D-05  SPARFAC =  1.00D+00  THRDLP  =  1.00D-07
 THRDIA  =  1.00D-10  THRDLS  =  1.00D-07  THRGPS  =  0.00D+00  THRKEX  =  0.00D+00  THRDIS  =  2.00D-01  THRVAR  =  1.00D-10
 THRLOC  =  1.00D-06  THRGAP  =  1.00D-06  THRLOCT = -1.00D+00  THRGAPT = -1.00D+00  THRORB  =  1.00D-06  THRMLTP =  0.00D+00
 THRCPQCI=  1.00D-10  KEXTA   =  0.00D+00  THRCOARS=  0.00D+00  SYMTOL  =  1.00D-06  GRADTOL =  1.00D-06  THROVL  =  1.00D-08
 THRORTH =  1.00D-08  GRID    =  1.00D-06  GRIDMAX =  1.00D-03  DTMAX   =  0.00D+00  THROCCDE=  1.00D-01  THROCCDE=  1.00D-01



 THRESHOLDS:

 ZERO    =  1.00D-22  ONEINT  =  1.00D-22  TWOINT  =  1.00D-22  PREFAC  =  1.00D-14  LOCALI  =  1.00D-09  EORDER  =  1.00D-04
 ENERGY  =  1.00D-12  ETEST   =  0.00D+00  EDENS   =  0.00D+00  THRDEDEF=  1.00D-06  GRADIENT=  1.00D-02  STEP    =  1.00D-03
 ORBITAL =  1.00D-05  CIVEC   =  1.00D-05  COEFF   =  1.00D-04  PRINTCI =  5.00D-02  PUNCHCI =  9.90D+01  OPTGRAD =  1.00D-08
 OPTENERG=  1.00D-06  OPTSTEP =  1.00D-08  THRGRAD =  1.00D-10  COMPRESS=  1.00D-11  VARMIN  =  1.00D-07  VARMAX  =  1.00D-03
 THRDOUB =  0.00D+00  THRDIV  =  1.00D-05  THRRED  =  1.00D-07  THRPSP  =  1.00D+00  THRDC   =  1.00D-10  THRCS   =  1.00D-10
 THRNRM  =  1.00D-08  THREQ   =  0.00D+00  THRDE   =  1.00D+00  THRREF  =  1.00D-05  SPARFAC =  1.00D+00  THRDLP  =  1.00D-07
 THRDIA  =  1.00D-10  THRDLS  =  1.00D-07  THRGPS  =  0.00D+00  THRKEX  =  0.00D+00  THRDIS  =  2.00D-01  THRVAR  =  1.00D-10
 THRLOC  =  1.00D-06  THRGAP  =  1.00D-06  THRLOCT = -1.00D+00  THRGAPT = -1.00D+00  THRORB  =  1.00D-06  THRMLTP =  0.00D+00
 THRCPQCI=  1.00D-10  KEXTA   =  0.00D+00  THRCOARS=  0.00D+00  SYMTOL  =  1.00D-06  GRADTOL =  1.00D-06  THROVL  =  1.00D-08
 THRORTH =  1.00D-08  GRID    =  1.00D-06  GRIDMAX =  1.00D-03  DTMAX   =  0.00D+00  THROCCDE=  1.00D-01  THROCCDE=  1.00D-01



 Input parameters for SORTINT:

 COMPRESS =    0.000000
 C_FINAL  =    1.000000
 DEBUG    =   -1.000000
 C_SORT1  =    0.000000
 C_SEWARD =    0.000000
 THRESH   =    0.000000
 IO       =  molpro                                                          
 SPRI     =    0.000000
 SETTING GEOMTYP        =    XYZ
 ZUNIT=BOHR
 

 Variable memory set to  995000000 words,  buffer space   230000 words

 SETTING BASIS          =    USERDEF


 Recomputing integrals since basis changed


 Using spherical harmonics

 Library entry H      S aug-cc-pVTZ          selected for orbital group  1
 Library entry H      P aug-cc-pVTZ          selected for orbital group  1
 Library entry H      D aug-cc-pVTZ          selected for orbital group  1


 PROGRAM * SEWARD (Integral evaluation for generally contracted gaussian basis sets)     Author: Roland Lindh, 1990

 Geometry written to block  1 of record 700


 Point group  Cs  



 ATOMIC COORDINATES

 NR  ATOM    CHARGE       X              Y              Z

   1  H       1.00    0.000000000    1.675148062   -1.934222550
   2  N       7.00    0.000000000   -0.168052316   -1.140197912
   3  O       8.00    0.000000000    0.034672044    1.123830871

 Bond lengths in Bohr (Angstrom)

 1-2  2.006953602  2-3  2.273086776
     ( 1.062034110)     ( 1.202865721)

 Bond angles

  1-2-3  108.18899349

 NUCLEAR CHARGE:                   16
 NUMBER OF PRIMITIVE AOS:         203
 NUMBER OF SYMMETRY AOS:          173
 NUMBER OF CONTRACTIONS:          171   ( 114A'  +  57A"  )
 NUMBER OF CORE ORBITALS:           2   (   2A'  +   0A"  )
 NUMBER OF VALENCE ORBITALS:        9   (   7A'  +   2A"  )


 NUCLEAR REPULSION ENERGY   30.42926500


 Eigenvalues of metric

         1 0.105E-02 0.245E-02 0.335E-02 0.640E-02 0.102E-01 0.137E-01 0.144E-01 0.234E-01
         2 0.375E-01 0.525E-01 0.703E-01 0.941E-01 0.131E+00 0.134E+00 0.141E+00 0.142E+00


 Contracted 2-electron integrals neglected if value below      1.0D-22

       46187211. INTEGRALS WRITTEN OUT IN   11279 BLOCKS ON RECORD 1290 OF FILE 1


 NUMBER OF SORTED TWO-ELECTRON INTEGRALS:   55360566.     BUFFER LENGTH:  32768
 NUMBER OF SEGMENTS:   4  SEGMENT LENGTH:   15997996      RECORD LENGTH: 524288

 Memory used in sort:      16.56 MW

 SORT1 READ    46187211. AND WROTE    46625118. INTEGRALS IN    136 RECORDS. CPU TIME:     1.64 SEC, REAL TIME:     2.05 SEC
 SORT2 READ    46625118. AND WROTE    55360566. INTEGRALS IN      4 RECORDS. CPU TIME:     0.94 SEC, REAL TIME:     1.25 SEC

 FILE SIZES:   FILE 1:   759.9 MBYTE,  FILE 4:   570.5 MBYTE,   TOTAL:   1330.4 MBYTE

 OPERATOR DM      FOR CENTER  0  COORDINATES:    0.000000    0.000000    0.000000


 **********************************************************************************************************************************
 DATASETS  * FILE   NREC   LENGTH (MB)   RECORD NAMES
              1      19      421.53       500      610      700      900      950      970     1000      129      960     1100   
                                          VAR    BASINP    GEOM    SYMINP    ZMAT    AOBASIS   BASIS     P2S    ABASIS      S 
                                         1400     1410     1200     1210     1080     1600     1650     1300     1700   
                                           T        V       H0       H01     AOSYM     SMH    MOLCAS    ERIS     OPER   

 PROGRAMS   *        TOTAL       INT
 CPU TIMES  *         7.30      7.19
 REAL TIME  *         9.90 SEC
 DISK USED  *         1.33 GB      
 **********************************************************************************************************************************


 PROGRAM * RHF-SCF (CLOSED SHELL)       Authors: W. Meyer, H.-J. Werner


 NUMBER OF ELECTRONS:       8+    8-
 CONVERGENCE THRESHOLDS:    1.00E-10 (Density)    1.00E-13 (Energy)
 MAX. NUMBER OF ITERATIONS:      500
 INTERPOLATION TYPE:            DIIS
 INTERPOLATION STEPS:              2 (START)      1 (STEP)
 LEVEL SHIFTS:                  0.00 (CLOSED)  0.00 (OPEN) 



 Orbital guess generated from atomic densities. Full valence occupancy:    9   2

 Molecular orbital dump at record        2100.2

 Initial occupancy:   7   1

 ITERATION    DDIFF          GRAD             ENERGY        2-EL.EN.            DIPOLE MOMENTS         DIIS   ORB.
    1      0.000D+00      0.000D+00      -129.78982728    154.160167    0.00000    0.56035   -0.99811    0    start
    2      0.000D+00      0.877D-02      -129.81687893    155.356558    0.00000    0.59304   -0.19453    1    diag
    3      0.360D-02      0.662D-02      -129.83924990    155.463392    0.00000    0.54021   -0.57487    2    diag
    4      0.140D-02      0.103D-02      -129.84002470    155.191188    0.00000    0.54837   -0.51340    3    diag
    5      0.327D-03      0.336D-03      -129.84014512    155.279614    0.00000    0.55454   -0.51597    4    diag
    6      0.153D-03      0.991D-04      -129.84016487    155.263456    0.00000    0.55513   -0.51190    5    diag
    7      0.608D-04      0.494D-04      -129.84017058    155.266104    0.00000    0.55651   -0.50947    6    diag
    8      0.410D-04      0.167D-04      -129.84017117    155.265293    0.00000    0.55657   -0.50859    7    diag
    9      0.139D-04      0.311D-05      -129.84017120    155.265181    0.00000    0.55652   -0.50842    8    diag
   10      0.279D-05      0.716D-06      -129.84017120    155.265166    0.00000    0.55649   -0.50839    9    orth
   11      0.843D-06      0.144D-06      -129.84017120    155.265162    0.00000    0.55648   -0.50838    9    diag
   12      0.203D-06      0.296D-07      -129.84017120    155.265161    0.00000    0.55648   -0.50838    9    diag
   13      0.501D-07      0.782D-08      -129.84017120    155.265161    0.00000    0.55648   -0.50838    9    diag
   14      0.116D-07      0.140D-08      -129.84017120    155.265161    0.00000    0.55648   -0.50838    9    diag
   15      0.155D-08      0.386D-09      -129.84017120    155.265161    0.00000    0.55648   -0.50838    9    diag
   16      0.342D-09      0.118D-09      -129.84017120    155.265161    0.00000    0.55648   -0.50838    9    diag
   17      0.884D-10      0.346D-10      -129.84017120    155.265161    0.00000    0.55648   -0.50838    0    orth

 Final occupancy:   7   1

 !RHF STATE 1.1 Energy               -129.840171196343
 Nuclear energy                        30.42926500
 One-electron energy                 -237.90201657
 Two-electron energy                   77.63258037
 Virial quotient                       -1.00159604
 !RHF STATE 1.1 Dipole moment           0.00000000     0.55647544    -0.50838259
 Dipole moment /Debye                   0.00000000     1.41432685    -1.29209501

 Orbital energies:

         1.1          2.1          3.1          4.1          5.1          6.1          7.1          8.1          9.1
    -20.651030   -15.711113    -1.532167    -0.989268    -0.745686    -0.665735    -0.426606     0.039731     0.192157

         1.2          2.2          3.2
     -0.596823     0.080883     0.239621

 HOMO      7.1    -0.426606 =     -11.6085eV
 LUMO      8.1     0.039731 =       1.0811eV
 LUMO-HOMO         0.466337 =      12.6897eV


 **********************************************************************************************************************************
 DATASETS  * FILE   NREC   LENGTH (MB)   RECORD NAMES
              1      19      421.53       500      610      700      900      950      970     1000      129      960     1100   
                                          VAR    BASINP    GEOM    SYMINP    ZMAT    AOBASIS   BASIS     P2S    ABASIS      S 
                                         1400     1410     1200     1210     1080     1600     1650     1300     1700   
                                           T        V       H0       H01     AOSYM     SMH    MOLCAS    ERIS     OPER   

              2       4        3.13       700     1000      520     2100   
                                         GEOM     BASIS   MCVARS     RHF  

 PROGRAMS   *        TOTAL        HF       INT
 CPU TIMES  *        13.84      6.54      7.19
 REAL TIME  *        17.93 SEC
 DISK USED  *         1.33 GB      
 **********************************************************************************************************************************


 PROGRAM * CCSD (Closed-shell coupled cluster)     Authors: C. Hampel, H.-J. Werner, 1991, M. Deegan, P.J. Knowles, 1992


 Convergence thresholds:  THRVAR = 1.00D-08  THRDEN = 1.00D-12

 CCSD(T)     terms to be evaluated (factor= 1.000)


 Number of closed-shell orbitals:   8 (   7   1 )
 Number of external orbitals:     163 ( 107  56 )

 Molecular orbitals read from record     2100.2  Type=RHF/CANONICAL (state 1.1)

 Number of N-1 electron functions:               8
 Number of N-2 electron functions:              36
 Number of singly external CSFs:               805
 Number of doubly external CSFs:            449165
 Total number of CSFs:                      449971

 Length of J-op  integral file:               0.00 MB
 Length of K-op  integral file:               1.15 MB
 Length of 3-ext integral record:             0.00 MB

 Memory could be reduced to 24.90 Mwords without degradation in triples

 Integral transformation finished. Total CPU:   1.37 sec, npass=  1  Memory used:   6.89 MW

 Reference energy:                   -129.84017120

 MP2 singlet pair energy:              -0.37865182
 MP2 triplet pair energy:              -0.18643146
 MP2 correlation energy:               -0.56508328
 MP2 total energy:                   -130.40525448

 SCS-MP2 correlation energy:           -0.57038398   (PS=  1.200000  PT=  0.333333)
 SCS-MP2 total energy:               -130.41055518

 ITER.      SQ.NORM     CORR.ENERGY   TOTAL ENERGY   ENERGY CHANGE        DEN1      VAR(S)    VAR(P)  DIIS     TIME  TIME/IT
   1      1.11956416    -0.56997620  -130.41014740    -0.00489292     0.01268019  0.33D-02  0.31D-02  1  1     2.94     1.61
   2      1.13037350    -0.56971626  -130.40988746     0.00025994    -0.01362962  0.89D-04  0.50D-03  2  2     4.49     1.66
   3      1.13559203    -0.57004230  -130.41021350    -0.00032604    -0.00235442  0.55D-04  0.67D-04  3  3     6.09     1.68
   4      1.13898767    -0.57003294  -130.41020414     0.00000936    -0.00137726  0.45D-05  0.96D-05  4  4     7.69     1.70
   5      1.14002265    -0.57005719  -130.41022839    -0.00002425    -0.00024394  0.16D-05  0.18D-05  5  5     9.27     1.71
   6      1.14042713    -0.57005141  -130.41022261     0.00000578    -0.00003892  0.15D-06  0.41D-06  6  6    10.88     1.71
   7      1.14051239    -0.57005154  -130.41022273    -0.00000013     0.00000018  0.22D-07  0.91D-07  6  1    12.49     1.72
   8      1.14054698    -0.57004985  -130.41022104     0.00000169    -0.00000476  0.41D-08  0.13D-07  6  2    14.10     1.72
   9      1.14055210    -0.57004990  -130.41022109    -0.00000005     0.00000101  0.17D-08  0.17D-08  6  3    15.71     1.72
  10      1.14055380    -0.57005020  -130.41022140    -0.00000030    -0.00000062  0.39D-09  0.24D-09  6  4    17.31     1.72
  11      1.14055285    -0.57005034  -130.41022153    -0.00000014     0.00000034  0.97D-10  0.24D-10  6  5    18.91     1.72
  12      1.14055195    -0.57005047  -130.41022166    -0.00000013     0.00000035  0.10D-10  0.63D-11  6  6    20.52     1.72
  13      1.14055143    -0.57005048  -130.41022167    -0.00000001     0.00000011  0.44D-11  0.11D-11  6  1    22.09     1.72
  14      1.14055100    -0.57005050  -130.41022170    -0.00000003     0.00000010  0.46D-12  0.38D-12  6  3    23.68     1.72
  15      1.14055084    -0.57005050  -130.41022170    -0.00000000     0.00000002  0.12D-12  0.26D-13  6  2    25.26     1.72
  16      1.14055079    -0.57005051  -130.41022170    -0.00000000     0.00000001  0.26D-13  0.58D-14  6  4    26.84     1.72
  17      1.14055077    -0.57005051  -130.41022170    -0.00000000     0.00000001  0.42D-14  0.11D-14  6  5    28.42     1.72
  18      1.14055076    -0.57005051  -130.41022170    -0.00000000     0.00000000  0.41D-15  0.28D-15  6  6    29.99     1.72
  19      1.14055077    -0.57005051  -130.41022170     0.00000000    -0.00000000  0.50D-16  0.35D-16  6  1    31.59     1.72
  20      1.14055077    -0.57005051  -130.41022170     0.00000000    -0.00000000  0.21D-17  0.72D-17  6  3    33.13     1.72
  21      1.14055077    -0.57005051  -130.41022170     0.00000000    -0.00000000  0.10D-17  0.17D-17  6  2    34.73     1.72
  22      1.14055077    -0.57005051  -130.41022170     0.00000000    -0.00000000  0.16D-18  0.63D-18  6  4    36.25     1.72
  23      1.14055077    -0.57005051  -130.41022170    -0.00000000     0.00000000  0.10D-18  0.97D-19  6  5    37.85     1.72
  24      1.14055077    -0.57005051  -130.41022170     0.00000000    -0.00000000  0.52D-20  0.12D-19  6  1    39.43     1.72
  25      1.14055077    -0.57005051  -130.41022170     0.00000000     0.00000000  0.26D-21  0.13D-20  6  6    41.01     1.72
  26      1.14055077    -0.57005051  -130.41022170    -0.00000000     0.00000000  0.11D-21  0.29D-21  6  3    42.59     1.72

 Norm of t1 vector:      0.07737226      S-energy:     0.00000000      T1 diagnostic:  0.01367761
                                                                       D1 diagnostic:  0.04343481

 Doubles amplitudes (print threshold =  0.500E-01):

         I         J         SYM. A    SYM. B    A         B      T(IJ, AB)

         8         8         2         2         1         1     -0.13298042


 Total CPU time for triples:     26.28 sec


 RESULTS
 =======

  Reference energy                   -129.840171196343

  Correlated core orbitals:             1.1       2.1
  Orbital energies:                   -20.6510  -15.7111
 
  CCSD core-core energy                -0.079230964667
  CCSD core-valence energy             -0.036087750637
  CCSD valence correlation energy      -0.454731792254
 
  CCSD singlet pair energy             -0.407612955030
  CCSD triplet pair energy             -0.162437552534
  CCSD correlation energy              -0.570050507557

  Triples (T) contribution             -0.022195194998
  Total correlation energy             -0.592245702556

  CCSD total energy                  -130.410221703900
  CCSD[T] energy                     -130.433576392794
  CCSD-T energy                      -130.431978531864
 !CCSD(T) total energy               -130.432416898898

 Timing summary (sec):

 STEP                 CPU(USER)    SYS     CPU(TOT)    WALL
 Transformation          1.39      0.26      1.65      1.65
 CCSD iterations        41.20      3.44     44.64     44.64
 Triples                26.28      0.71     26.99     27.00

 Program statistics:

 Available memory in ccsd:               994999644
 Min. memory needed in ccsd:               1368037
 Max. memory used in ccsd:                 1750502
 Max. memory used in cckext:               2014357 (26 integral passes)



 **********************************************************************************************************************************
 DATASETS  * FILE   NREC   LENGTH (MB)   RECORD NAMES
              1      20      500.44       500      610      700      900      950      970     1000      129      960     1100   
                                          VAR    BASINP    GEOM    SYMINP    ZMAT    AOBASIS   BASIS     P2S    ABASIS      S 
                                         1400     1410     1200     1210     1080     1600     1650     1300     1700     1380   
                                           T        V       H0       H01     AOSYM     SMH    MOLCAS    ERIS     OPER     JKOP   

              2       4        3.13       700     1000      520     2100   
                                         GEOM     BASIS   MCVARS     RHF  

 PROGRAMS   *        TOTAL   CCSD(T)        HF       INT
 CPU TIMES  *        82.75     68.91      6.54      7.19
 REAL TIME  *        91.28 SEC
 DISK USED  *         1.33 GB      
 **********************************************************************************************************************************

 CCSD(T)/USERDEF energy=   -130.432416898898

        CCSD(T)         HF-SCF  
   -130.43241690   -129.84017120
 **********************************************************************************************************************************
 Molpro calculation terminated
 Variable memory released
