
 Primary working directories    : /tmp/r2666/282405.maple
 Secondary working directories  : /tmp/r2666/282405.maple
 Wavefunction directory         : /ddn/home4/r2666/wfu/
 Main file repository           : /tmp/r2666/282405.maple/

 SHA1      : d5ffa45e93fdbca01ffc919aa182cfdae0147319
 NAME      : 2015.1.35
 ARCHNAME  : linux/x86_64
 FC        : /opt/intel/composer_xe_2015.1.133/bin/intel64/ifort
 BLASLIB   : -Wl,-_start-group /opt/intel/mkl/lib/intel64/libmkl_intel_ilp64.a /opt/intel/mkl/lib/intel64/libmkl_intel_thread.a /opt/intel/mkl/lib/intel64/libmkl_core.a -Wl,-_end-group
 id        : olemiss

 Nodes     nprocs
 cn080        1

 Using customized tuning parameters: mindgm=1; mindgv=20; mindgc=4; mindgr=1; noblas=0; minvec=7
 default implementation of scratch files=df  

 ***,hno CCSD(T)/TZ-F12 QFF
 memory, 995, m;
 gthresh,energy=1.d-12,zero=1.d-22,oneint=1.d-22,twoint=1.d-22;
 gthresh,optgrad=1.d-8,optstep=1.d-8;
 nocompress;
 geomtyp=xyz
 bohr
 geometry={
 3
         44        44
 H        0.0000000000        1.6641219726       -1.9334943166
 N        0.0000000000       -0.1550806876       -1.1554260937
 O        0.0000000000        0.0327265049        1.1383308193
 }
 
 basis={
 default=aug-cc-pvtz
 s,C,8236.0,1235.0,280.8, 79.27,25.59, 8.997,3.319
 s,C,0.9059,0.3643,0.1285000
 p,C,56.0,18.71,4.133,0.2827,0.3827,0.1209
 d,C,30.0,10.0,3.3,1.097,0.318
 f,C,7.0,2.3,0.7610
 s,N,11420.0,1712.0,389.3,110.0,35.57,12.54,4.644
 s,N,1.293,0.5118,0.1787
 p,N,79.89,26.63,5.948,1.742,0.555,0.1725
 d,N,45.0,15.0,5.0,1.654,0.469
 f,N,9.9,3.3,1.093
 s,O,15330.0,2299.0,522.4,147.3,47.55,16.76,6.207
 s,O,1.752,0.6882,0.2384
 p,O,103.5,34.46,7.749,2.28,0.7156,0.214
 d,O,63.0,21.0,7.0,2.314,0.645
 f,O,12.9,4.3,1.428
 s,mg,164900.0,24710.0,5628.0,1596.0,521.0;
 s,mg,188.0,73.01,29.90,12.54,4.306,1.826;
 s,mg,0.7417,0.0761,0.145,0.033,0.0129;
 p,mg,950.70,316.90,74.86,23.72,8.669,3.363;
 p,mg,1.310,0.4911,0.2364,0.08733,0.03237,0.00745;
 d,mg,1.601,0.686,0.126,0.294,0.0468;
 f,mg,1.372,0.588,0.094,0.252;
 }
   {hf,maxit=500;accu,20;}
 {ccsd(t),nocheck,maxit=250;orbital,IGNORE_ERROR;core}

 Variables initialized (889), CPU time= 0.01 sec
 Commands  initialized (702), CPU time= 0.01 sec, 572 directives.
 Default parameters read. Elapsed time= 0.04 sec

 Checking input...
 Passed
1


                                         ***  PROGRAM SYSTEM MOLPRO  ***
                                       Copyright, TTI GmbH Stuttgart, 2015
                                    Version 2015.1 linked Jul  9 2018 13:16:40


 **********************************************************************************************************************************
 LABEL *   hno CCSD(T)/TZ-F12 QFF                                                        
  64 bit serial version                                                                  DATE: 04-Mar-20          TIME: 13:49:02  
 **********************************************************************************************************************************

 SHA1:             d5ffa45e93fdbca01ffc919aa182cfdae0147319
 **********************************************************************************************************************************

 THRESHOLDS:

 ZERO    =  1.00D-22  ONEINT  =  1.00D-22  TWOINT  =  1.00D-22  PREFAC  =  1.00D-14  LOCALI  =  1.00D-09  EORDER  =  1.00D-04
 ENERGY  =  1.00D-12  ETEST   =  0.00D+00  EDENS   =  0.00D+00  THRDEDEF=  1.00D-06  GRADIENT=  1.00D-02  STEP    =  1.00D-03
 ORBITAL =  1.00D-05  CIVEC   =  1.00D-05  COEFF   =  1.00D-04  PRINTCI =  5.00D-02  PUNCHCI =  9.90D+01  OPTGRAD =  3.00D-04
 OPTENERG=  1.00D-06  OPTSTEP =  3.00D-04  THRGRAD =  1.00D-10  COMPRESS=  1.00D-11  VARMIN  =  1.00D-07  VARMAX  =  1.00D-03
 THRDOUB =  0.00D+00  THRDIV  =  1.00D-05  THRRED  =  1.00D-07  THRPSP  =  1.00D+00  THRDC   =  1.00D-10  THRCS   =  1.00D-10
 THRNRM  =  1.00D-08  THREQ   =  0.00D+00  THRDE   =  1.00D+00  THRREF  =  1.00D-05  SPARFAC =  1.00D+00  THRDLP  =  1.00D-07
 THRDIA  =  1.00D-10  THRDLS  =  1.00D-07  THRGPS  =  0.00D+00  THRKEX  =  0.00D+00  THRDIS  =  2.00D-01  THRVAR  =  1.00D-10
 THRLOC  =  1.00D-06  THRGAP  =  1.00D-06  THRLOCT = -1.00D+00  THRGAPT = -1.00D+00  THRORB  =  1.00D-06  THRMLTP =  0.00D+00
 THRCPQCI=  1.00D-10  KEXTA   =  0.00D+00  THRCOARS=  0.00D+00  SYMTOL  =  1.00D-06  GRADTOL =  1.00D-06  THROVL  =  1.00D-08
 THRORTH =  1.00D-08  GRID    =  1.00D-06  GRIDMAX =  1.00D-03  DTMAX   =  0.00D+00  THROCCDE=  1.00D-01  THROCCDE=  1.00D-01



 THRESHOLDS:

 ZERO    =  1.00D-22  ONEINT  =  1.00D-22  TWOINT  =  1.00D-22  PREFAC  =  1.00D-14  LOCALI  =  1.00D-09  EORDER  =  1.00D-04
 ENERGY  =  1.00D-12  ETEST   =  0.00D+00  EDENS   =  0.00D+00  THRDEDEF=  1.00D-06  GRADIENT=  1.00D-02  STEP    =  1.00D-03
 ORBITAL =  1.00D-05  CIVEC   =  1.00D-05  COEFF   =  1.00D-04  PRINTCI =  5.00D-02  PUNCHCI =  9.90D+01  OPTGRAD =  1.00D-08
 OPTENERG=  1.00D-06  OPTSTEP =  1.00D-08  THRGRAD =  1.00D-10  COMPRESS=  1.00D-11  VARMIN  =  1.00D-07  VARMAX  =  1.00D-03
 THRDOUB =  0.00D+00  THRDIV  =  1.00D-05  THRRED  =  1.00D-07  THRPSP  =  1.00D+00  THRDC   =  1.00D-10  THRCS   =  1.00D-10
 THRNRM  =  1.00D-08  THREQ   =  0.00D+00  THRDE   =  1.00D+00  THRREF  =  1.00D-05  SPARFAC =  1.00D+00  THRDLP  =  1.00D-07
 THRDIA  =  1.00D-10  THRDLS  =  1.00D-07  THRGPS  =  0.00D+00  THRKEX  =  0.00D+00  THRDIS  =  2.00D-01  THRVAR  =  1.00D-10
 THRLOC  =  1.00D-06  THRGAP  =  1.00D-06  THRLOCT = -1.00D+00  THRGAPT = -1.00D+00  THRORB  =  1.00D-06  THRMLTP =  0.00D+00
 THRCPQCI=  1.00D-10  KEXTA   =  0.00D+00  THRCOARS=  0.00D+00  SYMTOL  =  1.00D-06  GRADTOL =  1.00D-06  THROVL  =  1.00D-08
 THRORTH =  1.00D-08  GRID    =  1.00D-06  GRIDMAX =  1.00D-03  DTMAX   =  0.00D+00  THROCCDE=  1.00D-01  THROCCDE=  1.00D-01



 Input parameters for SORTINT:

 COMPRESS =    0.000000
 C_FINAL  =    1.000000
 DEBUG    =   -1.000000
 C_SORT1  =    0.000000
 C_SEWARD =    0.000000
 THRESH   =    0.000000
 IO       =  molpro                                                          
 SPRI     =    0.000000
 SETTING GEOMTYP        =    XYZ
 ZUNIT=BOHR
 

 Variable memory set to  995000000 words,  buffer space   230000 words

 SETTING BASIS          =    USERDEF


 Recomputing integrals since basis changed


 Using spherical harmonics

 Library entry H      S aug-cc-pVTZ          selected for orbital group  1
 Library entry H      P aug-cc-pVTZ          selected for orbital group  1
 Library entry H      D aug-cc-pVTZ          selected for orbital group  1


 PROGRAM * SEWARD (Integral evaluation for generally contracted gaussian basis sets)     Author: Roland Lindh, 1990

 Geometry written to block  1 of record 700


 Point group  Cs  



 ATOMIC COORDINATES

 NR  ATOM    CHARGE       X              Y              Z

   1  H       1.00    0.000000000    1.664121973   -1.933494317
   2  N       7.00    0.000000000   -0.155080688   -1.155426094
   3  O       8.00    0.000000000    0.032726505    1.138330819

 Bond lengths in Bohr (Angstrom)

 1-2  1.978607712  2-3  2.301432666
     ( 1.047034111)     ( 1.217865719)

 Bond angles

  1-2-3  108.47547239

 NUCLEAR CHARGE:                   16
 NUMBER OF PRIMITIVE AOS:         203
 NUMBER OF SYMMETRY AOS:          173
 NUMBER OF CONTRACTIONS:          171   ( 114A'  +  57A"  )
 NUMBER OF CORE ORBITALS:           2   (   2A'  +   0A"  )
 NUMBER OF VALENCE ORBITALS:        9   (   7A'  +   2A"  )


 NUCLEAR REPULSION ENERGY   30.17058070


 Eigenvalues of metric

         1 0.105E-02 0.257E-02 0.336E-02 0.638E-02 0.968E-02 0.137E-01 0.145E-01 0.230E-01
         2 0.358E-01 0.545E-01 0.701E-01 0.943E-01 0.131E+00 0.134E+00 0.140E+00 0.142E+00


 Contracted 2-electron integrals neglected if value below      1.0D-22

       46095762. INTEGRALS WRITTEN OUT IN   11257 BLOCKS ON RECORD 1290 OF FILE 1


 NUMBER OF SORTED TWO-ELECTRON INTEGRALS:   55360566.     BUFFER LENGTH:  32768
 NUMBER OF SEGMENTS:   4  SEGMENT LENGTH:   15997996      RECORD LENGTH: 524288

 Memory used in sort:      16.56 MW

 SORT1 READ    46095762. AND WROTE    46532686. INTEGRALS IN    135 RECORDS. CPU TIME:     0.75 SEC, REAL TIME:     1.06 SEC
 SORT2 READ    46532686. AND WROTE    55360566. INTEGRALS IN      4 RECORDS. CPU TIME:     0.61 SEC, REAL TIME:     0.88 SEC

 FILE SIZES:   FILE 1:   758.5 MBYTE,  FILE 4:   566.3 MBYTE,   TOTAL:   1324.7 MBYTE

 OPERATOR DM      FOR CENTER  0  COORDINATES:    0.000000    0.000000    0.000000


 **********************************************************************************************************************************
 DATASETS  * FILE   NREC   LENGTH (MB)   RECORD NAMES
              1      19      420.90       500      610      700      900      950      970     1000      129      960     1100   
                                          VAR    BASINP    GEOM    SYMINP    ZMAT    AOBASIS   BASIS     P2S    ABASIS      S 
                                         1400     1410     1200     1210     1080     1600     1650     1300     1700   
                                           T        V       H0       H01     AOSYM     SMH    MOLCAS    ERIS     OPER   

 PROGRAMS   *        TOTAL       INT
 CPU TIMES  *         4.18      4.09
 REAL TIME  *         5.75 SEC
 DISK USED  *         1.33 GB      
 **********************************************************************************************************************************


 PROGRAM * RHF-SCF (CLOSED SHELL)       Authors: W. Meyer, H.-J. Werner


 NUMBER OF ELECTRONS:       8+    8-
 CONVERGENCE THRESHOLDS:    1.00E-10 (Density)    1.00E-13 (Energy)
 MAX. NUMBER OF ITERATIONS:      500
 INTERPOLATION TYPE:            DIIS
 INTERPOLATION STEPS:              2 (START)      1 (STEP)
 LEVEL SHIFTS:                  0.00 (CLOSED)  0.00 (OPEN) 



 Orbital guess generated from atomic densities. Full valence occupancy:    9   2

 Molecular orbital dump at record        2100.2

 Initial occupancy:   7   1

 ITERATION    DDIFF          GRAD             ENERGY        2-EL.EN.            DIPOLE MOMENTS         DIIS   ORB.
    1      0.000D+00      0.000D+00      -129.78671052    153.708910    0.00000    0.57980   -1.04547    0    start
    2      0.000D+00      0.886D-02      -129.81327056    154.858508    0.00000    0.60405   -0.19356    1    diag
    3      0.371D-02      0.687D-02      -129.83749610    155.002252    0.00000    0.55405   -0.59951    2    diag
    4      0.145D-02      0.105D-02      -129.83829988    154.721090    0.00000    0.56180   -0.53531    3    diag
    5      0.336D-03      0.341D-03      -129.83842283    154.809697    0.00000    0.56778   -0.53754    4    diag
    6      0.154D-03      0.997D-04      -129.83844287    154.793551    0.00000    0.56831   -0.53326    5    diag
    7      0.610D-04      0.506D-04      -129.83844895    154.795960    0.00000    0.56960   -0.53061    6    diag
    8      0.417D-04      0.178D-04      -129.83844966    154.795092    0.00000    0.56965   -0.52963    7    diag
    9      0.152D-04      0.336D-05      -129.83844970    154.794972    0.00000    0.56959   -0.52943    8    diag
   10      0.315D-05      0.751D-06      -129.83844970    154.794958    0.00000    0.56956   -0.52940    9    orth
   11      0.900D-06      0.148D-06      -129.83844970    154.794954    0.00000    0.56955   -0.52940    9    diag
   12      0.209D-06      0.313D-07      -129.83844970    154.794953    0.00000    0.56955   -0.52940    9    diag
   13      0.510D-07      0.848D-08      -129.83844970    154.794953    0.00000    0.56955   -0.52940    9    diag
   14      0.119D-07      0.149D-08      -129.83844970    154.794953    0.00000    0.56955   -0.52940    9    diag
   15      0.140D-08      0.392D-09      -129.83844970    154.794953    0.00000    0.56955   -0.52940    9    diag
   16      0.334D-09      0.112D-09      -129.83844970    154.794953    0.00000    0.56955   -0.52940    9    diag
   17      0.632D-10      0.290D-10      -129.83844970    154.794953    0.00000    0.56955   -0.52940    9    diag
   18      0.176D-10      0.922D-11      -129.83844970    154.794953    0.00000    0.56955   -0.52940    9    diag
   19      0.624D-11      0.212D-11      -129.83844970    154.794953    0.00000    0.56955   -0.52940    9    fixocc
   20      0.129D-11      0.517D-12      -129.83844970    154.794953    0.00000    0.56955   -0.52940    9    orth
   21      0.228D-12      0.507D-12      -129.83844970    154.794953    0.00000    0.56955   -0.52940    0    orth

 Final occupancy:   7   1

 !RHF STATE 1.1 Energy               -129.838449696783
 Nuclear energy                        30.17058070
 One-electron energy                 -237.40650685
 Two-electron energy                   77.39747644
 Virial quotient                       -1.00187069
 !RHF STATE 1.1 Dipole moment           0.00000000     0.56954710    -0.52939913
 Dipole moment /Debye                   0.00000000     1.44754951    -1.34551023

 Orbital energies:

         1.1          2.1          3.1          4.1          5.1          6.1          7.1          8.1          9.1
    -20.652181   -15.711553    -1.519926    -0.996656    -0.742739    -0.661439    -0.431835     0.039553     0.192730

         1.2          2.2          3.2
     -0.589449     0.075557     0.239285

 HOMO      7.1    -0.431835 =     -11.7508eV
 LUMO      8.1     0.039553 =       1.0763eV
 LUMO-HOMO         0.471388 =      12.8271eV


 **********************************************************************************************************************************
 DATASETS  * FILE   NREC   LENGTH (MB)   RECORD NAMES
              1      19      420.90       500      610      700      900      950      970     1000      129      960     1100   
                                          VAR    BASINP    GEOM    SYMINP    ZMAT    AOBASIS   BASIS     P2S    ABASIS      S 
                                         1400     1410     1200     1210     1080     1600     1650     1300     1700   
                                           T        V       H0       H01     AOSYM     SMH    MOLCAS    ERIS     OPER   

              2       4        3.13       700     1000      520     2100   
                                         GEOM     BASIS   MCVARS     RHF  

 PROGRAMS   *        TOTAL        HF       INT
 CPU TIMES  *         9.41      5.23      4.09
 REAL TIME  *        12.20 SEC
 DISK USED  *         1.33 GB      
 **********************************************************************************************************************************


 PROGRAM * CCSD (Closed-shell coupled cluster)     Authors: C. Hampel, H.-J. Werner, 1991, M. Deegan, P.J. Knowles, 1992


 Convergence thresholds:  THRVAR = 1.00D-08  THRDEN = 1.00D-12

 CCSD(T)     terms to be evaluated (factor= 1.000)


 Number of closed-shell orbitals:   8 (   7   1 )
 Number of external orbitals:     163 ( 107  56 )

 Molecular orbitals read from record     2100.2  Type=RHF/CANONICAL (state 1.1)

 Number of N-1 electron functions:               8
 Number of N-2 electron functions:              36
 Number of singly external CSFs:               805
 Number of doubly external CSFs:            449165
 Total number of CSFs:                      449971

 Length of J-op  integral file:               0.00 MB
 Length of K-op  integral file:               1.15 MB
 Length of 3-ext integral record:             0.00 MB

 Memory could be reduced to 24.90 Mwords without degradation in triples

 Integral transformation finished. Total CPU:   0.87 sec, npass=  1  Memory used:   6.89 MW

 Reference energy:                   -129.83844970

 MP2 singlet pair energy:              -0.37982030
 MP2 triplet pair energy:              -0.18719629
 MP2 correlation energy:               -0.56701659
 MP2 total energy:                   -130.40546628

 SCS-MP2 correlation energy:           -0.57226205   (PS=  1.200000  PT=  0.333333)
 SCS-MP2 total energy:               -130.41071174

 ITER.      SQ.NORM     CORR.ENERGY   TOTAL ENERGY   ENERGY CHANGE        DEN1      VAR(S)    VAR(P)  DIIS     TIME  TIME/IT
   1      1.12066501    -0.57138528  -130.40983498    -0.00436870     0.01374822  0.35D-02  0.32D-02  1  1     1.83     0.99
   2      1.13178093    -0.57099838  -130.40944808     0.00038690    -0.01396334  0.95D-04  0.51D-03  2  2     2.78     1.02
   3      1.13716761    -0.57133381  -130.40978351    -0.00033543    -0.00238814  0.58D-04  0.71D-04  3  3     3.77     1.03
   4      1.14072813    -0.57132695  -130.40977665     0.00000686    -0.00141857  0.48D-05  0.10D-04  4  4     4.73     1.04
   5      1.14184118    -0.57135233  -130.40980202    -0.00002537    -0.00026246  0.16D-05  0.19D-05  5  5     5.69     1.04
   6      1.14227061    -0.57134576  -130.40979546     0.00000657    -0.00004177  0.14D-06  0.42D-06  6  6     6.63     1.05
   7      1.14235524    -0.57134618  -130.40979588    -0.00000042     0.00000100  0.19D-07  0.98D-07  6  1     7.60     1.05
   8      1.14238959    -0.57134433  -130.40979402     0.00000185    -0.00000492  0.41D-08  0.15D-07  6  2     8.56     1.05
   9      1.14239426    -0.57134441  -130.40979411    -0.00000008     0.00000129  0.18D-08  0.20D-08  6  3     9.52     1.05
  10      1.14239602    -0.57134472  -130.40979442    -0.00000031    -0.00000072  0.44D-09  0.28D-09  6  4    10.47     1.05
  11      1.14239504    -0.57134486  -130.40979456    -0.00000014     0.00000035  0.11D-09  0.29D-10  6  5    11.46     1.05
  12      1.14239416    -0.57134501  -130.40979470    -0.00000014     0.00000035  0.11D-10  0.71D-11  6  6    12.39     1.05
  13      1.14239362    -0.57134502  -130.40979471    -0.00000001     0.00000011  0.45D-11  0.13D-11  6  1    13.36     1.05
  14      1.14239317    -0.57134504  -130.40979474    -0.00000003     0.00000011  0.45D-12  0.43D-12  6  3    14.33     1.05
  15      1.14239299    -0.57134504  -130.40979474    -0.00000000     0.00000002  0.11D-12  0.31D-13  6  2    15.28     1.05
  16      1.14239293    -0.57134505  -130.40979474    -0.00000000     0.00000001  0.24D-13  0.65D-14  6  4    16.23     1.05
  17      1.14239291    -0.57134505  -130.40979475    -0.00000000     0.00000001  0.46D-14  0.12D-14  6  5    17.18     1.05
  18      1.14239290    -0.57134505  -130.40979475    -0.00000000     0.00000000  0.51D-15  0.31D-15  6  6    18.15     1.05
  19      1.14239291    -0.57134505  -130.40979475     0.00000000    -0.00000000  0.65D-16  0.48D-16  6  1    19.11     1.06
  20      1.14239291    -0.57134505  -130.40979475     0.00000000    -0.00000000  0.27D-17  0.11D-16  6  3    20.08     1.06
  21      1.14239291    -0.57134505  -130.40979475     0.00000000    -0.00000000  0.14D-17  0.28D-17  6  2    21.03     1.06
  22      1.14239291    -0.57134505  -130.40979475     0.00000000    -0.00000000  0.35D-18  0.98D-18  6  4    21.96     1.06
  23      1.14239291    -0.57134505  -130.40979475    -0.00000000     0.00000000  0.18D-18  0.14D-18  6  5    22.93     1.06
  24      1.14239291    -0.57134505  -130.40979475     0.00000000    -0.00000000  0.61D-20  0.17D-19  6  1    23.90     1.06
  25      1.14239291    -0.57134505  -130.40979475     0.00000000     0.00000000  0.43D-21  0.17D-20  6  6    24.88     1.06
  26      1.14239291    -0.57134505  -130.40979475    -0.00000000     0.00000000  0.17D-21  0.24D-21  6  1    25.85     1.06

 Norm of t1 vector:      0.07915151      S-energy:     0.00000000      T1 diagnostic:  0.01399214
                                                                       D1 diagnostic:  0.04535848

 Doubles amplitudes (print threshold =  0.500E-01):

         I         J         SYM. A    SYM. B    A         B      T(IJ, AB)

         8         8         2         2         1         1     -0.13756828


 Total CPU time for triples:     19.08 sec


 RESULTS
 =======

  Reference energy                   -129.838449696783

  Correlated core orbitals:             1.1       2.1
  Orbital energies:                   -20.6522  -15.7116
 
  CCSD core-core energy                -0.079237603590
  CCSD core-valence energy             -0.036023628662
  CCSD valence correlation energy      -0.456083816213
 
  CCSD singlet pair energy             -0.408790377529
  CCSD triplet pair energy             -0.162554670936
  CCSD correlation energy              -0.571345048465

  Triples (T) contribution             -0.022570337834
  Total correlation energy             -0.593915386299

  CCSD total energy                  -130.409794745247
  CCSD[T] energy                     -130.433578768221
  CCSD-T energy                      -130.431914205089
 !CCSD(T) total energy               -130.432365083082

 Timing summary (sec):

 STEP                 CPU(USER)    SYS     CPU(TOT)    WALL
 Transformation          0.88      0.17      1.05      1.06
 CCSD iterations        24.98      2.54     27.52     27.50
 Triples                19.08      0.57     19.65     19.66

 Program statistics:

 Available memory in ccsd:               994999644
 Min. memory needed in ccsd:               1368037
 Max. memory used in ccsd:                 1750502
 Max. memory used in cckext:               2014357 (26 integral passes)



 **********************************************************************************************************************************
 DATASETS  * FILE   NREC   LENGTH (MB)   RECORD NAMES
              1      20      499.81       500      610      700      900      950      970     1000      129      960     1100   
                                          VAR    BASINP    GEOM    SYMINP    ZMAT    AOBASIS   BASIS     P2S    ABASIS      S 
                                         1400     1410     1200     1210     1080     1600     1650     1300     1700     1380   
                                           T        V       H0       H01     AOSYM     SMH    MOLCAS    ERIS     OPER     JKOP   

              2       4        3.13       700     1000      520     2100   
                                         GEOM     BASIS   MCVARS     RHF  

 PROGRAMS   *        TOTAL   CCSD(T)        HF       INT
 CPU TIMES  *        54.37     44.96      5.23      4.09
 REAL TIME  *        60.46 SEC
 DISK USED  *         1.33 GB      
 **********************************************************************************************************************************

 CCSD(T)/USERDEF energy=   -130.432365083082

        CCSD(T)         HF-SCF  
   -130.43236508   -129.83844970
 **********************************************************************************************************************************
 Molpro calculation terminated
 Variable memory released
