
 Primary working directories    : /tmp/r2666/282437.maple
 Secondary working directories  : /tmp/r2666/282437.maple
 Wavefunction directory         : /ddn/home4/r2666/wfu/
 Main file repository           : /tmp/r2666/282437.maple/

 SHA1      : d5ffa45e93fdbca01ffc919aa182cfdae0147319
 NAME      : 2015.1.35
 ARCHNAME  : linux/x86_64
 FC        : /opt/intel/composer_xe_2015.1.133/bin/intel64/ifort
 BLASLIB   : -Wl,-_start-group /opt/intel/mkl/lib/intel64/libmkl_intel_ilp64.a /opt/intel/mkl/lib/intel64/libmkl_intel_thread.a /opt/intel/mkl/lib/intel64/libmkl_core.a -Wl,-_end-group
 id        : olemiss

 Nodes     nprocs
 cn083        1

 Using customized tuning parameters: mindgm=1; mindgv=20; mindgc=4; mindgr=1; noblas=0; minvec=7
 default implementation of scratch files=df  

 ***,hno CCSD(T)/TZ-F12 QFF
 memory, 995, m;
 gthresh,energy=1.d-12,zero=1.d-22,oneint=1.d-22,twoint=1.d-22;
 gthresh,optgrad=1.d-8,optstep=1.d-8;
 nocompress;
 geomtyp=xyz
 bohr
 geometry={
 3
         76        76
 H        0.0000000000        1.6682628629       -1.9419929251
 N        0.0000000000       -0.1537935056       -1.1467076875
 O        0.0000000000        0.0272984327        1.1381110215
 }
 
 basis={
 default=aug-cc-pvtz
 s,C,8236.0,1235.0,280.8, 79.27,25.59, 8.997,3.319
 s,C,0.9059,0.3643,0.1285000
 p,C,56.0,18.71,4.133,0.2827,0.3827,0.1209
 d,C,30.0,10.0,3.3,1.097,0.318
 f,C,7.0,2.3,0.7610
 s,N,11420.0,1712.0,389.3,110.0,35.57,12.54,4.644
 s,N,1.293,0.5118,0.1787
 p,N,79.89,26.63,5.948,1.742,0.555,0.1725
 d,N,45.0,15.0,5.0,1.654,0.469
 f,N,9.9,3.3,1.093
 s,O,15330.0,2299.0,522.4,147.3,47.55,16.76,6.207
 s,O,1.752,0.6882,0.2384
 p,O,103.5,34.46,7.749,2.28,0.7156,0.214
 d,O,63.0,21.0,7.0,2.314,0.645
 f,O,12.9,4.3,1.428
 s,mg,164900.0,24710.0,5628.0,1596.0,521.0;
 s,mg,188.0,73.01,29.90,12.54,4.306,1.826;
 s,mg,0.7417,0.0761,0.145,0.033,0.0129;
 p,mg,950.70,316.90,74.86,23.72,8.669,3.363;
 p,mg,1.310,0.4911,0.2364,0.08733,0.03237,0.00745;
 d,mg,1.601,0.686,0.126,0.294,0.0468;
 f,mg,1.372,0.588,0.094,0.252;
 }
   {hf,maxit=500;accu,20;}
 {ccsd(t),nocheck,maxit=250;orbital,IGNORE_ERROR;core}

 Variables initialized (889), CPU time= 0.01 sec
 Commands  initialized (702), CPU time= 0.01 sec, 572 directives.
 Default parameters read. Elapsed time= 0.05 sec

 Checking input...
 Passed
1


                                         ***  PROGRAM SYSTEM MOLPRO  ***
                                       Copyright, TTI GmbH Stuttgart, 2015
                                    Version 2015.1 linked Jul  9 2018 13:16:40


 **********************************************************************************************************************************
 LABEL *   hno CCSD(T)/TZ-F12 QFF                                                        
  64 bit serial version                                                                  DATE: 04-Mar-20          TIME: 13:49:50  
 **********************************************************************************************************************************

 SHA1:             d5ffa45e93fdbca01ffc919aa182cfdae0147319
 **********************************************************************************************************************************

 THRESHOLDS:

 ZERO    =  1.00D-22  ONEINT  =  1.00D-22  TWOINT  =  1.00D-22  PREFAC  =  1.00D-14  LOCALI  =  1.00D-09  EORDER  =  1.00D-04
 ENERGY  =  1.00D-12  ETEST   =  0.00D+00  EDENS   =  0.00D+00  THRDEDEF=  1.00D-06  GRADIENT=  1.00D-02  STEP    =  1.00D-03
 ORBITAL =  1.00D-05  CIVEC   =  1.00D-05  COEFF   =  1.00D-04  PRINTCI =  5.00D-02  PUNCHCI =  9.90D+01  OPTGRAD =  3.00D-04
 OPTENERG=  1.00D-06  OPTSTEP =  3.00D-04  THRGRAD =  1.00D-10  COMPRESS=  1.00D-11  VARMIN  =  1.00D-07  VARMAX  =  1.00D-03
 THRDOUB =  0.00D+00  THRDIV  =  1.00D-05  THRRED  =  1.00D-07  THRPSP  =  1.00D+00  THRDC   =  1.00D-10  THRCS   =  1.00D-10
 THRNRM  =  1.00D-08  THREQ   =  0.00D+00  THRDE   =  1.00D+00  THRREF  =  1.00D-05  SPARFAC =  1.00D+00  THRDLP  =  1.00D-07
 THRDIA  =  1.00D-10  THRDLS  =  1.00D-07  THRGPS  =  0.00D+00  THRKEX  =  0.00D+00  THRDIS  =  2.00D-01  THRVAR  =  1.00D-10
 THRLOC  =  1.00D-06  THRGAP  =  1.00D-06  THRLOCT = -1.00D+00  THRGAPT = -1.00D+00  THRORB  =  1.00D-06  THRMLTP =  0.00D+00
 THRCPQCI=  1.00D-10  KEXTA   =  0.00D+00  THRCOARS=  0.00D+00  SYMTOL  =  1.00D-06  GRADTOL =  1.00D-06  THROVL  =  1.00D-08
 THRORTH =  1.00D-08  GRID    =  1.00D-06  GRIDMAX =  1.00D-03  DTMAX   =  0.00D+00  THROCCDE=  1.00D-01  THROCCDE=  1.00D-01



 THRESHOLDS:

 ZERO    =  1.00D-22  ONEINT  =  1.00D-22  TWOINT  =  1.00D-22  PREFAC  =  1.00D-14  LOCALI  =  1.00D-09  EORDER  =  1.00D-04
 ENERGY  =  1.00D-12  ETEST   =  0.00D+00  EDENS   =  0.00D+00  THRDEDEF=  1.00D-06  GRADIENT=  1.00D-02  STEP    =  1.00D-03
 ORBITAL =  1.00D-05  CIVEC   =  1.00D-05  COEFF   =  1.00D-04  PRINTCI =  5.00D-02  PUNCHCI =  9.90D+01  OPTGRAD =  1.00D-08
 OPTENERG=  1.00D-06  OPTSTEP =  1.00D-08  THRGRAD =  1.00D-10  COMPRESS=  1.00D-11  VARMIN  =  1.00D-07  VARMAX  =  1.00D-03
 THRDOUB =  0.00D+00  THRDIV  =  1.00D-05  THRRED  =  1.00D-07  THRPSP  =  1.00D+00  THRDC   =  1.00D-10  THRCS   =  1.00D-10
 THRNRM  =  1.00D-08  THREQ   =  0.00D+00  THRDE   =  1.00D+00  THRREF  =  1.00D-05  SPARFAC =  1.00D+00  THRDLP  =  1.00D-07
 THRDIA  =  1.00D-10  THRDLS  =  1.00D-07  THRGPS  =  0.00D+00  THRKEX  =  0.00D+00  THRDIS  =  2.00D-01  THRVAR  =  1.00D-10
 THRLOC  =  1.00D-06  THRGAP  =  1.00D-06  THRLOCT = -1.00D+00  THRGAPT = -1.00D+00  THRORB  =  1.00D-06  THRMLTP =  0.00D+00
 THRCPQCI=  1.00D-10  KEXTA   =  0.00D+00  THRCOARS=  0.00D+00  SYMTOL  =  1.00D-06  GRADTOL =  1.00D-06  THROVL  =  1.00D-08
 THRORTH =  1.00D-08  GRID    =  1.00D-06  GRIDMAX =  1.00D-03  DTMAX   =  0.00D+00  THROCCDE=  1.00D-01  THROCCDE=  1.00D-01



 Input parameters for SORTINT:

 COMPRESS =    0.000000
 C_FINAL  =    1.000000
 DEBUG    =   -1.000000
 C_SORT1  =    0.000000
 C_SEWARD =    0.000000
 THRESH   =    0.000000
 IO       =  molpro                                                          
 SPRI     =    0.000000
 SETTING GEOMTYP        =    XYZ
 ZUNIT=BOHR
 

 Variable memory set to  995000000 words,  buffer space   230000 words

 SETTING BASIS          =    USERDEF


 Recomputing integrals since basis changed


 Using spherical harmonics

 Library entry H      S aug-cc-pVTZ          selected for orbital group  1
 Library entry H      P aug-cc-pVTZ          selected for orbital group  1
 Library entry H      D aug-cc-pVTZ          selected for orbital group  1


 PROGRAM * SEWARD (Integral evaluation for generally contracted gaussian basis sets)     Author: Roland Lindh, 1990

 Geometry written to block  1 of record 700


 Point group  Cs  



 ATOMIC COORDINATES

 NR  ATOM    CHARGE       X              Y              Z

   1  H       1.00    0.000000000    1.668262863   -1.941992925
   2  N       7.00    0.000000000   -0.153793506   -1.146707687
   3  O       8.00    0.000000000    0.027298433    1.138111022

 Bond lengths in Bohr (Angstrom)

 1-2  1.988056342  2-3  2.291984036
     ( 1.052034110)     ( 1.212865720)

 Bond angles

  1-2-3  109.04843018

 NUCLEAR CHARGE:                   16
 NUMBER OF PRIMITIVE AOS:         203
 NUMBER OF SYMMETRY AOS:          173
 NUMBER OF CONTRACTIONS:          171   ( 114A'  +  57A"  )
 NUMBER OF CORE ORBITALS:           2   (   2A'  +   0A"  )
 NUMBER OF VALENCE ORBITALS:        9   (   7A'  +   2A"  )


 NUCLEAR REPULSION ENERGY   30.24629833


 Eigenvalues of metric

         1 0.105E-02 0.253E-02 0.336E-02 0.639E-02 0.984E-02 0.137E-01 0.145E-01 0.232E-01
         2 0.363E-01 0.538E-01 0.699E-01 0.943E-01 0.131E+00 0.134E+00 0.140E+00 0.142E+00


 Contracted 2-electron integrals neglected if value below      1.0D-22

       46126796. INTEGRALS WRITTEN OUT IN   11265 BLOCKS ON RECORD 1290 OF FILE 1


 NUMBER OF SORTED TWO-ELECTRON INTEGRALS:   55360566.     BUFFER LENGTH:  32768
 NUMBER OF SEGMENTS:   4  SEGMENT LENGTH:   15997996      RECORD LENGTH: 524288

 Memory used in sort:      16.56 MW

 SORT1 READ    46126796. AND WROTE    46564080. INTEGRALS IN    136 RECORDS. CPU TIME:     0.74 SEC, REAL TIME:     1.05 SEC
 SORT2 READ    46564080. AND WROTE    55360566. INTEGRALS IN      4 RECORDS. CPU TIME:     0.66 SEC, REAL TIME:     0.88 SEC

 FILE SIZES:   FILE 1:   759.0 MBYTE,  FILE 4:   570.5 MBYTE,   TOTAL:   1329.5 MBYTE

 OPERATOR DM      FOR CENTER  0  COORDINATES:    0.000000    0.000000    0.000000


 **********************************************************************************************************************************
 DATASETS  * FILE   NREC   LENGTH (MB)   RECORD NAMES
              1      19      421.11       500      610      700      900      950      970     1000      129      960     1100   
                                          VAR    BASINP    GEOM    SYMINP    ZMAT    AOBASIS   BASIS     P2S    ABASIS      S 
                                         1400     1410     1200     1210     1080     1600     1650     1300     1700   
                                           T        V       H0       H01     AOSYM     SMH    MOLCAS    ERIS     OPER   

 PROGRAMS   *        TOTAL       INT
 CPU TIMES  *         4.26      4.15
 REAL TIME  *         5.90 SEC
 DISK USED  *         1.33 GB      
 **********************************************************************************************************************************


 PROGRAM * RHF-SCF (CLOSED SHELL)       Authors: W. Meyer, H.-J. Werner


 NUMBER OF ELECTRONS:       8+    8-
 CONVERGENCE THRESHOLDS:    1.00E-10 (Density)    1.00E-13 (Energy)
 MAX. NUMBER OF ITERATIONS:      500
 INTERPOLATION TYPE:            DIIS
 INTERPOLATION STEPS:              2 (START)      1 (STEP)
 LEVEL SHIFTS:                  0.00 (CLOSED)  0.00 (OPEN) 



 Orbital guess generated from atomic densities. Full valence occupancy:    9   2

 Molecular orbital dump at record        2100.2

 Initial occupancy:   7   1

 ITERATION    DDIFF          GRAD             ENERGY        2-EL.EN.            DIPOLE MOMENTS         DIIS   ORB.
    1      0.000D+00      0.000D+00      -129.78785964    153.838531    0.00000    0.57945   -1.03150    0    start
    2      0.000D+00      0.883D-02      -129.81458649    155.006731    0.00000    0.60030   -0.19710    1    diag
    3      0.367D-02      0.677D-02      -129.83811802    155.137507    0.00000    0.55236   -0.59417    2    diag
    4      0.144D-02      0.105D-02      -129.83891394    154.859008    0.00000    0.55991   -0.53068    3    diag
    5      0.334D-03      0.339D-03      -129.83903583    154.947737    0.00000    0.56601   -0.53307    4    diag
    6      0.153D-03      0.993D-04      -129.83905570    154.931599    0.00000    0.56657   -0.52886    5    diag
    7      0.609D-04      0.501D-04      -129.83906163    154.934084    0.00000    0.56789   -0.52629    6    diag
    8      0.415D-04      0.174D-04      -129.83906230    154.933241    0.00000    0.56795   -0.52535    7    diag
    9      0.148D-04      0.328D-05      -129.83906233    154.933123    0.00000    0.56790   -0.52515    8    diag
   10      0.303D-05      0.744D-06      -129.83906233    154.933108    0.00000    0.56786   -0.52513    9    orth
   11      0.886D-06      0.147D-06      -129.83906233    154.933104    0.00000    0.56785   -0.52513    9    diag
   12      0.207D-06      0.307D-07      -129.83906233    154.933103    0.00000    0.56785   -0.52512    9    diag
   13      0.505D-07      0.820D-08      -129.83906233    154.933103    0.00000    0.56785   -0.52512    9    diag
   14      0.118D-07      0.144D-08      -129.83906233    154.933103    0.00000    0.56785   -0.52512    9    diag
   15      0.145D-08      0.381D-09      -129.83906233    154.933103    0.00000    0.56785   -0.52512    9    diag
   16      0.330D-09      0.109D-09      -129.83906233    154.933103    0.00000    0.56785   -0.52512    9    diag
   17      0.675D-10      0.286D-10      -129.83906233    154.933103    0.00000    0.56785   -0.52512    9    diag
   18      0.200D-10      0.928D-11      -129.83906233    154.933103    0.00000    0.56785   -0.52512    9    diag
   19      0.776D-11      0.212D-11      -129.83906233    154.933103    0.00000    0.56785   -0.52512    9    fixocc
   20      0.171D-11      0.472D-12      -129.83906233    154.933103    0.00000    0.56785   -0.52512    9    orth
   21      0.360D-12      0.597D-12      -129.83906233    154.933103    0.00000    0.56785   -0.52512    0    orth

 Final occupancy:   7   1

 !RHF STATE 1.1 Energy               -129.839062330938
 Nuclear energy                        30.24629833
 One-electron energy                 -237.55191202
 Two-electron energy                   77.46655136
 Virial quotient                       -1.00180199
 !RHF STATE 1.1 Dipole moment           0.00000000     0.56784754    -0.52512312
 Dipole moment /Debye                   0.00000000     1.44322995    -1.33464241

 Orbital energies:

         1.1          2.1          3.1          4.1          5.1          6.1          7.1          8.1          9.1
    -20.651936   -15.711263    -1.523600    -0.994566    -0.743666    -0.662965    -0.429634     0.039540     0.192467

         1.2          2.2          3.2
     -0.591775     0.077177     0.239456

 HOMO      7.1    -0.429634 =     -11.6909eV
 LUMO      8.1     0.039540 =       1.0759eV
 LUMO-HOMO         0.469174 =      12.7669eV


 **********************************************************************************************************************************
 DATASETS  * FILE   NREC   LENGTH (MB)   RECORD NAMES
              1      19      421.11       500      610      700      900      950      970     1000      129      960     1100   
                                          VAR    BASINP    GEOM    SYMINP    ZMAT    AOBASIS   BASIS     P2S    ABASIS      S 
                                         1400     1410     1200     1210     1080     1600     1650     1300     1700   
                                           T        V       H0       H01     AOSYM     SMH    MOLCAS    ERIS     OPER   

              2       4        3.13       700     1000      520     2100   
                                         GEOM     BASIS   MCVARS     RHF  

 PROGRAMS   *        TOTAL        HF       INT
 CPU TIMES  *         9.78      5.52      4.15
 REAL TIME  *        13.14 SEC
 DISK USED  *         1.33 GB      
 **********************************************************************************************************************************


 PROGRAM * CCSD (Closed-shell coupled cluster)     Authors: C. Hampel, H.-J. Werner, 1991, M. Deegan, P.J. Knowles, 1992


 Convergence thresholds:  THRVAR = 1.00D-08  THRDEN = 1.00D-12

 CCSD(T)     terms to be evaluated (factor= 1.000)


 Number of closed-shell orbitals:   8 (   7   1 )
 Number of external orbitals:     163 ( 107  56 )

 Molecular orbitals read from record     2100.2  Type=RHF/CANONICAL (state 1.1)

 Number of N-1 electron functions:               8
 Number of N-2 electron functions:              36
 Number of singly external CSFs:               805
 Number of doubly external CSFs:            449165
 Total number of CSFs:                      449971

 Length of J-op  integral file:               0.00 MB
 Length of K-op  integral file:               1.15 MB
 Length of 3-ext integral record:             0.00 MB

 Memory could be reduced to 24.90 Mwords without degradation in triples

 Integral transformation finished. Total CPU:   0.91 sec, npass=  1  Memory used:   6.89 MW

 Reference energy:                   -129.83906233

 MP2 singlet pair energy:              -0.37942346
 MP2 triplet pair energy:              -0.18693751
 MP2 correlation energy:               -0.56636098
 MP2 total energy:                   -130.40542331

 SCS-MP2 correlation energy:           -0.57162483   (PS=  1.200000  PT=  0.333333)
 SCS-MP2 total energy:               -130.41068716

 ITER.      SQ.NORM     CORR.ENERGY   TOTAL ENERGY   ENERGY CHANGE        DEN1      VAR(S)    VAR(P)  DIIS     TIME  TIME/IT
   1      1.12030737    -0.57090819  -130.40997052    -0.00454722     0.01339762  0.35D-02  0.32D-02  1  1     1.90     1.05
   2      1.13132943    -0.57056238  -130.40962471     0.00034581    -0.01385718  0.93D-04  0.51D-03  2  2     2.91     1.06
   3      1.13666915    -0.57089602  -130.40995835    -0.00033364    -0.00237749  0.57D-04  0.70D-04  3  3     3.93     1.07
   4      1.14018259    -0.57088813  -130.40995046     0.00000789    -0.00140639  0.47D-05  0.10D-04  4  4     4.94     1.08
   5      1.14127665    -0.57091319  -130.40997552    -0.00002506    -0.00025768  0.17D-05  0.19D-05  5  5     5.94     1.09
   6      1.14170178    -0.57090683  -130.40996916     0.00000636    -0.00004120  0.14D-06  0.42D-06  6  6     6.94     1.09
   7      1.14178779    -0.57090716  -130.40996949    -0.00000033     0.00000068  0.20D-07  0.98D-07  6  1     7.95     1.09
   8      1.14182261    -0.57090537  -130.40996770     0.00000179    -0.00000490  0.42D-08  0.15D-07  6  2     8.98     1.09
   9      1.14182758    -0.57090543  -130.40996776    -0.00000006     0.00000118  0.18D-08  0.19D-08  6  3     9.95     1.09
  10      1.14182934    -0.57090574  -130.40996808    -0.00000031    -0.00000069  0.44D-09  0.27D-09  6  4    10.97     1.09
  11      1.14182836    -0.57090589  -130.40996822    -0.00000014     0.00000035  0.11D-09  0.28D-10  6  5    11.99     1.09
  12      1.14182744    -0.57090603  -130.40996836    -0.00000014     0.00000036  0.11D-10  0.71D-11  6  6    12.99     1.09
  13      1.14182689    -0.57090604  -130.40996837    -0.00000001     0.00000011  0.47D-11  0.13D-11  6  1    13.98     1.09
  14      1.14182643    -0.57090607  -130.40996840    -0.00000003     0.00000011  0.48D-12  0.44D-12  6  3    15.02     1.09
  15      1.14182626    -0.57090607  -130.40996840    -0.00000000     0.00000002  0.12D-12  0.30D-13  6  2    16.01     1.09
  16      1.14182620    -0.57090607  -130.40996840    -0.00000000     0.00000001  0.26D-13  0.65D-14  6  4    17.03     1.09
  17      1.14182618    -0.57090607  -130.40996840    -0.00000000     0.00000001  0.46D-14  0.12D-14  6  5    18.08     1.09
  18      1.14182617    -0.57090607  -130.40996840    -0.00000000     0.00000000  0.49D-15  0.31D-15  6  6    19.10     1.09
  19      1.14182618    -0.57090607  -130.40996840     0.00000000    -0.00000000  0.62D-16  0.43D-16  6  1    20.08     1.09
  20      1.14182618    -0.57090607  -130.40996840     0.00000000    -0.00000000  0.26D-17  0.95D-17  6  3    21.08     1.09
  21      1.14182618    -0.57090607  -130.40996840     0.00000000    -0.00000000  0.14D-17  0.24D-17  6  2    22.09     1.09
  22      1.14182618    -0.57090607  -130.40996840     0.00000000    -0.00000000  0.28D-18  0.87D-18  6  4    23.12     1.09
  23      1.14182618    -0.57090607  -130.40996840    -0.00000000     0.00000000  0.15D-18  0.13D-18  6  5    24.08     1.09
  24      1.14182618    -0.57090607  -130.40996840     0.00000000    -0.00000000  0.60D-20  0.16D-19  6  1    25.05     1.09
  25      1.14182618    -0.57090607  -130.40996840     0.00000000     0.00000000  0.36D-21  0.16D-20  6  6    26.01     1.09
  26      1.14182618    -0.57090607  -130.40996840    -0.00000000     0.00000000  0.13D-21  0.37D-21  6  3    26.98     1.09

 Norm of t1 vector:      0.07872502      S-energy:     0.00000000      T1 diagnostic:  0.01391675
                                                                       D1 diagnostic:  0.04477363

 Doubles amplitudes (print threshold =  0.500E-01):

         I         J         SYM. A    SYM. B    A         B      T(IJ, AB)

         8         8         2         2         1         1     -0.13593772


 Total CPU time for triples:     18.75 sec


 RESULTS
 =======

  Reference energy                   -129.839062330937

  Correlated core orbitals:             1.1       2.1
  Orbital energies:                   -20.6519  -15.7113
 
  CCSD core-core energy                -0.079236337862
  CCSD core-valence energy             -0.036044075835
  CCSD valence correlation energy      -0.455625658818
 
  CCSD singlet pair energy             -0.408392749308
  CCSD triplet pair energy             -0.162513323208
  CCSD correlation energy              -0.570906072516

  Triples (T) contribution             -0.022449377340
  Total correlation energy             -0.593355449856

  CCSD total energy                  -130.409968403453
  CCSD[T] energy                     -130.433616320994
  CCSD-T energy                      -130.431970294201
 !CCSD(T) total energy               -130.432417780793

 Timing summary (sec):

 STEP                 CPU(USER)    SYS     CPU(TOT)    WALL
 Transformation          0.93      0.16      1.09      2.79
 CCSD iterations        26.06      2.24     28.30     28.30
 Triples                18.75      0.61     19.36     19.36

 Program statistics:

 Available memory in ccsd:               994999644
 Min. memory needed in ccsd:               1368037
 Max. memory used in ccsd:                 1750502
 Max. memory used in cckext:               2014357 (26 integral passes)



 **********************************************************************************************************************************
 DATASETS  * FILE   NREC   LENGTH (MB)   RECORD NAMES
              1      20      500.03       500      610      700      900      950      970     1000      129      960     1100   
                                          VAR    BASINP    GEOM    SYMINP    ZMAT    AOBASIS   BASIS     P2S    ABASIS      S 
                                         1400     1410     1200     1210     1080     1600     1650     1300     1700     1380   
                                           T        V       H0       H01     AOSYM     SMH    MOLCAS    ERIS     OPER     JKOP   

              2       4        3.13       700     1000      520     2100   
                                         GEOM     BASIS   MCVARS     RHF  

 PROGRAMS   *        TOTAL   CCSD(T)        HF       INT
 CPU TIMES  *        55.56     45.77      5.52      4.15
 REAL TIME  *        64.22 SEC
 DISK USED  *         1.33 GB      
 **********************************************************************************************************************************

 CCSD(T)/USERDEF energy=   -130.432417780793

        CCSD(T)         HF-SCF  
   -130.43241778   -129.83906233
 **********************************************************************************************************************************
 Molpro calculation terminated
 Variable memory released
