
 Primary working directories    : /tmp/r2666/282363.maple
 Secondary working directories  : /tmp/r2666/282363.maple
 Wavefunction directory         : /ddn/home4/r2666/wfu/
 Main file repository           : /tmp/r2666/282363.maple/

 SHA1      : d5ffa45e93fdbca01ffc919aa182cfdae0147319
 NAME      : 2015.1.35
 ARCHNAME  : linux/x86_64
 FC        : /opt/intel/composer_xe_2015.1.133/bin/intel64/ifort
 BLASLIB   : -Wl,-_start-group /opt/intel/mkl/lib/intel64/libmkl_intel_ilp64.a /opt/intel/mkl/lib/intel64/libmkl_intel_thread.a /opt/intel/mkl/lib/intel64/libmkl_core.a -Wl,-_end-group
 id        : olemiss

 Nodes     nprocs
 cn045        1

 Using customized tuning parameters: mindgm=1; mindgv=20; mindgc=4; mindgr=1; noblas=0; minvec=7
 default implementation of scratch files=df  

 ***,hno CCSD(T)/TZ-F12 QFF
 memory, 995, m;
 gthresh,energy=1.d-12,zero=1.d-22,oneint=1.d-22,twoint=1.d-22;
 gthresh,optgrad=1.d-8,optstep=1.d-8;
 nocompress;
 geomtyp=xyz
 bohr
 geometry={
 3
          2         2
 H        0.0000000000        1.6486310147       -1.9148537920
 N        0.0000000000       -0.1476183441       -1.1552424332
 O        0.0000000000        0.0407551195        1.1195066342
 }
 
 basis={
 default=aug-cc-pvtz
 s,C,8236.0,1235.0,280.8, 79.27,25.59, 8.997,3.319
 s,C,0.9059,0.3643,0.1285000
 p,C,56.0,18.71,4.133,0.2827,0.3827,0.1209
 d,C,30.0,10.0,3.3,1.097,0.318
 f,C,7.0,2.3,0.7610
 s,N,11420.0,1712.0,389.3,110.0,35.57,12.54,4.644
 s,N,1.293,0.5118,0.1787
 p,N,79.89,26.63,5.948,1.742,0.555,0.1725
 d,N,45.0,15.0,5.0,1.654,0.469
 f,N,9.9,3.3,1.093
 s,O,15330.0,2299.0,522.4,147.3,47.55,16.76,6.207
 s,O,1.752,0.6882,0.2384
 p,O,103.5,34.46,7.749,2.28,0.7156,0.214
 d,O,63.0,21.0,7.0,2.314,0.645
 f,O,12.9,4.3,1.428
 s,mg,164900.0,24710.0,5628.0,1596.0,521.0;
 s,mg,188.0,73.01,29.90,12.54,4.306,1.826;
 s,mg,0.7417,0.0761,0.145,0.033,0.0129;
 p,mg,950.70,316.90,74.86,23.72,8.669,3.363;
 p,mg,1.310,0.4911,0.2364,0.08733,0.03237,0.00745;
 d,mg,1.601,0.686,0.126,0.294,0.0468;
 f,mg,1.372,0.588,0.094,0.252;
 }
   {hf,maxit=500;accu,20;}
 {ccsd(t),nocheck,maxit=250;orbital,IGNORE_ERROR;core}

 Variables initialized (889), CPU time= 0.00 sec
 Commands  initialized (702), CPU time= 0.01 sec, 572 directives.
 Default parameters read. Elapsed time= 0.05 sec

 Checking input...
 Passed
1


                                         ***  PROGRAM SYSTEM MOLPRO  ***
                                       Copyright, TTI GmbH Stuttgart, 2015
                                    Version 2015.1 linked Jul  9 2018 13:16:40


 **********************************************************************************************************************************
 LABEL *   hno CCSD(T)/TZ-F12 QFF                                                        
  64 bit serial version                                                                  DATE: 04-Mar-20          TIME: 13:48:34  
 **********************************************************************************************************************************

 SHA1:             d5ffa45e93fdbca01ffc919aa182cfdae0147319
 **********************************************************************************************************************************

 THRESHOLDS:

 ZERO    =  1.00D-22  ONEINT  =  1.00D-22  TWOINT  =  1.00D-22  PREFAC  =  1.00D-14  LOCALI  =  1.00D-09  EORDER  =  1.00D-04
 ENERGY  =  1.00D-12  ETEST   =  0.00D+00  EDENS   =  0.00D+00  THRDEDEF=  1.00D-06  GRADIENT=  1.00D-02  STEP    =  1.00D-03
 ORBITAL =  1.00D-05  CIVEC   =  1.00D-05  COEFF   =  1.00D-04  PRINTCI =  5.00D-02  PUNCHCI =  9.90D+01  OPTGRAD =  3.00D-04
 OPTENERG=  1.00D-06  OPTSTEP =  3.00D-04  THRGRAD =  1.00D-10  COMPRESS=  1.00D-11  VARMIN  =  1.00D-07  VARMAX  =  1.00D-03
 THRDOUB =  0.00D+00  THRDIV  =  1.00D-05  THRRED  =  1.00D-07  THRPSP  =  1.00D+00  THRDC   =  1.00D-10  THRCS   =  1.00D-10
 THRNRM  =  1.00D-08  THREQ   =  0.00D+00  THRDE   =  1.00D+00  THRREF  =  1.00D-05  SPARFAC =  1.00D+00  THRDLP  =  1.00D-07
 THRDIA  =  1.00D-10  THRDLS  =  1.00D-07  THRGPS  =  0.00D+00  THRKEX  =  0.00D+00  THRDIS  =  2.00D-01  THRVAR  =  1.00D-10
 THRLOC  =  1.00D-06  THRGAP  =  1.00D-06  THRLOCT = -1.00D+00  THRGAPT = -1.00D+00  THRORB  =  1.00D-06  THRMLTP =  0.00D+00
 THRCPQCI=  1.00D-10  KEXTA   =  0.00D+00  THRCOARS=  0.00D+00  SYMTOL  =  1.00D-06  GRADTOL =  1.00D-06  THROVL  =  1.00D-08
 THRORTH =  1.00D-08  GRID    =  1.00D-06  GRIDMAX =  1.00D-03  DTMAX   =  0.00D+00  THROCCDE=  1.00D-01  THROCCDE=  1.00D-01



 THRESHOLDS:

 ZERO    =  1.00D-22  ONEINT  =  1.00D-22  TWOINT  =  1.00D-22  PREFAC  =  1.00D-14  LOCALI  =  1.00D-09  EORDER  =  1.00D-04
 ENERGY  =  1.00D-12  ETEST   =  0.00D+00  EDENS   =  0.00D+00  THRDEDEF=  1.00D-06  GRADIENT=  1.00D-02  STEP    =  1.00D-03
 ORBITAL =  1.00D-05  CIVEC   =  1.00D-05  COEFF   =  1.00D-04  PRINTCI =  5.00D-02  PUNCHCI =  9.90D+01  OPTGRAD =  1.00D-08
 OPTENERG=  1.00D-06  OPTSTEP =  1.00D-08  THRGRAD =  1.00D-10  COMPRESS=  1.00D-11  VARMIN  =  1.00D-07  VARMAX  =  1.00D-03
 THRDOUB =  0.00D+00  THRDIV  =  1.00D-05  THRRED  =  1.00D-07  THRPSP  =  1.00D+00  THRDC   =  1.00D-10  THRCS   =  1.00D-10
 THRNRM  =  1.00D-08  THREQ   =  0.00D+00  THRDE   =  1.00D+00  THRREF  =  1.00D-05  SPARFAC =  1.00D+00  THRDLP  =  1.00D-07
 THRDIA  =  1.00D-10  THRDLS  =  1.00D-07  THRGPS  =  0.00D+00  THRKEX  =  0.00D+00  THRDIS  =  2.00D-01  THRVAR  =  1.00D-10
 THRLOC  =  1.00D-06  THRGAP  =  1.00D-06  THRLOCT = -1.00D+00  THRGAPT = -1.00D+00  THRORB  =  1.00D-06  THRMLTP =  0.00D+00
 THRCPQCI=  1.00D-10  KEXTA   =  0.00D+00  THRCOARS=  0.00D+00  SYMTOL  =  1.00D-06  GRADTOL =  1.00D-06  THROVL  =  1.00D-08
 THRORTH =  1.00D-08  GRID    =  1.00D-06  GRIDMAX =  1.00D-03  DTMAX   =  0.00D+00  THROCCDE=  1.00D-01  THROCCDE=  1.00D-01



 Input parameters for SORTINT:

 COMPRESS =    0.000000
 C_FINAL  =    1.000000
 DEBUG    =   -1.000000
 C_SORT1  =    0.000000
 C_SEWARD =    0.000000
 THRESH   =    0.000000
 IO       =  molpro                                                          
 SPRI     =    0.000000
 SETTING GEOMTYP        =    XYZ
 ZUNIT=BOHR
 

 Variable memory set to  995000000 words,  buffer space   230000 words

 SETTING BASIS          =    USERDEF


 Recomputing integrals since basis changed


 Using spherical harmonics

 Library entry H      S aug-cc-pVTZ          selected for orbital group  1
 Library entry H      P aug-cc-pVTZ          selected for orbital group  1
 Library entry H      D aug-cc-pVTZ          selected for orbital group  1


 PROGRAM * SEWARD (Integral evaluation for generally contracted gaussian basis sets)     Author: Roland Lindh, 1990

 Geometry written to block  1 of record 700


 Point group  Cs  



 ATOMIC COORDINATES

 NR  ATOM    CHARGE       X              Y              Z

   1  H       1.00    0.000000000    1.648631015   -1.914853792
   2  N       7.00    0.000000000   -0.147618344   -1.155242433
   3  O       8.00    0.000000000    0.040755119    1.119506634

 Bond lengths in Bohr (Angstrom)

 1-2  1.950261822  2-3  2.282535406
     ( 1.032034112)     ( 1.207865720)

 Bond angles

  1-2-3  108.18899349

 NUCLEAR CHARGE:                   16
 NUMBER OF PRIMITIVE AOS:         203
 NUMBER OF SYMMETRY AOS:          173
 NUMBER OF CONTRACTIONS:          171   ( 114A'  +  57A"  )
 NUMBER OF CORE ORBITALS:           2   (   2A'  +   0A"  )
 NUMBER OF VALENCE ORBITALS:        9   (   7A'  +   2A"  )


 NUCLEAR REPULSION ENERGY   30.45300256


 Eigenvalues of metric

         1 0.100E-02 0.248E-02 0.325E-02 0.621E-02 0.920E-02 0.135E-01 0.144E-01 0.222E-01
         2 0.340E-01 0.529E-01 0.685E-01 0.940E-01 0.131E+00 0.134E+00 0.138E+00 0.142E+00


 Contracted 2-electron integrals neglected if value below      1.0D-22

       46151691. INTEGRALS WRITTEN OUT IN   11271 BLOCKS ON RECORD 1290 OF FILE 1


 NUMBER OF SORTED TWO-ELECTRON INTEGRALS:   55360566.     BUFFER LENGTH:  32768
 NUMBER OF SEGMENTS:   4  SEGMENT LENGTH:   15997996      RECORD LENGTH: 524288

 Memory used in sort:      16.56 MW

 SORT1 READ    46151691. AND WROTE    46589177. INTEGRALS IN    136 RECORDS. CPU TIME:     1.30 SEC, REAL TIME:     1.69 SEC
 SORT2 READ    46589177. AND WROTE    55360566. INTEGRALS IN      4 RECORDS. CPU TIME:     0.79 SEC, REAL TIME:     1.04 SEC

 FILE SIZES:   FILE 1:   759.4 MBYTE,  FILE 4:   570.5 MBYTE,   TOTAL:   1329.8 MBYTE

 OPERATOR DM      FOR CENTER  0  COORDINATES:    0.000000    0.000000    0.000000


 **********************************************************************************************************************************
 DATASETS  * FILE   NREC   LENGTH (MB)   RECORD NAMES
              1      19      421.29       500      610      700      900      950      970     1000      129      960     1100   
                                          VAR    BASINP    GEOM    SYMINP    ZMAT    AOBASIS   BASIS     P2S    ABASIS      S 
                                         1400     1410     1200     1210     1080     1600     1650     1300     1700   
                                           T        V       H0       H01     AOSYM     SMH    MOLCAS    ERIS     OPER   

 PROGRAMS   *        TOTAL       INT
 CPU TIMES  *         5.76      5.68
 REAL TIME  *         7.40 SEC
 DISK USED  *         1.33 GB      
 **********************************************************************************************************************************


 PROGRAM * RHF-SCF (CLOSED SHELL)       Authors: W. Meyer, H.-J. Werner


 NUMBER OF ELECTRONS:       8+    8-
 CONVERGENCE THRESHOLDS:    1.00E-10 (Density)    1.00E-13 (Energy)
 MAX. NUMBER OF ITERATIONS:      500
 INTERPOLATION TYPE:            DIIS
 INTERPOLATION STEPS:              2 (START)      1 (STEP)
 LEVEL SHIFTS:                  0.00 (CLOSED)  0.00 (OPEN) 



 Orbital guess generated from atomic densities. Full valence occupancy:    9   2

 Molecular orbital dump at record        2100.2

 Initial occupancy:   7   1

 ITERATION    DDIFF          GRAD             ENERGY        2-EL.EN.            DIPOLE MOMENTS         DIIS   ORB.
    1      0.000D+00      0.000D+00      -129.79070404    154.224508    0.00000    0.58225   -1.01009    0    start
    2      0.000D+00      0.870D-02      -129.81762946    155.377328    0.00000    0.59937   -0.20452    1    diag
    3      0.368D-02      0.655D-02      -129.83947132    155.502733    0.00000    0.55333   -0.58541    2    diag
    4      0.139D-02      0.104D-02      -129.84025143    155.230907    0.00000    0.56154   -0.52298    3    diag
    5      0.334D-03      0.334D-03      -129.84036809    155.317365    0.00000    0.56728   -0.52529    4    diag
    6      0.153D-03      0.969D-04      -129.84038686    155.301550    0.00000    0.56785   -0.52123    5    diag
    7      0.602D-04      0.488D-04      -129.84039244    155.303979    0.00000    0.56912   -0.51872    6    diag
    8      0.409D-04      0.166D-04      -129.84039304    155.303169    0.00000    0.56917   -0.51781    7    diag
    9      0.141D-04      0.307D-05      -129.84039306    155.303064    0.00000    0.56912   -0.51763    8    diag
   10      0.287D-05      0.701D-06      -129.84039306    155.303053    0.00000    0.56908   -0.51761    9    orth
   11      0.869D-06      0.139D-06      -129.84039306    155.303049    0.00000    0.56908   -0.51761    9    diag
   12      0.202D-06      0.286D-07      -129.84039306    155.303049    0.00000    0.56907   -0.51760    9    diag
   13      0.482D-07      0.750D-08      -129.84039306    155.303048    0.00000    0.56907   -0.51760    9    diag
   14      0.108D-07      0.132D-08      -129.84039306    155.303048    0.00000    0.56907   -0.51760    9    diag
   15      0.136D-08      0.351D-09      -129.84039306    155.303048    0.00000    0.56907   -0.51760    9    diag
   16      0.309D-09      0.102D-09      -129.84039306    155.303048    0.00000    0.56907   -0.51760    9    diag
   17      0.659D-10      0.266D-10      -129.84039306    155.303048    0.00000    0.56907   -0.51760    9    diag
   18      0.193D-10      0.867D-11      -129.84039306    155.303048    0.00000    0.56907   -0.51760    9    diag
   19      0.762D-11      0.205D-11      -129.84039306    155.303048    0.00000    0.56907   -0.51760    9    fixocc
   20      0.178D-11      0.529D-12      -129.84039306    155.303048    0.00000    0.56907   -0.51760    9    orth
   21      0.370D-12      0.465D-12      -129.84039306    155.303048    0.00000    0.56907   -0.51760    9    diag
   22      0.869D-13      0.434D-12      -129.84039306    155.303048    0.00000    0.56907   -0.51760    9    diag
   23      0.832D-13      0.422D-12      -129.84039306    155.303048    0.00000    0.56907   -0.51760    0    orth

 Final occupancy:   7   1

 !RHF STATE 1.1 Energy               -129.840393063405
 Nuclear energy                        30.45300256
 One-electron energy                 -237.94491979
 Two-electron energy                   77.65152417
 Virial quotient                       -1.00138392
 !RHF STATE 1.1 Dipole moment           0.00000000     0.56907459    -0.51760416
 Dipole moment /Debye                   0.00000000     1.44634859    -1.31553239

 Orbital energies:

         1.1          2.1          3.1          4.1          5.1          6.1          7.1          8.1          9.1
    -20.650919   -15.707887    -1.528415    -0.998106    -0.747420    -0.664287    -0.429912     0.039826     0.194561

         1.2          2.2          3.2
     -0.593988     0.079064     0.239696

 HOMO      7.1    -0.429912 =     -11.6985eV
 LUMO      8.1     0.039826 =       1.0837eV
 LUMO-HOMO         0.469737 =      12.7822eV


 **********************************************************************************************************************************
 DATASETS  * FILE   NREC   LENGTH (MB)   RECORD NAMES
              1      19      421.29       500      610      700      900      950      970     1000      129      960     1100   
                                          VAR    BASINP    GEOM    SYMINP    ZMAT    AOBASIS   BASIS     P2S    ABASIS      S 
                                         1400     1410     1200     1210     1080     1600     1650     1300     1700   
                                           T        V       H0       H01     AOSYM     SMH    MOLCAS    ERIS     OPER   

              2       4        3.13       700     1000      520     2100   
                                         GEOM     BASIS   MCVARS     RHF  

 PROGRAMS   *        TOTAL        HF       INT
 CPU TIMES  *        12.57      6.81      5.68
 REAL TIME  *        16.05 SEC
 DISK USED  *         1.33 GB      
 **********************************************************************************************************************************


 PROGRAM * CCSD (Closed-shell coupled cluster)     Authors: C. Hampel, H.-J. Werner, 1991, M. Deegan, P.J. Knowles, 1992


 Convergence thresholds:  THRVAR = 1.00D-08  THRDEN = 1.00D-12

 CCSD(T)     terms to be evaluated (factor= 1.000)


 Number of closed-shell orbitals:   8 (   7   1 )
 Number of external orbitals:     163 ( 107  56 )

 Molecular orbitals read from record     2100.2  Type=RHF/CANONICAL (state 1.1)

 Number of N-1 electron functions:               8
 Number of N-2 electron functions:              36
 Number of singly external CSFs:               805
 Number of doubly external CSFs:            449165
 Total number of CSFs:                      449971

 Length of J-op  integral file:               0.00 MB
 Length of K-op  integral file:               1.15 MB
 Length of 3-ext integral record:             0.00 MB

 Memory could be reduced to 24.90 Mwords without degradation in triples

 Integral transformation finished. Total CPU:   1.07 sec, npass=  1  Memory used:   6.89 MW

 Reference energy:                   -129.84039306

 MP2 singlet pair energy:              -0.37848880
 MP2 triplet pair energy:              -0.18639629
 MP2 correlation energy:               -0.56488509
 MP2 total energy:                   -130.40527815

 SCS-MP2 correlation energy:           -0.57016647   (PS=  1.200000  PT=  0.333333)
 SCS-MP2 total energy:               -130.41055953

 ITER.      SQ.NORM     CORR.ENERGY   TOTAL ENERGY   ENERGY CHANGE        DEN1      VAR(S)    VAR(P)  DIIS     TIME  TIME/IT
   1      1.11909856    -0.56966438  -130.41005745    -0.00477930     0.01274207  0.33D-02  0.31D-02  1  1     2.29     1.29
   2      1.12984025    -0.56938111  -130.40977417     0.00028328    -0.01359148  0.89D-04  0.49D-03  2  2     3.53     1.33
   3      1.13499045    -0.56969523  -130.41008830    -0.00031413    -0.00232518  0.53D-04  0.67D-04  3  3     4.82     1.35
   4      1.13837368    -0.56968898  -130.41008205     0.00000625    -0.00136723  0.42D-05  0.96D-05  4  4     6.09     1.36
   5      1.13939473    -0.56971258  -130.41010564    -0.00002359    -0.00023895  0.14D-05  0.19D-05  5  5     7.34     1.36
   6      1.13979080    -0.56970677  -130.41009983     0.00000581    -0.00003794  0.12D-06  0.43D-06  6  6     8.60     1.37
   7      1.13987158    -0.56970727  -130.41010033    -0.00000050     0.00000062  0.15D-07  0.97D-07  6  1     9.87     1.37
   8      1.13990442    -0.56970561  -130.41009867     0.00000166    -0.00000460  0.42D-08  0.13D-07  6  2    11.15     1.37
   9      1.13990866    -0.56970577  -130.41009883    -0.00000016     0.00000113  0.17D-08  0.17D-08  6  3    12.39     1.37
  10      1.13991012    -0.56970606  -130.41009913    -0.00000030    -0.00000059  0.41D-09  0.24D-09  6  4    13.68     1.38
  11      1.13990916    -0.56970620  -130.41009926    -0.00000014     0.00000033  0.96D-10  0.24D-10  6  5    14.92     1.38
  12      1.13990834    -0.56970633  -130.41009939    -0.00000013     0.00000032  0.94D-11  0.60D-11  6  6    16.19     1.38
  13      1.13990786    -0.56970634  -130.41009940    -0.00000001     0.00000010  0.38D-11  0.11D-11  6  1    17.44     1.38
  14      1.13990746    -0.56970636  -130.41009942    -0.00000002     0.00000010  0.40D-12  0.36D-12  6  3    18.70     1.38
  15      1.13990730    -0.56970636  -130.41009942    -0.00000000     0.00000002  0.94D-13  0.26D-13  6  2    19.95     1.38
  16      1.13990725    -0.56970636  -130.41009943    -0.00000000     0.00000001  0.21D-13  0.55D-14  6  4    21.22     1.38
  17      1.13990723    -0.56970636  -130.41009943    -0.00000000     0.00000001  0.39D-14  0.10D-14  6  5    22.49     1.38
  18      1.13990722    -0.56970636  -130.41009943    -0.00000000     0.00000000  0.42D-15  0.26D-15  6  6    23.75     1.38
  19      1.13990723    -0.56970636  -130.41009943     0.00000000    -0.00000000  0.50D-16  0.37D-16  6  1    25.03     1.38
  20      1.13990723    -0.56970636  -130.41009943     0.00000000    -0.00000000  0.20D-17  0.80D-17  6  3    26.28     1.38
  21      1.13990723    -0.56970636  -130.41009943     0.00000000    -0.00000000  0.11D-17  0.20D-17  6  2    27.54     1.38
  22      1.13990723    -0.56970636  -130.41009943     0.00000000    -0.00000000  0.28D-18  0.69D-18  6  4    28.79     1.38
  23      1.13990723    -0.56970636  -130.41009943    -0.00000000     0.00000000  0.13D-18  0.99D-19  6  5    30.05     1.38
  24      1.13990723    -0.56970636  -130.41009943     0.00000000    -0.00000000  0.46D-20  0.13D-19  6  1    31.34     1.38
  25      1.13990723    -0.56970636  -130.41009943     0.00000000     0.00000000  0.33D-21  0.13D-20  6  6    32.61     1.38
  26      1.13990723    -0.56970636  -130.41009943    -0.00000000     0.00000000  0.14D-21  0.18D-21  6  1    33.90     1.38

 Norm of t1 vector:      0.07678446      S-energy:     0.00000000      T1 diagnostic:  0.01357370
                                                                       D1 diagnostic:  0.04399364

 Doubles amplitudes (print threshold =  0.500E-01):

         I         J         SYM. A    SYM. B    A         B      T(IJ, AB)

         8         8         2         2         1         1     -0.13475608


 Total CPU time for triples:     15.94 sec


 RESULTS
 =======

  Reference energy                   -129.840393063405

  Correlated core orbitals:             1.1       2.1
  Orbital energies:                   -20.6509  -15.7079
 
  CCSD core-core energy                -0.079229694649
  CCSD core-valence energy             -0.036119134906
  CCSD valence correlation energy      -0.454357534834
 
  CCSD singlet pair energy             -0.407305346533
  CCSD triplet pair energy             -0.162401017855
  CCSD correlation energy              -0.569706364388

  Triples (T) contribution             -0.022148564107
  Total correlation energy             -0.591854928496

  CCSD total energy                  -130.410099427793
  CCSD[T] energy                     -130.433397990519
  CCSD-T energy                      -130.431815578909
 !CCSD(T) total energy               -130.432247991901

 Timing summary (sec):

 STEP                 CPU(USER)    SYS     CPU(TOT)    WALL
 Transformation          1.09      0.22      1.31      1.32
 CCSD iterations        32.81      3.14     35.95     35.96
 Triples                15.94      0.56     16.50     16.49

 Program statistics:

 Available memory in ccsd:               994999644
 Min. memory needed in ccsd:               1368037
 Max. memory used in ccsd:                 1750502
 Max. memory used in cckext:               2014357 (26 integral passes)



 **********************************************************************************************************************************
 DATASETS  * FILE   NREC   LENGTH (MB)   RECORD NAMES
              1      20      500.20       500      610      700      900      950      970     1000      129      960     1100   
                                          VAR    BASINP    GEOM    SYMINP    ZMAT    AOBASIS   BASIS     P2S    ABASIS      S 
                                         1400     1410     1200     1210     1080     1600     1650     1300     1700     1380   
                                           T        V       H0       H01     AOSYM     SMH    MOLCAS    ERIS     OPER     JKOP   

              2       4        3.13       700     1000      520     2100   
                                         GEOM     BASIS   MCVARS     RHF  

 PROGRAMS   *        TOTAL   CCSD(T)        HF       INT
 CPU TIMES  *        62.43     49.86      6.81      5.68
 REAL TIME  *        69.86 SEC
 DISK USED  *         1.33 GB      
 **********************************************************************************************************************************

 CCSD(T)/USERDEF energy=   -130.432247991901

        CCSD(T)         HF-SCF  
   -130.43224799   -129.84039306
 **********************************************************************************************************************************
 Molpro calculation terminated
 Variable memory released
