
 Primary working directories    : /tmp/r2666/282364.maple
 Secondary working directories  : /tmp/r2666/282364.maple
 Wavefunction directory         : /ddn/home4/r2666/wfu/
 Main file repository           : /tmp/r2666/282364.maple/

 SHA1      : d5ffa45e93fdbca01ffc919aa182cfdae0147319
 NAME      : 2015.1.35
 ARCHNAME  : linux/x86_64
 FC        : /opt/intel/composer_xe_2015.1.133/bin/intel64/ifort
 BLASLIB   : -Wl,-_start-group /opt/intel/mkl/lib/intel64/libmkl_intel_ilp64.a /opt/intel/mkl/lib/intel64/libmkl_intel_thread.a /opt/intel/mkl/lib/intel64/libmkl_core.a -Wl,-_end-group
 id        : olemiss

 Nodes     nprocs
 cn095        1

 Using customized tuning parameters: mindgm=1; mindgv=20; mindgc=4; mindgr=1; noblas=0; minvec=7
 default implementation of scratch files=df  

 ***,hno CCSD(T)/TZ-F12 QFF
 memory, 995, m;
 gthresh,energy=1.d-12,zero=1.d-22,oneint=1.d-22,twoint=1.d-22;
 gthresh,optgrad=1.d-8,optstep=1.d-8;
 nocompress;
 geomtyp=xyz
 bohr
 geometry={
 3
          3         3
 H        0.0000000000        1.6523820087       -1.9162499726
 N        0.0000000000       -0.1511726387       -1.1496629322
 O        0.0000000000        0.0405584200        1.1153233138
 }
 
 basis={
 default=aug-cc-pvtz
 s,C,8236.0,1235.0,280.8, 79.27,25.59, 8.997,3.319
 s,C,0.9059,0.3643,0.1285000
 p,C,56.0,18.71,4.133,0.2827,0.3827,0.1209
 d,C,30.0,10.0,3.3,1.097,0.318
 f,C,7.0,2.3,0.7610
 s,N,11420.0,1712.0,389.3,110.0,35.57,12.54,4.644
 s,N,1.293,0.5118,0.1787
 p,N,79.89,26.63,5.948,1.742,0.555,0.1725
 d,N,45.0,15.0,5.0,1.654,0.469
 f,N,9.9,3.3,1.093
 s,O,15330.0,2299.0,522.4,147.3,47.55,16.76,6.207
 s,O,1.752,0.6882,0.2384
 p,O,103.5,34.46,7.749,2.28,0.7156,0.214
 d,O,63.0,21.0,7.0,2.314,0.645
 f,O,12.9,4.3,1.428
 s,mg,164900.0,24710.0,5628.0,1596.0,521.0;
 s,mg,188.0,73.01,29.90,12.54,4.306,1.826;
 s,mg,0.7417,0.0761,0.145,0.033,0.0129;
 p,mg,950.70,316.90,74.86,23.72,8.669,3.363;
 p,mg,1.310,0.4911,0.2364,0.08733,0.03237,0.00745;
 d,mg,1.601,0.686,0.126,0.294,0.0468;
 f,mg,1.372,0.588,0.094,0.252;
 }
   {hf,maxit=500;accu,20;}
 {ccsd(t),nocheck,maxit=250;orbital,IGNORE_ERROR;core}

 Variables initialized (889), CPU time= 0.01 sec
 Commands  initialized (702), CPU time= 0.01 sec, 572 directives.
 Default parameters read. Elapsed time= 0.04 sec

 Checking input...
 Passed
1


                                         ***  PROGRAM SYSTEM MOLPRO  ***
                                       Copyright, TTI GmbH Stuttgart, 2015
                                    Version 2015.1 linked Jul  9 2018 13:16:40


 **********************************************************************************************************************************
 LABEL *   hno CCSD(T)/TZ-F12 QFF                                                        
  64 bit serial version                                                                  DATE: 04-Mar-20          TIME: 13:48:34  
 **********************************************************************************************************************************

 SHA1:             d5ffa45e93fdbca01ffc919aa182cfdae0147319
 **********************************************************************************************************************************

 THRESHOLDS:

 ZERO    =  1.00D-22  ONEINT  =  1.00D-22  TWOINT  =  1.00D-22  PREFAC  =  1.00D-14  LOCALI  =  1.00D-09  EORDER  =  1.00D-04
 ENERGY  =  1.00D-12  ETEST   =  0.00D+00  EDENS   =  0.00D+00  THRDEDEF=  1.00D-06  GRADIENT=  1.00D-02  STEP    =  1.00D-03
 ORBITAL =  1.00D-05  CIVEC   =  1.00D-05  COEFF   =  1.00D-04  PRINTCI =  5.00D-02  PUNCHCI =  9.90D+01  OPTGRAD =  3.00D-04
 OPTENERG=  1.00D-06  OPTSTEP =  3.00D-04  THRGRAD =  1.00D-10  COMPRESS=  1.00D-11  VARMIN  =  1.00D-07  VARMAX  =  1.00D-03
 THRDOUB =  0.00D+00  THRDIV  =  1.00D-05  THRRED  =  1.00D-07  THRPSP  =  1.00D+00  THRDC   =  1.00D-10  THRCS   =  1.00D-10
 THRNRM  =  1.00D-08  THREQ   =  0.00D+00  THRDE   =  1.00D+00  THRREF  =  1.00D-05  SPARFAC =  1.00D+00  THRDLP  =  1.00D-07
 THRDIA  =  1.00D-10  THRDLS  =  1.00D-07  THRGPS  =  0.00D+00  THRKEX  =  0.00D+00  THRDIS  =  2.00D-01  THRVAR  =  1.00D-10
 THRLOC  =  1.00D-06  THRGAP  =  1.00D-06  THRLOCT = -1.00D+00  THRGAPT = -1.00D+00  THRORB  =  1.00D-06  THRMLTP =  0.00D+00
 THRCPQCI=  1.00D-10  KEXTA   =  0.00D+00  THRCOARS=  0.00D+00  SYMTOL  =  1.00D-06  GRADTOL =  1.00D-06  THROVL  =  1.00D-08
 THRORTH =  1.00D-08  GRID    =  1.00D-06  GRIDMAX =  1.00D-03  DTMAX   =  0.00D+00  THROCCDE=  1.00D-01  THROCCDE=  1.00D-01



 THRESHOLDS:

 ZERO    =  1.00D-22  ONEINT  =  1.00D-22  TWOINT  =  1.00D-22  PREFAC  =  1.00D-14  LOCALI  =  1.00D-09  EORDER  =  1.00D-04
 ENERGY  =  1.00D-12  ETEST   =  0.00D+00  EDENS   =  0.00D+00  THRDEDEF=  1.00D-06  GRADIENT=  1.00D-02  STEP    =  1.00D-03
 ORBITAL =  1.00D-05  CIVEC   =  1.00D-05  COEFF   =  1.00D-04  PRINTCI =  5.00D-02  PUNCHCI =  9.90D+01  OPTGRAD =  1.00D-08
 OPTENERG=  1.00D-06  OPTSTEP =  1.00D-08  THRGRAD =  1.00D-10  COMPRESS=  1.00D-11  VARMIN  =  1.00D-07  VARMAX  =  1.00D-03
 THRDOUB =  0.00D+00  THRDIV  =  1.00D-05  THRRED  =  1.00D-07  THRPSP  =  1.00D+00  THRDC   =  1.00D-10  THRCS   =  1.00D-10
 THRNRM  =  1.00D-08  THREQ   =  0.00D+00  THRDE   =  1.00D+00  THRREF  =  1.00D-05  SPARFAC =  1.00D+00  THRDLP  =  1.00D-07
 THRDIA  =  1.00D-10  THRDLS  =  1.00D-07  THRGPS  =  0.00D+00  THRKEX  =  0.00D+00  THRDIS  =  2.00D-01  THRVAR  =  1.00D-10
 THRLOC  =  1.00D-06  THRGAP  =  1.00D-06  THRLOCT = -1.00D+00  THRGAPT = -1.00D+00  THRORB  =  1.00D-06  THRMLTP =  0.00D+00
 THRCPQCI=  1.00D-10  KEXTA   =  0.00D+00  THRCOARS=  0.00D+00  SYMTOL  =  1.00D-06  GRADTOL =  1.00D-06  THROVL  =  1.00D-08
 THRORTH =  1.00D-08  GRID    =  1.00D-06  GRIDMAX =  1.00D-03  DTMAX   =  0.00D+00  THROCCDE=  1.00D-01  THROCCDE=  1.00D-01



 Input parameters for SORTINT:

 COMPRESS =    0.000000
 C_FINAL  =    1.000000
 DEBUG    =   -1.000000
 C_SORT1  =    0.000000
 C_SEWARD =    0.000000
 THRESH   =    0.000000
 IO       =  molpro                                                          
 SPRI     =    0.000000
 SETTING GEOMTYP        =    XYZ
 ZUNIT=BOHR
 

 Variable memory set to  995000000 words,  buffer space   230000 words

 SETTING BASIS          =    USERDEF


 Recomputing integrals since basis changed


 Using spherical harmonics

 Library entry H      S aug-cc-pVTZ          selected for orbital group  1
 Library entry H      P aug-cc-pVTZ          selected for orbital group  1
 Library entry H      D aug-cc-pVTZ          selected for orbital group  1


 PROGRAM * SEWARD (Integral evaluation for generally contracted gaussian basis sets)     Author: Roland Lindh, 1990

 Geometry written to block  1 of record 700


 Point group  Cs  



 ATOMIC COORDINATES

 NR  ATOM    CHARGE       X              Y              Z

   1  H       1.00    0.000000000    1.652382009   -1.916249973
   2  N       7.00    0.000000000   -0.151172639   -1.149662932
   3  O       8.00    0.000000000    0.040558420    1.115323314

 Bond lengths in Bohr (Angstrom)

 1-2  1.959710452  2-3  2.273086776
     ( 1.037034111)     ( 1.202865721)

 Bond angles

  1-2-3  108.18899349

 NUCLEAR CHARGE:                   16
 NUMBER OF PRIMITIVE AOS:         203
 NUMBER OF SYMMETRY AOS:          173
 NUMBER OF CONTRACTIONS:          171   ( 114A'  +  57A"  )
 NUMBER OF CORE ORBITALS:           2   (   2A'  +   0A"  )
 NUMBER OF VALENCE ORBITALS:        9   (   7A'  +   2A"  )


 NUCLEAR REPULSION ENERGY   30.53809369


 Eigenvalues of metric

         1 0.100E-02 0.244E-02 0.325E-02 0.622E-02 0.936E-02 0.135E-01 0.144E-01 0.223E-01
         2 0.345E-01 0.522E-01 0.685E-01 0.940E-01 0.131E+00 0.134E+00 0.139E+00 0.142E+00


 Contracted 2-electron integrals neglected if value below      1.0D-22

       46186570. INTEGRALS WRITTEN OUT IN   11279 BLOCKS ON RECORD 1290 OF FILE 1


 NUMBER OF SORTED TWO-ELECTRON INTEGRALS:   55360566.     BUFFER LENGTH:  32768
 NUMBER OF SEGMENTS:   4  SEGMENT LENGTH:   15997996      RECORD LENGTH: 524288

 Memory used in sort:      16.56 MW

 SORT1 READ    46186570. AND WROTE    46624473. INTEGRALS IN    136 RECORDS. CPU TIME:     0.81 SEC, REAL TIME:     1.11 SEC
 SORT2 READ    46624473. AND WROTE    55360566. INTEGRALS IN      4 RECORDS. CPU TIME:     0.67 SEC, REAL TIME:     0.93 SEC

 FILE SIZES:   FILE 1:   759.9 MBYTE,  FILE 4:   570.5 MBYTE,   TOTAL:   1330.4 MBYTE

 OPERATOR DM      FOR CENTER  0  COORDINATES:    0.000000    0.000000    0.000000


 **********************************************************************************************************************************
 DATASETS  * FILE   NREC   LENGTH (MB)   RECORD NAMES
              1      19      421.52       500      610      700      900      950      970     1000      129      960     1100   
                                          VAR    BASINP    GEOM    SYMINP    ZMAT    AOBASIS   BASIS     P2S    ABASIS      S 
                                         1400     1410     1200     1210     1080     1600     1650     1300     1700   
                                           T        V       H0       H01     AOSYM     SMH    MOLCAS    ERIS     OPER   

 PROGRAMS   *        TOTAL       INT
 CPU TIMES  *         4.49      4.40
 REAL TIME  *         6.05 SEC
 DISK USED  *         1.33 GB      
 **********************************************************************************************************************************


 PROGRAM * RHF-SCF (CLOSED SHELL)       Authors: W. Meyer, H.-J. Werner


 NUMBER OF ELECTRONS:       8+    8-
 CONVERGENCE THRESHOLDS:    1.00E-10 (Density)    1.00E-13 (Energy)
 MAX. NUMBER OF ITERATIONS:      500
 INTERPOLATION TYPE:            DIIS
 INTERPOLATION STEPS:              2 (START)      1 (STEP)
 LEVEL SHIFTS:                  0.00 (CLOSED)  0.00 (OPEN) 



 Orbital guess generated from atomic densities. Full valence occupancy:    9   2

 Molecular orbital dump at record        2100.2

 Initial occupancy:   7   1

 ITERATION    DDIFF          GRAD             ENERGY        2-EL.EN.            DIPOLE MOMENTS         DIIS   ORB.
    1      0.000D+00      0.000D+00      -129.79174942    154.374463    0.00000    0.57700   -0.99534    0    start
    2      0.000D+00      0.867D-02      -129.81881181    155.541460    0.00000    0.59596   -0.20504    1    diag
    3      0.365D-02      0.647D-02      -129.84009198    155.655110    0.00000    0.54938   -0.57782    2    diag
    4      0.138D-02      0.103D-02      -129.84086199    155.386331    0.00000    0.55768   -0.51631    3    diag
    5      0.331D-03      0.332D-03      -129.84097775    155.472741    0.00000    0.56349   -0.51873    4    diag
    6      0.152D-03      0.967D-04      -129.84099641    155.456922    0.00000    0.56408   -0.51474    5    diag
    7      0.601D-04      0.484D-04      -129.84100186    155.459427    0.00000    0.56538   -0.51230    6    diag
    8      0.407D-04      0.162D-04      -129.84100242    155.458635    0.00000    0.56544   -0.51143    7    diag
    9      0.137D-04      0.299D-05      -129.84100244    155.458533    0.00000    0.56539   -0.51126    8    diag
   10      0.275D-05      0.691D-06      -129.84100244    155.458521    0.00000    0.56535   -0.51123    9    orth
   11      0.851D-06      0.138D-06      -129.84100244    155.458517    0.00000    0.56535   -0.51123    9    diag
   12      0.201D-06      0.281D-07      -129.84100244    155.458516    0.00000    0.56534   -0.51123    9    diag
   13      0.479D-07      0.732D-08      -129.84100244    155.458516    0.00000    0.56534   -0.51123    9    diag
   14      0.107D-07      0.130D-08      -129.84100244    155.458516    0.00000    0.56534   -0.51123    9    diag
   15      0.141D-08      0.352D-09      -129.84100244    155.458516    0.00000    0.56534   -0.51123    9    diag
   16      0.313D-09      0.105D-09      -129.84100244    155.458516    0.00000    0.56534   -0.51123    9    diag
   17      0.749D-10      0.291D-10      -129.84100244    155.458516    0.00000    0.56534   -0.51123    9    diag
   18      0.237D-10      0.962D-11      -129.84100244    155.458516    0.00000    0.56534   -0.51123    9    diag
   19      0.942D-11      0.233D-11      -129.84100244    155.458516    0.00000    0.56534   -0.51123    9    fixocc
   20      0.237D-11      0.522D-12      -129.84100244    155.458516    0.00000    0.56534   -0.51123    0    orth

 Final occupancy:   7   1

 !RHF STATE 1.1 Energy               -129.841002443385
 Nuclear energy                        30.53809369
 One-electron energy                 -238.10835420
 Two-electron energy                   77.72925806
 Virial quotient                       -1.00129546
 !RHF STATE 1.1 Dipole moment           0.00000000     0.56534319    -0.51122643
 Dipole moment /Debye                   0.00000000     1.43686495    -1.29932287

 Orbital energies:

         1.1          2.1          3.1          4.1          5.1          6.1          7.1          8.1          9.1
    -20.650516   -15.707710    -1.532442    -0.995613    -0.748401    -0.665719    -0.428085     0.039872     0.194383

         1.2          2.2          3.2
     -0.596433     0.080843     0.239823

 HOMO      7.1    -0.428085 =     -11.6488eV
 LUMO      8.1     0.039872 =       1.0850eV
 LUMO-HOMO         0.467957 =      12.7338eV


 **********************************************************************************************************************************
 DATASETS  * FILE   NREC   LENGTH (MB)   RECORD NAMES
              1      19      421.52       500      610      700      900      950      970     1000      129      960     1100   
                                          VAR    BASINP    GEOM    SYMINP    ZMAT    AOBASIS   BASIS     P2S    ABASIS      S 
                                         1400     1410     1200     1210     1080     1600     1650     1300     1700   
                                           T        V       H0       H01     AOSYM     SMH    MOLCAS    ERIS     OPER   

              2       4        3.13       700     1000      520     2100   
                                         GEOM     BASIS   MCVARS     RHF  

 PROGRAMS   *        TOTAL        HF       INT
 CPU TIMES  *        10.19      5.69      4.40
 REAL TIME  *        12.88 SEC
 DISK USED  *         1.33 GB      
 **********************************************************************************************************************************


 PROGRAM * CCSD (Closed-shell coupled cluster)     Authors: C. Hampel, H.-J. Werner, 1991, M. Deegan, P.J. Knowles, 1992


 Convergence thresholds:  THRVAR = 1.00D-08  THRDEN = 1.00D-12

 CCSD(T)     terms to be evaluated (factor= 1.000)


 Number of closed-shell orbitals:   8 (   7   1 )
 Number of external orbitals:     163 ( 107  56 )

 Molecular orbitals read from record     2100.2  Type=RHF/CANONICAL (state 1.1)

 Number of N-1 electron functions:               8
 Number of N-2 electron functions:              36
 Number of singly external CSFs:               805
 Number of doubly external CSFs:            449165
 Total number of CSFs:                      449971

 Length of J-op  integral file:               0.00 MB
 Length of K-op  integral file:               1.15 MB
 Length of 3-ext integral record:             0.00 MB

 Memory could be reduced to 24.90 Mwords without degradation in triples

 Integral transformation finished. Total CPU:   1.04 sec, npass=  1  Memory used:   6.89 MW

 Reference energy:                   -129.84100244

 MP2 singlet pair energy:              -0.37809766
 MP2 triplet pair energy:              -0.18614202
 MP2 correlation energy:               -0.56423968
 MP2 total energy:                   -130.40524212

 SCS-MP2 correlation energy:           -0.56953889   (PS=  1.200000  PT=  0.333333)
 SCS-MP2 total energy:               -130.41054133

 ITER.      SQ.NORM     CORR.ENERGY   TOTAL ENERGY   ENERGY CHANGE        DEN1      VAR(S)    VAR(P)  DIIS     TIME  TIME/IT
   1      1.11872749    -0.56919124  -130.41019369    -0.00495156     0.01239251  0.33D-02  0.30D-02  1  1     2.19     1.21
   2      1.12936785    -0.56894817  -130.40995061     0.00024308    -0.01348201  0.87D-04  0.48D-03  2  2     3.37     1.24
   3      1.13446265    -0.56925929  -130.41026173    -0.00031112    -0.00231367  0.52D-04  0.66D-04  3  3     4.53     1.25
   4      1.13779187    -0.56925223  -130.41025467     0.00000706    -0.00135341  0.41D-05  0.94D-05  4  4     5.63     1.23
   5      1.13878906    -0.56927550  -130.41027794    -0.00002327    -0.00023326  0.14D-05  0.18D-05  5  5     6.81     1.23
   6      1.13917777    -0.56926993  -130.41027237     0.00000557    -0.00003710  0.12D-06  0.42D-06  6  6     7.93     1.23
   7      1.13925885    -0.56927033  -130.41027278    -0.00000041     0.00000034  0.16D-07  0.94D-07  6  1     8.98     1.22
   8      1.13929173    -0.56926873  -130.41027117     0.00000161    -0.00000455  0.42D-08  0.13D-07  6  2     9.96     1.20
   9      1.13929611    -0.56926887  -130.41027131    -0.00000015     0.00000104  0.17D-08  0.16D-08  6  3    11.05     1.19
  10      1.13929754    -0.56926917  -130.41027161    -0.00000030    -0.00000056  0.39D-09  0.23D-09  6  4    12.17     1.20
  11      1.13929659    -0.56926930  -130.41027175    -0.00000013     0.00000033  0.93D-10  0.23D-10  6  5    13.33     1.20
  12      1.13929576    -0.56926943  -130.41027187    -0.00000013     0.00000032  0.93D-11  0.59D-11  6  6    14.50     1.21
  13      1.13929527    -0.56926944  -130.41027188    -0.00000001     0.00000010  0.38D-11  0.10D-11  6  1    15.68     1.21
  14      1.13929488    -0.56926946  -130.41027190    -0.00000002     0.00000010  0.41D-12  0.35D-12  6  3    16.85     1.22
  15      1.13929472    -0.56926946  -130.41027190    -0.00000000     0.00000002  0.97D-13  0.25D-13  6  2    17.99     1.22
  16      1.13929467    -0.56926946  -130.41027191    -0.00000000     0.00000001  0.22D-13  0.53D-14  6  4    19.17     1.22
  17      1.13929465    -0.56926946  -130.41027191    -0.00000000     0.00000001  0.38D-14  0.99D-15  6  5    20.36     1.22
  18      1.13929465    -0.56926946  -130.41027191    -0.00000000     0.00000000  0.40D-15  0.25D-15  6  6    21.52     1.23
  19      1.13929465    -0.56926946  -130.41027191     0.00000000    -0.00000000  0.46D-16  0.34D-16  6  1    22.69     1.23
  20      1.13929465    -0.56926946  -130.41027191     0.00000000    -0.00000000  0.19D-17  0.71D-17  6  3    23.89     1.23
  21      1.13929465    -0.56926946  -130.41027191     0.00000000    -0.00000000  0.98D-18  0.17D-17  6  2    25.07     1.24
  22      1.13929465    -0.56926946  -130.41027191     0.00000000    -0.00000000  0.21D-18  0.61D-18  6  4    26.22     1.24
  23      1.13929465    -0.56926946  -130.41027191    -0.00000000     0.00000000  0.11D-18  0.89D-19  6  5    27.29     1.24
  24      1.13929465    -0.56926946  -130.41027191     0.00000000    -0.00000000  0.44D-20  0.11D-19  6  1    28.41     1.24
  25      1.13929465    -0.56926946  -130.41027191     0.00000000     0.00000000  0.27D-21  0.12D-20  6  6    29.54     1.24
  26      1.13929465    -0.56926946  -130.41027191    -0.00000000     0.00000000  0.92D-22  0.28D-21  6  3    30.58     1.24

 Norm of t1 vector:      0.07621046      S-energy:     0.00000000      T1 diagnostic:  0.01347223
                                                                       D1 diagnostic:  0.04337514

 Doubles amplitudes (print threshold =  0.500E-01):

         I         J         SYM. A    SYM. B    A         B      T(IJ, AB)

         8         8         2         2         1         1     -0.13320761


 Total CPU time for triples:     20.41 sec


 RESULTS
 =======

  Reference energy                   -129.841002443385

  Correlated core orbitals:             1.1       2.1
  Orbital energies:                   -20.6505  -15.7077
 
  CCSD core-core energy                -0.079227592603
  CCSD core-valence energy             -0.036140599520
  CCSD valence correlation energy      -0.453901272091
 
  CCSD singlet pair energy             -0.406909106767
  CCSD triplet pair energy             -0.162360357447
  CCSD correlation energy              -0.569269464214

  Triples (T) contribution             -0.022023897521
  Total correlation energy             -0.591293361734

  CCSD total energy                  -130.410271907599
  CCSD[T] energy                     -130.433428532002
  CCSD-T energy                      -130.431867567808
 !CCSD(T) total energy               -130.432295805120

 Timing summary (sec):

 STEP                 CPU(USER)    SYS     CPU(TOT)    WALL
 Transformation          1.05      0.19      1.24      1.25
 CCSD iterations        29.53      2.52     32.05     32.16
 Triples                20.41      0.57     20.98     20.98

 Program statistics:

 Available memory in ccsd:               994999644
 Min. memory needed in ccsd:               1368037
 Max. memory used in ccsd:                 1750502
 Max. memory used in cckext:               2014357 (26 integral passes)



 **********************************************************************************************************************************
 DATASETS  * FILE   NREC   LENGTH (MB)   RECORD NAMES
              1      20      500.44       500      610      700      900      950      970     1000      129      960     1100   
                                          VAR    BASINP    GEOM    SYMINP    ZMAT    AOBASIS   BASIS     P2S    ABASIS      S 
                                         1400     1410     1200     1210     1080     1600     1650     1300     1700     1380   
                                           T        V       H0       H01     AOSYM     SMH    MOLCAS    ERIS     OPER     JKOP   

              2       4        3.13       700     1000      520     2100   
                                         GEOM     BASIS   MCVARS     RHF  

 PROGRAMS   *        TOTAL   CCSD(T)        HF       INT
 CPU TIMES  *        61.21     51.03      5.69      4.40
 REAL TIME  *        67.31 SEC
 DISK USED  *         1.33 GB      
 **********************************************************************************************************************************

 CCSD(T)/USERDEF energy=   -130.432295805120

        CCSD(T)         HF-SCF  
   -130.43229581   -129.84100244
 **********************************************************************************************************************************
 Molpro calculation terminated
 Variable memory released
