
 Primary working directories    : /tmp/r2666/282380.maple
 Secondary working directories  : /tmp/r2666/282380.maple
 Wavefunction directory         : /ddn/home4/r2666/wfu/
 Main file repository           : /tmp/r2666/282380.maple/

 SHA1      : d5ffa45e93fdbca01ffc919aa182cfdae0147319
 NAME      : 2015.1.35
 ARCHNAME  : linux/x86_64
 FC        : /opt/intel/composer_xe_2015.1.133/bin/intel64/ifort
 BLASLIB   : -Wl,-_start-group /opt/intel/mkl/lib/intel64/libmkl_intel_ilp64.a /opt/intel/mkl/lib/intel64/libmkl_intel_thread.a /opt/intel/mkl/lib/intel64/libmkl_core.a -Wl,-_end-group
 id        : olemiss

 Nodes     nprocs
 cn091        1

 Using customized tuning parameters: mindgm=1; mindgv=20; mindgc=4; mindgr=1; noblas=0; minvec=7
 default implementation of scratch files=df  

 ***,hno CCSD(T)/TZ-F12 QFF
 memory, 995, m;
 gthresh,energy=1.d-12,zero=1.d-22,oneint=1.d-22,twoint=1.d-22;
 gthresh,optgrad=1.d-8,optstep=1.d-8;
 nocompress;
 geomtyp=xyz
 bohr
 geometry={
 3
         19        19
 H        0.0000000000        1.6587610590       -1.9277226079
 N        0.0000000000       -0.1518594403       -1.1536160918
 O        0.0000000000        0.0348661713        1.1307491087
 }
 
 basis={
 default=aug-cc-pvtz
 s,C,8236.0,1235.0,280.8, 79.27,25.59, 8.997,3.319
 s,C,0.9059,0.3643,0.1285000
 p,C,56.0,18.71,4.133,0.2827,0.3827,0.1209
 d,C,30.0,10.0,3.3,1.097,0.318
 f,C,7.0,2.3,0.7610
 s,N,11420.0,1712.0,389.3,110.0,35.57,12.54,4.644
 s,N,1.293,0.5118,0.1787
 p,N,79.89,26.63,5.948,1.742,0.555,0.1725
 d,N,45.0,15.0,5.0,1.654,0.469
 f,N,9.9,3.3,1.093
 s,O,15330.0,2299.0,522.4,147.3,47.55,16.76,6.207
 s,O,1.752,0.6882,0.2384
 p,O,103.5,34.46,7.749,2.28,0.7156,0.214
 d,O,63.0,21.0,7.0,2.314,0.645
 f,O,12.9,4.3,1.428
 s,mg,164900.0,24710.0,5628.0,1596.0,521.0;
 s,mg,188.0,73.01,29.90,12.54,4.306,1.826;
 s,mg,0.7417,0.0761,0.145,0.033,0.0129;
 p,mg,950.70,316.90,74.86,23.72,8.669,3.363;
 p,mg,1.310,0.4911,0.2364,0.08733,0.03237,0.00745;
 d,mg,1.601,0.686,0.126,0.294,0.0468;
 f,mg,1.372,0.588,0.094,0.252;
 }
   {hf,maxit=500;accu,20;}
 {ccsd(t),nocheck,maxit=250;orbital,IGNORE_ERROR;core}

 Variables initialized (889), CPU time= 0.00 sec
 Commands  initialized (702), CPU time= 0.01 sec, 572 directives.
 Default parameters read. Elapsed time= 0.08 sec

 Checking input...
 Passed
1


                                         ***  PROGRAM SYSTEM MOLPRO  ***
                                       Copyright, TTI GmbH Stuttgart, 2015
                                    Version 2015.1 linked Jul  9 2018 13:16:40


 **********************************************************************************************************************************
 LABEL *   hno CCSD(T)/TZ-F12 QFF                                                        
  64 bit serial version                                                                  DATE: 04-Mar-20          TIME: 13:48:51  
 **********************************************************************************************************************************

 SHA1:             d5ffa45e93fdbca01ffc919aa182cfdae0147319
 **********************************************************************************************************************************

 THRESHOLDS:

 ZERO    =  1.00D-22  ONEINT  =  1.00D-22  TWOINT  =  1.00D-22  PREFAC  =  1.00D-14  LOCALI  =  1.00D-09  EORDER  =  1.00D-04
 ENERGY  =  1.00D-12  ETEST   =  0.00D+00  EDENS   =  0.00D+00  THRDEDEF=  1.00D-06  GRADIENT=  1.00D-02  STEP    =  1.00D-03
 ORBITAL =  1.00D-05  CIVEC   =  1.00D-05  COEFF   =  1.00D-04  PRINTCI =  5.00D-02  PUNCHCI =  9.90D+01  OPTGRAD =  3.00D-04
 OPTENERG=  1.00D-06  OPTSTEP =  3.00D-04  THRGRAD =  1.00D-10  COMPRESS=  1.00D-11  VARMIN  =  1.00D-07  VARMAX  =  1.00D-03
 THRDOUB =  0.00D+00  THRDIV  =  1.00D-05  THRRED  =  1.00D-07  THRPSP  =  1.00D+00  THRDC   =  1.00D-10  THRCS   =  1.00D-10
 THRNRM  =  1.00D-08  THREQ   =  0.00D+00  THRDE   =  1.00D+00  THRREF  =  1.00D-05  SPARFAC =  1.00D+00  THRDLP  =  1.00D-07
 THRDIA  =  1.00D-10  THRDLS  =  1.00D-07  THRGPS  =  0.00D+00  THRKEX  =  0.00D+00  THRDIS  =  2.00D-01  THRVAR  =  1.00D-10
 THRLOC  =  1.00D-06  THRGAP  =  1.00D-06  THRLOCT = -1.00D+00  THRGAPT = -1.00D+00  THRORB  =  1.00D-06  THRMLTP =  0.00D+00
 THRCPQCI=  1.00D-10  KEXTA   =  0.00D+00  THRCOARS=  0.00D+00  SYMTOL  =  1.00D-06  GRADTOL =  1.00D-06  THROVL  =  1.00D-08
 THRORTH =  1.00D-08  GRID    =  1.00D-06  GRIDMAX =  1.00D-03  DTMAX   =  0.00D+00  THROCCDE=  1.00D-01  THROCCDE=  1.00D-01



 THRESHOLDS:

 ZERO    =  1.00D-22  ONEINT  =  1.00D-22  TWOINT  =  1.00D-22  PREFAC  =  1.00D-14  LOCALI  =  1.00D-09  EORDER  =  1.00D-04
 ENERGY  =  1.00D-12  ETEST   =  0.00D+00  EDENS   =  0.00D+00  THRDEDEF=  1.00D-06  GRADIENT=  1.00D-02  STEP    =  1.00D-03
 ORBITAL =  1.00D-05  CIVEC   =  1.00D-05  COEFF   =  1.00D-04  PRINTCI =  5.00D-02  PUNCHCI =  9.90D+01  OPTGRAD =  1.00D-08
 OPTENERG=  1.00D-06  OPTSTEP =  1.00D-08  THRGRAD =  1.00D-10  COMPRESS=  1.00D-11  VARMIN  =  1.00D-07  VARMAX  =  1.00D-03
 THRDOUB =  0.00D+00  THRDIV  =  1.00D-05  THRRED  =  1.00D-07  THRPSP  =  1.00D+00  THRDC   =  1.00D-10  THRCS   =  1.00D-10
 THRNRM  =  1.00D-08  THREQ   =  0.00D+00  THRDE   =  1.00D+00  THRREF  =  1.00D-05  SPARFAC =  1.00D+00  THRDLP  =  1.00D-07
 THRDIA  =  1.00D-10  THRDLS  =  1.00D-07  THRGPS  =  0.00D+00  THRKEX  =  0.00D+00  THRDIS  =  2.00D-01  THRVAR  =  1.00D-10
 THRLOC  =  1.00D-06  THRGAP  =  1.00D-06  THRLOCT = -1.00D+00  THRGAPT = -1.00D+00  THRORB  =  1.00D-06  THRMLTP =  0.00D+00
 THRCPQCI=  1.00D-10  KEXTA   =  0.00D+00  THRCOARS=  0.00D+00  SYMTOL  =  1.00D-06  GRADTOL =  1.00D-06  THROVL  =  1.00D-08
 THRORTH =  1.00D-08  GRID    =  1.00D-06  GRIDMAX =  1.00D-03  DTMAX   =  0.00D+00  THROCCDE=  1.00D-01  THROCCDE=  1.00D-01



 Input parameters for SORTINT:

 COMPRESS =    0.000000
 C_FINAL  =    1.000000
 DEBUG    =   -1.000000
 C_SORT1  =    0.000000
 C_SEWARD =    0.000000
 THRESH   =    0.000000
 IO       =  molpro                                                          
 SPRI     =    0.000000
 SETTING GEOMTYP        =    XYZ
 ZUNIT=BOHR
 

 Variable memory set to  995000000 words,  buffer space   230000 words

 SETTING BASIS          =    USERDEF


 Recomputing integrals since basis changed


 Using spherical harmonics

 Library entry H      S aug-cc-pVTZ          selected for orbital group  1
 Library entry H      P aug-cc-pVTZ          selected for orbital group  1
 Library entry H      D aug-cc-pVTZ          selected for orbital group  1


 PROGRAM * SEWARD (Integral evaluation for generally contracted gaussian basis sets)     Author: Roland Lindh, 1990

 Geometry written to block  1 of record 700


 Point group  Cs  



 ATOMIC COORDINATES

 NR  ATOM    CHARGE       X              Y              Z

   1  H       1.00    0.000000000    1.658761059   -1.927722608
   2  N       7.00    0.000000000   -0.151859440   -1.153616092
   3  O       8.00    0.000000000    0.034866171    1.130749109

 Bond lengths in Bohr (Angstrom)

 1-2  1.969159082  2-3  2.291984036
     ( 1.042034111)     ( 1.212865720)

 Bond angles

  1-2-3  108.47547239

 NUCLEAR CHARGE:                   16
 NUMBER OF PRIMITIVE AOS:         203
 NUMBER OF SYMMETRY AOS:          173
 NUMBER OF CONTRACTIONS:          171   ( 114A'  +  57A"  )
 NUMBER OF CORE ORBITALS:           2   (   2A'  +   0A"  )
 NUMBER OF VALENCE ORBITALS:        9   (   7A'  +   2A"  )


 NUCLEAR REPULSION ENERGY   30.29803710


 Eigenvalues of metric

         1 0.103E-02 0.252E-02 0.332E-02 0.631E-02 0.952E-02 0.136E-01 0.145E-01 0.227E-01
         2 0.352E-01 0.537E-01 0.694E-01 0.942E-01 0.131E+00 0.134E+00 0.139E+00 0.142E+00


 Contracted 2-electron integrals neglected if value below      1.0D-22

       46128353. INTEGRALS WRITTEN OUT IN   11265 BLOCKS ON RECORD 1290 OF FILE 1


 NUMBER OF SORTED TWO-ELECTRON INTEGRALS:   55360566.     BUFFER LENGTH:  32768
 NUMBER OF SEGMENTS:   4  SEGMENT LENGTH:   15997996      RECORD LENGTH: 524288

 Memory used in sort:      16.56 MW

 SORT1 READ    46128353. AND WROTE    46565654. INTEGRALS IN    136 RECORDS. CPU TIME:     1.04 SEC, REAL TIME:     1.48 SEC
 SORT2 READ    46565654. AND WROTE    55360566. INTEGRALS IN      4 RECORDS. CPU TIME:     0.88 SEC, REAL TIME:     1.24 SEC

 FILE SIZES:   FILE 1:   759.0 MBYTE,  FILE 4:   570.5 MBYTE,   TOTAL:   1329.5 MBYTE

 OPERATOR DM      FOR CENTER  0  COORDINATES:    0.000000    0.000000    0.000000


 **********************************************************************************************************************************
 DATASETS  * FILE   NREC   LENGTH (MB)   RECORD NAMES
              1      19      421.12       500      610      700      900      950      970     1000      129      960     1100   
                                          VAR    BASINP    GEOM    SYMINP    ZMAT    AOBASIS   BASIS     P2S    ABASIS      S 
                                         1400     1410     1200     1210     1080     1600     1650     1300     1700   
                                           T        V       H0       H01     AOSYM     SMH    MOLCAS    ERIS     OPER   

 PROGRAMS   *        TOTAL       INT
 CPU TIMES  *         5.82      5.71
 REAL TIME  *         8.93 SEC
 DISK USED  *         1.33 GB      
 **********************************************************************************************************************************


 PROGRAM * RHF-SCF (CLOSED SHELL)       Authors: W. Meyer, H.-J. Werner


 NUMBER OF ELECTRONS:       8+    8-
 CONVERGENCE THRESHOLDS:    1.00E-10 (Density)    1.00E-13 (Energy)
 MAX. NUMBER OF ITERATIONS:      500
 INTERPOLATION TYPE:            DIIS
 INTERPOLATION STEPS:              2 (START)      1 (STEP)
 LEVEL SHIFTS:                  0.00 (CLOSED)  0.00 (OPEN) 



 Orbital guess generated from atomic densities. Full valence occupancy:    9   2

 Molecular orbital dump at record        2100.2

 Initial occupancy:   7   1

 ITERATION    DDIFF          GRAD             ENERGY        2-EL.EN.            DIPOLE MOMENTS         DIIS   ORB.
    1      0.000D+00      0.000D+00      -129.78862776    153.939912    0.00000    0.58074   -1.02852    0    start
    2      0.000D+00      0.879D-02      -129.81538388    155.094759    0.00000    0.60143   -0.19878    1    diag
    3      0.369D-02      0.672D-02      -129.83849701    155.228550    0.00000    0.55343   -0.59281    2    diag
    4      0.143D-02      0.105D-02      -129.83928976    154.951645    0.00000    0.56133   -0.52946    3    diag
    5      0.335D-03      0.338D-03      -129.83940997    155.039408    0.00000    0.56724   -0.53175    4    diag
    6      0.153D-03      0.985D-04      -129.83942946    155.023398    0.00000    0.56779   -0.52757    5    diag
    7      0.606D-04      0.498D-04      -129.83943531    155.025830    0.00000    0.56908   -0.52499    6    diag
    8      0.414D-04      0.173D-04      -129.83943597    155.024991    0.00000    0.56913   -0.52405    7    diag
    9      0.147D-04      0.323D-05      -129.83943600    155.024877    0.00000    0.56908   -0.52386    8    diag
   10      0.301D-05      0.729D-06      -129.83943600    155.024864    0.00000    0.56904   -0.52383    9    orth
   11      0.885D-06      0.144D-06      -129.83943600    155.024860    0.00000    0.56904   -0.52383    9    diag
   12      0.206D-06      0.301D-07      -129.83943600    155.024860    0.00000    0.56903   -0.52383    9    diag
   13      0.497D-07      0.801D-08      -129.83943600    155.024859    0.00000    0.56903   -0.52383    9    diag
   14      0.114D-07      0.140D-08      -129.83943600    155.024859    0.00000    0.56903   -0.52383    9    diag
   15      0.139D-08      0.371D-09      -129.83943600    155.024859    0.00000    0.56903   -0.52383    9    diag
   16      0.321D-09      0.106D-09      -129.83943600    155.024859    0.00000    0.56903   -0.52383    9    diag
   17      0.644D-10      0.274D-10      -129.83943600    155.024859    0.00000    0.56903   -0.52383    0    orth

 Final occupancy:   7   1

 !RHF STATE 1.1 Energy               -129.839435999284
 Nuclear energy                        30.29803710
 One-electron energy                 -237.64990281
 Two-electron energy                   77.51242971
 Virial quotient                       -1.00166560
 !RHF STATE 1.1 Dipole moment           0.00000000     0.56903424    -0.52382911
 Dipole moment /Debye                   0.00000000     1.44624605    -1.33135359

 Orbital energies:

         1.1          2.1          3.1          4.1          5.1          6.1          7.1          8.1          9.1
    -20.651629   -15.710035    -1.524032    -0.996794    -0.744798    -0.662882    -0.430633     0.039661     0.193427

         1.2          2.2          3.2
     -0.591718     0.077280     0.239486

 HOMO      7.1    -0.430633 =     -11.7181eV
 LUMO      8.1     0.039661 =       1.0792eV
 LUMO-HOMO         0.470294 =      12.7974eV


 **********************************************************************************************************************************
 DATASETS  * FILE   NREC   LENGTH (MB)   RECORD NAMES
              1      19      421.12       500      610      700      900      950      970     1000      129      960     1100   
                                          VAR    BASINP    GEOM    SYMINP    ZMAT    AOBASIS   BASIS     P2S    ABASIS      S 
                                         1400     1410     1200     1210     1080     1600     1650     1300     1700   
                                           T        V       H0       H01     AOSYM     SMH    MOLCAS    ERIS     OPER   

              2       4        3.13       700     1000      520     2100   
                                         GEOM     BASIS   MCVARS     RHF  

 PROGRAMS   *        TOTAL        HF       INT
 CPU TIMES  *        11.60      5.78      5.71
 REAL TIME  *        16.16 SEC
 DISK USED  *         1.33 GB      
 **********************************************************************************************************************************


 PROGRAM * CCSD (Closed-shell coupled cluster)     Authors: C. Hampel, H.-J. Werner, 1991, M. Deegan, P.J. Knowles, 1992


 Convergence thresholds:  THRVAR = 1.00D-08  THRDEN = 1.00D-12

 CCSD(T)     terms to be evaluated (factor= 1.000)


 Number of closed-shell orbitals:   8 (   7   1 )
 Number of external orbitals:     163 ( 107  56 )

 Molecular orbitals read from record     2100.2  Type=RHF/CANONICAL (state 1.1)

 Number of N-1 electron functions:               8
 Number of N-2 electron functions:              36
 Number of singly external CSFs:               805
 Number of doubly external CSFs:            449165
 Total number of CSFs:                      449971

 Length of J-op  integral file:               0.00 MB
 Length of K-op  integral file:               1.15 MB
 Length of 3-ext integral record:             0.00 MB

 Memory could be reduced to 24.90 Mwords without degradation in triples

 Integral transformation finished. Total CPU:   1.21 sec, npass=  1  Memory used:   6.89 MW

 Reference energy:                   -129.83943600

 MP2 singlet pair energy:              -0.37920477
 MP2 triplet pair energy:              -0.18682146
 MP2 correlation energy:               -0.56602624
 MP2 total energy:                   -130.40546224

 SCS-MP2 correlation energy:           -0.57129020   (PS=  1.200000  PT=  0.333333)
 SCS-MP2 total energy:               -130.41072620

 ITER.      SQ.NORM     CORR.ENERGY   TOTAL ENERGY   ENERGY CHANGE        DEN1      VAR(S)    VAR(P)  DIIS     TIME  TIME/IT
   1      1.11996326    -0.57059609  -130.41003209    -0.00456985     0.01327130  0.34D-02  0.31D-02  1  1     2.45     1.28
   2      1.13090887    -0.57025972  -130.40969572     0.00033637    -0.01379169  0.92D-04  0.50D-03  2  2     3.70     1.31
   3      1.13618997    -0.57058606  -130.41002206    -0.00032634    -0.00236059  0.56D-04  0.69D-04  3  3     4.96     1.33
   4      1.13966891    -0.57057923  -130.41001523     0.00000683    -0.00139536  0.45D-05  0.99D-05  4  4     6.22     1.34
   5      1.14074005    -0.57060380  -130.41003980    -0.00002458    -0.00025180  0.16D-05  0.19D-05  5  5     7.44     1.34
   6      1.14115483    -0.57059759  -130.41003359     0.00000622    -0.00004008  0.13D-06  0.42D-06  6  6     8.68     1.34
   7      1.14123811    -0.57059802  -130.41003402    -0.00000044     0.00000079  0.17D-07  0.98D-07  6  1    10.03     1.36
   8      1.14127193    -0.57059626  -130.41003226     0.00000176    -0.00000478  0.42D-08  0.14D-07  6  2    11.42     1.38
   9      1.14127648    -0.57059637  -130.41003237    -0.00000011     0.00000120  0.18D-08  0.18D-08  6  3    12.78     1.39
  10      1.14127811    -0.57059668  -130.41003268    -0.00000031    -0.00000066  0.43D-09  0.26D-09  6  4    14.11     1.40
  11      1.14127714    -0.57059682  -130.41003282    -0.00000014     0.00000034  0.10D-09  0.27D-10  6  5    15.44     1.41
  12      1.14127627    -0.57059695  -130.41003295    -0.00000014     0.00000034  0.10D-10  0.66D-11  6  6    16.81     1.42
  13      1.14127575    -0.57059696  -130.41003296    -0.00000001     0.00000010  0.42D-11  0.12D-11  6  1    18.15     1.42
  14      1.14127532    -0.57059699  -130.41003299    -0.00000003     0.00000010  0.44D-12  0.40D-12  6  3    19.49     1.43
  15      1.14127515    -0.57059699  -130.41003299    -0.00000000     0.00000002  0.11D-12  0.29D-13  6  2    20.83     1.43
  16      1.14127509    -0.57059699  -130.41003299    -0.00000000     0.00000001  0.23D-13  0.61D-14  6  4    22.16     1.43
  17      1.14127507    -0.57059699  -130.41003299    -0.00000000     0.00000001  0.43D-14  0.11D-14  6  5    23.44     1.43
  18      1.14127507    -0.57059699  -130.41003299    -0.00000000     0.00000000  0.47D-15  0.29D-15  6  6    24.64     1.42
  19      1.14127507    -0.57059699  -130.41003299     0.00000000    -0.00000000  0.58D-16  0.43D-16  6  1    25.86     1.42
  20      1.14127507    -0.57059699  -130.41003299     0.00000000    -0.00000000  0.24D-17  0.94D-17  6  3    27.06     1.41
  21      1.14127507    -0.57059699  -130.41003299     0.00000000    -0.00000000  0.13D-17  0.24D-17  6  2    28.27     1.41
  22      1.14127507    -0.57059699  -130.41003299     0.00000000    -0.00000000  0.31D-18  0.84D-18  6  4    29.49     1.40
  23      1.14127507    -0.57059699  -130.41003299    -0.00000000     0.00000000  0.15D-18  0.12D-18  6  5    30.69     1.40
  24      1.14127507    -0.57059699  -130.41003299     0.00000000    -0.00000000  0.54D-20  0.15D-19  6  1    32.06     1.40
  25      1.14127507    -0.57059699  -130.41003299     0.00000000     0.00000000  0.37D-21  0.15D-20  6  6    33.38     1.41
  26      1.14127507    -0.57059699  -130.41003299    -0.00000000     0.00000000  0.16D-21  0.21D-21  6  1    34.76     1.41

 Norm of t1 vector:      0.07810568      S-energy:     0.00000000      T1 diagnostic:  0.01380726
                                                                       D1 diagnostic:  0.04468983

 Doubles amplitudes (print threshold =  0.500E-01):

         I         J         SYM. A    SYM. B    A         B      T(IJ, AB)

         8         8         2         2         1         1     -0.13611841


 Total CPU time for triples:     22.65 sec


 RESULTS
 =======

  Reference energy                   -129.839435999283

  Correlated core orbitals:             1.1       2.1
  Orbital energies:                   -20.6516  -15.7100
 
  CCSD core-core energy                -0.079234285548
  CCSD core-valence energy             -0.036065440337
  CCSD valence correlation energy      -0.455297268642
 
  CCSD singlet pair energy             -0.408113019176
  CCSD triplet pair energy             -0.162483975359
  CCSD correlation energy              -0.570596994527

  Triples (T) contribution             -0.022376018552
  Total correlation energy             -0.592973013079

  CCSD total energy                  -130.410032993810
  CCSD[T] energy                     -130.433593739240
  CCSD-T energy                      -130.431966264118
 !CCSD(T) total energy               -130.432409012362

 Timing summary (sec):

 STEP                 CPU(USER)    SYS     CPU(TOT)    WALL
 Transformation          1.24      0.22      1.46      1.45
 CCSD iterations        33.52      3.12     36.64     36.68
 Triples                22.65      0.70     23.35     23.35

 Program statistics:

 Available memory in ccsd:               994999644
 Min. memory needed in ccsd:               1368037
 Max. memory used in ccsd:                 1750502
 Max. memory used in cckext:               2014357 (26 integral passes)



 **********************************************************************************************************************************
 DATASETS  * FILE   NREC   LENGTH (MB)   RECORD NAMES
              1      20      500.04       500      610      700      900      950      970     1000      129      960     1100   
                                          VAR    BASINP    GEOM    SYMINP    ZMAT    AOBASIS   BASIS     P2S    ABASIS      S 
                                         1400     1410     1200     1210     1080     1600     1650     1300     1700     1380   
                                           T        V       H0       H01     AOSYM     SMH    MOLCAS    ERIS     OPER     JKOP   

              2       4        3.13       700     1000      520     2100   
                                         GEOM     BASIS   MCVARS     RHF  

 PROGRAMS   *        TOTAL   CCSD(T)        HF       INT
 CPU TIMES  *        69.04     57.44      5.78      5.71
 REAL TIME  *        77.68 SEC
 DISK USED  *         1.33 GB      
 **********************************************************************************************************************************

 CCSD(T)/USERDEF energy=   -130.432409012362

        CCSD(T)         HF-SCF  
   -130.43240901   -129.83943600
 **********************************************************************************************************************************
 Molpro calculation terminated
 Variable memory released
