
 Primary working directories    : /tmp/r2666/282375.maple
 Secondary working directories  : /tmp/r2666/282375.maple
 Wavefunction directory         : /ddn/home4/r2666/wfu/
 Main file repository           : /tmp/r2666/282375.maple/

 SHA1      : d5ffa45e93fdbca01ffc919aa182cfdae0147319
 NAME      : 2015.1.35
 ARCHNAME  : linux/x86_64
 FC        : /opt/intel/composer_xe_2015.1.133/bin/intel64/ifort
 BLASLIB   : -Wl,-_start-group /opt/intel/mkl/lib/intel64/libmkl_intel_ilp64.a /opt/intel/mkl/lib/intel64/libmkl_intel_thread.a /opt/intel/mkl/lib/intel64/libmkl_core.a -Wl,-_end-group
 id        : olemiss

 Nodes     nprocs
 cn089        1

 Using customized tuning parameters: mindgm=1; mindgv=20; mindgc=4; mindgr=1; noblas=0; minvec=7
 default implementation of scratch files=df  

 ***,hno CCSD(T)/TZ-F12 QFF
 memory, 995, m;
 gthresh,energy=1.d-12,zero=1.d-22,oneint=1.d-22,twoint=1.d-22;
 gthresh,optgrad=1.d-8,optstep=1.d-8;
 nocompress;
 geomtyp=xyz
 bohr
 geometry={
 3
         14        14
 H        0.0000000000        1.6577422462       -1.9220063741
 N        0.0000000000       -0.1544043873       -1.1514792367
 O        0.0000000000        0.0384299311        1.1228960198
 }
 
 basis={
 default=aug-cc-pvtz
 s,C,8236.0,1235.0,280.8, 79.27,25.59, 8.997,3.319
 s,C,0.9059,0.3643,0.1285000
 p,C,56.0,18.71,4.133,0.2827,0.3827,0.1209
 d,C,30.0,10.0,3.3,1.097,0.318
 f,C,7.0,2.3,0.7610
 s,N,11420.0,1712.0,389.3,110.0,35.57,12.54,4.644
 s,N,1.293,0.5118,0.1787
 p,N,79.89,26.63,5.948,1.742,0.555,0.1725
 d,N,45.0,15.0,5.0,1.654,0.469
 f,N,9.9,3.3,1.093
 s,O,15330.0,2299.0,522.4,147.3,47.55,16.76,6.207
 s,O,1.752,0.6882,0.2384
 p,O,103.5,34.46,7.749,2.28,0.7156,0.214
 d,O,63.0,21.0,7.0,2.314,0.645
 f,O,12.9,4.3,1.428
 s,mg,164900.0,24710.0,5628.0,1596.0,521.0;
 s,mg,188.0,73.01,29.90,12.54,4.306,1.826;
 s,mg,0.7417,0.0761,0.145,0.033,0.0129;
 p,mg,950.70,316.90,74.86,23.72,8.669,3.363;
 p,mg,1.310,0.4911,0.2364,0.08733,0.03237,0.00745;
 d,mg,1.601,0.686,0.126,0.294,0.0468;
 f,mg,1.372,0.588,0.094,0.252;
 }
   {hf,maxit=500;accu,20;}
 {ccsd(t),nocheck,maxit=250;orbital,IGNORE_ERROR;core}

 Variables initialized (889), CPU time= 0.00 sec
 Commands  initialized (702), CPU time= 0.01 sec, 572 directives.
 Default parameters read. Elapsed time= 0.07 sec

 Checking input...
 Passed
1


                                         ***  PROGRAM SYSTEM MOLPRO  ***
                                       Copyright, TTI GmbH Stuttgart, 2015
                                    Version 2015.1 linked Jul  9 2018 13:16:40


 **********************************************************************************************************************************
 LABEL *   hno CCSD(T)/TZ-F12 QFF                                                        
  64 bit serial version                                                                  DATE: 04-Mar-20          TIME: 13:48:49  
 **********************************************************************************************************************************

 SHA1:             d5ffa45e93fdbca01ffc919aa182cfdae0147319
 **********************************************************************************************************************************

 THRESHOLDS:

 ZERO    =  1.00D-22  ONEINT  =  1.00D-22  TWOINT  =  1.00D-22  PREFAC  =  1.00D-14  LOCALI  =  1.00D-09  EORDER  =  1.00D-04
 ENERGY  =  1.00D-12  ETEST   =  0.00D+00  EDENS   =  0.00D+00  THRDEDEF=  1.00D-06  GRADIENT=  1.00D-02  STEP    =  1.00D-03
 ORBITAL =  1.00D-05  CIVEC   =  1.00D-05  COEFF   =  1.00D-04  PRINTCI =  5.00D-02  PUNCHCI =  9.90D+01  OPTGRAD =  3.00D-04
 OPTENERG=  1.00D-06  OPTSTEP =  3.00D-04  THRGRAD =  1.00D-10  COMPRESS=  1.00D-11  VARMIN  =  1.00D-07  VARMAX  =  1.00D-03
 THRDOUB =  0.00D+00  THRDIV  =  1.00D-05  THRRED  =  1.00D-07  THRPSP  =  1.00D+00  THRDC   =  1.00D-10  THRCS   =  1.00D-10
 THRNRM  =  1.00D-08  THREQ   =  0.00D+00  THRDE   =  1.00D+00  THRREF  =  1.00D-05  SPARFAC =  1.00D+00  THRDLP  =  1.00D-07
 THRDIA  =  1.00D-10  THRDLS  =  1.00D-07  THRGPS  =  0.00D+00  THRKEX  =  0.00D+00  THRDIS  =  2.00D-01  THRVAR  =  1.00D-10
 THRLOC  =  1.00D-06  THRGAP  =  1.00D-06  THRLOCT = -1.00D+00  THRGAPT = -1.00D+00  THRORB  =  1.00D-06  THRMLTP =  0.00D+00
 THRCPQCI=  1.00D-10  KEXTA   =  0.00D+00  THRCOARS=  0.00D+00  SYMTOL  =  1.00D-06  GRADTOL =  1.00D-06  THROVL  =  1.00D-08
 THRORTH =  1.00D-08  GRID    =  1.00D-06  GRIDMAX =  1.00D-03  DTMAX   =  0.00D+00  THROCCDE=  1.00D-01  THROCCDE=  1.00D-01



 THRESHOLDS:

 ZERO    =  1.00D-22  ONEINT  =  1.00D-22  TWOINT  =  1.00D-22  PREFAC  =  1.00D-14  LOCALI  =  1.00D-09  EORDER  =  1.00D-04
 ENERGY  =  1.00D-12  ETEST   =  0.00D+00  EDENS   =  0.00D+00  THRDEDEF=  1.00D-06  GRADIENT=  1.00D-02  STEP    =  1.00D-03
 ORBITAL =  1.00D-05  CIVEC   =  1.00D-05  COEFF   =  1.00D-04  PRINTCI =  5.00D-02  PUNCHCI =  9.90D+01  OPTGRAD =  1.00D-08
 OPTENERG=  1.00D-06  OPTSTEP =  1.00D-08  THRGRAD =  1.00D-10  COMPRESS=  1.00D-11  VARMIN  =  1.00D-07  VARMAX  =  1.00D-03
 THRDOUB =  0.00D+00  THRDIV  =  1.00D-05  THRRED  =  1.00D-07  THRPSP  =  1.00D+00  THRDC   =  1.00D-10  THRCS   =  1.00D-10
 THRNRM  =  1.00D-08  THREQ   =  0.00D+00  THRDE   =  1.00D+00  THRREF  =  1.00D-05  SPARFAC =  1.00D+00  THRDLP  =  1.00D-07
 THRDIA  =  1.00D-10  THRDLS  =  1.00D-07  THRGPS  =  0.00D+00  THRKEX  =  0.00D+00  THRDIS  =  2.00D-01  THRVAR  =  1.00D-10
 THRLOC  =  1.00D-06  THRGAP  =  1.00D-06  THRLOCT = -1.00D+00  THRGAPT = -1.00D+00  THRORB  =  1.00D-06  THRMLTP =  0.00D+00
 THRCPQCI=  1.00D-10  KEXTA   =  0.00D+00  THRCOARS=  0.00D+00  SYMTOL  =  1.00D-06  GRADTOL =  1.00D-06  THROVL  =  1.00D-08
 THRORTH =  1.00D-08  GRID    =  1.00D-06  GRIDMAX =  1.00D-03  DTMAX   =  0.00D+00  THROCCDE=  1.00D-01  THROCCDE=  1.00D-01



 Input parameters for SORTINT:

 COMPRESS =    0.000000
 C_FINAL  =    1.000000
 DEBUG    =   -1.000000
 C_SORT1  =    0.000000
 C_SEWARD =    0.000000
 THRESH   =    0.000000
 IO       =  molpro                                                          
 SPRI     =    0.000000
 SETTING GEOMTYP        =    XYZ
 ZUNIT=BOHR
 

 Variable memory set to  995000000 words,  buffer space   230000 words

 SETTING BASIS          =    USERDEF


 Recomputing integrals since basis changed


 Using spherical harmonics

 Library entry H      S aug-cc-pVTZ          selected for orbital group  1
 Library entry H      P aug-cc-pVTZ          selected for orbital group  1
 Library entry H      D aug-cc-pVTZ          selected for orbital group  1


 PROGRAM * SEWARD (Integral evaluation for generally contracted gaussian basis sets)     Author: Roland Lindh, 1990

 Geometry written to block  1 of record 700


 Point group  Cs  



 ATOMIC COORDINATES

 NR  ATOM    CHARGE       X              Y              Z

   1  H       1.00    0.000000000    1.657742246   -1.922006374
   2  N       7.00    0.000000000   -0.154404387   -1.151479237
   3  O       8.00    0.000000000    0.038429931    1.122896020

 Bond lengths in Bohr (Angstrom)

 1-2  1.969159082  2-3  2.282535406
     ( 1.042034111)     ( 1.207865720)

 Bond angles

  1-2-3  108.18899349

 NUCLEAR CHARGE:                   16
 NUMBER OF PRIMITIVE AOS:         203
 NUMBER OF SYMMETRY AOS:          173
 NUMBER OF CONTRACTIONS:          171   ( 114A'  +  57A"  )
 NUMBER OF CORE ORBITALS:           2   (   2A'  +   0A"  )
 NUMBER OF VALENCE ORBITALS:        9   (   7A'  +   2A"  )


 NUCLEAR REPULSION ENERGY   30.40864570


 Eigenvalues of metric

         1 0.102E-02 0.248E-02 0.329E-02 0.629E-02 0.952E-02 0.136E-01 0.144E-01 0.226E-01
         2 0.352E-01 0.530E-01 0.692E-01 0.941E-01 0.131E+00 0.134E+00 0.139E+00 0.142E+00


 Contracted 2-electron integrals neglected if value below      1.0D-22

       46151799. INTEGRALS WRITTEN OUT IN   11271 BLOCKS ON RECORD 1290 OF FILE 1


 NUMBER OF SORTED TWO-ELECTRON INTEGRALS:   55360566.     BUFFER LENGTH:  32768
 NUMBER OF SEGMENTS:   4  SEGMENT LENGTH:   15997996      RECORD LENGTH: 524288

 Memory used in sort:      16.56 MW

 SORT1 READ    46151799. AND WROTE    46589291. INTEGRALS IN    136 RECORDS. CPU TIME:     0.69 SEC, REAL TIME:     1.00 SEC
 SORT2 READ    46589291. AND WROTE    55360566. INTEGRALS IN      4 RECORDS. CPU TIME:     0.61 SEC, REAL TIME:     0.83 SEC

 FILE SIZES:   FILE 1:   759.4 MBYTE,  FILE 4:   570.5 MBYTE,   TOTAL:   1329.8 MBYTE

 OPERATOR DM      FOR CENTER  0  COORDINATES:    0.000000    0.000000    0.000000


 **********************************************************************************************************************************
 DATASETS  * FILE   NREC   LENGTH (MB)   RECORD NAMES
              1      19      421.29       500      610      700      900      950      970     1000      129      960     1100   
                                          VAR    BASINP    GEOM    SYMINP    ZMAT    AOBASIS   BASIS     P2S    ABASIS      S 
                                         1400     1410     1200     1210     1080     1600     1650     1300     1700   
                                           T        V       H0       H01     AOSYM     SMH    MOLCAS    ERIS     OPER   

 PROGRAMS   *        TOTAL       INT
 CPU TIMES  *         3.89      3.79
 REAL TIME  *         5.46 SEC
 DISK USED  *         1.33 GB      
 **********************************************************************************************************************************


 PROGRAM * RHF-SCF (CLOSED SHELL)       Authors: W. Meyer, H.-J. Werner


 NUMBER OF ELECTRONS:       8+    8-
 CONVERGENCE THRESHOLDS:    1.00E-10 (Density)    1.00E-13 (Energy)
 MAX. NUMBER OF ITERATIONS:      500
 INTERPOLATION TYPE:            DIIS
 INTERPOLATION STEPS:              2 (START)      1 (STEP)
 LEVEL SHIFTS:                  0.00 (CLOSED)  0.00 (OPEN) 



 Orbital guess generated from atomic densities. Full valence occupancy:    9   2

 Molecular orbital dump at record        2100.2

 Initial occupancy:   7   1

 ITERATION    DDIFF          GRAD             ENERGY        2-EL.EN.            DIPOLE MOMENTS         DIIS   ORB.
    1      0.000D+00      0.000D+00      -129.79005760    154.139201    0.00000    0.57605   -1.01195    0    start
    2      0.000D+00      0.874D-02      -129.81698170    155.302535    0.00000    0.59851   -0.20045    1    diag
    3      0.366D-02      0.661D-02      -129.83928579    155.425712    0.00000    0.54996   -0.58454    2    diag
    4      0.141D-02      0.104D-02      -129.84006730    155.152571    0.00000    0.55813   -0.52216    3    diag
    5      0.333D-03      0.336D-03      -129.84018580    155.239815    0.00000    0.56401   -0.52452    4    diag
    6      0.153D-03      0.979D-04      -129.84020500    155.223863    0.00000    0.56457   -0.52042    5    diag
    7      0.604D-04      0.492D-04      -129.84021068    155.226346    0.00000    0.56588   -0.51791    6    diag
    8      0.411D-04      0.168D-04      -129.84021130    155.225528    0.00000    0.56593   -0.51700    7    diag
    9      0.142D-04      0.312D-05      -129.84021132    155.225419    0.00000    0.56588   -0.51682    8    diag
   10      0.288D-05      0.711D-06      -129.84021132    155.225406    0.00000    0.56584   -0.51680    9    orth
   11      0.866D-06      0.141D-06      -129.84021132    155.225403    0.00000    0.56584   -0.51679    9    diag
   12      0.203D-06      0.292D-07      -129.84021132    155.225402    0.00000    0.56583   -0.51679    9    diag
   13      0.490D-07      0.768D-08      -129.84021132    155.225402    0.00000    0.56583   -0.51679    9    diag
   14      0.111D-07      0.135D-08      -129.84021132    155.225402    0.00000    0.56583   -0.51679    9    diag
   15      0.142D-08      0.361D-09      -129.84021132    155.225402    0.00000    0.56583   -0.51679    9    diag
   16      0.317D-09      0.105D-09      -129.84021132    155.225402    0.00000    0.56583   -0.51679    9    diag
   17      0.706D-10      0.283D-10      -129.84021132    155.225402    0.00000    0.56583   -0.51679    9    diag
   18      0.215D-10      0.935D-11      -129.84021132    155.225402    0.00000    0.56583   -0.51679    9    diag
   19      0.863D-11      0.228D-11      -129.84021132    155.225402    0.00000    0.56583   -0.51679    0    orth

 Final occupancy:   7   1

 !RHF STATE 1.1 Energy               -129.840211322378
 Nuclear energy                        30.40864570
 One-electron energy                 -237.86155786
 Two-electron energy                   77.61270084
 Virial quotient                       -1.00150954
 !RHF STATE 1.1 Dipole moment           0.00000000     0.56583301    -0.51679161
 Dipole moment /Debye                   0.00000000     1.43810985    -1.31346722

 Orbital energies:

         1.1          2.1          3.1          4.1          5.1          6.1          7.1          8.1          9.1
    -20.651087   -15.709241    -1.528258    -0.995457    -0.746329    -0.664270    -0.429321     0.039767     0.193705

         1.2          2.2          3.2
     -0.594117     0.079098     0.239621

 HOMO      7.1    -0.429321 =     -11.6824eV
 LUMO      8.1     0.039767 =       1.0821eV
 LUMO-HOMO         0.469088 =      12.7645eV


 **********************************************************************************************************************************
 DATASETS  * FILE   NREC   LENGTH (MB)   RECORD NAMES
              1      19      421.29       500      610      700      900      950      970     1000      129      960     1100   
                                          VAR    BASINP    GEOM    SYMINP    ZMAT    AOBASIS   BASIS     P2S    ABASIS      S 
                                         1400     1410     1200     1210     1080     1600     1650     1300     1700   
                                           T        V       H0       H01     AOSYM     SMH    MOLCAS    ERIS     OPER   

              2       4        3.13       700     1000      520     2100   
                                         GEOM     BASIS   MCVARS     RHF  

 PROGRAMS   *        TOTAL        HF       INT
 CPU TIMES  *         8.58      4.68      3.79
 REAL TIME  *        11.20 SEC
 DISK USED  *         1.33 GB      
 **********************************************************************************************************************************


 PROGRAM * CCSD (Closed-shell coupled cluster)     Authors: C. Hampel, H.-J. Werner, 1991, M. Deegan, P.J. Knowles, 1992


 Convergence thresholds:  THRVAR = 1.00D-08  THRDEN = 1.00D-12

 CCSD(T)     terms to be evaluated (factor= 1.000)


 Number of closed-shell orbitals:   8 (   7   1 )
 Number of external orbitals:     163 ( 107  56 )

 Molecular orbitals read from record     2100.2  Type=RHF/CANONICAL (state 1.1)

 Number of N-1 electron functions:               8
 Number of N-2 electron functions:              36
 Number of singly external CSFs:               805
 Number of doubly external CSFs:            449165
 Total number of CSFs:                      449971

 Length of J-op  integral file:               0.00 MB
 Length of K-op  integral file:               1.15 MB
 Length of 3-ext integral record:             0.00 MB

 Memory could be reduced to 24.90 Mwords without degradation in triples

 Integral transformation finished. Total CPU:   0.78 sec, npass=  1  Memory used:   6.89 MW

 Reference energy:                   -129.84021132

 MP2 singlet pair energy:              -0.37870344
 MP2 triplet pair energy:              -0.18650793
 MP2 correlation energy:               -0.56521137
 MP2 total energy:                   -130.40542269

 SCS-MP2 correlation energy:           -0.57049351   (PS=  1.200000  PT=  0.333333)
 SCS-MP2 total energy:               -130.41070483

 ITER.      SQ.NORM     CORR.ENERGY   TOTAL ENERGY   ENERGY CHANGE        DEN1      VAR(S)    VAR(P)  DIIS     TIME  TIME/IT
   1      1.11942178    -0.56996725  -130.41017857    -0.00475588     0.01285386  0.33D-02  0.31D-02  1  1     1.69     0.92
   2      1.13022724    -0.56967701  -130.40988833     0.00029024    -0.01364836  0.90D-04  0.49D-03  2  2     2.58     0.94
   3      1.13542368    -0.56999677  -130.41020809    -0.00031976    -0.00234077  0.54D-04  0.68D-04  3  3     3.45     0.95
   4      1.13883101    -0.56998960  -130.41020092     0.00000716    -0.00137612  0.43D-05  0.97D-05  4  4     4.32     0.96
   5      1.13986614    -0.57001359  -130.41022491    -0.00002398    -0.00024301  0.15D-05  0.19D-05  5  5     5.22     0.96
   6      1.14026809    -0.57000769  -130.41021901     0.00000590    -0.00003863  0.13D-06  0.42D-06  6  6     6.13     0.96
   7      1.14035033    -0.57000808  -130.41021940    -0.00000039     0.00000056  0.17D-07  0.95D-07  6  1     7.03     0.97
   8      1.14038374    -0.57000639  -130.41021771     0.00000169    -0.00000468  0.42D-08  0.14D-07  6  2     7.91     0.97
   9      1.14038824    -0.57000651  -130.41021783    -0.00000012     0.00000112  0.17D-08  0.17D-08  6  3     8.81     0.97
  10      1.14038837    -0.57000684  -130.41021816    -0.00000033     0.00000001  0.59D-09  0.32D-09  6  1     9.70     0.97
  11      1.14038759    -0.57000707  -130.41021839    -0.00000023     0.00000015  0.48D-10  0.34D-10  6  4    10.60     0.97
  12      1.14038718    -0.57000708  -130.41021841    -0.00000002     0.00000006  0.73D-11  0.34D-11  6  5    11.48     0.97
  13      1.14038705    -0.57000711  -130.41021843    -0.00000002     0.00000003  0.14D-11  0.57D-12  6  6    12.35     0.97
  14      1.14038697    -0.57000711  -130.41021843    -0.00000000     0.00000002  0.60D-12  0.11D-12  6  2    13.26     0.97
  15      1.14038689    -0.57000711  -130.41021844    -0.00000000     0.00000001  0.10D-12  0.26D-13  6  3    14.11     0.97
  16      1.14038686    -0.57000711  -130.41021844    -0.00000000     0.00000000  0.11D-13  0.78D-14  6  1    14.99     0.97
  17      1.14038684    -0.57000711  -130.41021844    -0.00000000     0.00000000  0.13D-14  0.26D-14  6  4    15.85     0.97
  18      1.14038683    -0.57000711  -130.41021844    -0.00000000     0.00000000  0.10D-15  0.78D-15  6  5    16.75     0.97
  19      1.14038683    -0.57000711  -130.41021844    -0.00000000     0.00000000  0.40D-16  0.17D-15  6  6    17.65     0.97
  20      1.14038683    -0.57000711  -130.41021844     0.00000000     0.00000000  0.13D-16  0.20D-16  6  3    18.53     0.97
  21      1.14038683    -0.57000711  -130.41021844     0.00000000    -0.00000000  0.98D-18  0.22D-17  6  2    19.40     0.97
  22      1.14038683    -0.57000711  -130.41021844    -0.00000000     0.00000000  0.63D-18  0.45D-18  6  1    20.27     0.97
  23      1.14038683    -0.57000711  -130.41021844    -0.00000000     0.00000000  0.16D-18  0.46D-19  6  4    21.17     0.97
  24      1.14038683    -0.57000711  -130.41021844    -0.00000000     0.00000000  0.47D-19  0.11D-19  6  5    22.04     0.97
  25      1.14038683    -0.57000711  -130.41021844     0.00000000    -0.00000000  0.81D-20  0.26D-20  6  3    22.91     0.97
  26      1.14038683    -0.57000711  -130.41021844     0.00000000    -0.00000000  0.34D-21  0.36D-21  6  6    23.75     0.97

 Norm of t1 vector:      0.07722080      S-energy:     0.00000000      T1 diagnostic:  0.01365084
                                                                       D1 diagnostic:  0.04401997

 Doubles amplitudes (print threshold =  0.500E-01):

         I         J         SYM. A    SYM. B    A         B      T(IJ, AB)

         8         8         2         2         1         1     -0.13465999


 Total CPU time for triples:     14.27 sec


 RESULTS
 =======

  Reference energy                   -129.840211322378

  Correlated core orbitals:             1.1       2.1
  Orbital energies:                   -20.6511  -15.7092
 
  CCSD core-core energy                -0.079231200331
  CCSD core-valence energy             -0.036097346085
  CCSD valence correlation energy      -0.454678568524
 
  CCSD singlet pair energy             -0.407577543415
  CCSD triplet pair energy             -0.162429571525
  CCSD correlation energy              -0.570007114940

  Triples (T) contribution             -0.022214301388
  Total correlation energy             -0.592221416328

  CCSD total energy                  -130.410218437319
  CCSD[T] energy                     -130.433593038968
  CCSD-T energy                      -130.431996460024
 !CCSD(T) total energy               -130.432432738707

 Timing summary (sec):

 STEP                 CPU(USER)    SYS     CPU(TOT)    WALL
 Transformation          0.80      0.17      0.97      0.98
 CCSD iterations        22.96      2.29     25.25     25.23
 Triples                14.27      0.56     14.83     14.84

 Program statistics:

 Available memory in ccsd:               994999644
 Min. memory needed in ccsd:               1368037
 Max. memory used in ccsd:                 1750502
 Max. memory used in cckext:               2014357 (26 integral passes)



 **********************************************************************************************************************************
 DATASETS  * FILE   NREC   LENGTH (MB)   RECORD NAMES
              1      20      500.20       500      610      700      900      950      970     1000      129      960     1100   
                                          VAR    BASINP    GEOM    SYMINP    ZMAT    AOBASIS   BASIS     P2S    ABASIS      S 
                                         1400     1410     1200     1210     1080     1600     1650     1300     1700     1380   
                                           T        V       H0       H01     AOSYM     SMH    MOLCAS    ERIS     OPER     JKOP   

              2       4        3.13       700     1000      520     2100   
                                         GEOM     BASIS   MCVARS     RHF  

 PROGRAMS   *        TOTAL   CCSD(T)        HF       INT
 CPU TIMES  *        46.62     38.04      4.68      3.79
 REAL TIME  *        52.30 SEC
 DISK USED  *         1.33 GB      
 **********************************************************************************************************************************

 CCSD(T)/USERDEF energy=   -130.432432738707

        CCSD(T)         HF-SCF  
   -130.43243274   -129.84021132
 **********************************************************************************************************************************
 Molpro calculation terminated
 Variable memory released
