
 Primary working directories    : /tmp/r2666/282369.maple
 Secondary working directories  : /tmp/r2666/282369.maple
 Wavefunction directory         : /ddn/home4/r2666/wfu/
 Main file repository           : /tmp/r2666/282369.maple/

 SHA1      : d5ffa45e93fdbca01ffc919aa182cfdae0147319
 NAME      : 2015.1.35
 ARCHNAME  : linux/x86_64
 FC        : /opt/intel/composer_xe_2015.1.133/bin/intel64/ifort
 BLASLIB   : -Wl,-_start-group /opt/intel/mkl/lib/intel64/libmkl_intel_ilp64.a /opt/intel/mkl/lib/intel64/libmkl_intel_thread.a /opt/intel/mkl/lib/intel64/libmkl_core.a -Wl,-_end-group
 id        : olemiss

 Nodes     nprocs
 cn049        1

 Using customized tuning parameters: mindgm=1; mindgv=20; mindgc=4; mindgr=1; noblas=0; minvec=7
 default implementation of scratch files=df  

 ***,hno CCSD(T)/TZ-F12 QFF
 memory, 995, m;
 gthresh,energy=1.d-12,zero=1.d-22,oneint=1.d-22,twoint=1.d-22;
 gthresh,optgrad=1.d-8,optstep=1.d-8;
 nocompress;
 geomtyp=xyz
 bohr
 geometry={
 3
          8         8
 H        0.0000000000        1.6561304377       -1.9176651856
 N        0.0000000000       -0.1547092286       -1.1440714978
 O        0.0000000000        0.0403465808        1.1111470924
 }
 
 basis={
 default=aug-cc-pvtz
 s,C,8236.0,1235.0,280.8, 79.27,25.59, 8.997,3.319
 s,C,0.9059,0.3643,0.1285000
 p,C,56.0,18.71,4.133,0.2827,0.3827,0.1209
 d,C,30.0,10.0,3.3,1.097,0.318
 f,C,7.0,2.3,0.7610
 s,N,11420.0,1712.0,389.3,110.0,35.57,12.54,4.644
 s,N,1.293,0.5118,0.1787
 p,N,79.89,26.63,5.948,1.742,0.555,0.1725
 d,N,45.0,15.0,5.0,1.654,0.469
 f,N,9.9,3.3,1.093
 s,O,15330.0,2299.0,522.4,147.3,47.55,16.76,6.207
 s,O,1.752,0.6882,0.2384
 p,O,103.5,34.46,7.749,2.28,0.7156,0.214
 d,O,63.0,21.0,7.0,2.314,0.645
 f,O,12.9,4.3,1.428
 s,mg,164900.0,24710.0,5628.0,1596.0,521.0;
 s,mg,188.0,73.01,29.90,12.54,4.306,1.826;
 s,mg,0.7417,0.0761,0.145,0.033,0.0129;
 p,mg,950.70,316.90,74.86,23.72,8.669,3.363;
 p,mg,1.310,0.4911,0.2364,0.08733,0.03237,0.00745;
 d,mg,1.601,0.686,0.126,0.294,0.0468;
 f,mg,1.372,0.588,0.094,0.252;
 }
   {hf,maxit=500;accu,20;}
 {ccsd(t),nocheck,maxit=250;orbital,IGNORE_ERROR;core}

 Variables initialized (889), CPU time= 0.01 sec
 Commands  initialized (702), CPU time= 0.01 sec, 572 directives.
 Default parameters read. Elapsed time= 0.05 sec

 Checking input...
 Passed
1


                                         ***  PROGRAM SYSTEM MOLPRO  ***
                                       Copyright, TTI GmbH Stuttgart, 2015
                                    Version 2015.1 linked Jul  9 2018 13:16:40


 **********************************************************************************************************************************
 LABEL *   hno CCSD(T)/TZ-F12 QFF                                                        
  64 bit serial version                                                                  DATE: 04-Mar-20          TIME: 13:48:45  
 **********************************************************************************************************************************

 SHA1:             d5ffa45e93fdbca01ffc919aa182cfdae0147319
 **********************************************************************************************************************************

 THRESHOLDS:

 ZERO    =  1.00D-22  ONEINT  =  1.00D-22  TWOINT  =  1.00D-22  PREFAC  =  1.00D-14  LOCALI  =  1.00D-09  EORDER  =  1.00D-04
 ENERGY  =  1.00D-12  ETEST   =  0.00D+00  EDENS   =  0.00D+00  THRDEDEF=  1.00D-06  GRADIENT=  1.00D-02  STEP    =  1.00D-03
 ORBITAL =  1.00D-05  CIVEC   =  1.00D-05  COEFF   =  1.00D-04  PRINTCI =  5.00D-02  PUNCHCI =  9.90D+01  OPTGRAD =  3.00D-04
 OPTENERG=  1.00D-06  OPTSTEP =  3.00D-04  THRGRAD =  1.00D-10  COMPRESS=  1.00D-11  VARMIN  =  1.00D-07  VARMAX  =  1.00D-03
 THRDOUB =  0.00D+00  THRDIV  =  1.00D-05  THRRED  =  1.00D-07  THRPSP  =  1.00D+00  THRDC   =  1.00D-10  THRCS   =  1.00D-10
 THRNRM  =  1.00D-08  THREQ   =  0.00D+00  THRDE   =  1.00D+00  THRREF  =  1.00D-05  SPARFAC =  1.00D+00  THRDLP  =  1.00D-07
 THRDIA  =  1.00D-10  THRDLS  =  1.00D-07  THRGPS  =  0.00D+00  THRKEX  =  0.00D+00  THRDIS  =  2.00D-01  THRVAR  =  1.00D-10
 THRLOC  =  1.00D-06  THRGAP  =  1.00D-06  THRLOCT = -1.00D+00  THRGAPT = -1.00D+00  THRORB  =  1.00D-06  THRMLTP =  0.00D+00
 THRCPQCI=  1.00D-10  KEXTA   =  0.00D+00  THRCOARS=  0.00D+00  SYMTOL  =  1.00D-06  GRADTOL =  1.00D-06  THROVL  =  1.00D-08
 THRORTH =  1.00D-08  GRID    =  1.00D-06  GRIDMAX =  1.00D-03  DTMAX   =  0.00D+00  THROCCDE=  1.00D-01  THROCCDE=  1.00D-01



 THRESHOLDS:

 ZERO    =  1.00D-22  ONEINT  =  1.00D-22  TWOINT  =  1.00D-22  PREFAC  =  1.00D-14  LOCALI  =  1.00D-09  EORDER  =  1.00D-04
 ENERGY  =  1.00D-12  ETEST   =  0.00D+00  EDENS   =  0.00D+00  THRDEDEF=  1.00D-06  GRADIENT=  1.00D-02  STEP    =  1.00D-03
 ORBITAL =  1.00D-05  CIVEC   =  1.00D-05  COEFF   =  1.00D-04  PRINTCI =  5.00D-02  PUNCHCI =  9.90D+01  OPTGRAD =  1.00D-08
 OPTENERG=  1.00D-06  OPTSTEP =  1.00D-08  THRGRAD =  1.00D-10  COMPRESS=  1.00D-11  VARMIN  =  1.00D-07  VARMAX  =  1.00D-03
 THRDOUB =  0.00D+00  THRDIV  =  1.00D-05  THRRED  =  1.00D-07  THRPSP  =  1.00D+00  THRDC   =  1.00D-10  THRCS   =  1.00D-10
 THRNRM  =  1.00D-08  THREQ   =  0.00D+00  THRDE   =  1.00D+00  THRREF  =  1.00D-05  SPARFAC =  1.00D+00  THRDLP  =  1.00D-07
 THRDIA  =  1.00D-10  THRDLS  =  1.00D-07  THRGPS  =  0.00D+00  THRKEX  =  0.00D+00  THRDIS  =  2.00D-01  THRVAR  =  1.00D-10
 THRLOC  =  1.00D-06  THRGAP  =  1.00D-06  THRLOCT = -1.00D+00  THRGAPT = -1.00D+00  THRORB  =  1.00D-06  THRMLTP =  0.00D+00
 THRCPQCI=  1.00D-10  KEXTA   =  0.00D+00  THRCOARS=  0.00D+00  SYMTOL  =  1.00D-06  GRADTOL =  1.00D-06  THROVL  =  1.00D-08
 THRORTH =  1.00D-08  GRID    =  1.00D-06  GRIDMAX =  1.00D-03  DTMAX   =  0.00D+00  THROCCDE=  1.00D-01  THROCCDE=  1.00D-01



 Input parameters for SORTINT:

 COMPRESS =    0.000000
 C_FINAL  =    1.000000
 DEBUG    =   -1.000000
 C_SORT1  =    0.000000
 C_SEWARD =    0.000000
 THRESH   =    0.000000
 IO       =  molpro                                                          
 SPRI     =    0.000000
 SETTING GEOMTYP        =    XYZ
 ZUNIT=BOHR
 

 Variable memory set to  995000000 words,  buffer space   230000 words

 SETTING BASIS          =    USERDEF


 Recomputing integrals since basis changed


 Using spherical harmonics

 Library entry H      S aug-cc-pVTZ          selected for orbital group  1
 Library entry H      P aug-cc-pVTZ          selected for orbital group  1
 Library entry H      D aug-cc-pVTZ          selected for orbital group  1


 PROGRAM * SEWARD (Integral evaluation for generally contracted gaussian basis sets)     Author: Roland Lindh, 1990

 Geometry written to block  1 of record 700


 Point group  Cs  



 ATOMIC COORDINATES

 NR  ATOM    CHARGE       X              Y              Z

   1  H       1.00    0.000000000    1.656130438   -1.917665186
   2  N       7.00    0.000000000   -0.154709229   -1.144071498
   3  O       8.00    0.000000000    0.040346581    1.111147092

 Bond lengths in Bohr (Angstrom)

 1-2  1.969159082  2-3  2.263638147
     ( 1.042034111)     ( 1.197865721)

 Bond angles

  1-2-3  108.18899349

 NUCLEAR CHARGE:                   16
 NUMBER OF PRIMITIVE AOS:         203
 NUMBER OF SYMMETRY AOS:          173
 NUMBER OF CONTRACTIONS:          171   ( 114A'  +  57A"  )
 NUMBER OF CORE ORBITALS:           2   (   2A'  +   0A"  )
 NUMBER OF VALENCE ORBITALS:        9   (   7A'  +   2A"  )


 NUCLEAR REPULSION ENERGY   30.62417819


 Eigenvalues of metric

         1 0.101E-02 0.240E-02 0.325E-02 0.623E-02 0.952E-02 0.136E-01 0.144E-01 0.224E-01
         2 0.351E-01 0.515E-01 0.686E-01 0.939E-01 0.131E+00 0.134E+00 0.139E+00 0.142E+00


 Contracted 2-electron integrals neglected if value below      1.0D-22

       46227465. INTEGRALS WRITTEN OUT IN   11289 BLOCKS ON RECORD 1290 OF FILE 1


 NUMBER OF SORTED TWO-ELECTRON INTEGRALS:   55360566.     BUFFER LENGTH:  32768
 NUMBER OF SEGMENTS:   4  SEGMENT LENGTH:   15997996      RECORD LENGTH: 524288

 Memory used in sort:      16.56 MW

 SORT1 READ    46227465. AND WROTE    46665725. INTEGRALS IN    136 RECORDS. CPU TIME:     1.37 SEC, REAL TIME:     1.77 SEC
 SORT2 READ    46665725. AND WROTE    55360566. INTEGRALS IN      4 RECORDS. CPU TIME:     0.76 SEC, REAL TIME:     1.08 SEC

 FILE SIZES:   FILE 1:   760.6 MBYTE,  FILE 4:   570.5 MBYTE,   TOTAL:   1331.0 MBYTE

 OPERATOR DM      FOR CENTER  0  COORDINATES:    0.000000    0.000000    0.000000


 **********************************************************************************************************************************
 DATASETS  * FILE   NREC   LENGTH (MB)   RECORD NAMES
              1      19      421.79       500      610      700      900      950      970     1000      129      960     1100   
                                          VAR    BASINP    GEOM    SYMINP    ZMAT    AOBASIS   BASIS     P2S    ABASIS      S 
                                         1400     1410     1200     1210     1080     1600     1650     1300     1700   
                                           T        V       H0       H01     AOSYM     SMH    MOLCAS    ERIS     OPER   

 PROGRAMS   *        TOTAL       INT
 CPU TIMES  *         6.05      5.96
 REAL TIME  *         7.72 SEC
 DISK USED  *         1.33 GB      
 **********************************************************************************************************************************


 PROGRAM * RHF-SCF (CLOSED SHELL)       Authors: W. Meyer, H.-J. Werner


 NUMBER OF ELECTRONS:       8+    8-
 CONVERGENCE THRESHOLDS:    1.00E-10 (Density)    1.00E-13 (Energy)
 MAX. NUMBER OF ITERATIONS:      500
 INTERPOLATION TYPE:            DIIS
 INTERPOLATION STEPS:              2 (START)      1 (STEP)
 LEVEL SHIFTS:                  0.00 (CLOSED)  0.00 (OPEN) 



 Orbital guess generated from atomic densities. Full valence occupancy:    9   2

 Molecular orbital dump at record        2100.2

 Initial occupancy:   7   1

 ITERATION    DDIFF          GRAD             ENERGY        2-EL.EN.            DIPOLE MOMENTS         DIIS   ORB.
    1      0.000D+00      0.000D+00      -129.79269847    154.525433    0.00000    0.57153   -0.98032    0    start
    2      0.000D+00      0.865D-02      -129.81988164    155.706581    0.00000    0.59231   -0.20517    1    diag
    3      0.361D-02      0.639D-02      -129.84061177    155.808493    0.00000    0.54523   -0.56998    2    diag
    4      0.136D-02      0.103D-02      -129.84137170    155.542787    0.00000    0.55363   -0.50939    3    diag
    5      0.329D-03      0.331D-03      -129.84148652    155.629156    0.00000    0.55950   -0.51194    4    diag
    6      0.152D-03      0.964D-04      -129.84150505    155.613335    0.00000    0.56012   -0.50803    5    diag
    7      0.601D-04      0.479D-04      -129.84151038    155.615919    0.00000    0.56145   -0.50565    6    diag
    8      0.405D-04      0.159D-04      -129.84151091    155.615145    0.00000    0.56150   -0.50482    7    diag
    9      0.133D-04      0.292D-05      -129.84151093    155.615044    0.00000    0.56146   -0.50465    8    diag
   10      0.264D-05      0.680D-06      -129.84151093    155.615032    0.00000    0.56142   -0.50462    9    orth
   11      0.832D-06      0.137D-06      -129.84151093    155.615028    0.00000    0.56142   -0.50462    9    diag
   12      0.199D-06      0.278D-07      -129.84151093    155.615028    0.00000    0.56141   -0.50462    9    diag
   13      0.478D-07      0.719D-08      -129.84151093    155.615027    0.00000    0.56141   -0.50462    9    diag
   14      0.107D-07      0.129D-08      -129.84151093    155.615027    0.00000    0.56141   -0.50462    9    diag
   15      0.147D-08      0.358D-09      -129.84151093    155.615027    0.00000    0.56141   -0.50462    9    diag
   16      0.323D-09      0.111D-09      -129.84151093    155.615027    0.00000    0.56141   -0.50462    9    diag
   17      0.844D-10      0.318D-10      -129.84151093    155.615027    0.00000    0.56141   -0.50462    9    diag
   18      0.278D-10      0.103D-10      -129.84151093    155.615027    0.00000    0.56141   -0.50462    9    diag
   19      0.104D-10      0.253D-11      -129.84151093    155.615027    0.00000    0.56141   -0.50462    0    orth

 Final occupancy:   7   1

 !RHF STATE 1.1 Energy               -129.841510931577
 Nuclear energy                        30.62417819
 One-electron energy                 -238.27320276
 Two-electron energy                   77.80751363
 Virial quotient                       -1.00120225
 !RHF STATE 1.1 Dipole moment           0.00000000     0.56141308    -0.50461900
 Dipole moment /Debye                   0.00000000     1.42687625    -1.28252957

 Orbital energies:

         1.1          2.1          3.1          4.1          5.1          6.1          7.1          8.1          9.1
    -20.650129   -15.707543    -1.536531    -0.993144    -0.749409    -0.667169    -0.426244     0.039921     0.194207

         1.2          2.2          3.2
     -0.598919     0.082622     0.239957

 HOMO      7.1    -0.426244 =     -11.5987eV
 LUMO      8.1     0.039921 =       1.0863eV
 LUMO-HOMO         0.466165 =      12.6850eV


 **********************************************************************************************************************************
 DATASETS  * FILE   NREC   LENGTH (MB)   RECORD NAMES
              1      19      421.79       500      610      700      900      950      970     1000      129      960     1100   
                                          VAR    BASINP    GEOM    SYMINP    ZMAT    AOBASIS   BASIS     P2S    ABASIS      S 
                                         1400     1410     1200     1210     1080     1600     1650     1300     1700   
                                           T        V       H0       H01     AOSYM     SMH    MOLCAS    ERIS     OPER   

              2       4        3.13       700     1000      520     2100   
                                         GEOM     BASIS   MCVARS     RHF  

 PROGRAMS   *        TOTAL        HF       INT
 CPU TIMES  *        12.21      6.16      5.96
 REAL TIME  *        15.33 SEC
 DISK USED  *         1.33 GB      
 **********************************************************************************************************************************


 PROGRAM * CCSD (Closed-shell coupled cluster)     Authors: C. Hampel, H.-J. Werner, 1991, M. Deegan, P.J. Knowles, 1992


 Convergence thresholds:  THRVAR = 1.00D-08  THRDEN = 1.00D-12

 CCSD(T)     terms to be evaluated (factor= 1.000)


 Number of closed-shell orbitals:   8 (   7   1 )
 Number of external orbitals:     163 ( 107  56 )

 Molecular orbitals read from record     2100.2  Type=RHF/CANONICAL (state 1.1)

 Number of N-1 electron functions:               8
 Number of N-2 electron functions:              36
 Number of singly external CSFs:               805
 Number of doubly external CSFs:            449165
 Total number of CSFs:                      449971

 Length of J-op  integral file:               0.00 MB
 Length of K-op  integral file:               1.15 MB
 Length of 3-ext integral record:             0.00 MB

 Memory could be reduced to 24.90 Mwords without degradation in triples

 Integral transformation finished. Total CPU:   1.16 sec, npass=  1  Memory used:   6.89 MW

 Reference energy:                   -129.84151093

 MP2 singlet pair energy:              -0.37771293
 MP2 triplet pair energy:              -0.18589297
 MP2 correlation energy:               -0.56360591
 MP2 total energy:                   -130.40511684

 SCS-MP2 correlation energy:           -0.56892226   (PS=  1.200000  PT=  0.333333)
 SCS-MP2 total energy:               -130.41043319

 ITER.      SQ.NORM     CORR.ENERGY   TOTAL ENERGY   ENERGY CHANGE        DEN1      VAR(S)    VAR(P)  DIIS     TIME  TIME/IT
   1      1.11836349    -0.56872693  -130.41023786    -0.00512103     0.01205056  0.32D-02  0.30D-02  1  1     2.50     1.38
   2      1.12890598    -0.56852295  -130.41003389     0.00020398    -0.01337536  0.85D-04  0.48D-03  2  2     3.82     1.42
   3      1.13394768    -0.56883124  -130.41034217    -0.00030828    -0.00230249  0.51D-04  0.65D-04  3  3     5.18     1.44
   4      1.13722500    -0.56882340  -130.41033433     0.00000784    -0.00133997  0.40D-05  0.92D-05  4  4     6.54     1.45
   5      1.13819982    -0.56884636  -130.41035729    -0.00002296    -0.00022789  0.14D-05  0.18D-05  5  5     7.91     1.45
   6      1.13858181    -0.56884102  -130.41035195     0.00000534    -0.00003633  0.12D-06  0.42D-06  6  6     9.24     1.45
   7      1.13866333    -0.56884133  -130.41035226    -0.00000031     0.00000007  0.18D-07  0.92D-07  6  1    10.58     1.46
   8      1.13869630    -0.56883978  -130.41035071     0.00000156    -0.00000450  0.42D-08  0.13D-07  6  2    11.90     1.46
   9      1.13870082    -0.56883991  -130.41035084    -0.00000013     0.00000096  0.17D-08  0.16D-08  6  3    13.24     1.46
  10      1.13870222    -0.56884020  -130.41035114    -0.00000030    -0.00000053  0.38D-09  0.22D-09  6  4    14.65     1.46
  11      1.13870127    -0.56884033  -130.41035127    -0.00000013     0.00000033  0.90D-10  0.22D-10  6  5    16.03     1.46
  12      1.13870043    -0.56884046  -130.41035139    -0.00000012     0.00000032  0.92D-11  0.57D-11  6  6    17.40     1.46
  13      1.13869995    -0.56884047  -130.41035140    -0.00000001     0.00000010  0.39D-11  0.10D-11  6  1    18.76     1.46
  14      1.13869956    -0.56884049  -130.41035142    -0.00000002     0.00000009  0.42D-12  0.34D-12  6  3    20.10     1.46
  15      1.13869941    -0.56884049  -130.41035142    -0.00000000     0.00000002  0.99D-13  0.23D-13  6  2    21.46     1.46
  16      1.13869936    -0.56884049  -130.41035143    -0.00000000     0.00000001  0.22D-13  0.52D-14  6  4    22.79     1.46
  17      1.13869934    -0.56884050  -130.41035143    -0.00000000     0.00000001  0.37D-14  0.97D-15  6  5    24.15     1.46
  18      1.13869934    -0.56884050  -130.41035143    -0.00000000     0.00000000  0.37D-15  0.24D-15  6  6    25.49     1.46
  19      1.13869934    -0.56884049  -130.41035143     0.00000000    -0.00000000  0.42D-16  0.30D-16  6  1    26.88     1.46
  20      1.13869934    -0.56884049  -130.41035143     0.00000000    -0.00000000  0.17D-17  0.62D-17  6  3    28.25     1.46
  21      1.13869934    -0.56884049  -130.41035143     0.00000000    -0.00000000  0.89D-18  0.15D-17  6  2    29.58     1.46
  22      1.13869934    -0.56884049  -130.41035143     0.00000000    -0.00000000  0.17D-18  0.52D-18  6  4    30.88     1.46
  23      1.13869934    -0.56884049  -130.41035143    -0.00000000     0.00000000  0.92D-19  0.79D-19  6  5    32.19     1.46
  24      1.13869934    -0.56884049  -130.41035143     0.00000000    -0.00000000  0.42D-20  0.10D-19  6  1    33.49     1.46
  25      1.13869934    -0.56884049  -130.41035143     0.00000000     0.00000000  0.23D-21  0.11D-20  6  6    34.85     1.46
  26      1.13869934    -0.56884049  -130.41035143    -0.00000000     0.00000000  0.94D-22  0.26D-21  6  3    36.23     1.46

 Norm of t1 vector:      0.07566274      S-energy:     0.00000000      T1 diagnostic:  0.01337541
                                                                       D1 diagnostic:  0.04276418

 Doubles amplitudes (print threshold =  0.500E-01):

         I         J         SYM. A    SYM. B    A         B      T(IJ, AB)

         8         8         2         2         1         1     -0.13166120


 Total CPU time for triples:     17.84 sec


 RESULTS
 =======

  Reference energy                   -129.841510931577

  Correlated core orbitals:             1.1       2.1
  Orbital energies:                   -20.6501  -15.7075
 
  CCSD core-core energy                -0.079225324693
  CCSD core-valence energy             -0.036162782464
  CCSD valence correlation energy      -0.453452387627
 
  CCSD singlet pair energy             -0.406519150423
  CCSD triplet pair energy             -0.162321344363
  CCSD correlation energy              -0.568840494785

  Triples (T) contribution             -0.021901857525
  Total correlation energy             -0.590742352310

  CCSD total energy                  -130.410351426362
  CCSD[T] energy                     -130.433369339504
  CCSD-T energy                      -130.431829136369
 !CCSD(T) total energy               -130.432253283887

 Timing summary (sec):

 STEP                 CPU(USER)    SYS     CPU(TOT)    WALL
 Transformation          1.19      0.19      1.38      1.38
 CCSD iterations        35.04      3.02     38.06     38.08
 Triples                17.84      0.54     18.38     18.38

 Program statistics:

 Available memory in ccsd:               994999644
 Min. memory needed in ccsd:               1368037
 Max. memory used in ccsd:                 1750502
 Max. memory used in cckext:               2014357 (26 integral passes)



 **********************************************************************************************************************************
 DATASETS  * FILE   NREC   LENGTH (MB)   RECORD NAMES
              1      20      500.71       500      610      700      900      950      970     1000      129      960     1100   
                                          VAR    BASINP    GEOM    SYMINP    ZMAT    AOBASIS   BASIS     P2S    ABASIS      S 
                                         1400     1410     1200     1210     1080     1600     1650     1300     1700     1380   
                                           T        V       H0       H01     AOSYM     SMH    MOLCAS    ERIS     OPER     JKOP   

              2       4        3.13       700     1000      520     2100   
                                         GEOM     BASIS   MCVARS     RHF  

 PROGRAMS   *        TOTAL   CCSD(T)        HF       INT
 CPU TIMES  *        66.31     54.10      6.16      5.96
 REAL TIME  *        73.20 SEC
 DISK USED  *         1.33 GB      
 **********************************************************************************************************************************

 CCSD(T)/USERDEF energy=   -130.432253283887

        CCSD(T)         HF-SCF  
   -130.43225328   -129.84151093
 **********************************************************************************************************************************
 Molpro calculation terminated
 Variable memory released
