
 Primary working directories    : /tmp/r2666/282447.maple
 Secondary working directories  : /tmp/r2666/282447.maple
 Wavefunction directory         : /ddn/home4/r2666/wfu/
 Main file repository           : /tmp/r2666/282447.maple/

 SHA1      : d5ffa45e93fdbca01ffc919aa182cfdae0147319
 NAME      : 2015.1.35
 ARCHNAME  : linux/x86_64
 FC        : /opt/intel/composer_xe_2015.1.133/bin/intel64/ifort
 BLASLIB   : -Wl,-_start-group /opt/intel/mkl/lib/intel64/libmkl_intel_ilp64.a /opt/intel/mkl/lib/intel64/libmkl_intel_thread.a /opt/intel/mkl/lib/intel64/libmkl_core.a -Wl,-_end-group
 id        : olemiss

 Nodes     nprocs
 cn094        1

 Using customized tuning parameters: mindgm=1; mindgv=20; mindgc=4; mindgr=1; noblas=0; minvec=7
 default implementation of scratch files=df  

 ***,hno CCSD(T)/TZ-F12 QFF
 memory, 995, m;
 gthresh,energy=1.d-12,zero=1.d-22,oneint=1.d-22,twoint=1.d-22;
 gthresh,optgrad=1.d-8,optstep=1.d-8;
 nocompress;
 geomtyp=xyz
 bohr
 geometry={
 3
         86        86
 H        0.0000000000        1.6689798054       -1.9263123244
 N        0.0000000000       -0.1649570095       -1.1346672827
 O        0.0000000000        0.0377449941        1.1103900161
 }
 
 basis={
 default=aug-cc-pvtz
 s,C,8236.0,1235.0,280.8, 79.27,25.59, 8.997,3.319
 s,C,0.9059,0.3643,0.1285000
 p,C,56.0,18.71,4.133,0.2827,0.3827,0.1209
 d,C,30.0,10.0,3.3,1.097,0.318
 f,C,7.0,2.3,0.7610
 s,N,11420.0,1712.0,389.3,110.0,35.57,12.54,4.644
 s,N,1.293,0.5118,0.1787
 p,N,79.89,26.63,5.948,1.742,0.555,0.1725
 d,N,45.0,15.0,5.0,1.654,0.469
 f,N,9.9,3.3,1.093
 s,O,15330.0,2299.0,522.4,147.3,47.55,16.76,6.207
 s,O,1.752,0.6882,0.2384
 p,O,103.5,34.46,7.749,2.28,0.7156,0.214
 d,O,63.0,21.0,7.0,2.314,0.645
 f,O,12.9,4.3,1.428
 s,mg,164900.0,24710.0,5628.0,1596.0,521.0;
 s,mg,188.0,73.01,29.90,12.54,4.306,1.826;
 s,mg,0.7417,0.0761,0.145,0.033,0.0129;
 p,mg,950.70,316.90,74.86,23.72,8.669,3.363;
 p,mg,1.310,0.4911,0.2364,0.08733,0.03237,0.00745;
 d,mg,1.601,0.686,0.126,0.294,0.0468;
 f,mg,1.372,0.588,0.094,0.252;
 }
   {hf,maxit=500;accu,20;}
 {ccsd(t),nocheck,maxit=250;orbital,IGNORE_ERROR;core}

 Variables initialized (889), CPU time= 0.00 sec
 Commands  initialized (702), CPU time= 0.01 sec, 572 directives.
 Default parameters read. Elapsed time= 0.07 sec

 Checking input...
 Passed
1


                                         ***  PROGRAM SYSTEM MOLPRO  ***
                                       Copyright, TTI GmbH Stuttgart, 2015
                                    Version 2015.1 linked Jul  9 2018 13:16:40


 **********************************************************************************************************************************
 LABEL *   hno CCSD(T)/TZ-F12 QFF                                                        
  64 bit serial version                                                                  DATE: 04-Mar-20          TIME: 13:49:52  
 **********************************************************************************************************************************

 SHA1:             d5ffa45e93fdbca01ffc919aa182cfdae0147319
 **********************************************************************************************************************************

 THRESHOLDS:

 ZERO    =  1.00D-22  ONEINT  =  1.00D-22  TWOINT  =  1.00D-22  PREFAC  =  1.00D-14  LOCALI  =  1.00D-09  EORDER  =  1.00D-04
 ENERGY  =  1.00D-12  ETEST   =  0.00D+00  EDENS   =  0.00D+00  THRDEDEF=  1.00D-06  GRADIENT=  1.00D-02  STEP    =  1.00D-03
 ORBITAL =  1.00D-05  CIVEC   =  1.00D-05  COEFF   =  1.00D-04  PRINTCI =  5.00D-02  PUNCHCI =  9.90D+01  OPTGRAD =  3.00D-04
 OPTENERG=  1.00D-06  OPTSTEP =  3.00D-04  THRGRAD =  1.00D-10  COMPRESS=  1.00D-11  VARMIN  =  1.00D-07  VARMAX  =  1.00D-03
 THRDOUB =  0.00D+00  THRDIV  =  1.00D-05  THRRED  =  1.00D-07  THRPSP  =  1.00D+00  THRDC   =  1.00D-10  THRCS   =  1.00D-10
 THRNRM  =  1.00D-08  THREQ   =  0.00D+00  THRDE   =  1.00D+00  THRREF  =  1.00D-05  SPARFAC =  1.00D+00  THRDLP  =  1.00D-07
 THRDIA  =  1.00D-10  THRDLS  =  1.00D-07  THRGPS  =  0.00D+00  THRKEX  =  0.00D+00  THRDIS  =  2.00D-01  THRVAR  =  1.00D-10
 THRLOC  =  1.00D-06  THRGAP  =  1.00D-06  THRLOCT = -1.00D+00  THRGAPT = -1.00D+00  THRORB  =  1.00D-06  THRMLTP =  0.00D+00
 THRCPQCI=  1.00D-10  KEXTA   =  0.00D+00  THRCOARS=  0.00D+00  SYMTOL  =  1.00D-06  GRADTOL =  1.00D-06  THROVL  =  1.00D-08
 THRORTH =  1.00D-08  GRID    =  1.00D-06  GRIDMAX =  1.00D-03  DTMAX   =  0.00D+00  THROCCDE=  1.00D-01  THROCCDE=  1.00D-01



 THRESHOLDS:

 ZERO    =  1.00D-22  ONEINT  =  1.00D-22  TWOINT  =  1.00D-22  PREFAC  =  1.00D-14  LOCALI  =  1.00D-09  EORDER  =  1.00D-04
 ENERGY  =  1.00D-12  ETEST   =  0.00D+00  EDENS   =  0.00D+00  THRDEDEF=  1.00D-06  GRADIENT=  1.00D-02  STEP    =  1.00D-03
 ORBITAL =  1.00D-05  CIVEC   =  1.00D-05  COEFF   =  1.00D-04  PRINTCI =  5.00D-02  PUNCHCI =  9.90D+01  OPTGRAD =  1.00D-08
 OPTENERG=  1.00D-06  OPTSTEP =  1.00D-08  THRGRAD =  1.00D-10  COMPRESS=  1.00D-11  VARMIN  =  1.00D-07  VARMAX  =  1.00D-03
 THRDOUB =  0.00D+00  THRDIV  =  1.00D-05  THRRED  =  1.00D-07  THRPSP  =  1.00D+00  THRDC   =  1.00D-10  THRCS   =  1.00D-10
 THRNRM  =  1.00D-08  THREQ   =  0.00D+00  THRDE   =  1.00D+00  THRREF  =  1.00D-05  SPARFAC =  1.00D+00  THRDLP  =  1.00D-07
 THRDIA  =  1.00D-10  THRDLS  =  1.00D-07  THRGPS  =  0.00D+00  THRKEX  =  0.00D+00  THRDIS  =  2.00D-01  THRVAR  =  1.00D-10
 THRLOC  =  1.00D-06  THRGAP  =  1.00D-06  THRLOCT = -1.00D+00  THRGAPT = -1.00D+00  THRORB  =  1.00D-06  THRMLTP =  0.00D+00
 THRCPQCI=  1.00D-10  KEXTA   =  0.00D+00  THRCOARS=  0.00D+00  SYMTOL  =  1.00D-06  GRADTOL =  1.00D-06  THROVL  =  1.00D-08
 THRORTH =  1.00D-08  GRID    =  1.00D-06  GRIDMAX =  1.00D-03  DTMAX   =  0.00D+00  THROCCDE=  1.00D-01  THROCCDE=  1.00D-01



 Input parameters for SORTINT:

 COMPRESS =    0.000000
 C_FINAL  =    1.000000
 DEBUG    =   -1.000000
 C_SORT1  =    0.000000
 C_SEWARD =    0.000000
 THRESH   =    0.000000
 IO       =  molpro                                                          
 SPRI     =    0.000000
 SETTING GEOMTYP        =    XYZ
 ZUNIT=BOHR
 

 Variable memory set to  995000000 words,  buffer space   230000 words

 SETTING BASIS          =    USERDEF


 Recomputing integrals since basis changed


 Using spherical harmonics

 Library entry H      S aug-cc-pVTZ          selected for orbital group  1
 Library entry H      P aug-cc-pVTZ          selected for orbital group  1
 Library entry H      D aug-cc-pVTZ          selected for orbital group  1


 PROGRAM * SEWARD (Integral evaluation for generally contracted gaussian basis sets)     Author: Roland Lindh, 1990

 Geometry written to block  1 of record 700


 Point group  Cs  



 ATOMIC COORDINATES

 NR  ATOM    CHARGE       X              Y              Z

   1  H       1.00    0.000000000    1.668979805   -1.926312324
   2  N       7.00    0.000000000   -0.164957010   -1.134667283
   3  O       8.00    0.000000000    0.037744994    1.110390016

 Bond lengths in Bohr (Angstrom)

 1-2  1.997504972  2-3  2.254189517
     ( 1.057034110)     ( 1.192865721)

 Bond angles

  1-2-3  108.18899349

 NUCLEAR CHARGE:                   16
 NUMBER OF PRIMITIVE AOS:         203
 NUMBER OF SYMMETRY AOS:          173
 NUMBER OF CONTRACTIONS:          171   ( 114A'  +  57A"  )
 NUMBER OF CORE ORBITALS:           2   (   2A'  +   0A"  )
 NUMBER OF VALENCE ORBITALS:        9   (   7A'  +   2A"  )


 NUCLEAR REPULSION ENERGY   30.66779587


 Eigenvalues of metric

         1 0.103E-02 0.237E-02 0.328E-02 0.632E-02 0.100E-01 0.137E-01 0.143E-01 0.229E-01
         2 0.368E-01 0.509E-01 0.694E-01 0.939E-01 0.130E+00 0.134E+00 0.140E+00 0.142E+00


 Contracted 2-electron integrals neglected if value below      1.0D-22

       46280353. INTEGRALS WRITTEN OUT IN   11302 BLOCKS ON RECORD 1290 OF FILE 1


 NUMBER OF SORTED TWO-ELECTRON INTEGRALS:   55360566.     BUFFER LENGTH:  32768
 NUMBER OF SEGMENTS:   4  SEGMENT LENGTH:   15997996      RECORD LENGTH: 524288

 Memory used in sort:      16.56 MW

 SORT1 READ    46280353. AND WROTE    46719134. INTEGRALS IN    136 RECORDS. CPU TIME:     0.70 SEC, REAL TIME:     1.01 SEC
 SORT2 READ    46719134. AND WROTE    55360566. INTEGRALS IN      4 RECORDS. CPU TIME:     0.59 SEC, REAL TIME:     0.82 SEC

 FILE SIZES:   FILE 1:   761.4 MBYTE,  FILE 4:   570.5 MBYTE,   TOTAL:   1331.9 MBYTE

 OPERATOR DM      FOR CENTER  0  COORDINATES:    0.000000    0.000000    0.000000


 **********************************************************************************************************************************
 DATASETS  * FILE   NREC   LENGTH (MB)   RECORD NAMES
              1      19      422.12       500      610      700      900      950      970     1000      129      960     1100   
                                          VAR    BASINP    GEOM    SYMINP    ZMAT    AOBASIS   BASIS     P2S    ABASIS      S 
                                         1400     1410     1200     1210     1080     1600     1650     1300     1700   
                                           T        V       H0       H01     AOSYM     SMH    MOLCAS    ERIS     OPER   

 PROGRAMS   *        TOTAL       INT
 CPU TIMES  *         4.01      3.88
 REAL TIME  *         5.39 SEC
 DISK USED  *         1.33 GB      
 **********************************************************************************************************************************


 PROGRAM * RHF-SCF (CLOSED SHELL)       Authors: W. Meyer, H.-J. Werner


 NUMBER OF ELECTRONS:       8+    8-
 CONVERGENCE THRESHOLDS:    1.00E-10 (Density)    1.00E-13 (Energy)
 MAX. NUMBER OF ITERATIONS:      500
 INTERPOLATION TYPE:            DIIS
 INTERPOLATION STEPS:              2 (START)      1 (STEP)
 LEVEL SHIFTS:                  0.00 (CLOSED)  0.00 (OPEN) 



 Orbital guess generated from atomic densities. Full valence occupancy:    9   2

 Molecular orbital dump at record        2100.2

 Initial occupancy:   7   1

 ITERATION    DDIFF          GRAD             ENERGY        2-EL.EN.            DIPOLE MOMENTS         DIIS   ORB.
    1      0.000D+00      0.000D+00      -129.79279156    154.590362    0.00000    0.55888   -0.96557    0    start
    2      0.000D+00      0.866D-02      -129.82008595    155.798392    0.00000    0.58690   -0.20059    1    diag
    3      0.356D-02      0.637D-02      -129.84068000    155.885584    0.00000    0.53692   -0.56043    2    diag
    4      0.136D-02      0.102D-02      -129.84143205    155.621578    0.00000    0.54536   -0.50077    3    diag
    5      0.324D-03      0.330D-03      -129.84154774    155.708724    0.00000    0.55145   -0.50350    4    diag
    6      0.151D-03      0.970D-04      -129.84156656    155.692779    0.00000    0.55209   -0.49964    5    diag
    7      0.603D-04      0.479D-04      -129.84157187    155.695502    0.00000    0.55349   -0.49735    6    diag
    8      0.404D-04      0.157D-04      -129.84157238    155.694740    0.00000    0.55355   -0.49654    7    diag
    9      0.130D-04      0.288D-05      -129.84157240    155.694637    0.00000    0.55350   -0.49638    8    diag
   10      0.254D-05      0.679D-06      -129.84157240    155.694623    0.00000    0.55347   -0.49635    9    orth
   11      0.808D-06      0.138D-06      -129.84157240    155.694619    0.00000    0.55346   -0.49635    9    diag
   12      0.198D-06      0.281D-07      -129.84157240    155.694618    0.00000    0.55346   -0.49635    9    diag
   13      0.485D-07      0.731D-08      -129.84157240    155.694618    0.00000    0.55346   -0.49635    9    diag
   14      0.111D-07      0.135D-08      -129.84157240    155.694618    0.00000    0.55346   -0.49635    9    diag
   15      0.157D-08      0.382D-09      -129.84157240    155.694618    0.00000    0.55346   -0.49635    9    diag
   16      0.346D-09      0.121D-09      -129.84157240    155.694618    0.00000    0.55346   -0.49635    9    diag
   17      0.979D-10      0.359D-10      -129.84157240    155.694618    0.00000    0.55346   -0.49635    0    orth

 Final occupancy:   7   1

 !RHF STATE 1.1 Energy               -129.841572398340
 Nuclear energy                        30.66779587
 One-electron energy                 -238.35667722
 Two-electron energy                   77.84730895
 Virial quotient                       -1.00122384
 !RHF STATE 1.1 Dipole moment           0.00000000     0.55345767    -0.49634861
 Dipole moment /Debye                   0.00000000     1.40665695    -1.26150969

 Orbital energies:

         1.1          2.1          3.1          4.1          5.1          6.1          7.1          8.1          9.1
    -20.649998   -15.708765    -1.540606    -0.988192    -0.749381    -0.668663    -0.423802     0.039923     0.193151

         1.2          2.2          3.2
     -0.601623     0.084405     0.240019

 HOMO      7.1    -0.423802 =     -11.5322eV
 LUMO      8.1     0.039923 =       1.0864eV
 LUMO-HOMO         0.463725 =      12.6186eV


 **********************************************************************************************************************************
 DATASETS  * FILE   NREC   LENGTH (MB)   RECORD NAMES
              1      19      422.12       500      610      700      900      950      970     1000      129      960     1100   
                                          VAR    BASINP    GEOM    SYMINP    ZMAT    AOBASIS   BASIS     P2S    ABASIS      S 
                                         1400     1410     1200     1210     1080     1600     1650     1300     1700   
                                           T        V       H0       H01     AOSYM     SMH    MOLCAS    ERIS     OPER   

              2       4        3.13       700     1000      520     2100   
                                         GEOM     BASIS   MCVARS     RHF  

 PROGRAMS   *        TOTAL        HF       INT
 CPU TIMES  *         8.20      4.20      3.88
 REAL TIME  *        10.45 SEC
 DISK USED  *         1.33 GB      
 **********************************************************************************************************************************


 PROGRAM * CCSD (Closed-shell coupled cluster)     Authors: C. Hampel, H.-J. Werner, 1991, M. Deegan, P.J. Knowles, 1992


 Convergence thresholds:  THRVAR = 1.00D-08  THRDEN = 1.00D-12

 CCSD(T)     terms to be evaluated (factor= 1.000)


 Number of closed-shell orbitals:   8 (   7   1 )
 Number of external orbitals:     163 ( 107  56 )

 Molecular orbitals read from record     2100.2  Type=RHF/CANONICAL (state 1.1)

 Number of N-1 electron functions:               8
 Number of N-2 electron functions:              36
 Number of singly external CSFs:               805
 Number of doubly external CSFs:            449165
 Total number of CSFs:                      449971

 Length of J-op  integral file:               0.00 MB
 Length of K-op  integral file:               1.15 MB
 Length of 3-ext integral record:             0.00 MB

 Memory could be reduced to 24.90 Mwords without degradation in triples

 Integral transformation finished. Total CPU:   0.80 sec, npass=  1  Memory used:   6.89 MW

 Reference energy:                   -129.84157240

 MP2 singlet pair energy:              -0.37755860
 MP2 triplet pair energy:              -0.18576608
 MP2 correlation energy:               -0.56332467
 MP2 total energy:                   -130.40489707

 SCS-MP2 correlation energy:           -0.56865810   (PS=  1.200000  PT=  0.333333)
 SCS-MP2 total energy:               -130.41023050

 ITER.      SQ.NORM     CORR.ENERGY   TOTAL ENERGY   ENERGY CHANGE        DEN1      VAR(S)    VAR(P)  DIIS     TIME  TIME/IT
   1      1.11834611    -0.56858891  -130.41016131    -0.00526424     0.01183146  0.32D-02  0.29D-02  1  1     1.67     0.92
   2      1.12886316    -0.56841680  -130.40998920     0.00017212    -0.01333100  0.84D-04  0.48D-03  2  2     2.56     0.94
   3      1.13390438    -0.56872835  -130.41030075    -0.00031155    -0.00230813  0.52D-04  0.64D-04  3  3     3.40     0.95
   4      1.13715920    -0.56871883  -130.41029123     0.00000952    -0.00133664  0.41D-05  0.91D-05  4  4     4.28     0.95
   5      1.13812798    -0.56874188  -130.41031428    -0.00002305    -0.00022701  0.15D-05  0.18D-05  5  5     5.20     0.96
   6      1.13851021    -0.56873668  -130.41030908     0.00000520    -0.00003635  0.14D-06  0.41D-06  6  6     6.10     0.96
   7      1.13859405    -0.56873679  -130.41030918    -0.00000011    -0.00000027  0.22D-07  0.88D-07  6  1     6.97     0.96
   8      1.13862789    -0.56873524  -130.41030764     0.00000154    -0.00000455  0.42D-08  0.12D-07  6  2     7.86     0.96
   9      1.13863285    -0.56873532  -130.41030772    -0.00000008     0.00000087  0.16D-08  0.15D-08  6  3     8.72     0.97
  10      1.13863435    -0.56873562  -130.41030802    -0.00000030    -0.00000053  0.37D-09  0.21D-09  6  4     9.62     0.97
  11      1.13863341    -0.56873575  -130.41030815    -0.00000013     0.00000033  0.88D-10  0.21D-10  6  5    10.50     0.97
  12      1.13863255    -0.56873587  -130.41030827    -0.00000012     0.00000033  0.92D-11  0.57D-11  6  6    11.38     0.97
  13      1.13863205    -0.56873588  -130.41030828    -0.00000001     0.00000010  0.40D-11  0.99D-12  6  1    12.27     0.97
  14      1.13863165    -0.56873591  -130.41030830    -0.00000002     0.00000010  0.43D-12  0.34D-12  6  3    13.12     0.97
  15      1.13863150    -0.56873591  -130.41030831    -0.00000000     0.00000002  0.11D-12  0.22D-13  6  2    14.00     0.97
  16      1.13863145    -0.56873591  -130.41030831    -0.00000000     0.00000001  0.24D-13  0.52D-14  6  4    14.89     0.97
  17      1.13863144    -0.56873591  -130.41030831    -0.00000000     0.00000000  0.37D-14  0.98D-15  6  5    15.78     0.97
  18      1.13863143    -0.56873591  -130.41030831    -0.00000000     0.00000000  0.35D-15  0.25D-15  6  6    16.66     0.97
  19      1.13863144    -0.56873591  -130.41030831     0.00000000    -0.00000000  0.40D-16  0.28D-16  6  1    17.52     0.97
  20      1.13863144    -0.56873591  -130.41030831     0.00000000    -0.00000000  0.17D-17  0.54D-17  6  3    18.41     0.97
  21      1.13863144    -0.56873591  -130.41030831     0.00000000    -0.00000000  0.84D-18  0.12D-17  6  2    19.29     0.97
  22      1.13863144    -0.56873591  -130.41030831     0.00000000    -0.00000000  0.12D-18  0.44D-18  6  4    20.17     0.97
  23      1.13863144    -0.56873591  -130.41030831    -0.00000000     0.00000000  0.75D-19  0.70D-19  6  5    21.02     0.97
  24      1.13863144    -0.56873591  -130.41030831     0.00000000    -0.00000000  0.41D-20  0.91D-20  6  1    21.92     0.97
  25      1.13863144    -0.56873591  -130.41030831     0.00000000     0.00000000  0.20D-21  0.11D-20  6  6    22.79     0.97
  26      1.13863144    -0.56873591  -130.41030831    -0.00000000     0.00000000  0.10D-21  0.24D-21  6  3    23.68     0.97

 Norm of t1 vector:      0.07561993      S-energy:     0.00000000      T1 diagnostic:  0.01336784
                                                                       D1 diagnostic:  0.04218072

 Doubles amplitudes (print threshold =  0.500E-01):

         I         J         SYM. A    SYM. B    A         B      T(IJ, AB)

         8         8         2         2         1         1     -0.13003091


 Total CPU time for triples:     14.24 sec


 RESULTS
 =======

  Reference energy                   -129.841572398340

  Correlated core orbitals:             1.1       2.1
  Orbital energies:                   -20.6500  -15.7088
 
  CCSD core-core energy                -0.079224203638
  CCSD core-valence energy             -0.036164587419
  CCSD valence correlation energy      -0.453347118464
 
  CCSD singlet pair energy             -0.406419843015
  CCSD triplet pair energy             -0.162316066513
  CCSD correlation energy              -0.568735909521

  Triples (T) contribution             -0.021852070801
  Total correlation energy             -0.590587980322

  CCSD total energy                  -130.410308307861
  CCSD[T] energy                     -130.433271053122
  CCSD-T energy                      -130.431736127351
 !CCSD(T) total energy               -130.432160378662

 Timing summary (sec):

 STEP                 CPU(USER)    SYS     CPU(TOT)    WALL
 Transformation          0.82      0.16      0.98      0.98
 CCSD iterations        22.86      2.37     25.23     25.25
 Triples                14.24      0.54     14.78     14.78

 Program statistics:

 Available memory in ccsd:               994999644
 Min. memory needed in ccsd:               1368037
 Max. memory used in ccsd:                 1750502
 Max. memory used in cckext:               2014357 (26 integral passes)



 **********************************************************************************************************************************
 DATASETS  * FILE   NREC   LENGTH (MB)   RECORD NAMES
              1      20      501.03       500      610      700      900      950      970     1000      129      960     1100   
                                          VAR    BASINP    GEOM    SYMINP    ZMAT    AOBASIS   BASIS     P2S    ABASIS      S 
                                         1400     1410     1200     1210     1080     1600     1650     1300     1700     1380   
                                           T        V       H0       H01     AOSYM     SMH    MOLCAS    ERIS     OPER     JKOP   

              2       4        3.13       700     1000      520     2100   
                                         GEOM     BASIS   MCVARS     RHF  

 PROGRAMS   *        TOTAL   CCSD(T)        HF       INT
 CPU TIMES  *        46.15     37.95      4.20      3.88
 REAL TIME  *        51.48 SEC
 DISK USED  *         1.33 GB      
 **********************************************************************************************************************************

 CCSD(T)/USERDEF energy=   -130.432160378662

        CCSD(T)         HF-SCF  
   -130.43216038   -129.84157240
 **********************************************************************************************************************************
 Molpro calculation terminated
 Variable memory released
