
 Primary working directories    : /tmp/r2666/282487.maple
 Secondary working directories  : /tmp/r2666/282487.maple
 Wavefunction directory         : /ddn/home4/r2666/wfu/
 Main file repository           : /tmp/r2666/282487.maple/

 SHA1      : d5ffa45e93fdbca01ffc919aa182cfdae0147319
 NAME      : 2015.1.35
 ARCHNAME  : linux/x86_64
 FC        : /opt/intel/composer_xe_2015.1.133/bin/intel64/ifort
 BLASLIB   : -Wl,-_start-group /opt/intel/mkl/lib/intel64/libmkl_intel_ilp64.a /opt/intel/mkl/lib/intel64/libmkl_intel_thread.a /opt/intel/mkl/lib/intel64/libmkl_core.a -Wl,-_end-group
 id        : olemiss

 Nodes     nprocs
 cn050        1

 Using customized tuning parameters: mindgm=1; mindgv=20; mindgc=4; mindgr=1; noblas=0; minvec=7
 default implementation of scratch files=df  

 ***,hno CCSD(T)/TZ-F12 QFF
 memory, 995, m;
 gthresh,energy=1.d-12,zero=1.d-22,oneint=1.d-22,twoint=1.d-22;
 gthresh,optgrad=1.d-8,optstep=1.d-8;
 nocompress;
 geomtyp=xyz
 bohr
 geometry={
 3
        126       126
 H        0.0000000000        1.6805078646       -1.9399823437
 N        0.0000000000       -0.1712808513       -1.1420120983
 O        0.0000000000        0.0325407768        1.1314048510
 }
 
 basis={
 default=aug-cc-pvtz
 s,C,8236.0,1235.0,280.8, 79.27,25.59, 8.997,3.319
 s,C,0.9059,0.3643,0.1285000
 p,C,56.0,18.71,4.133,0.2827,0.3827,0.1209
 d,C,30.0,10.0,3.3,1.097,0.318
 f,C,7.0,2.3,0.7610
 s,N,11420.0,1712.0,389.3,110.0,35.57,12.54,4.644
 s,N,1.293,0.5118,0.1787
 p,N,79.89,26.63,5.948,1.742,0.555,0.1725
 d,N,45.0,15.0,5.0,1.654,0.469
 f,N,9.9,3.3,1.093
 s,O,15330.0,2299.0,522.4,147.3,47.55,16.76,6.207
 s,O,1.752,0.6882,0.2384
 p,O,103.5,34.46,7.749,2.28,0.7156,0.214
 d,O,63.0,21.0,7.0,2.314,0.645
 f,O,12.9,4.3,1.428
 s,mg,164900.0,24710.0,5628.0,1596.0,521.0;
 s,mg,188.0,73.01,29.90,12.54,4.306,1.826;
 s,mg,0.7417,0.0761,0.145,0.033,0.0129;
 p,mg,950.70,316.90,74.86,23.72,8.669,3.363;
 p,mg,1.310,0.4911,0.2364,0.08733,0.03237,0.00745;
 d,mg,1.601,0.686,0.126,0.294,0.0468;
 f,mg,1.372,0.588,0.094,0.252;
 }
   {hf,maxit=500;accu,20;}
 {ccsd(t),nocheck,maxit=250;orbital,IGNORE_ERROR;core}

 Variables initialized (889), CPU time= 0.00 sec
 Commands  initialized (702), CPU time= 0.01 sec, 572 directives.
 Default parameters read. Elapsed time= 0.06 sec

 Checking input...
 Passed
1


                                         ***  PROGRAM SYSTEM MOLPRO  ***
                                       Copyright, TTI GmbH Stuttgart, 2015
                                    Version 2015.1 linked Jul  9 2018 13:16:40


 **********************************************************************************************************************************
 LABEL *   hno CCSD(T)/TZ-F12 QFF                                                        
  64 bit serial version                                                                  DATE: 04-Mar-20          TIME: 13:50:40  
 **********************************************************************************************************************************

 SHA1:             d5ffa45e93fdbca01ffc919aa182cfdae0147319
 **********************************************************************************************************************************

 THRESHOLDS:

 ZERO    =  1.00D-22  ONEINT  =  1.00D-22  TWOINT  =  1.00D-22  PREFAC  =  1.00D-14  LOCALI  =  1.00D-09  EORDER  =  1.00D-04
 ENERGY  =  1.00D-12  ETEST   =  0.00D+00  EDENS   =  0.00D+00  THRDEDEF=  1.00D-06  GRADIENT=  1.00D-02  STEP    =  1.00D-03
 ORBITAL =  1.00D-05  CIVEC   =  1.00D-05  COEFF   =  1.00D-04  PRINTCI =  5.00D-02  PUNCHCI =  9.90D+01  OPTGRAD =  3.00D-04
 OPTENERG=  1.00D-06  OPTSTEP =  3.00D-04  THRGRAD =  1.00D-10  COMPRESS=  1.00D-11  VARMIN  =  1.00D-07  VARMAX  =  1.00D-03
 THRDOUB =  0.00D+00  THRDIV  =  1.00D-05  THRRED  =  1.00D-07  THRPSP  =  1.00D+00  THRDC   =  1.00D-10  THRCS   =  1.00D-10
 THRNRM  =  1.00D-08  THREQ   =  0.00D+00  THRDE   =  1.00D+00  THRREF  =  1.00D-05  SPARFAC =  1.00D+00  THRDLP  =  1.00D-07
 THRDIA  =  1.00D-10  THRDLS  =  1.00D-07  THRGPS  =  0.00D+00  THRKEX  =  0.00D+00  THRDIS  =  2.00D-01  THRVAR  =  1.00D-10
 THRLOC  =  1.00D-06  THRGAP  =  1.00D-06  THRLOCT = -1.00D+00  THRGAPT = -1.00D+00  THRORB  =  1.00D-06  THRMLTP =  0.00D+00
 THRCPQCI=  1.00D-10  KEXTA   =  0.00D+00  THRCOARS=  0.00D+00  SYMTOL  =  1.00D-06  GRADTOL =  1.00D-06  THROVL  =  1.00D-08
 THRORTH =  1.00D-08  GRID    =  1.00D-06  GRIDMAX =  1.00D-03  DTMAX   =  0.00D+00  THROCCDE=  1.00D-01  THROCCDE=  1.00D-01



 THRESHOLDS:

 ZERO    =  1.00D-22  ONEINT  =  1.00D-22  TWOINT  =  1.00D-22  PREFAC  =  1.00D-14  LOCALI  =  1.00D-09  EORDER  =  1.00D-04
 ENERGY  =  1.00D-12  ETEST   =  0.00D+00  EDENS   =  0.00D+00  THRDEDEF=  1.00D-06  GRADIENT=  1.00D-02  STEP    =  1.00D-03
 ORBITAL =  1.00D-05  CIVEC   =  1.00D-05  COEFF   =  1.00D-04  PRINTCI =  5.00D-02  PUNCHCI =  9.90D+01  OPTGRAD =  1.00D-08
 OPTENERG=  1.00D-06  OPTSTEP =  1.00D-08  THRGRAD =  1.00D-10  COMPRESS=  1.00D-11  VARMIN  =  1.00D-07  VARMAX  =  1.00D-03
 THRDOUB =  0.00D+00  THRDIV  =  1.00D-05  THRRED  =  1.00D-07  THRPSP  =  1.00D+00  THRDC   =  1.00D-10  THRCS   =  1.00D-10
 THRNRM  =  1.00D-08  THREQ   =  0.00D+00  THRDE   =  1.00D+00  THRREF  =  1.00D-05  SPARFAC =  1.00D+00  THRDLP  =  1.00D-07
 THRDIA  =  1.00D-10  THRDLS  =  1.00D-07  THRGPS  =  0.00D+00  THRKEX  =  0.00D+00  THRDIS  =  2.00D-01  THRVAR  =  1.00D-10
 THRLOC  =  1.00D-06  THRGAP  =  1.00D-06  THRLOCT = -1.00D+00  THRGAPT = -1.00D+00  THRORB  =  1.00D-06  THRMLTP =  0.00D+00
 THRCPQCI=  1.00D-10  KEXTA   =  0.00D+00  THRCOARS=  0.00D+00  SYMTOL  =  1.00D-06  GRADTOL =  1.00D-06  THROVL  =  1.00D-08
 THRORTH =  1.00D-08  GRID    =  1.00D-06  GRIDMAX =  1.00D-03  DTMAX   =  0.00D+00  THROCCDE=  1.00D-01  THROCCDE=  1.00D-01



 Input parameters for SORTINT:

 COMPRESS =    0.000000
 C_FINAL  =    1.000000
 DEBUG    =   -1.000000
 C_SORT1  =    0.000000
 C_SEWARD =    0.000000
 THRESH   =    0.000000
 IO       =  molpro                                                          
 SPRI     =    0.000000
 SETTING GEOMTYP        =    XYZ
 ZUNIT=BOHR
 

 Variable memory set to  995000000 words,  buffer space   230000 words

 SETTING BASIS          =    USERDEF


 Recomputing integrals since basis changed


 Using spherical harmonics

 Library entry H      S aug-cc-pVTZ          selected for orbital group  1
 Library entry H      P aug-cc-pVTZ          selected for orbital group  1
 Library entry H      D aug-cc-pVTZ          selected for orbital group  1


 PROGRAM * SEWARD (Integral evaluation for generally contracted gaussian basis sets)     Author: Roland Lindh, 1990

 Geometry written to block  1 of record 700


 Point group  Cs  



 ATOMIC COORDINATES

 NR  ATOM    CHARGE       X              Y              Z

   1  H       1.00    0.000000000    1.680507865   -1.939982344
   2  N       7.00    0.000000000   -0.171280851   -1.142012098
   3  O       8.00    0.000000000    0.032540777    1.131404851

 Bond lengths in Bohr (Angstrom)

 1-2  2.016402232  2-3  2.282535406
     ( 1.067034109)     ( 1.207865720)

 Bond angles

  1-2-3  108.18899349

 NUCLEAR CHARGE:                   16
 NUMBER OF PRIMITIVE AOS:         203
 NUMBER OF SYMMETRY AOS:          173
 NUMBER OF CONTRACTIONS:          171   ( 114A'  +  57A"  )
 NUMBER OF CORE ORBITALS:           2   (   2A'  +   0A"  )
 NUMBER OF VALENCE ORBITALS:        9   (   7A'  +   2A"  )


 NUCLEAR REPULSION ENERGY   30.30082605


 Eigenvalues of metric

         1 0.107E-02 0.250E-02 0.339E-02 0.646E-02 0.104E-01 0.138E-01 0.145E-01 0.237E-01
         2 0.382E-01 0.533E-01 0.709E-01 0.942E-01 0.131E+00 0.135E+00 0.142E+00 0.142E+00


 Contracted 2-electron integrals neglected if value below      1.0D-22

       46152739. INTEGRALS WRITTEN OUT IN   11271 BLOCKS ON RECORD 1290 OF FILE 1


 NUMBER OF SORTED TWO-ELECTRON INTEGRALS:   55360566.     BUFFER LENGTH:  32768
 NUMBER OF SEGMENTS:   4  SEGMENT LENGTH:   15997996      RECORD LENGTH: 524288

 Memory used in sort:      16.56 MW

 SORT1 READ    46152739. AND WROTE    46590247. INTEGRALS IN    136 RECORDS. CPU TIME:     1.64 SEC, REAL TIME:     2.02 SEC
 SORT2 READ    46590247. AND WROTE    55360566. INTEGRALS IN      4 RECORDS. CPU TIME:     0.95 SEC, REAL TIME:     1.18 SEC

 FILE SIZES:   FILE 1:   759.4 MBYTE,  FILE 4:   570.5 MBYTE,   TOTAL:   1329.8 MBYTE

 OPERATOR DM      FOR CENTER  0  COORDINATES:    0.000000    0.000000    0.000000


 **********************************************************************************************************************************
 DATASETS  * FILE   NREC   LENGTH (MB)   RECORD NAMES
              1      19      421.30       500      610      700      900      950      970     1000      129      960     1100   
                                          VAR    BASINP    GEOM    SYMINP    ZMAT    AOBASIS   BASIS     P2S    ABASIS      S 
                                         1400     1410     1200     1210     1080     1600     1650     1300     1700   
                                           T        V       H0       H01     AOSYM     SMH    MOLCAS    ERIS     OPER   

 PROGRAMS   *        TOTAL       INT
 CPU TIMES  *         6.84      6.73
 REAL TIME  *         8.66 SEC
 DISK USED  *         1.33 GB      
 **********************************************************************************************************************************


 PROGRAM * RHF-SCF (CLOSED SHELL)       Authors: W. Meyer, H.-J. Werner


 NUMBER OF ELECTRONS:       8+    8-
 CONVERGENCE THRESHOLDS:    1.00E-10 (Density)    1.00E-13 (Energy)
 MAX. NUMBER OF ITERATIONS:      500
 INTERPOLATION TYPE:            DIIS
 INTERPOLATION STEPS:              2 (START)      1 (STEP)
 LEVEL SHIFTS:                  0.00 (CLOSED)  0.00 (OPEN) 



 Orbital guess generated from atomic densities. Full valence occupancy:    9   2

 Molecular orbital dump at record        2100.2

 Initial occupancy:   7   1

 ITERATION    DDIFF          GRAD             ENERGY        2-EL.EN.            DIPOLE MOMENTS         DIIS   ORB.
    1      0.000D+00      0.000D+00      -129.78795263    153.926809    0.00000    0.55930   -1.01475    0    start
    2      0.000D+00      0.884D-02      -129.81483887    155.119387    0.00000    0.59583   -0.18995    1    diag
    3      0.362D-02      0.676D-02      -129.83826745    155.235571    0.00000    0.54089   -0.58169    2    diag
    4      0.143D-02      0.104D-02      -129.83905390    154.958986    0.00000    0.54889   -0.51934    3    diag
    5      0.329D-03      0.339D-03      -129.83917718    155.048263    0.00000    0.55513   -0.52184    4    diag
    6      0.153D-03      0.100D-03      -129.83919750    155.031962    0.00000    0.55571   -0.51767    5    diag
    7      0.612D-04      0.502D-04      -129.83920345    155.034585    0.00000    0.55709   -0.51517    6    diag
    8      0.414D-04      0.172D-04      -129.83920409    155.033748    0.00000    0.55715   -0.51426    7    diag
    9      0.144D-04      0.324D-05      -129.83920412    155.033629    0.00000    0.55709   -0.51407    8    diag
   10      0.293D-05      0.738D-06      -129.83920412    155.033614    0.00000    0.55706   -0.51404    9    orth
   11      0.859D-06      0.147D-06      -129.83920412    155.033609    0.00000    0.55705   -0.51404    9    diag
   12      0.206D-06      0.307D-07      -129.83920412    155.033608    0.00000    0.55705   -0.51404    9    diag
   13      0.513D-07      0.818D-08      -129.83920412    155.033608    0.00000    0.55705   -0.51404    9    diag
   14      0.121D-07      0.145D-08      -129.83920412    155.033608    0.00000    0.55705   -0.51404    9    diag
   15      0.156D-08      0.393D-09      -129.83920412    155.033608    0.00000    0.55705   -0.51404    9    diag
   16      0.344D-09      0.117D-09      -129.83920412    155.033608    0.00000    0.55705   -0.51404    9    diag
   17      0.840D-10      0.339D-10      -129.83920412    155.033608    0.00000    0.55705   -0.51404    0    orth

 Final occupancy:   7   1

 !RHF STATE 1.1 Energy               -129.839204116834
 Nuclear energy                        30.30082605
 One-electron energy                 -237.65683415
 Two-electron energy                   77.51680398
 Virial quotient                       -1.00180408
 !RHF STATE 1.1 Dipole moment           0.00000000     0.55704513    -0.51403529
 Dipole moment /Debye                   0.00000000     1.41577476    -1.30646181

 Orbital energies:

         1.1          2.1          3.1          4.1          5.1          6.1          7.1          8.1          9.1
    -20.651592   -15.712620    -1.527987    -0.989216    -0.743576    -0.664286    -0.427833     0.039620     0.191416

         1.2          2.2          3.2
     -0.594503     0.079138     0.239402

 HOMO      7.1    -0.427833 =     -11.6419eV
 LUMO      8.1     0.039620 =       1.0781eV
 LUMO-HOMO         0.467452 =      12.7200eV


 **********************************************************************************************************************************
 DATASETS  * FILE   NREC   LENGTH (MB)   RECORD NAMES
              1      19      421.30       500      610      700      900      950      970     1000      129      960     1100   
                                          VAR    BASINP    GEOM    SYMINP    ZMAT    AOBASIS   BASIS     P2S    ABASIS      S 
                                         1400     1410     1200     1210     1080     1600     1650     1300     1700   
                                           T        V       H0       H01     AOSYM     SMH    MOLCAS    ERIS     OPER   

              2       4        3.13       700     1000      520     2100   
                                         GEOM     BASIS   MCVARS     RHF  

 PROGRAMS   *        TOTAL        HF       INT
 CPU TIMES  *        13.24      6.40      6.73
 REAL TIME  *        16.62 SEC
 DISK USED  *         1.33 GB      
 **********************************************************************************************************************************


 PROGRAM * CCSD (Closed-shell coupled cluster)     Authors: C. Hampel, H.-J. Werner, 1991, M. Deegan, P.J. Knowles, 1992


 Convergence thresholds:  THRVAR = 1.00D-08  THRDEN = 1.00D-12

 CCSD(T)     terms to be evaluated (factor= 1.000)


 Number of closed-shell orbitals:   8 (   7   1 )
 Number of external orbitals:     163 ( 107  56 )

 Molecular orbitals read from record     2100.2  Type=RHF/CANONICAL (state 1.1)

 Number of N-1 electron functions:               8
 Number of N-2 electron functions:              36
 Number of singly external CSFs:               805
 Number of doubly external CSFs:            449165
 Total number of CSFs:                      449971

 Length of J-op  integral file:               0.00 MB
 Length of K-op  integral file:               1.15 MB
 Length of 3-ext integral record:             0.00 MB

 Memory could be reduced to 24.90 Mwords without degradation in triples

 Integral transformation finished. Total CPU:   1.35 sec, npass=  1  Memory used:   6.89 MW

 Reference energy:                   -129.83920412

 MP2 singlet pair energy:              -0.37926295
 MP2 triplet pair energy:              -0.18680094
 MP2 correlation energy:               -0.56606389
 MP2 total energy:                   -130.40526800

 SCS-MP2 correlation energy:           -0.57134723   (PS=  1.200000  PT=  0.333333)
 SCS-MP2 total energy:               -130.41055135

 ITER.      SQ.NORM     CORR.ENERGY   TOTAL ENERGY   ENERGY CHANGE        DEN1      VAR(S)    VAR(P)  DIIS     TIME  TIME/IT
   1      1.12026527    -0.57076102  -130.40996513    -0.00469713     0.01314574  0.34D-02  0.31D-02  1  1     2.84     1.57
   2      1.13124235    -0.57045307  -130.40965718     0.00030795    -0.01379809  0.92D-04  0.51D-03  2  2     4.43     1.62
   3      1.13656554    -0.57078825  -130.40999237    -0.00033519    -0.00238214  0.57D-04  0.69D-04  3  3     6.00     1.64
   4      1.14004134    -0.57077880  -130.40998292     0.00000945    -0.00140050  0.48D-05  0.99D-05  4  4     7.56     1.65
   5      1.14111621    -0.57080381  -130.41000793    -0.00002501    -0.00025416  0.17D-05  0.18D-05  5  5     9.10     1.65
   6      1.14153446    -0.57079770  -130.41000182     0.00000611    -0.00004051  0.16D-06  0.40D-06  6  6    10.65     1.66
   7      1.14162103    -0.57079781  -130.41000193    -0.00000011     0.00000039  0.24D-07  0.92D-07  6  1    12.19     1.66
   8      1.14165620    -0.57079603  -130.41000015     0.00000178    -0.00000489  0.41D-08  0.14D-07  6  2    13.77     1.66
   9      1.14166147    -0.57079606  -130.41000017    -0.00000002     0.00000109  0.17D-08  0.18D-08  6  3    15.32     1.66
  10      1.14166332    -0.57079636  -130.41000048    -0.00000031    -0.00000067  0.40D-09  0.25D-09  6  4    16.84     1.66
  11      1.14166237    -0.57079650  -130.41000062    -0.00000014     0.00000034  0.10D-09  0.26D-10  6  5    18.44     1.66
  12      1.14166145    -0.57079664  -130.41000076    -0.00000014     0.00000036  0.11D-10  0.67D-11  6  6    19.98     1.67
  13      1.14166091    -0.57079665  -130.41000077    -0.00000001     0.00000011  0.46D-11  0.12D-11  6  1    21.58     1.67
  14      1.14166046    -0.57079668  -130.41000080    -0.00000003     0.00000011  0.47D-12  0.41D-12  6  3    23.08     1.67
  15      1.14166029    -0.57079668  -130.41000080    -0.00000000     0.00000002  0.12D-12  0.27D-13  6  2    24.63     1.67
  16      1.14166024    -0.57079668  -130.41000080    -0.00000000     0.00000001  0.27D-13  0.61D-14  6  4    26.15     1.67
  17      1.14166022    -0.57079668  -130.41000080    -0.00000000     0.00000001  0.45D-14  0.11D-14  6  5    27.70     1.67
  18      1.14166021    -0.57079668  -130.41000080    -0.00000000     0.00000000  0.45D-15  0.30D-15  6  6    29.27     1.67
  19      1.14166022    -0.57079668  -130.41000080     0.00000000    -0.00000000  0.56D-16  0.39D-16  6  1    30.79     1.67
  20      1.14166022    -0.57079668  -130.41000080     0.00000000    -0.00000000  0.24D-17  0.82D-17  6  3    32.36     1.67
  21      1.14166022    -0.57079668  -130.41000080     0.00000000    -0.00000000  0.12D-17  0.20D-17  6  2    33.90     1.67
  22      1.14166022    -0.57079668  -130.41000080     0.00000000    -0.00000000  0.18D-18  0.74D-18  6  4    35.46     1.67
  23      1.14166022    -0.57079668  -130.41000080    -0.00000000     0.00000000  0.12D-18  0.11D-18  6  5    37.02     1.67
  24      1.14166022    -0.57079668  -130.41000080     0.00000000    -0.00000000  0.59D-20  0.14D-19  6  1    38.59     1.67
  25      1.14166022    -0.57079668  -130.41000080     0.00000000     0.00000000  0.29D-21  0.15D-20  6  6    40.14     1.67
  26      1.14166022    -0.57079668  -130.41000080    -0.00000000     0.00000000  0.12D-21  0.33D-21  6  3    41.70     1.67

 Norm of t1 vector:      0.07839518      S-energy:     0.00000000      T1 diagnostic:  0.01385844
                                                                       D1 diagnostic:  0.04408381

 Doubles amplitudes (print threshold =  0.500E-01):

         I         J         SYM. A    SYM. B    A         B      T(IJ, AB)

         8         8         2         2         1         1     -0.13443108


 Total CPU time for triples:     23.04 sec


 RESULTS
 =======

  Reference energy                   -129.839204116835

  Correlated core orbitals:             1.1       2.1
  Orbital energies:                   -20.6516  -15.7126
 
  CCSD core-core energy                -0.079234420580
  CCSD core-valence energy             -0.036045310699
  CCSD valence correlation energy      -0.455516951436
 
  CCSD singlet pair energy             -0.408288934117
  CCSD triplet pair energy             -0.162507748606
  CCSD correlation energy              -0.570796682716

  Triples (T) contribution             -0.022387465921
  Total correlation energy             -0.593184148637

  CCSD total energy                  -130.410000799550
  CCSD[T] energy                     -130.433575919067
  CCSD-T energy                      -130.431941710825
 !CCSD(T) total energy               -130.432388265471

 Timing summary (sec):

 STEP                 CPU(USER)    SYS     CPU(TOT)    WALL
 Transformation          1.38      0.20      1.58      1.59
 CCSD iterations        40.33      3.15     43.48     43.47
 Triples                23.04      0.65     23.69     23.69

 Program statistics:

 Available memory in ccsd:               994999644
 Min. memory needed in ccsd:               1368037
 Max. memory used in ccsd:                 1750502
 Max. memory used in cckext:               2014357 (26 integral passes)



 **********************************************************************************************************************************
 DATASETS  * FILE   NREC   LENGTH (MB)   RECORD NAMES
              1      20      500.21       500      610      700      900      950      970     1000      129      960     1100   
                                          VAR    BASINP    GEOM    SYMINP    ZMAT    AOBASIS   BASIS     P2S    ABASIS      S 
                                         1400     1410     1200     1210     1080     1600     1650     1300     1700     1380   
                                           T        V       H0       H01     AOSYM     SMH    MOLCAS    ERIS     OPER     JKOP   

              2       4        3.13       700     1000      520     2100   
                                         GEOM     BASIS   MCVARS     RHF  

 PROGRAMS   *        TOTAL   CCSD(T)        HF       INT
 CPU TIMES  *        78.01     64.77      6.40      6.73
 REAL TIME  *        85.42 SEC
 DISK USED  *         1.33 GB      
 **********************************************************************************************************************************

 CCSD(T)/USERDEF energy=   -130.432388265471

        CCSD(T)         HF-SCF  
   -130.43238827   -129.83920412
 **********************************************************************************************************************************
 Molpro calculation terminated
 Variable memory released
