
 Primary working directories    : /tmp/r2666/282469.maple
 Secondary working directories  : /tmp/r2666/282469.maple
 Wavefunction directory         : /ddn/home4/r2666/wfu/
 Main file repository           : /tmp/r2666/282469.maple/

 SHA1      : d5ffa45e93fdbca01ffc919aa182cfdae0147319
 NAME      : 2015.1.35
 ARCHNAME  : linux/x86_64
 FC        : /opt/intel/composer_xe_2015.1.133/bin/intel64/ifort
 BLASLIB   : -Wl,-_start-group /opt/intel/mkl/lib/intel64/libmkl_intel_ilp64.a /opt/intel/mkl/lib/intel64/libmkl_intel_thread.a /opt/intel/mkl/lib/intel64/libmkl_core.a -Wl,-_end-group
 id        : olemiss

 Nodes     nprocs
 cn062        1

 Using customized tuning parameters: mindgm=1; mindgv=20; mindgc=4; mindgr=1; noblas=0; minvec=7
 default implementation of scratch files=df  

 ***,hno CCSD(T)/TZ-F12 QFF
 memory, 995, m;
 gthresh,energy=1.d-12,zero=1.d-22,oneint=1.d-22,twoint=1.d-22;
 gthresh,optgrad=1.d-8,optstep=1.d-8;
 nocompress;
 geomtyp=xyz
 bohr
 geometry={
 3
        108       108
 H        0.0000000000        1.6730169914       -1.9371054457
 N        0.0000000000       -0.1642516276       -1.1532239909
 O        0.0000000000        0.0330024262        1.1397398457
 }
 
 basis={
 default=aug-cc-pvtz
 s,C,8236.0,1235.0,280.8, 79.27,25.59, 8.997,3.319
 s,C,0.9059,0.3643,0.1285000
 p,C,56.0,18.71,4.133,0.2827,0.3827,0.1209
 d,C,30.0,10.0,3.3,1.097,0.318
 f,C,7.0,2.3,0.7610
 s,N,11420.0,1712.0,389.3,110.0,35.57,12.54,4.644
 s,N,1.293,0.5118,0.1787
 p,N,79.89,26.63,5.948,1.742,0.555,0.1725
 d,N,45.0,15.0,5.0,1.654,0.469
 f,N,9.9,3.3,1.093
 s,O,15330.0,2299.0,522.4,147.3,47.55,16.76,6.207
 s,O,1.752,0.6882,0.2384
 p,O,103.5,34.46,7.749,2.28,0.7156,0.214
 d,O,63.0,21.0,7.0,2.314,0.645
 f,O,12.9,4.3,1.428
 s,mg,164900.0,24710.0,5628.0,1596.0,521.0;
 s,mg,188.0,73.01,29.90,12.54,4.306,1.826;
 s,mg,0.7417,0.0761,0.145,0.033,0.0129;
 p,mg,950.70,316.90,74.86,23.72,8.669,3.363;
 p,mg,1.310,0.4911,0.2364,0.08733,0.03237,0.00745;
 d,mg,1.601,0.686,0.126,0.294,0.0468;
 f,mg,1.372,0.588,0.094,0.252;
 }
   {hf,maxit=500;accu,20;}
 {ccsd(t),nocheck,maxit=250;orbital,IGNORE_ERROR;core}

 Variables initialized (889), CPU time= 0.00 sec
 Commands  initialized (702), CPU time= 0.01 sec, 572 directives.
 Default parameters read. Elapsed time= 0.05 sec

 Checking input...
 Passed
1


                                         ***  PROGRAM SYSTEM MOLPRO  ***
                                       Copyright, TTI GmbH Stuttgart, 2015
                                    Version 2015.1 linked Jul  9 2018 13:16:40


 **********************************************************************************************************************************
 LABEL *   hno CCSD(T)/TZ-F12 QFF                                                        
  64 bit serial version                                                                  DATE: 04-Mar-20          TIME: 13:50:14  
 **********************************************************************************************************************************

 SHA1:             d5ffa45e93fdbca01ffc919aa182cfdae0147319
 **********************************************************************************************************************************

 THRESHOLDS:

 ZERO    =  1.00D-22  ONEINT  =  1.00D-22  TWOINT  =  1.00D-22  PREFAC  =  1.00D-14  LOCALI  =  1.00D-09  EORDER  =  1.00D-04
 ENERGY  =  1.00D-12  ETEST   =  0.00D+00  EDENS   =  0.00D+00  THRDEDEF=  1.00D-06  GRADIENT=  1.00D-02  STEP    =  1.00D-03
 ORBITAL =  1.00D-05  CIVEC   =  1.00D-05  COEFF   =  1.00D-04  PRINTCI =  5.00D-02  PUNCHCI =  9.90D+01  OPTGRAD =  3.00D-04
 OPTENERG=  1.00D-06  OPTSTEP =  3.00D-04  THRGRAD =  1.00D-10  COMPRESS=  1.00D-11  VARMIN  =  1.00D-07  VARMAX  =  1.00D-03
 THRDOUB =  0.00D+00  THRDIV  =  1.00D-05  THRRED  =  1.00D-07  THRPSP  =  1.00D+00  THRDC   =  1.00D-10  THRCS   =  1.00D-10
 THRNRM  =  1.00D-08  THREQ   =  0.00D+00  THRDE   =  1.00D+00  THRREF  =  1.00D-05  SPARFAC =  1.00D+00  THRDLP  =  1.00D-07
 THRDIA  =  1.00D-10  THRDLS  =  1.00D-07  THRGPS  =  0.00D+00  THRKEX  =  0.00D+00  THRDIS  =  2.00D-01  THRVAR  =  1.00D-10
 THRLOC  =  1.00D-06  THRGAP  =  1.00D-06  THRLOCT = -1.00D+00  THRGAPT = -1.00D+00  THRORB  =  1.00D-06  THRMLTP =  0.00D+00
 THRCPQCI=  1.00D-10  KEXTA   =  0.00D+00  THRCOARS=  0.00D+00  SYMTOL  =  1.00D-06  GRADTOL =  1.00D-06  THROVL  =  1.00D-08
 THRORTH =  1.00D-08  GRID    =  1.00D-06  GRIDMAX =  1.00D-03  DTMAX   =  0.00D+00  THROCCDE=  1.00D-01  THROCCDE=  1.00D-01



 THRESHOLDS:

 ZERO    =  1.00D-22  ONEINT  =  1.00D-22  TWOINT  =  1.00D-22  PREFAC  =  1.00D-14  LOCALI  =  1.00D-09  EORDER  =  1.00D-04
 ENERGY  =  1.00D-12  ETEST   =  0.00D+00  EDENS   =  0.00D+00  THRDEDEF=  1.00D-06  GRADIENT=  1.00D-02  STEP    =  1.00D-03
 ORBITAL =  1.00D-05  CIVEC   =  1.00D-05  COEFF   =  1.00D-04  PRINTCI =  5.00D-02  PUNCHCI =  9.90D+01  OPTGRAD =  1.00D-08
 OPTENERG=  1.00D-06  OPTSTEP =  1.00D-08  THRGRAD =  1.00D-10  COMPRESS=  1.00D-11  VARMIN  =  1.00D-07  VARMAX  =  1.00D-03
 THRDOUB =  0.00D+00  THRDIV  =  1.00D-05  THRRED  =  1.00D-07  THRPSP  =  1.00D+00  THRDC   =  1.00D-10  THRCS   =  1.00D-10
 THRNRM  =  1.00D-08  THREQ   =  0.00D+00  THRDE   =  1.00D+00  THRREF  =  1.00D-05  SPARFAC =  1.00D+00  THRDLP  =  1.00D-07
 THRDIA  =  1.00D-10  THRDLS  =  1.00D-07  THRGPS  =  0.00D+00  THRKEX  =  0.00D+00  THRDIS  =  2.00D-01  THRVAR  =  1.00D-10
 THRLOC  =  1.00D-06  THRGAP  =  1.00D-06  THRLOCT = -1.00D+00  THRGAPT = -1.00D+00  THRORB  =  1.00D-06  THRMLTP =  0.00D+00
 THRCPQCI=  1.00D-10  KEXTA   =  0.00D+00  THRCOARS=  0.00D+00  SYMTOL  =  1.00D-06  GRADTOL =  1.00D-06  THROVL  =  1.00D-08
 THRORTH =  1.00D-08  GRID    =  1.00D-06  GRIDMAX =  1.00D-03  DTMAX   =  0.00D+00  THROCCDE=  1.00D-01  THROCCDE=  1.00D-01



 Input parameters for SORTINT:

 COMPRESS =    0.000000
 C_FINAL  =    1.000000
 DEBUG    =   -1.000000
 C_SORT1  =    0.000000
 C_SEWARD =    0.000000
 THRESH   =    0.000000
 IO       =  molpro                                                          
 SPRI     =    0.000000
 SETTING GEOMTYP        =    XYZ
 ZUNIT=BOHR
 

 Variable memory set to  995000000 words,  buffer space   230000 words

 SETTING BASIS          =    USERDEF


 Recomputing integrals since basis changed


 Using spherical harmonics

 Library entry H      S aug-cc-pVTZ          selected for orbital group  1
 Library entry H      P aug-cc-pVTZ          selected for orbital group  1
 Library entry H      D aug-cc-pVTZ          selected for orbital group  1


 PROGRAM * SEWARD (Integral evaluation for generally contracted gaussian basis sets)     Author: Roland Lindh, 1990

 Geometry written to block  1 of record 700


 Point group  Cs  



 ATOMIC COORDINATES

 NR  ATOM    CHARGE       X              Y              Z

   1  H       1.00    0.000000000    1.673016991   -1.937105446
   2  N       7.00    0.000000000   -0.164251628   -1.153223991
   3  O       8.00    0.000000000    0.033002426    1.139739846

 Bond lengths in Bohr (Angstrom)

 1-2  1.997504972  2-3  2.301432666
     ( 1.057034110)     ( 1.217865719)

 Bond angles

  1-2-3  108.18899349

 NUCLEAR CHARGE:                   16
 NUMBER OF PRIMITIVE AOS:         203
 NUMBER OF SYMMETRY AOS:          173
 NUMBER OF CONTRACTIONS:          171   ( 114A'  +  57A"  )
 NUMBER OF CORE ORBITALS:           2   (   2A'  +   0A"  )
 NUMBER OF VALENCE ORBITALS:        9   (   7A'  +   2A"  )


 NUCLEAR REPULSION ENERGY   30.13151686


 Eigenvalues of metric

         1 0.107E-02 0.258E-02 0.340E-02 0.644E-02 0.100E-01 0.138E-01 0.146E-01 0.234E-01
         2 0.370E-01 0.547E-01 0.708E-01 0.943E-01 0.132E+00 0.135E+00 0.141E+00 0.142E+00


 Contracted 2-electron integrals neglected if value below      1.0D-22

       46096519. INTEGRALS WRITTEN OUT IN   11257 BLOCKS ON RECORD 1290 OF FILE 1


 NUMBER OF SORTED TWO-ELECTRON INTEGRALS:   55360566.     BUFFER LENGTH:  32768
 NUMBER OF SEGMENTS:   4  SEGMENT LENGTH:   15997996      RECORD LENGTH: 524288

 Memory used in sort:      16.56 MW

 SORT1 READ    46096519. AND WROTE    46533450. INTEGRALS IN    135 RECORDS. CPU TIME:     1.46 SEC, REAL TIME:     1.89 SEC
 SORT2 READ    46533450. AND WROTE    55360566. INTEGRALS IN      4 RECORDS. CPU TIME:     0.89 SEC, REAL TIME:     1.16 SEC

 FILE SIZES:   FILE 1:   758.5 MBYTE,  FILE 4:   566.3 MBYTE,   TOTAL:   1324.7 MBYTE

 OPERATOR DM      FOR CENTER  0  COORDINATES:    0.000000    0.000000    0.000000


 **********************************************************************************************************************************
 DATASETS  * FILE   NREC   LENGTH (MB)   RECORD NAMES
              1      19      420.90       500      610      700      900      950      970     1000      129      960     1100   
                                          VAR    BASINP    GEOM    SYMINP    ZMAT    AOBASIS   BASIS     P2S    ABASIS      S 
                                         1400     1410     1200     1210     1080     1600     1650     1300     1700   
                                           T        V       H0       H01     AOSYM     SMH    MOLCAS    ERIS     OPER   

 PROGRAMS   *        TOTAL       INT
 CPU TIMES  *         6.40      6.30
 REAL TIME  *         8.51 SEC
 DISK USED  *         1.33 GB      
 **********************************************************************************************************************************


 PROGRAM * RHF-SCF (CLOSED SHELL)       Authors: W. Meyer, H.-J. Werner


 NUMBER OF ELECTRONS:       8+    8-
 CONVERGENCE THRESHOLDS:    1.00E-10 (Density)    1.00E-13 (Energy)
 MAX. NUMBER OF ITERATIONS:      500
 INTERPOLATION TYPE:            DIIS
 INTERPOLATION STEPS:              2 (START)      1 (STEP)
 LEVEL SHIFTS:                  0.00 (CLOSED)  0.00 (OPEN) 



 Orbital guess generated from atomic densities. Full valence occupancy:    9   2

 Molecular orbital dump at record        2100.2

 Initial occupancy:   7   1

 ITERATION    DDIFF          GRAD             ENERGY        2-EL.EN.            DIPOLE MOMENTS         DIIS   ORB.
    1      0.000D+00      0.000D+00      -129.78584184    153.633788    0.00000    0.57081   -1.04646    0    start
    2      0.000D+00      0.890D-02      -129.81237895    154.792822    0.00000    0.60344   -0.18824    1    diag
    3      0.369D-02      0.693D-02      -129.83711841    154.934308    0.00000    0.54950   -0.59750    2    diag
    4      0.147D-02      0.105D-02      -129.83792310    154.651928    0.00000    0.55733   -0.53342    3    diag
    5      0.334D-03      0.343D-03      -129.83804811    154.741262    0.00000    0.56342   -0.53569    4    diag
    6      0.155D-03      0.101D-03      -129.83806864    154.724962    0.00000    0.56394   -0.53136    5    diag
    7      0.613D-04      0.510D-04      -129.83807485    154.727426    0.00000    0.56526   -0.52872    6    diag
    8      0.419D-04      0.180D-04      -129.83807558    154.726547    0.00000    0.56531   -0.52773    7    diag
    9      0.153D-04      0.341D-05      -129.83807561    154.726422    0.00000    0.56526   -0.52753    8    diag
   10      0.318D-05      0.760D-06      -129.83807561    154.726408    0.00000    0.56522   -0.52750    9    orth
   11      0.897D-06      0.150D-06      -129.83807561    154.726403    0.00000    0.56522   -0.52750    9    diag
   12      0.210D-06      0.319D-07      -129.83807561    154.726403    0.00000    0.56521   -0.52750    9    diag
   13      0.519D-07      0.864D-08      -129.83807561    154.726402    0.00000    0.56521   -0.52750    9    diag
   14      0.122D-07      0.151D-08      -129.83807561    154.726402    0.00000    0.56521   -0.52750    9    diag
   15      0.145D-08      0.397D-09      -129.83807561    154.726402    0.00000    0.56521   -0.52750    9    diag
   16      0.339D-09      0.113D-09      -129.83807561    154.726402    0.00000    0.56521   -0.52750    9    diag
   17      0.666D-10      0.295D-10      -129.83807561    154.726402    0.00000    0.56521   -0.52750    9    diag
   18      0.188D-10      0.947D-11      -129.83807561    154.726402    0.00000    0.56521   -0.52750    9    diag
   19      0.701D-11      0.203D-11      -129.83807561    154.726402    0.00000    0.56521   -0.52750    0    orth

 Final occupancy:   7   1

 !RHF STATE 1.1 Energy               -129.838075609785
 Nuclear energy                        30.13151686
 One-electron energy                 -237.33279359
 Two-electron energy                   77.36320112
 Virial quotient                       -1.00198116
 !RHF STATE 1.1 Dipole moment           0.00000000     0.56521269    -0.52749615
 Dipole moment /Debye                   0.00000000     1.43653326    -1.34067367

 Orbital energies:

         1.1          2.1          3.1          4.1          5.1          6.1          7.1          8.1          9.1
    -20.652287   -15.712943    -1.519938    -0.993960    -0.741626    -0.661382    -0.431437     0.039520     0.191839

         1.2          2.2          3.2
     -0.589622     0.075651     0.239168

 HOMO      7.1    -0.431437 =     -11.7400eV
 LUMO      8.1     0.039520 =       1.0754eV
 LUMO-HOMO         0.470956 =      12.8154eV


 **********************************************************************************************************************************
 DATASETS  * FILE   NREC   LENGTH (MB)   RECORD NAMES
              1      19      420.90       500      610      700      900      950      970     1000      129      960     1100   
                                          VAR    BASINP    GEOM    SYMINP    ZMAT    AOBASIS   BASIS     P2S    ABASIS      S 
                                         1400     1410     1200     1210     1080     1600     1650     1300     1700   
                                           T        V       H0       H01     AOSYM     SMH    MOLCAS    ERIS     OPER   

              2       4        3.13       700     1000      520     2100   
                                         GEOM     BASIS   MCVARS     RHF  

 PROGRAMS   *        TOTAL        HF       INT
 CPU TIMES  *        13.13      6.73      6.30
 REAL TIME  *        16.75 SEC
 DISK USED  *         1.33 GB      
 **********************************************************************************************************************************


 PROGRAM * CCSD (Closed-shell coupled cluster)     Authors: C. Hampel, H.-J. Werner, 1991, M. Deegan, P.J. Knowles, 1992


 Convergence thresholds:  THRVAR = 1.00D-08  THRDEN = 1.00D-12

 CCSD(T)     terms to be evaluated (factor= 1.000)


 Number of closed-shell orbitals:   8 (   7   1 )
 Number of external orbitals:     163 ( 107  56 )

 Molecular orbitals read from record     2100.2  Type=RHF/CANONICAL (state 1.1)

 Number of N-1 electron functions:               8
 Number of N-2 electron functions:              36
 Number of singly external CSFs:               805
 Number of doubly external CSFs:            449165
 Total number of CSFs:                      449971

 Length of J-op  integral file:               0.00 MB
 Length of K-op  integral file:               1.15 MB
 Length of 3-ext integral record:             0.00 MB

 Memory could be reduced to 24.90 Mwords without degradation in triples

 Integral transformation finished. Total CPU:   1.32 sec, npass=  1  Memory used:   6.89 MW

 Reference energy:                   -129.83807561

 MP2 singlet pair energy:              -0.38004273
 MP2 triplet pair energy:              -0.18731283
 MP2 correlation energy:               -0.56735556
 MP2 total energy:                   -130.40543117

 SCS-MP2 correlation energy:           -0.57260148   (PS=  1.200000  PT=  0.333333)
 SCS-MP2 total energy:               -130.41067709

 ITER.      SQ.NORM     CORR.ENERGY   TOTAL ENERGY   ENERGY CHANGE        DEN1      VAR(S)    VAR(P)  DIIS     TIME  TIME/IT
   1      1.12099085    -0.57169979  -130.40977540    -0.00434424     0.01385990  0.35D-02  0.32D-02  1  1     2.76     1.51
   2      1.13216895    -0.57130612  -130.40938173     0.00039367    -0.01401951  0.96D-04  0.52D-03  2  2     4.23     1.55
   3      1.13760052    -0.57164709  -130.40972270    -0.00034097    -0.00240406  0.59D-04  0.71D-04  3  3     5.71     1.56
   4      1.14118330    -0.57163939  -130.40971500     0.00000770    -0.00142728  0.49D-05  0.10D-04  4  4     7.19     1.58
   5      1.14230880    -0.57166516  -130.40974077    -0.00002577    -0.00026627  0.17D-05  0.19D-05  5  5     8.68     1.58
   6      1.14274272    -0.57165853  -130.40973414     0.00000663    -0.00004233  0.15D-06  0.41D-06  6  6    10.16     1.58
   7      1.14282846    -0.57165884  -130.40973445    -0.00000031     0.00000096  0.21D-07  0.96D-07  6  1    11.64     1.59
   8      1.14286326    -0.57165695  -130.40973256     0.00000189    -0.00000498  0.40D-08  0.15D-07  6  2    13.11     1.59
   9      1.14286817    -0.57165699  -130.40973260    -0.00000005     0.00000128  0.18D-08  0.20D-08  6  3    14.61     1.59
  10      1.14287004    -0.57165730  -130.40973291    -0.00000031    -0.00000074  0.43D-09  0.28D-09  6  4    16.11     1.59
  11      1.14286907    -0.57165745  -130.40973306    -0.00000014     0.00000035  0.11D-09  0.29D-10  6  5    17.60     1.60
  12      1.14286816    -0.57165759  -130.40973320    -0.00000014     0.00000035  0.11D-10  0.72D-11  6  6    19.07     1.60
  13      1.14286761    -0.57165760  -130.40973321    -0.00000001     0.00000011  0.46D-11  0.13D-11  6  1    20.55     1.60
  14      1.14286715    -0.57165763  -130.40973324    -0.00000003     0.00000011  0.47D-12  0.44D-12  6  3    22.01     1.60
  15      1.14286697    -0.57165763  -130.40973324    -0.00000000     0.00000002  0.12D-12  0.31D-13  6  2    23.50     1.60
  16      1.14286691    -0.57165763  -130.40973324    -0.00000000     0.00000001  0.26D-13  0.66D-14  6  4    24.99     1.60
  17      1.14286689    -0.57165763  -130.40973324    -0.00000000     0.00000001  0.48D-14  0.12D-14  6  5    26.48     1.60
  18      1.14286688    -0.57165763  -130.40973324    -0.00000000     0.00000000  0.52D-15  0.32D-15  6  6    27.92     1.60
  19      1.14286689    -0.57165763  -130.40973324     0.00000000    -0.00000000  0.67D-16  0.48D-16  6  1    29.41     1.60
  20      1.14286689    -0.57165763  -130.40973324     0.00000000    -0.00000000  0.28D-17  0.11D-16  6  3    30.89     1.60
  21      1.14286689    -0.57165763  -130.40973324     0.00000000    -0.00000000  0.14D-17  0.28D-17  6  2    32.38     1.60
  22      1.14286689    -0.57165763  -130.40973324     0.00000000    -0.00000000  0.30D-18  0.10D-17  6  4    33.90     1.60
  23      1.14286689    -0.57165763  -130.40973324    -0.00000000     0.00000000  0.17D-18  0.14D-18  6  5    35.42     1.60
  24      1.14286689    -0.57165763  -130.40973324     0.00000000    -0.00000000  0.66D-20  0.18D-19  6  1    36.89     1.60
  25      1.14286689    -0.57165763  -130.40973324     0.00000000     0.00000000  0.41D-21  0.17D-20  6  6    38.35     1.60
  26      1.14286689    -0.57165763  -130.40973324    -0.00000000     0.00000000  0.13D-21  0.38D-21  6  3    39.84     1.60

 Norm of t1 vector:      0.07952583      S-energy:     0.00000000      T1 diagnostic:  0.01405831
                                                                       D1 diagnostic:  0.04535977

 Doubles amplitudes (print threshold =  0.500E-01):

         I         J         SYM. A    SYM. B    A         B      T(IJ, AB)

         8         8         2         2         1         1     -0.13751227


 Total CPU time for triples:     23.46 sec


 RESULTS
 =======

  Reference energy                   -129.838075609785

  Correlated core orbitals:             1.1       2.1
  Orbital energies:                   -20.6523  -15.7129
 
  CCSD core-core energy                -0.079238579557
  CCSD core-valence energy             -0.036002896724
  CCSD valence correlation energy      -0.456416156671
 
  CCSD singlet pair energy             -0.409071816953
  CCSD triplet pair energy             -0.162585816001
  CCSD correlation energy              -0.571657632953

  Triples (T) contribution             -0.022635845318
  Total correlation energy             -0.594293478271

  CCSD total energy                  -130.409733242738
  CCSD[T] energy                     -130.433592227540
  CCSD-T energy                      -130.431914518391
 !CCSD(T) total energy               -130.432369088056

 Timing summary (sec):

 STEP                 CPU(USER)    SYS     CPU(TOT)    WALL
 Transformation          1.35      0.16      1.51      1.52
 CCSD iterations        38.50      3.20     41.70     41.70
 Triples                23.46      0.71     24.17     24.17

 Program statistics:

 Available memory in ccsd:               994999644
 Min. memory needed in ccsd:               1368037
 Max. memory used in ccsd:                 1750502
 Max. memory used in cckext:               2014357 (26 integral passes)



 **********************************************************************************************************************************
 DATASETS  * FILE   NREC   LENGTH (MB)   RECORD NAMES
              1      20      499.82       500      610      700      900      950      970     1000      129      960     1100   
                                          VAR    BASINP    GEOM    SYMINP    ZMAT    AOBASIS   BASIS     P2S    ABASIS      S 
                                         1400     1410     1200     1210     1080     1600     1650     1300     1700     1380   
                                           T        V       H0       H01     AOSYM     SMH    MOLCAS    ERIS     OPER     JKOP   

              2       4        3.13       700     1000      520     2100   
                                         GEOM     BASIS   MCVARS     RHF  

 PROGRAMS   *        TOTAL   CCSD(T)        HF       INT
 CPU TIMES  *        76.46     63.33      6.73      6.30
 REAL TIME  *        84.18 SEC
 DISK USED  *         1.33 GB      
 **********************************************************************************************************************************

 CCSD(T)/USERDEF energy=   -130.432369088056

        CCSD(T)         HF-SCF  
   -130.43236909   -129.83807561
 **********************************************************************************************************************************
 Molpro calculation terminated
 Variable memory released
