
 Primary working directories    : /tmp/r2666/282422.maple
 Secondary working directories  : /tmp/r2666/282422.maple
 Wavefunction directory         : /ddn/home4/r2666/wfu/
 Main file repository           : /tmp/r2666/282422.maple/

 SHA1      : d5ffa45e93fdbca01ffc919aa182cfdae0147319
 NAME      : 2015.1.35
 ARCHNAME  : linux/x86_64
 FC        : /opt/intel/composer_xe_2015.1.133/bin/intel64/ifort
 BLASLIB   : -Wl,-_start-group /opt/intel/mkl/lib/intel64/libmkl_intel_ilp64.a /opt/intel/mkl/lib/intel64/libmkl_intel_thread.a /opt/intel/mkl/lib/intel64/libmkl_core.a -Wl,-_end-group
 id        : olemiss

 Nodes     nprocs
 cn087        1

 Using customized tuning parameters: mindgm=1; mindgv=20; mindgc=4; mindgr=1; noblas=0; minvec=7
 default implementation of scratch files=df  

 ***,hno CCSD(T)/TZ-F12 QFF
 memory, 995, m;
 gthresh,energy=1.d-12,zero=1.d-22,oneint=1.d-22,twoint=1.d-22;
 gthresh,optgrad=1.d-8,optstep=1.d-8;
 nocompress;
 geomtyp=xyz
 bohr
 geometry={
 3
         61        61
 H        0.0000000000        1.6666363018       -1.9376186812
 N        0.0000000000       -0.1541043842       -1.1393258942
 O        0.0000000000        0.0292358723        1.1263549844
 }
 
 basis={
 default=aug-cc-pvtz
 s,C,8236.0,1235.0,280.8, 79.27,25.59, 8.997,3.319
 s,C,0.9059,0.3643,0.1285000
 p,C,56.0,18.71,4.133,0.2827,0.3827,0.1209
 d,C,30.0,10.0,3.3,1.097,0.318
 f,C,7.0,2.3,0.7610
 s,N,11420.0,1712.0,389.3,110.0,35.57,12.54,4.644
 s,N,1.293,0.5118,0.1787
 p,N,79.89,26.63,5.948,1.742,0.555,0.1725
 d,N,45.0,15.0,5.0,1.654,0.469
 f,N,9.9,3.3,1.093
 s,O,15330.0,2299.0,522.4,147.3,47.55,16.76,6.207
 s,O,1.752,0.6882,0.2384
 p,O,103.5,34.46,7.749,2.28,0.7156,0.214
 d,O,63.0,21.0,7.0,2.314,0.645
 f,O,12.9,4.3,1.428
 s,mg,164900.0,24710.0,5628.0,1596.0,521.0;
 s,mg,188.0,73.01,29.90,12.54,4.306,1.826;
 s,mg,0.7417,0.0761,0.145,0.033,0.0129;
 p,mg,950.70,316.90,74.86,23.72,8.669,3.363;
 p,mg,1.310,0.4911,0.2364,0.08733,0.03237,0.00745;
 d,mg,1.601,0.686,0.126,0.294,0.0468;
 f,mg,1.372,0.588,0.094,0.252;
 }
   {hf,maxit=500;accu,20;}
 {ccsd(t),nocheck,maxit=250;orbital,IGNORE_ERROR;core}

 Variables initialized (889), CPU time= 0.00 sec
 Commands  initialized (702), CPU time= 0.01 sec, 572 directives.
 Default parameters read. Elapsed time= 0.04 sec

 Checking input...
 Passed
1


                                         ***  PROGRAM SYSTEM MOLPRO  ***
                                       Copyright, TTI GmbH Stuttgart, 2015
                                    Version 2015.1 linked Jul  9 2018 13:16:40


 **********************************************************************************************************************************
 LABEL *   hno CCSD(T)/TZ-F12 QFF                                                        
  64 bit serial version                                                                  DATE: 04-Mar-20          TIME: 13:49:31  
 **********************************************************************************************************************************

 SHA1:             d5ffa45e93fdbca01ffc919aa182cfdae0147319
 **********************************************************************************************************************************

 THRESHOLDS:

 ZERO    =  1.00D-22  ONEINT  =  1.00D-22  TWOINT  =  1.00D-22  PREFAC  =  1.00D-14  LOCALI  =  1.00D-09  EORDER  =  1.00D-04
 ENERGY  =  1.00D-12  ETEST   =  0.00D+00  EDENS   =  0.00D+00  THRDEDEF=  1.00D-06  GRADIENT=  1.00D-02  STEP    =  1.00D-03
 ORBITAL =  1.00D-05  CIVEC   =  1.00D-05  COEFF   =  1.00D-04  PRINTCI =  5.00D-02  PUNCHCI =  9.90D+01  OPTGRAD =  3.00D-04
 OPTENERG=  1.00D-06  OPTSTEP =  3.00D-04  THRGRAD =  1.00D-10  COMPRESS=  1.00D-11  VARMIN  =  1.00D-07  VARMAX  =  1.00D-03
 THRDOUB =  0.00D+00  THRDIV  =  1.00D-05  THRRED  =  1.00D-07  THRPSP  =  1.00D+00  THRDC   =  1.00D-10  THRCS   =  1.00D-10
 THRNRM  =  1.00D-08  THREQ   =  0.00D+00  THRDE   =  1.00D+00  THRREF  =  1.00D-05  SPARFAC =  1.00D+00  THRDLP  =  1.00D-07
 THRDIA  =  1.00D-10  THRDLS  =  1.00D-07  THRGPS  =  0.00D+00  THRKEX  =  0.00D+00  THRDIS  =  2.00D-01  THRVAR  =  1.00D-10
 THRLOC  =  1.00D-06  THRGAP  =  1.00D-06  THRLOCT = -1.00D+00  THRGAPT = -1.00D+00  THRORB  =  1.00D-06  THRMLTP =  0.00D+00
 THRCPQCI=  1.00D-10  KEXTA   =  0.00D+00  THRCOARS=  0.00D+00  SYMTOL  =  1.00D-06  GRADTOL =  1.00D-06  THROVL  =  1.00D-08
 THRORTH =  1.00D-08  GRID    =  1.00D-06  GRIDMAX =  1.00D-03  DTMAX   =  0.00D+00  THROCCDE=  1.00D-01  THROCCDE=  1.00D-01



 THRESHOLDS:

 ZERO    =  1.00D-22  ONEINT  =  1.00D-22  TWOINT  =  1.00D-22  PREFAC  =  1.00D-14  LOCALI  =  1.00D-09  EORDER  =  1.00D-04
 ENERGY  =  1.00D-12  ETEST   =  0.00D+00  EDENS   =  0.00D+00  THRDEDEF=  1.00D-06  GRADIENT=  1.00D-02  STEP    =  1.00D-03
 ORBITAL =  1.00D-05  CIVEC   =  1.00D-05  COEFF   =  1.00D-04  PRINTCI =  5.00D-02  PUNCHCI =  9.90D+01  OPTGRAD =  1.00D-08
 OPTENERG=  1.00D-06  OPTSTEP =  1.00D-08  THRGRAD =  1.00D-10  COMPRESS=  1.00D-11  VARMIN  =  1.00D-07  VARMAX  =  1.00D-03
 THRDOUB =  0.00D+00  THRDIV  =  1.00D-05  THRRED  =  1.00D-07  THRPSP  =  1.00D+00  THRDC   =  1.00D-10  THRCS   =  1.00D-10
 THRNRM  =  1.00D-08  THREQ   =  0.00D+00  THRDE   =  1.00D+00  THRREF  =  1.00D-05  SPARFAC =  1.00D+00  THRDLP  =  1.00D-07
 THRDIA  =  1.00D-10  THRDLS  =  1.00D-07  THRGPS  =  0.00D+00  THRKEX  =  0.00D+00  THRDIS  =  2.00D-01  THRVAR  =  1.00D-10
 THRLOC  =  1.00D-06  THRGAP  =  1.00D-06  THRLOCT = -1.00D+00  THRGAPT = -1.00D+00  THRORB  =  1.00D-06  THRMLTP =  0.00D+00
 THRCPQCI=  1.00D-10  KEXTA   =  0.00D+00  THRCOARS=  0.00D+00  SYMTOL  =  1.00D-06  GRADTOL =  1.00D-06  THROVL  =  1.00D-08
 THRORTH =  1.00D-08  GRID    =  1.00D-06  GRIDMAX =  1.00D-03  DTMAX   =  0.00D+00  THROCCDE=  1.00D-01  THROCCDE=  1.00D-01



 Input parameters for SORTINT:

 COMPRESS =    0.000000
 C_FINAL  =    1.000000
 DEBUG    =   -1.000000
 C_SORT1  =    0.000000
 C_SEWARD =    0.000000
 THRESH   =    0.000000
 IO       =  molpro                                                          
 SPRI     =    0.000000
 SETTING GEOMTYP        =    XYZ
 ZUNIT=BOHR
 

 Variable memory set to  995000000 words,  buffer space   230000 words

 SETTING BASIS          =    USERDEF


 Recomputing integrals since basis changed


 Using spherical harmonics

 Library entry H      S aug-cc-pVTZ          selected for orbital group  1
 Library entry H      P aug-cc-pVTZ          selected for orbital group  1
 Library entry H      D aug-cc-pVTZ          selected for orbital group  1


 PROGRAM * SEWARD (Integral evaluation for generally contracted gaussian basis sets)     Author: Roland Lindh, 1990

 Geometry written to block  1 of record 700


 Point group  Cs  



 ATOMIC COORDINATES

 NR  ATOM    CHARGE       X              Y              Z

   1  H       1.00    0.000000000    1.666636302   -1.937618681
   2  N       7.00    0.000000000   -0.154104384   -1.139325894
   3  O       8.00    0.000000000    0.029235872    1.126354984

 Bond lengths in Bohr (Angstrom)

 1-2  1.988056342  2-3  2.273086776
     ( 1.052034110)     ( 1.202865721)

 Bond angles

  1-2-3  109.04843018

 NUCLEAR CHARGE:                   16
 NUMBER OF PRIMITIVE AOS:         203
 NUMBER OF SYMMETRY AOS:          173
 NUMBER OF CONTRACTIONS:          171   ( 114A'  +  57A"  )
 NUMBER OF CORE ORBITALS:           2   (   2A'  +   0A"  )
 NUMBER OF VALENCE ORBITALS:        9   (   7A'  +   2A"  )


 NUCLEAR REPULSION ENERGY   30.45991863


 Eigenvalues of metric

         1 0.103E-02 0.244E-02 0.332E-02 0.633E-02 0.984E-02 0.137E-01 0.144E-01 0.230E-01
         2 0.362E-01 0.524E-01 0.693E-01 0.941E-01 0.131E+00 0.134E+00 0.140E+00 0.142E+00


 Contracted 2-electron integrals neglected if value below      1.0D-22

       46184232. INTEGRALS WRITTEN OUT IN   11279 BLOCKS ON RECORD 1290 OF FILE 1


 NUMBER OF SORTED TWO-ELECTRON INTEGRALS:   55360566.     BUFFER LENGTH:  32768
 NUMBER OF SEGMENTS:   4  SEGMENT LENGTH:   15997996      RECORD LENGTH: 524288

 Memory used in sort:      16.56 MW

 SORT1 READ    46184232. AND WROTE    46622091. INTEGRALS IN    136 RECORDS. CPU TIME:     0.75 SEC, REAL TIME:     1.06 SEC
 SORT2 READ    46622091. AND WROTE    55360566. INTEGRALS IN      4 RECORDS. CPU TIME:     0.64 SEC, REAL TIME:     0.89 SEC

 FILE SIZES:   FILE 1:   759.9 MBYTE,  FILE 4:   570.5 MBYTE,   TOTAL:   1330.4 MBYTE

 OPERATOR DM      FOR CENTER  0  COORDINATES:    0.000000    0.000000    0.000000


 **********************************************************************************************************************************
 DATASETS  * FILE   NREC   LENGTH (MB)   RECORD NAMES
              1      19      421.50       500      610      700      900      950      970     1000      129      960     1100   
                                          VAR    BASINP    GEOM    SYMINP    ZMAT    AOBASIS   BASIS     P2S    ABASIS      S 
                                         1400     1410     1200     1210     1080     1600     1650     1300     1700   
                                           T        V       H0       H01     AOSYM     SMH    MOLCAS    ERIS     OPER   

 PROGRAMS   *        TOTAL       INT
 CPU TIMES  *         4.11      4.04
 REAL TIME  *         5.58 SEC
 DISK USED  *         1.33 GB      
 **********************************************************************************************************************************


 PROGRAM * RHF-SCF (CLOSED SHELL)       Authors: W. Meyer, H.-J. Werner


 NUMBER OF ELECTRONS:       8+    8-
 CONVERGENCE THRESHOLDS:    1.00E-10 (Density)    1.00E-13 (Energy)
 MAX. NUMBER OF ITERATIONS:      500
 INTERPOLATION TYPE:            DIIS
 INTERPOLATION STEPS:              2 (START)      1 (STEP)
 LEVEL SHIFTS:                  0.00 (CLOSED)  0.00 (OPEN) 



 Orbital guess generated from atomic densities. Full valence occupancy:    9   2

 Molecular orbital dump at record        2100.2

 Initial occupancy:   7   1

 ITERATION    DDIFF          GRAD             ENERGY        2-EL.EN.            DIPOLE MOMENTS         DIIS   ORB.
    1      0.000D+00      0.000D+00      -129.79073212    154.220043    0.00000    0.57465   -0.99929    0    start
    2      0.000D+00      0.873D-02      -129.81777305    155.408044    0.00000    0.59398   -0.20236    1    diag
    3      0.362D-02      0.655D-02      -129.83963787    155.516970    0.00000    0.54743   -0.57951    2    diag
    4      0.139D-02      0.103D-02      -129.84041275    155.245800    0.00000    0.55524   -0.51778    3    diag
    5      0.330D-03      0.334D-03      -129.84053098    155.333648    0.00000    0.56134   -0.52036    4    diag
    6      0.152D-03      0.978D-04      -129.84055020    155.317644    0.00000    0.56194   -0.51633    5    diag
    7      0.605D-04      0.488D-04      -129.84055578    155.320231    0.00000    0.56329   -0.51390    6    diag
    8      0.409D-04      0.165D-04      -129.84055636    155.319435    0.00000    0.56335   -0.51303    7    diag
    9      0.138D-04      0.307D-05      -129.84055638    155.319325    0.00000    0.56330   -0.51285    8    diag
   10      0.277D-05      0.711D-06      -129.84055638    155.319311    0.00000    0.56327   -0.51282    9    orth
   11      0.850D-06      0.142D-06      -129.84055638    155.319307    0.00000    0.56326   -0.51282    9    diag
   12      0.202D-06      0.290D-07      -129.84055638    155.319306    0.00000    0.56326   -0.51282    9    diag
   13      0.490D-07      0.760D-08      -129.84055638    155.319306    0.00000    0.56326   -0.51282    9    diag
   14      0.113D-07      0.135D-08      -129.84055638    155.319306    0.00000    0.56326   -0.51282    9    diag
   15      0.149D-08      0.369D-09      -129.84055638    155.319306    0.00000    0.56326   -0.51282    9    diag
   16      0.328D-09      0.111D-09      -129.84055638    155.319306    0.00000    0.56326   -0.51282    9    diag
   17      0.803D-10      0.315D-10      -129.84055638    155.319306    0.00000    0.56326   -0.51282    0    orth

 Final occupancy:   7   1

 !RHF STATE 1.1 Energy               -129.840556384412
 Nuclear energy                        30.45991863
 One-electron energy                 -237.96012790
 Two-electron energy                   77.65965289
 Virial quotient                       -1.00150334
 !RHF STATE 1.1 Dipole moment           0.00000000     0.56325757    -0.51281788
 Dipole moment /Debye                   0.00000000     1.43156418    -1.30336766

 Orbital energies:

         1.1          2.1          3.1          4.1          5.1          6.1          7.1          8.1          9.1
    -20.651014   -15.709583    -1.531812    -0.992260    -0.746724    -0.665884    -0.426596     0.039699     0.193000

         1.2          2.2          3.2
     -0.596539     0.080668     0.239799

 HOMO      7.1    -0.426596 =     -11.6083eV
 LUMO      8.1     0.039699 =       1.0803eV
 LUMO-HOMO         0.466295 =      12.6885eV


 **********************************************************************************************************************************
 DATASETS  * FILE   NREC   LENGTH (MB)   RECORD NAMES
              1      19      421.50       500      610      700      900      950      970     1000      129      960     1100   
                                          VAR    BASINP    GEOM    SYMINP    ZMAT    AOBASIS   BASIS     P2S    ABASIS      S 
                                         1400     1410     1200     1210     1080     1600     1650     1300     1700   
                                           T        V       H0       H01     AOSYM     SMH    MOLCAS    ERIS     OPER   

              2       4        3.13       700     1000      520     2100   
                                         GEOM     BASIS   MCVARS     RHF  

 PROGRAMS   *        TOTAL        HF       INT
 CPU TIMES  *         8.30      4.19      4.04
 REAL TIME  *        10.89 SEC
 DISK USED  *         1.33 GB      
 **********************************************************************************************************************************


 PROGRAM * CCSD (Closed-shell coupled cluster)     Authors: C. Hampel, H.-J. Werner, 1991, M. Deegan, P.J. Knowles, 1992


 Convergence thresholds:  THRVAR = 1.00D-08  THRDEN = 1.00D-12

 CCSD(T)     terms to be evaluated (factor= 1.000)


 Number of closed-shell orbitals:   8 (   7   1 )
 Number of external orbitals:     163 ( 107  56 )

 Molecular orbitals read from record     2100.2  Type=RHF/CANONICAL (state 1.1)

 Number of N-1 electron functions:               8
 Number of N-2 electron functions:              36
 Number of singly external CSFs:               805
 Number of doubly external CSFs:            449165
 Total number of CSFs:                      449971

 Length of J-op  integral file:               0.00 MB
 Length of K-op  integral file:               1.15 MB
 Length of 3-ext integral record:             0.00 MB

 Memory could be reduced to 24.90 Mwords without degradation in triples

 Integral transformation finished. Total CPU:   0.85 sec, npass=  1  Memory used:   6.89 MW

 Reference energy:                   -129.84055638

 MP2 singlet pair energy:              -0.37842528
 MP2 triplet pair energy:              -0.18631595
 MP2 correlation energy:               -0.56474123
 MP2 total energy:                   -130.40529762

 SCS-MP2 correlation energy:           -0.57004026   (PS=  1.200000  PT=  0.333333)
 SCS-MP2 total energy:               -130.41059665

 ITER.      SQ.NORM     CORR.ENERGY   TOTAL ENERGY   ENERGY CHANGE        DEN1      VAR(S)    VAR(P)  DIIS     TIME  TIME/IT
   1      1.11924425    -0.56965789  -130.41021428    -0.00491666     0.01258083  0.33D-02  0.31D-02  1  1     1.79     0.98
   2      1.12999888    -0.56940160  -130.40995798     0.00025629    -0.01357953  0.89D-04  0.49D-03  2  2     2.71     0.99
   3      1.13518020    -0.56972329  -130.41027967    -0.00032169    -0.00233881  0.54D-04  0.67D-04  3  3     3.61     1.00
   4      1.13856032    -0.56971464  -130.41027102     0.00000865    -0.00136980  0.44D-05  0.96D-05  4  4     4.54     1.00
   5      1.13959002    -0.56973858  -130.41029497    -0.00002395    -0.00024164  0.16D-05  0.19D-05  5  5     5.49     1.01
   6      1.13999380    -0.56973281  -130.41028919     0.00000577    -0.00003874  0.14D-06  0.42D-06  6  6     6.39     1.01
   7      1.14007897    -0.56973306  -130.41028944    -0.00000025     0.00000019  0.20D-07  0.94D-07  6  1     7.31     1.00
   8      1.14011338    -0.56973141  -130.41028779     0.00000165    -0.00000472  0.43D-08  0.14D-07  6  2     8.22     1.01
   9      1.14011836    -0.56973149  -130.41028787    -0.00000008     0.00000101  0.18D-08  0.17D-08  6  3     9.10     1.00
  10      1.14011997    -0.56973179  -130.41028818    -0.00000031    -0.00000061  0.41D-09  0.24D-09  6  4     9.99     1.00
  11      1.14011899    -0.56973193  -130.41028832    -0.00000014     0.00000034  0.10D-09  0.25D-10  6  5    10.89     1.00
  12      1.14011809    -0.56973207  -130.41028845    -0.00000013     0.00000035  0.10D-10  0.65D-11  6  6    11.81     1.00
  13      1.14011756    -0.56973208  -130.41028846    -0.00000001     0.00000011  0.45D-11  0.11D-11  6  1    12.73     1.01
  14      1.14011713    -0.56973210  -130.41028849    -0.00000003     0.00000010  0.47D-12  0.40D-12  6  3    13.66     1.01
  15      1.14011696    -0.56973210  -130.41028849    -0.00000000     0.00000002  0.11D-12  0.27D-13  6  2    14.56     1.00
  16      1.14011691    -0.56973211  -130.41028849    -0.00000000     0.00000001  0.25D-13  0.59D-14  6  4    15.50     1.01
  17      1.14011689    -0.56973211  -130.41028849    -0.00000000     0.00000001  0.42D-14  0.11D-14  6  5    16.42     1.01
  18      1.14011689    -0.56973211  -130.41028849    -0.00000000     0.00000000  0.42D-15  0.27D-15  6  6    17.34     1.01
  19      1.14011689    -0.56973211  -130.41028849     0.00000000    -0.00000000  0.50D-16  0.35D-16  6  1    18.22     1.01
  20      1.14011689    -0.56973211  -130.41028849     0.00000000    -0.00000000  0.22D-17  0.72D-17  6  3    19.12     1.01
  21      1.14011689    -0.56973211  -130.41028849     0.00000000    -0.00000000  0.11D-17  0.17D-17  6  2    20.02     1.01
  22      1.14011689    -0.56973211  -130.41028849     0.00000000    -0.00000000  0.19D-18  0.63D-18  6  4    20.93     1.01
  23      1.14011689    -0.56973211  -130.41028849    -0.00000000     0.00000000  0.11D-18  0.97D-19  6  5    21.86     1.01
  24      1.14011689    -0.56973211  -130.41028849     0.00000000    -0.00000000  0.50D-20  0.12D-19  6  1    22.80     1.01
  25      1.14011689    -0.56973211  -130.41028849     0.00000000     0.00000000  0.27D-21  0.14D-20  6  6    23.71     1.01
  26      1.14011689    -0.56973211  -130.41028849    -0.00000000     0.00000000  0.12D-21  0.31D-21  6  3    24.63     1.01

 Norm of t1 vector:      0.07713690      S-energy:     0.00000000      T1 diagnostic:  0.01363601
                                                                       D1 diagnostic:  0.04348903

 Doubles amplitudes (print threshold =  0.500E-01):

         I         J         SYM. A    SYM. B    A         B      T(IJ, AB)

         8         8         2         2         1         1     -0.13293800


 Total CPU time for triples:     16.57 sec


 RESULTS
 =======

  Reference energy                   -129.840556384413

  Correlated core orbitals:             1.1       2.1
  Orbital energies:                   -20.6510  -15.7096
 
  CCSD core-core energy                -0.079230726352
  CCSD core-valence energy             -0.036108118627
  CCSD valence correlation energy      -0.454393261610
 
  CCSD singlet pair energy             -0.407327156184
  CCSD triplet pair energy             -0.162404950412
  CCSD correlation energy              -0.569732106589

  Triples (T) contribution             -0.022133858083
  Total correlation energy             -0.591865964672

  CCSD total energy                  -130.410288491002
  CCSD[T] energy                     -130.433575287989
  CCSD-T energy                      -130.431987030007
 !CCSD(T) total energy               -130.432422349084

 Timing summary (sec):

 STEP                 CPU(USER)    SYS     CPU(TOT)    WALL
 Transformation          0.86      0.16      1.02      1.03
 CCSD iterations        23.77      2.47     26.24     26.24
 Triples                16.57      0.60     17.17     17.16

 Program statistics:

 Available memory in ccsd:               994999644
 Min. memory needed in ccsd:               1368037
 Max. memory used in ccsd:                 1750502
 Max. memory used in cckext:               2014357 (26 integral passes)



 **********************************************************************************************************************************
 DATASETS  * FILE   NREC   LENGTH (MB)   RECORD NAMES
              1      20      500.42       500      610      700      900      950      970     1000      129      960     1100   
                                          VAR    BASINP    GEOM    SYMINP    ZMAT    AOBASIS   BASIS     P2S    ABASIS      S 
                                         1400     1410     1200     1210     1080     1600     1650     1300     1700     1380   
                                           T        V       H0       H01     AOSYM     SMH    MOLCAS    ERIS     OPER     JKOP   

              2       4        3.13       700     1000      520     2100   
                                         GEOM     BASIS   MCVARS     RHF  

 PROGRAMS   *        TOTAL   CCSD(T)        HF       INT
 CPU TIMES  *        49.52     41.22      4.19      4.04
 REAL TIME  *        55.35 SEC
 DISK USED  *         1.33 GB      
 **********************************************************************************************************************************

 CCSD(T)/USERDEF energy=   -130.432422349084

        CCSD(T)         HF-SCF  
   -130.43242235   -129.84055638
 **********************************************************************************************************************************
 Molpro calculation terminated
 Variable memory released
