
 Primary working directories    : /tmp/r2666/282414.maple
 Secondary working directories  : /tmp/r2666/282414.maple
 Wavefunction directory         : /ddn/home4/r2666/wfu/
 Main file repository           : /tmp/r2666/282414.maple/

 SHA1      : d5ffa45e93fdbca01ffc919aa182cfdae0147319
 NAME      : 2015.1.35
 ARCHNAME  : linux/x86_64
 FC        : /opt/intel/composer_xe_2015.1.133/bin/intel64/ifort
 BLASLIB   : -Wl,-_start-group /opt/intel/mkl/lib/intel64/libmkl_intel_ilp64.a /opt/intel/mkl/lib/intel64/libmkl_intel_thread.a /opt/intel/mkl/lib/intel64/libmkl_core.a -Wl,-_end-group
 id        : olemiss

 Nodes     nprocs
 cn053        1

 Using customized tuning parameters: mindgm=1; mindgv=20; mindgc=4; mindgr=1; noblas=0; minvec=7
 default implementation of scratch files=df  

 ***,hno CCSD(T)/TZ-F12 QFF
 memory, 995, m;
 gthresh,energy=1.d-12,zero=1.d-22,oneint=1.d-22,twoint=1.d-22;
 gthresh,optgrad=1.d-8,optstep=1.d-8;
 nocompress;
 geomtyp=xyz
 bohr
 geometry={
 3
         53        53
 H        0.0000000000        1.6654399497       -1.9283931837
 N        0.0000000000       -0.1590615668       -1.1387336143
 O        0.0000000000        0.0353894072        1.1165372070
 }
 
 basis={
 default=aug-cc-pvtz
 s,C,8236.0,1235.0,280.8, 79.27,25.59, 8.997,3.319
 s,C,0.9059,0.3643,0.1285000
 p,C,56.0,18.71,4.133,0.2827,0.3827,0.1209
 d,C,30.0,10.0,3.3,1.097,0.318
 f,C,7.0,2.3,0.7610
 s,N,11420.0,1712.0,389.3,110.0,35.57,12.54,4.644
 s,N,1.293,0.5118,0.1787
 p,N,79.89,26.63,5.948,1.742,0.555,0.1725
 d,N,45.0,15.0,5.0,1.654,0.469
 f,N,9.9,3.3,1.093
 s,O,15330.0,2299.0,522.4,147.3,47.55,16.76,6.207
 s,O,1.752,0.6882,0.2384
 p,O,103.5,34.46,7.749,2.28,0.7156,0.214
 d,O,63.0,21.0,7.0,2.314,0.645
 f,O,12.9,4.3,1.428
 s,mg,164900.0,24710.0,5628.0,1596.0,521.0;
 s,mg,188.0,73.01,29.90,12.54,4.306,1.826;
 s,mg,0.7417,0.0761,0.145,0.033,0.0129;
 p,mg,950.70,316.90,74.86,23.72,8.669,3.363;
 p,mg,1.310,0.4911,0.2364,0.08733,0.03237,0.00745;
 d,mg,1.601,0.686,0.126,0.294,0.0468;
 f,mg,1.372,0.588,0.094,0.252;
 }
   {hf,maxit=500;accu,20;}
 {ccsd(t),nocheck,maxit=250;orbital,IGNORE_ERROR;core}

 Variables initialized (889), CPU time= 0.00 sec
 Commands  initialized (702), CPU time= 0.01 sec, 572 directives.
 Default parameters read. Elapsed time= 0.06 sec

 Checking input...
 Passed
1


                                         ***  PROGRAM SYSTEM MOLPRO  ***
                                       Copyright, TTI GmbH Stuttgart, 2015
                                    Version 2015.1 linked Jul  9 2018 13:16:40


 **********************************************************************************************************************************
 LABEL *   hno CCSD(T)/TZ-F12 QFF                                                        
  64 bit serial version                                                                  DATE: 04-Mar-20          TIME: 13:49:09  
 **********************************************************************************************************************************

 SHA1:             d5ffa45e93fdbca01ffc919aa182cfdae0147319
 **********************************************************************************************************************************

 THRESHOLDS:

 ZERO    =  1.00D-22  ONEINT  =  1.00D-22  TWOINT  =  1.00D-22  PREFAC  =  1.00D-14  LOCALI  =  1.00D-09  EORDER  =  1.00D-04
 ENERGY  =  1.00D-12  ETEST   =  0.00D+00  EDENS   =  0.00D+00  THRDEDEF=  1.00D-06  GRADIENT=  1.00D-02  STEP    =  1.00D-03
 ORBITAL =  1.00D-05  CIVEC   =  1.00D-05  COEFF   =  1.00D-04  PRINTCI =  5.00D-02  PUNCHCI =  9.90D+01  OPTGRAD =  3.00D-04
 OPTENERG=  1.00D-06  OPTSTEP =  3.00D-04  THRGRAD =  1.00D-10  COMPRESS=  1.00D-11  VARMIN  =  1.00D-07  VARMAX  =  1.00D-03
 THRDOUB =  0.00D+00  THRDIV  =  1.00D-05  THRRED  =  1.00D-07  THRPSP  =  1.00D+00  THRDC   =  1.00D-10  THRCS   =  1.00D-10
 THRNRM  =  1.00D-08  THREQ   =  0.00D+00  THRDE   =  1.00D+00  THRREF  =  1.00D-05  SPARFAC =  1.00D+00  THRDLP  =  1.00D-07
 THRDIA  =  1.00D-10  THRDLS  =  1.00D-07  THRGPS  =  0.00D+00  THRKEX  =  0.00D+00  THRDIS  =  2.00D-01  THRVAR  =  1.00D-10
 THRLOC  =  1.00D-06  THRGAP  =  1.00D-06  THRLOCT = -1.00D+00  THRGAPT = -1.00D+00  THRORB  =  1.00D-06  THRMLTP =  0.00D+00
 THRCPQCI=  1.00D-10  KEXTA   =  0.00D+00  THRCOARS=  0.00D+00  SYMTOL  =  1.00D-06  GRADTOL =  1.00D-06  THROVL  =  1.00D-08
 THRORTH =  1.00D-08  GRID    =  1.00D-06  GRIDMAX =  1.00D-03  DTMAX   =  0.00D+00  THROCCDE=  1.00D-01  THROCCDE=  1.00D-01



 THRESHOLDS:

 ZERO    =  1.00D-22  ONEINT  =  1.00D-22  TWOINT  =  1.00D-22  PREFAC  =  1.00D-14  LOCALI  =  1.00D-09  EORDER  =  1.00D-04
 ENERGY  =  1.00D-12  ETEST   =  0.00D+00  EDENS   =  0.00D+00  THRDEDEF=  1.00D-06  GRADIENT=  1.00D-02  STEP    =  1.00D-03
 ORBITAL =  1.00D-05  CIVEC   =  1.00D-05  COEFF   =  1.00D-04  PRINTCI =  5.00D-02  PUNCHCI =  9.90D+01  OPTGRAD =  1.00D-08
 OPTENERG=  1.00D-06  OPTSTEP =  1.00D-08  THRGRAD =  1.00D-10  COMPRESS=  1.00D-11  VARMIN  =  1.00D-07  VARMAX  =  1.00D-03
 THRDOUB =  0.00D+00  THRDIV  =  1.00D-05  THRRED  =  1.00D-07  THRPSP  =  1.00D+00  THRDC   =  1.00D-10  THRCS   =  1.00D-10
 THRNRM  =  1.00D-08  THREQ   =  0.00D+00  THRDE   =  1.00D+00  THRREF  =  1.00D-05  SPARFAC =  1.00D+00  THRDLP  =  1.00D-07
 THRDIA  =  1.00D-10  THRDLS  =  1.00D-07  THRGPS  =  0.00D+00  THRKEX  =  0.00D+00  THRDIS  =  2.00D-01  THRVAR  =  1.00D-10
 THRLOC  =  1.00D-06  THRGAP  =  1.00D-06  THRLOCT = -1.00D+00  THRGAPT = -1.00D+00  THRORB  =  1.00D-06  THRMLTP =  0.00D+00
 THRCPQCI=  1.00D-10  KEXTA   =  0.00D+00  THRCOARS=  0.00D+00  SYMTOL  =  1.00D-06  GRADTOL =  1.00D-06  THROVL  =  1.00D-08
 THRORTH =  1.00D-08  GRID    =  1.00D-06  GRIDMAX =  1.00D-03  DTMAX   =  0.00D+00  THROCCDE=  1.00D-01  THROCCDE=  1.00D-01



 Input parameters for SORTINT:

 COMPRESS =    0.000000
 C_FINAL  =    1.000000
 DEBUG    =   -1.000000
 C_SORT1  =    0.000000
 C_SEWARD =    0.000000
 THRESH   =    0.000000
 IO       =  molpro                                                          
 SPRI     =    0.000000
 SETTING GEOMTYP        =    XYZ
 ZUNIT=BOHR
 

 Variable memory set to  995000000 words,  buffer space   230000 words

 SETTING BASIS          =    USERDEF


 Recomputing integrals since basis changed


 Using spherical harmonics

 Library entry H      S aug-cc-pVTZ          selected for orbital group  1
 Library entry H      P aug-cc-pVTZ          selected for orbital group  1
 Library entry H      D aug-cc-pVTZ          selected for orbital group  1


 PROGRAM * SEWARD (Integral evaluation for generally contracted gaussian basis sets)     Author: Roland Lindh, 1990

 Geometry written to block  1 of record 700


 Point group  Cs  



 ATOMIC COORDINATES

 NR  ATOM    CHARGE       X              Y              Z

   1  H       1.00    0.000000000    1.665439950   -1.928393184
   2  N       7.00    0.000000000   -0.159061567   -1.138733614
   3  O       8.00    0.000000000    0.035389407    1.116537207

 Bond lengths in Bohr (Angstrom)

 1-2  1.988056342  2-3  2.263638147
     ( 1.052034110)     ( 1.197865721)

 Bond angles

  1-2-3  108.47547239

 NUCLEAR CHARGE:                   16
 NUMBER OF PRIMITIVE AOS:         203
 NUMBER OF SYMMETRY AOS:          173
 NUMBER OF CONTRACTIONS:          171   ( 114A'  +  57A"  )
 NUMBER OF CORE ORBITALS:           2   (   2A'  +   0A"  )
 NUMBER OF VALENCE ORBITALS:        9   (   7A'  +   2A"  )


 NUCLEAR REPULSION ENERGY   30.57625927


 Eigenvalues of metric

         1 0.102E-02 0.240E-02 0.329E-02 0.631E-02 0.984E-02 0.136E-01 0.144E-01 0.228E-01
         2 0.362E-01 0.516E-01 0.692E-01 0.940E-01 0.131E+00 0.134E+00 0.140E+00 0.142E+00


 Contracted 2-electron integrals neglected if value below      1.0D-22

       46227057. INTEGRALS WRITTEN OUT IN   11289 BLOCKS ON RECORD 1290 OF FILE 1


 NUMBER OF SORTED TWO-ELECTRON INTEGRALS:   55360566.     BUFFER LENGTH:  32768
 NUMBER OF SEGMENTS:   4  SEGMENT LENGTH:   15997996      RECORD LENGTH: 524288

 Memory used in sort:      16.56 MW

 SORT1 READ    46227057. AND WROTE    46665316. INTEGRALS IN    136 RECORDS. CPU TIME:     1.52 SEC, REAL TIME:     1.96 SEC
 SORT2 READ    46665316. AND WROTE    55360566. INTEGRALS IN      4 RECORDS. CPU TIME:     0.84 SEC, REAL TIME:     1.19 SEC

 FILE SIZES:   FILE 1:   760.6 MBYTE,  FILE 4:   570.5 MBYTE,   TOTAL:   1331.0 MBYTE

 OPERATOR DM      FOR CENTER  0  COORDINATES:    0.000000    0.000000    0.000000


 **********************************************************************************************************************************
 DATASETS  * FILE   NREC   LENGTH (MB)   RECORD NAMES
              1      19      421.79       500      610      700      900      950      970     1000      129      960     1100   
                                          VAR    BASINP    GEOM    SYMINP    ZMAT    AOBASIS   BASIS     P2S    ABASIS      S 
                                         1400     1410     1200     1210     1080     1600     1650     1300     1700   
                                           T        V       H0       H01     AOSYM     SMH    MOLCAS    ERIS     OPER   

 PROGRAMS   *        TOTAL       INT
 CPU TIMES  *         6.55      6.46
 REAL TIME  *         8.63 SEC
 DISK USED  *         1.33 GB      
 **********************************************************************************************************************************


 PROGRAM * RHF-SCF (CLOSED SHELL)       Authors: W. Meyer, H.-J. Werner


 NUMBER OF ELECTRONS:       8+    8-
 CONVERGENCE THRESHOLDS:    1.00E-10 (Density)    1.00E-13 (Energy)
 MAX. NUMBER OF ITERATIONS:      500
 INTERPOLATION TYPE:            DIIS
 INTERPOLATION STEPS:              2 (START)      1 (STEP)
 LEVEL SHIFTS:                  0.00 (CLOSED)  0.00 (OPEN) 



 Orbital guess generated from atomic densities. Full valence occupancy:    9   2

 Molecular orbital dump at record        2100.2

 Initial occupancy:   7   1

 ITERATION    DDIFF          GRAD             ENERGY        2-EL.EN.            DIPOLE MOMENTS         DIIS   ORB.
    1      0.000D+00      0.000D+00      -129.79200563    154.430323    0.00000    0.56728   -0.98196    0    start
    2      0.000D+00      0.868D-02      -129.81918562    155.624771    0.00000    0.59092   -0.20212    1    diag
    3      0.359D-02      0.645D-02      -129.84031313    155.723647    0.00000    0.54262   -0.56983    2    diag
    4      0.137D-02      0.103D-02      -129.84107574    155.456450    0.00000    0.55083   -0.50917    3    diag
    5      0.327D-03      0.332D-03      -129.84119230    155.543702    0.00000    0.55687   -0.51180    4    diag
    6      0.152D-03      0.973D-04      -129.84121124    155.527756    0.00000    0.55749   -0.50786    5    diag
    7      0.603D-04      0.483D-04      -129.84121666    155.530396    0.00000    0.55886   -0.50549    6    diag
    8      0.406D-04      0.160D-04      -129.84121720    155.529618    0.00000    0.55892   -0.50465    7    diag
    9      0.134D-04      0.296D-05      -129.84121722    155.529513    0.00000    0.55887   -0.50449    8    diag
   10      0.265D-05      0.692D-06      -129.84121722    155.529499    0.00000    0.55883   -0.50446    9    orth
   11      0.830D-06      0.139D-06      -129.84121722    155.529495    0.00000    0.55883   -0.50446    9    diag
   12      0.200D-06      0.283D-07      -129.84121722    155.529494    0.00000    0.55882   -0.50445    9    diag
   13      0.485D-07      0.738D-08      -129.84121722    155.529494    0.00000    0.55882   -0.50445    9    diag
   14      0.111D-07      0.133D-08      -129.84121722    155.529494    0.00000    0.55882   -0.50445    9    diag
   15      0.152D-08      0.371D-09      -129.84121722    155.529494    0.00000    0.55882   -0.50445    9    diag
   16      0.334D-09      0.115D-09      -129.84121722    155.529494    0.00000    0.55882   -0.50445    9    diag
   17      0.887D-10      0.336D-10      -129.84121722    155.529494    0.00000    0.55882   -0.50445    9    diag
   18      0.297D-10      0.108D-10      -129.84121722    155.529494    0.00000    0.55882   -0.50445    9    diag
   19      0.110D-10      0.267D-11      -129.84121722    155.529494    0.00000    0.55882   -0.50445    9    fixocc
   20      0.258D-11      0.545D-12      -129.84121722    155.529494    0.00000    0.55882   -0.50445    0    orth

 Final occupancy:   7   1

 !RHF STATE 1.1 Energy               -129.841217220959
 Nuclear energy                        30.57625927
 One-electron energy                 -238.18222347
 Two-electron energy                   77.76474698
 Virial quotient                       -1.00133211
 !RHF STATE 1.1 Dipole moment           0.00000000     0.55882277    -0.50445377
 Dipole moment /Debye                   0.00000000     1.42029277    -1.28210962

 Orbital energies:

         1.1          2.1          3.1          4.1          5.1          6.1          7.1          8.1          9.1
    -20.650413   -15.708859    -1.536278    -0.990762    -0.748314    -0.667239    -0.425459     0.039838     0.193315

         1.2          2.2          3.2
     -0.599041     0.082565     0.239913

 HOMO      7.1    -0.425459 =     -11.5773eV
 LUMO      8.1     0.039838 =       1.0841eV
 LUMO-HOMO         0.465297 =      12.6614eV


 **********************************************************************************************************************************
 DATASETS  * FILE   NREC   LENGTH (MB)   RECORD NAMES
              1      19      421.79       500      610      700      900      950      970     1000      129      960     1100   
                                          VAR    BASINP    GEOM    SYMINP    ZMAT    AOBASIS   BASIS     P2S    ABASIS      S 
                                         1400     1410     1200     1210     1080     1600     1650     1300     1700   
                                           T        V       H0       H01     AOSYM     SMH    MOLCAS    ERIS     OPER   

              2       4        3.13       700     1000      520     2100   
                                         GEOM     BASIS   MCVARS     RHF  

 PROGRAMS   *        TOTAL        HF       INT
 CPU TIMES  *        13.59      7.04      6.46
 REAL TIME  *        17.76 SEC
 DISK USED  *         1.33 GB      
 **********************************************************************************************************************************


 PROGRAM * CCSD (Closed-shell coupled cluster)     Authors: C. Hampel, H.-J. Werner, 1991, M. Deegan, P.J. Knowles, 1992


 Convergence thresholds:  THRVAR = 1.00D-08  THRDEN = 1.00D-12

 CCSD(T)     terms to be evaluated (factor= 1.000)


 Number of closed-shell orbitals:   8 (   7   1 )
 Number of external orbitals:     163 ( 107  56 )

 Molecular orbitals read from record     2100.2  Type=RHF/CANONICAL (state 1.1)

 Number of N-1 electron functions:               8
 Number of N-2 electron functions:              36
 Number of singly external CSFs:               805
 Number of doubly external CSFs:            449165
 Total number of CSFs:                      449971

 Length of J-op  integral file:               0.00 MB
 Length of K-op  integral file:               1.15 MB
 Length of 3-ext integral record:             0.00 MB

 Memory could be reduced to 24.90 Mwords without degradation in triples

 Integral transformation finished. Total CPU:   1.23 sec, npass=  1  Memory used:   6.89 MW

 Reference energy:                   -129.84121722

 MP2 singlet pair energy:              -0.37793333
 MP2 triplet pair energy:              -0.18600894
 MP2 correlation energy:               -0.56394227
 MP2 total energy:                   -130.40515949

 SCS-MP2 correlation energy:           -0.56925889   (PS=  1.200000  PT=  0.333333)
 SCS-MP2 total energy:               -130.41047611

 ITER.      SQ.NORM     CORR.ENERGY   TOTAL ENERGY   ENERGY CHANGE        DEN1      VAR(S)    VAR(P)  DIIS     TIME  TIME/IT
   1      1.11870424    -0.56903981  -130.41025703    -0.00509754     0.01217074  0.33D-02  0.30D-02  1  1     2.63     1.48
   2      1.12931888    -0.56882833  -130.41004555     0.00021148    -0.01343740  0.86D-04  0.48D-03  2  2     4.07     1.52
   3      1.13441413    -0.56914305  -130.41036027    -0.00031472    -0.00231902  0.52D-04  0.65D-04  3  3     5.50     1.54
   4      1.13772171    -0.56913421  -130.41035143     0.00000884    -0.00135022  0.42D-05  0.93D-05  4  4     6.93     1.55
   5      1.13871456    -0.56915758  -130.41037480    -0.00002337    -0.00023272  0.15D-05  0.18D-05  5  5     8.38     1.56
   6      1.13910465    -0.56915213  -130.41036935     0.00000545    -0.00003723  0.14D-06  0.41D-06  6  6     9.86     1.57
   7      1.13918838    -0.56915233  -130.41036955    -0.00000020    -0.00000001  0.20D-07  0.91D-07  6  1    11.34     1.58
   8      1.13922221    -0.56915075  -130.41036797     0.00000159    -0.00000460  0.42D-08  0.13D-07  6  2    12.85     1.59
   9      1.13922708    -0.56915084  -130.41036806    -0.00000009     0.00000094  0.17D-08  0.16D-08  6  3    14.31     1.59
  10      1.13922860    -0.56915114  -130.41036836    -0.00000030    -0.00000056  0.39D-09  0.22D-09  6  4    15.80     1.60
  11      1.13922764    -0.56915127  -130.41036849    -0.00000013     0.00000034  0.93D-10  0.23D-10  6  5    17.23     1.60
  12      1.13922677    -0.56915140  -130.41036862    -0.00000013     0.00000034  0.97D-11  0.60D-11  6  6    18.73     1.60
  13      1.13922626    -0.56915141  -130.41036863    -0.00000001     0.00000011  0.42D-11  0.11D-11  6  1    20.20     1.61
  14      1.13922585    -0.56915143  -130.41036865    -0.00000002     0.00000010  0.44D-12  0.36D-12  6  3    21.68     1.61
  15      1.13922569    -0.56915143  -130.41036865    -0.00000000     0.00000002  0.11D-12  0.24D-13  6  2    23.12     1.61
  16      1.13922565    -0.56915144  -130.41036866    -0.00000000     0.00000001  0.24D-13  0.54D-14  6  4    24.62     1.61
  17      1.13922563    -0.56915144  -130.41036866    -0.00000000     0.00000001  0.39D-14  0.10D-14  6  5    26.08     1.61
  18      1.13922562    -0.56915144  -130.41036866    -0.00000000     0.00000000  0.38D-15  0.26D-15  6  6    27.51     1.61
  19      1.13922563    -0.56915144  -130.41036866     0.00000000    -0.00000000  0.44D-16  0.31D-16  6  1    28.96     1.61
  20      1.13922563    -0.56915144  -130.41036866     0.00000000    -0.00000000  0.19D-17  0.63D-17  6  3    30.46     1.62
  21      1.13922563    -0.56915144  -130.41036866     0.00000000    -0.00000000  0.94D-18  0.15D-17  6  2    31.92     1.62
  22      1.13922563    -0.56915144  -130.41036866     0.00000000    -0.00000000  0.15D-18  0.53D-18  6  4    33.43     1.62
  23      1.13922563    -0.56915144  -130.41036866    -0.00000000     0.00000000  0.92D-19  0.82D-19  6  5    34.91     1.62
  24      1.13922563    -0.56915144  -130.41036866     0.00000000    -0.00000000  0.44D-20  0.11D-19  6  1    36.40     1.62
  25      1.13922563    -0.56915144  -130.41036866     0.00000000     0.00000000  0.23D-21  0.12D-20  6  6    37.90     1.62
  26      1.13922563    -0.56915144  -130.41036866    -0.00000000     0.00000000  0.11D-21  0.27D-21  6  3    39.38     1.62

 Norm of t1 vector:      0.07620751      S-energy:     0.00000000      T1 diagnostic:  0.01347171
                                                                       D1 diagnostic:  0.04281109

 Doubles amplitudes (print threshold =  0.500E-01):

         I         J         SYM. A    SYM. B    A         B      T(IJ, AB)

         8         8         2         2         1         1     -0.13152736


 Total CPU time for triples:     28.08 sec


 RESULTS
 =======

  Reference energy                   -129.841217220959

  Correlated core orbitals:             1.1       2.1
  Orbital energies:                   -20.6504  -15.7089
 
  CCSD core-core energy                -0.079227043409
  CCSD core-valence energy             -0.036141306924
  CCSD valence correlation energy      -0.453783085777
 
  CCSD singlet pair energy             -0.406799515174
  CCSD triplet pair energy             -0.162351920937
  CCSD correlation energy              -0.569151436110

  Triples (T) contribution             -0.021973000940
  Total correlation energy             -0.591124437050

  CCSD total energy                  -130.410368657069
  CCSD[T] energy                     -130.433469732985
  CCSD-T energy                      -130.431913109481
 !CCSD(T) total energy               -130.432341658009

 Timing summary (sec):

 STEP                 CPU(USER)    SYS     CPU(TOT)    WALL
 Transformation          1.25      0.25      1.50      1.51
 CCSD iterations        38.14      3.98     42.12     42.11
 Triples                28.08      0.82     28.90     28.92

 Program statistics:

 Available memory in ccsd:               994999644
 Min. memory needed in ccsd:               1368037
 Max. memory used in ccsd:                 1750502
 Max. memory used in cckext:               2014357 (26 integral passes)



 **********************************************************************************************************************************
 DATASETS  * FILE   NREC   LENGTH (MB)   RECORD NAMES
              1      20      500.70       500      610      700      900      950      970     1000      129      960     1100   
                                          VAR    BASINP    GEOM    SYMINP    ZMAT    AOBASIS   BASIS     P2S    ABASIS      S 
                                         1400     1410     1200     1210     1080     1600     1650     1300     1700     1380   
                                           T        V       H0       H01     AOSYM     SMH    MOLCAS    ERIS     OPER     JKOP   

              2       4        3.13       700     1000      520     2100   
                                         GEOM     BASIS   MCVARS     RHF  

 PROGRAMS   *        TOTAL   CCSD(T)        HF       INT
 CPU TIMES  *        81.09     67.50      7.04      6.46
 REAL TIME  *        90.34 SEC
 DISK USED  *         1.33 GB      
 **********************************************************************************************************************************

 CCSD(T)/USERDEF energy=   -130.432341658009

        CCSD(T)         HF-SCF  
   -130.43234166   -129.84121722
 **********************************************************************************************************************************
 Molpro calculation terminated
 Variable memory released
