
 Primary working directories    : /tmp/r2666/282427.maple
 Secondary working directories  : /tmp/r2666/282427.maple
 Wavefunction directory         : /ddn/home4/r2666/wfu/
 Main file repository           : /tmp/r2666/282427.maple/

 SHA1      : d5ffa45e93fdbca01ffc919aa182cfdae0147319
 NAME      : 2015.1.35
 ARCHNAME  : linux/x86_64
 FC        : /opt/intel/composer_xe_2015.1.133/bin/intel64/ifort
 BLASLIB   : -Wl,-_start-group /opt/intel/mkl/lib/intel64/libmkl_intel_ilp64.a /opt/intel/mkl/lib/intel64/libmkl_intel_thread.a /opt/intel/mkl/lib/intel64/libmkl_core.a -Wl,-_end-group
 id        : olemiss

 Nodes     nprocs
 cn095        1

 Using customized tuning parameters: mindgm=1; mindgv=20; mindgc=4; mindgr=1; noblas=0; minvec=7
 default implementation of scratch files=df  

 ***,hno CCSD(T)/TZ-F12 QFF
 memory, 995, m;
 gthresh,energy=1.d-12,zero=1.d-22,oneint=1.d-22,twoint=1.d-22;
 gthresh,optgrad=1.d-8,optstep=1.d-8;
 nocompress;
 geomtyp=xyz
 bohr
 geometry={
 3
         66        66
 H        0.0000000000        1.6670587455       -1.9327302875
 N        0.0000000000       -0.1587690386       -1.1461421347
 O        0.0000000000        0.0334780830        1.1282828312
 }
 
 basis={
 default=aug-cc-pvtz
 s,C,8236.0,1235.0,280.8, 79.27,25.59, 8.997,3.319
 s,C,0.9059,0.3643,0.1285000
 p,C,56.0,18.71,4.133,0.2827,0.3827,0.1209
 d,C,30.0,10.0,3.3,1.097,0.318
 f,C,7.0,2.3,0.7610
 s,N,11420.0,1712.0,389.3,110.0,35.57,12.54,4.644
 s,N,1.293,0.5118,0.1787
 p,N,79.89,26.63,5.948,1.742,0.555,0.1725
 d,N,45.0,15.0,5.0,1.654,0.469
 f,N,9.9,3.3,1.093
 s,O,15330.0,2299.0,522.4,147.3,47.55,16.76,6.207
 s,O,1.752,0.6882,0.2384
 p,O,103.5,34.46,7.749,2.28,0.7156,0.214
 d,O,63.0,21.0,7.0,2.314,0.645
 f,O,12.9,4.3,1.428
 s,mg,164900.0,24710.0,5628.0,1596.0,521.0;
 s,mg,188.0,73.01,29.90,12.54,4.306,1.826;
 s,mg,0.7417,0.0761,0.145,0.033,0.0129;
 p,mg,950.70,316.90,74.86,23.72,8.669,3.363;
 p,mg,1.310,0.4911,0.2364,0.08733,0.03237,0.00745;
 d,mg,1.601,0.686,0.126,0.294,0.0468;
 f,mg,1.372,0.588,0.094,0.252;
 }
   {hf,maxit=500;accu,20;}
 {ccsd(t),nocheck,maxit=250;orbital,IGNORE_ERROR;core}

 Variables initialized (889), CPU time= 0.01 sec
 Commands  initialized (702), CPU time= 0.01 sec, 572 directives.
 Default parameters read. Elapsed time= 0.04 sec

 Checking input...
 Passed
1


                                         ***  PROGRAM SYSTEM MOLPRO  ***
                                       Copyright, TTI GmbH Stuttgart, 2015
                                    Version 2015.1 linked Jul  9 2018 13:16:40


 **********************************************************************************************************************************
 LABEL *   hno CCSD(T)/TZ-F12 QFF                                                        
  64 bit serial version                                                                  DATE: 04-Mar-20          TIME: 13:49:45  
 **********************************************************************************************************************************

 SHA1:             d5ffa45e93fdbca01ffc919aa182cfdae0147319
 **********************************************************************************************************************************

 THRESHOLDS:

 ZERO    =  1.00D-22  ONEINT  =  1.00D-22  TWOINT  =  1.00D-22  PREFAC  =  1.00D-14  LOCALI  =  1.00D-09  EORDER  =  1.00D-04
 ENERGY  =  1.00D-12  ETEST   =  0.00D+00  EDENS   =  0.00D+00  THRDEDEF=  1.00D-06  GRADIENT=  1.00D-02  STEP    =  1.00D-03
 ORBITAL =  1.00D-05  CIVEC   =  1.00D-05  COEFF   =  1.00D-04  PRINTCI =  5.00D-02  PUNCHCI =  9.90D+01  OPTGRAD =  3.00D-04
 OPTENERG=  1.00D-06  OPTSTEP =  3.00D-04  THRGRAD =  1.00D-10  COMPRESS=  1.00D-11  VARMIN  =  1.00D-07  VARMAX  =  1.00D-03
 THRDOUB =  0.00D+00  THRDIV  =  1.00D-05  THRRED  =  1.00D-07  THRPSP  =  1.00D+00  THRDC   =  1.00D-10  THRCS   =  1.00D-10
 THRNRM  =  1.00D-08  THREQ   =  0.00D+00  THRDE   =  1.00D+00  THRREF  =  1.00D-05  SPARFAC =  1.00D+00  THRDLP  =  1.00D-07
 THRDIA  =  1.00D-10  THRDLS  =  1.00D-07  THRGPS  =  0.00D+00  THRKEX  =  0.00D+00  THRDIS  =  2.00D-01  THRVAR  =  1.00D-10
 THRLOC  =  1.00D-06  THRGAP  =  1.00D-06  THRLOCT = -1.00D+00  THRGAPT = -1.00D+00  THRORB  =  1.00D-06  THRMLTP =  0.00D+00
 THRCPQCI=  1.00D-10  KEXTA   =  0.00D+00  THRCOARS=  0.00D+00  SYMTOL  =  1.00D-06  GRADTOL =  1.00D-06  THROVL  =  1.00D-08
 THRORTH =  1.00D-08  GRID    =  1.00D-06  GRIDMAX =  1.00D-03  DTMAX   =  0.00D+00  THROCCDE=  1.00D-01  THROCCDE=  1.00D-01



 THRESHOLDS:

 ZERO    =  1.00D-22  ONEINT  =  1.00D-22  TWOINT  =  1.00D-22  PREFAC  =  1.00D-14  LOCALI  =  1.00D-09  EORDER  =  1.00D-04
 ENERGY  =  1.00D-12  ETEST   =  0.00D+00  EDENS   =  0.00D+00  THRDEDEF=  1.00D-06  GRADIENT=  1.00D-02  STEP    =  1.00D-03
 ORBITAL =  1.00D-05  CIVEC   =  1.00D-05  COEFF   =  1.00D-04  PRINTCI =  5.00D-02  PUNCHCI =  9.90D+01  OPTGRAD =  1.00D-08
 OPTENERG=  1.00D-06  OPTSTEP =  1.00D-08  THRGRAD =  1.00D-10  COMPRESS=  1.00D-11  VARMIN  =  1.00D-07  VARMAX  =  1.00D-03
 THRDOUB =  0.00D+00  THRDIV  =  1.00D-05  THRRED  =  1.00D-07  THRPSP  =  1.00D+00  THRDC   =  1.00D-10  THRCS   =  1.00D-10
 THRNRM  =  1.00D-08  THREQ   =  0.00D+00  THRDE   =  1.00D+00  THRREF  =  1.00D-05  SPARFAC =  1.00D+00  THRDLP  =  1.00D-07
 THRDIA  =  1.00D-10  THRDLS  =  1.00D-07  THRGPS  =  0.00D+00  THRKEX  =  0.00D+00  THRDIS  =  2.00D-01  THRVAR  =  1.00D-10
 THRLOC  =  1.00D-06  THRGAP  =  1.00D-06  THRLOCT = -1.00D+00  THRGAPT = -1.00D+00  THRORB  =  1.00D-06  THRMLTP =  0.00D+00
 THRCPQCI=  1.00D-10  KEXTA   =  0.00D+00  THRCOARS=  0.00D+00  SYMTOL  =  1.00D-06  GRADTOL =  1.00D-06  THROVL  =  1.00D-08
 THRORTH =  1.00D-08  GRID    =  1.00D-06  GRIDMAX =  1.00D-03  DTMAX   =  0.00D+00  THROCCDE=  1.00D-01  THROCCDE=  1.00D-01



 Input parameters for SORTINT:

 COMPRESS =    0.000000
 C_FINAL  =    1.000000
 DEBUG    =   -1.000000
 C_SORT1  =    0.000000
 C_SEWARD =    0.000000
 THRESH   =    0.000000
 IO       =  molpro                                                          
 SPRI     =    0.000000
 SETTING GEOMTYP        =    XYZ
 ZUNIT=BOHR
 

 Variable memory set to  995000000 words,  buffer space   230000 words

 SETTING BASIS          =    USERDEF


 Recomputing integrals since basis changed


 Using spherical harmonics

 Library entry H      S aug-cc-pVTZ          selected for orbital group  1
 Library entry H      P aug-cc-pVTZ          selected for orbital group  1
 Library entry H      D aug-cc-pVTZ          selected for orbital group  1


 PROGRAM * SEWARD (Integral evaluation for generally contracted gaussian basis sets)     Author: Roland Lindh, 1990

 Geometry written to block  1 of record 700


 Point group  Cs  



 ATOMIC COORDINATES

 NR  ATOM    CHARGE       X              Y              Z

   1  H       1.00    0.000000000    1.667058746   -1.932730288
   2  N       7.00    0.000000000   -0.158769039   -1.146142135
   3  O       8.00    0.000000000    0.033478083    1.128282831

 Bond lengths in Bohr (Angstrom)

 1-2  1.988056342  2-3  2.282535406
     ( 1.052034110)     ( 1.207865720)

 Bond angles

  1-2-3  108.47547239

 NUCLEAR CHARGE:                   16
 NUMBER OF PRIMITIVE AOS:         203
 NUMBER OF SYMMETRY AOS:          173
 NUMBER OF CONTRACTIONS:          171   ( 114A'  +  57A"  )
 NUMBER OF CORE ORBITALS:           2   (   2A'  +   0A"  )
 NUMBER OF VALENCE ORBITALS:        9   (   7A'  +   2A"  )


 NUCLEAR REPULSION ENERGY   30.36086415


 Eigenvalues of metric

         1 0.104E-02 0.249E-02 0.334E-02 0.636E-02 0.985E-02 0.137E-01 0.145E-01 0.230E-01
         2 0.363E-01 0.531E-01 0.698E-01 0.941E-01 0.131E+00 0.134E+00 0.140E+00 0.142E+00


 Contracted 2-electron integrals neglected if value below      1.0D-22

       46151270. INTEGRALS WRITTEN OUT IN   11271 BLOCKS ON RECORD 1290 OF FILE 1


 NUMBER OF SORTED TWO-ELECTRON INTEGRALS:   55360566.     BUFFER LENGTH:  32768
 NUMBER OF SEGMENTS:   4  SEGMENT LENGTH:   15997996      RECORD LENGTH: 524288

 Memory used in sort:      16.56 MW

 SORT1 READ    46151270. AND WROTE    46588752. INTEGRALS IN    136 RECORDS. CPU TIME:     0.82 SEC, REAL TIME:     1.14 SEC
 SORT2 READ    46588752. AND WROTE    55360566. INTEGRALS IN      4 RECORDS. CPU TIME:     0.70 SEC, REAL TIME:     0.97 SEC

 FILE SIZES:   FILE 1:   759.4 MBYTE,  FILE 4:   570.5 MBYTE,   TOTAL:   1329.8 MBYTE

 OPERATOR DM      FOR CENTER  0  COORDINATES:    0.000000    0.000000    0.000000


 **********************************************************************************************************************************
 DATASETS  * FILE   NREC   LENGTH (MB)   RECORD NAMES
              1      19      421.28       500      610      700      900      950      970     1000      129      960     1100   
                                          VAR    BASINP    GEOM    SYMINP    ZMAT    AOBASIS   BASIS     P2S    ABASIS      S 
                                         1400     1410     1200     1210     1080     1600     1650     1300     1700   
                                           T        V       H0       H01     AOSYM     SMH    MOLCAS    ERIS     OPER   

 PROGRAMS   *        TOTAL       INT
 CPU TIMES  *         4.59      4.49
 REAL TIME  *         6.16 SEC
 DISK USED  *         1.33 GB      
 **********************************************************************************************************************************


 PROGRAM * RHF-SCF (CLOSED SHELL)       Authors: W. Meyer, H.-J. Werner


 NUMBER OF ELECTRONS:       8+    8-
 CONVERGENCE THRESHOLDS:    1.00E-10 (Density)    1.00E-13 (Energy)
 MAX. NUMBER OF ITERATIONS:      500
 INTERPOLATION TYPE:            DIIS
 INTERPOLATION STEPS:              2 (START)      1 (STEP)
 LEVEL SHIFTS:                  0.00 (CLOSED)  0.00 (OPEN) 



 Orbital guess generated from atomic densities. Full valence occupancy:    9   2

 Molecular orbital dump at record        2100.2

 Initial occupancy:   7   1

 ITERATION    DDIFF          GRAD             ENERGY        2-EL.EN.            DIPOLE MOMENTS         DIIS   ORB.
    1      0.000D+00      0.000D+00      -129.78931758    154.045495    0.00000    0.57206   -1.01405    0    start
    2      0.000D+00      0.878D-02      -129.81622584    155.221314    0.00000    0.59741   -0.19750    1    diag
    3      0.364D-02      0.667D-02      -129.83895941    155.341652    0.00000    0.54761   -0.58464    2    diag
    4      0.142D-02      0.104D-02      -129.83974340    155.067037    0.00000    0.55557   -0.52220    3    diag
    5      0.331D-03      0.337D-03      -129.83986368    155.155163    0.00000    0.56162   -0.52463    4    diag
    6      0.153D-03      0.988D-04      -129.83988329    155.139079    0.00000    0.56219   -0.52051    5    diag
    7      0.607D-04      0.496D-04      -129.83988907    155.141617    0.00000    0.56353   -0.51800    6    diag
    8      0.412D-04      0.170D-04      -129.83988969    155.140793    0.00000    0.56358   -0.51709    7    diag
    9      0.143D-04      0.317D-05      -129.83988972    155.140680    0.00000    0.56353   -0.51691    8    diag
   10      0.290D-05      0.724D-06      -129.83988972    155.140666    0.00000    0.56349   -0.51688    9    orth
   11      0.865D-06      0.144D-06      -129.83988972    155.140662    0.00000    0.56349   -0.51688    9    diag
   12      0.204D-06      0.298D-07      -129.83988972    155.140661    0.00000    0.56348   -0.51688    9    diag
   13      0.498D-07      0.787D-08      -129.83988972    155.140661    0.00000    0.56348   -0.51688    9    diag
   14      0.115D-07      0.139D-08      -129.83988972    155.140661    0.00000    0.56348   -0.51688    9    diag
   15      0.147D-08      0.373D-09      -129.83988972    155.140661    0.00000    0.56348   -0.51688    9    diag
   16      0.327D-09      0.109D-09      -129.83988972    155.140661    0.00000    0.56348   -0.51688    9    diag
   17      0.749D-10      0.301D-10      -129.83988972    155.140661    0.00000    0.56348   -0.51688    9    diag
   18      0.235D-10      0.101D-10      -129.83988972    155.140661    0.00000    0.56348   -0.51688    0    orth

 Final occupancy:   7   1

 !RHF STATE 1.1 Energy               -129.839889719833
 Nuclear energy                        30.36086415
 One-electron energy                 -237.77108426
 Two-electron energy                   77.57033039
 Virial quotient                       -1.00163872
 !RHF STATE 1.1 Dipole moment           0.00000000     0.56348451    -0.51687874
 Dipole moment /Debye                   0.00000000     1.43214097    -1.31368866

 Orbital energies:

         1.1          2.1          3.1          4.1          5.1          6.1          7.1          8.1          9.1
    -20.651342   -15.710538    -1.527980    -0.993068    -0.745215    -0.664318    -0.428530     0.039679     0.192790

         1.2          2.2          3.2
     -0.594221     0.079054     0.239567

 HOMO      7.1    -0.428530 =     -11.6609eV
 LUMO      8.1     0.039679 =       1.0797eV
 LUMO-HOMO         0.468208 =      12.7406eV


 **********************************************************************************************************************************
 DATASETS  * FILE   NREC   LENGTH (MB)   RECORD NAMES
              1      19      421.28       500      610      700      900      950      970     1000      129      960     1100   
                                          VAR    BASINP    GEOM    SYMINP    ZMAT    AOBASIS   BASIS     P2S    ABASIS      S 
                                         1400     1410     1200     1210     1080     1600     1650     1300     1700   
                                           T        V       H0       H01     AOSYM     SMH    MOLCAS    ERIS     OPER   

              2       4        3.13       700     1000      520     2100   
                                         GEOM     BASIS   MCVARS     RHF  

 PROGRAMS   *        TOTAL        HF       INT
 CPU TIMES  *         9.83      5.25      4.49
 REAL TIME  *        12.42 SEC
 DISK USED  *         1.33 GB      
 **********************************************************************************************************************************


 PROGRAM * CCSD (Closed-shell coupled cluster)     Authors: C. Hampel, H.-J. Werner, 1991, M. Deegan, P.J. Knowles, 1992


 Convergence thresholds:  THRVAR = 1.00D-08  THRDEN = 1.00D-12

 CCSD(T)     terms to be evaluated (factor= 1.000)


 Number of closed-shell orbitals:   8 (   7   1 )
 Number of external orbitals:     163 ( 107  56 )

 Molecular orbitals read from record     2100.2  Type=RHF/CANONICAL (state 1.1)

 Number of N-1 electron functions:               8
 Number of N-2 electron functions:              36
 Number of singly external CSFs:               805
 Number of doubly external CSFs:            449165
 Total number of CSFs:                      449971

 Length of J-op  integral file:               0.00 MB
 Length of K-op  integral file:               1.15 MB
 Length of 3-ext integral record:             0.00 MB

 Memory could be reduced to 24.90 Mwords without degradation in triples

 Integral transformation finished. Total CPU:   1.07 sec, npass=  1  Memory used:   6.89 MW

 Reference energy:                   -129.83988972

 MP2 singlet pair energy:              -0.37892269
 MP2 triplet pair energy:              -0.18662307
 MP2 correlation energy:               -0.56554576
 MP2 total energy:                   -130.40543548

 SCS-MP2 correlation energy:           -0.57082825   (PS=  1.200000  PT=  0.333333)
 SCS-MP2 total energy:               -130.41071797

 ITER.      SQ.NORM     CORR.ENERGY   TOTAL ENERGY   ENERGY CHANGE        DEN1      VAR(S)    VAR(P)  DIIS     TIME  TIME/IT
   1      1.11975985    -0.57027855  -130.41016827    -0.00473280     0.01297408  0.34D-02  0.31D-02  1  1     2.25     1.26
   2      1.13063684    -0.56998026  -130.40986998     0.00029829    -0.01371034  0.91D-04  0.50D-03  2  2     3.46     1.28
   3      1.13588684    -0.57030657  -130.41019629    -0.00032631    -0.00235729  0.55D-04  0.68D-04  3  3     4.58     1.26
   4      1.13932432    -0.57029842  -130.41018814     0.00000815    -0.00138632  0.45D-05  0.98D-05  4  4     5.72     1.25
   5      1.14037812    -0.57032284  -130.41021256    -0.00002442    -0.00024801  0.16D-05  0.19D-05  5  5     6.84     1.25
   6      1.14078827    -0.57031683  -130.41020655     0.00000601    -0.00003955  0.14D-06  0.42D-06  6  6     7.96     1.24
   7      1.14087268    -0.57031711  -130.41020683    -0.00000028     0.00000048  0.20D-07  0.95D-07  6  1     9.05     1.23
   8      1.14090691    -0.57031539  -130.41020511     0.00000172    -0.00000477  0.41D-08  0.14D-07  6  2    10.10     1.22
   9      1.14091177    -0.57031547  -130.41020519    -0.00000008     0.00000110  0.18D-08  0.18D-08  6  3    11.23     1.22
  10      1.14091343    -0.57031577  -130.41020549    -0.00000031    -0.00000064  0.41D-09  0.25D-09  6  4    12.35     1.22
  11      1.14091246    -0.57031591  -130.41020563    -0.00000014     0.00000034  0.10D-09  0.26D-10  6  5    13.55     1.23
  12      1.14091157    -0.57031605  -130.41020577    -0.00000013     0.00000035  0.11D-10  0.66D-11  6  6    14.75     1.23
  13      1.14091105    -0.57031606  -130.41020578    -0.00000001     0.00000011  0.44D-11  0.12D-11  6  1    15.93     1.24
  14      1.14091061    -0.57031608  -130.41020580    -0.00000003     0.00000010  0.46D-12  0.40D-12  6  3    17.08     1.24
  15      1.14091045    -0.57031609  -130.41020581    -0.00000000     0.00000002  0.11D-12  0.27D-13  6  2    18.27     1.25
  16      1.14091039    -0.57031609  -130.41020581    -0.00000000     0.00000001  0.25D-13  0.60D-14  6  4    19.45     1.25
  17      1.14091037    -0.57031609  -130.41020581    -0.00000000     0.00000001  0.43D-14  0.11D-14  6  5    20.68     1.26
  18      1.14091037    -0.57031609  -130.41020581    -0.00000000     0.00000000  0.45D-15  0.28D-15  6  6    21.93     1.26
  19      1.14091037    -0.57031609  -130.41020581     0.00000000    -0.00000000  0.54D-16  0.39D-16  6  1    23.16     1.27
  20      1.14091037    -0.57031609  -130.41020581     0.00000000    -0.00000000  0.23D-17  0.83D-17  6  3    24.39     1.27
  21      1.14091037    -0.57031609  -130.41020581     0.00000000    -0.00000000  0.12D-17  0.21D-17  6  2    25.54     1.27
  22      1.14091037    -0.57031609  -130.41020581     0.00000000    -0.00000000  0.22D-18  0.74D-18  6  4    26.74     1.27
  23      1.14091037    -0.57031609  -130.41020581    -0.00000000     0.00000000  0.13D-18  0.11D-18  6  5    27.90     1.27
  24      1.14091037    -0.57031609  -130.41020581     0.00000000    -0.00000000  0.54D-20  0.14D-19  6  1    29.00     1.27
  25      1.14091037    -0.57031609  -130.41020581     0.00000000     0.00000000  0.31D-21  0.14D-20  6  6    30.01     1.26
  26      1.14091037    -0.57031609  -130.41020581    -0.00000000     0.00000000  0.11D-21  0.32D-21  6  3    31.06     1.26

 Norm of t1 vector:      0.07775782      S-energy:     0.00000000      T1 diagnostic:  0.01374577
                                                                       D1 diagnostic:  0.04407235

 Doubles amplitudes (print threshold =  0.500E-01):

         I         J         SYM. A    SYM. B    A         B      T(IJ, AB)

         8         8         2         2         1         1     -0.13452410


 Total CPU time for triples:     20.95 sec


 RESULTS
 =======

  Reference energy                   -129.839889719834

  Correlated core orbitals:             1.1       2.1
  Orbital energies:                   -20.6513  -15.7105
 
  CCSD core-core energy                -0.079232919243
  CCSD core-valence energy             -0.036075991705
  CCSD valence correlation energy      -0.455007177940
 
  CCSD singlet pair energy             -0.407856968682
  CCSD triplet pair energy             -0.162459120208
  CCSD correlation energy              -0.570316088888

  Triples (T) contribution             -0.022284845810
  Total correlation energy             -0.592600934698

  CCSD total energy                  -130.410205808721
  CCSD[T] energy                     -130.433663109637
  CCSD-T energy                      -130.432050001199
 !CCSD(T) total energy               -130.432490654532

 Timing summary (sec):

 STEP                 CPU(USER)    SYS     CPU(TOT)    WALL
 Transformation          1.08      0.17      1.25      1.26
 CCSD iterations        29.98      2.69     32.67     32.67
 Triples                20.95      0.61     21.56     21.57

 Program statistics:

 Available memory in ccsd:               994999644
 Min. memory needed in ccsd:               1368037
 Max. memory used in ccsd:                 1750502
 Max. memory used in cckext:               2014357 (26 integral passes)



 **********************************************************************************************************************************
 DATASETS  * FILE   NREC   LENGTH (MB)   RECORD NAMES
              1      20      500.20       500      610      700      900      950      970     1000      129      960     1100   
                                          VAR    BASINP    GEOM    SYMINP    ZMAT    AOBASIS   BASIS     P2S    ABASIS      S 
                                         1400     1410     1200     1210     1080     1600     1650     1300     1700     1380   
                                           T        V       H0       H01     AOSYM     SMH    MOLCAS    ERIS     OPER     JKOP   

              2       4        3.13       700     1000      520     2100   
                                         GEOM     BASIS   MCVARS     RHF  

 PROGRAMS   *        TOTAL   CCSD(T)        HF       INT
 CPU TIMES  *        61.87     52.04      5.25      4.49
 REAL TIME  *        67.96 SEC
 DISK USED  *         1.33 GB      
 **********************************************************************************************************************************

 CCSD(T)/USERDEF energy=   -130.432490654532

        CCSD(T)         HF-SCF  
   -130.43249065   -129.83988972
 **********************************************************************************************************************************
 Molpro calculation terminated
 Variable memory released
