
 Primary working directories    : /tmp/r2666/282428.maple
 Secondary working directories  : /tmp/r2666/282428.maple
 Wavefunction directory         : /ddn/home4/r2666/wfu/
 Main file repository           : /tmp/r2666/282428.maple/

 SHA1      : d5ffa45e93fdbca01ffc919aa182cfdae0147319
 NAME      : 2015.1.35
 ARCHNAME  : linux/x86_64
 FC        : /opt/intel/composer_xe_2015.1.133/bin/intel64/ifort
 BLASLIB   : -Wl,-_start-group /opt/intel/mkl/lib/intel64/libmkl_intel_ilp64.a /opt/intel/mkl/lib/intel64/libmkl_intel_thread.a /opt/intel/mkl/lib/intel64/libmkl_core.a -Wl,-_end-group
 id        : olemiss

 Nodes     nprocs
 cn093        1

 Using customized tuning parameters: mindgm=1; mindgv=20; mindgc=4; mindgr=1; noblas=0; minvec=7
 default implementation of scratch files=df  

 ***,hno CCSD(T)/TZ-F12 QFF
 memory, 995, m;
 gthresh,energy=1.d-12,zero=1.d-22,oneint=1.d-22,twoint=1.d-22;
 gthresh,optgrad=1.d-8,optstep=1.d-8;
 nocompress;
 geomtyp=xyz
 bohr
 geometry={
 3
         67        67
 H        0.0000000000        1.6672585169       -1.9362713050
 N        0.0000000000       -0.1563626045       -1.1445806931
 O        0.0000000000        0.0308718777        1.1302624071
 }
 
 basis={
 default=aug-cc-pvtz
 s,C,8236.0,1235.0,280.8, 79.27,25.59, 8.997,3.319
 s,C,0.9059,0.3643,0.1285000
 p,C,56.0,18.71,4.133,0.2827,0.3827,0.1209
 d,C,30.0,10.0,3.3,1.097,0.318
 f,C,7.0,2.3,0.7610
 s,N,11420.0,1712.0,389.3,110.0,35.57,12.54,4.644
 s,N,1.293,0.5118,0.1787
 p,N,79.89,26.63,5.948,1.742,0.555,0.1725
 d,N,45.0,15.0,5.0,1.654,0.469
 f,N,9.9,3.3,1.093
 s,O,15330.0,2299.0,522.4,147.3,47.55,16.76,6.207
 s,O,1.752,0.6882,0.2384
 p,O,103.5,34.46,7.749,2.28,0.7156,0.214
 d,O,63.0,21.0,7.0,2.314,0.645
 f,O,12.9,4.3,1.428
 s,mg,164900.0,24710.0,5628.0,1596.0,521.0;
 s,mg,188.0,73.01,29.90,12.54,4.306,1.826;
 s,mg,0.7417,0.0761,0.145,0.033,0.0129;
 p,mg,950.70,316.90,74.86,23.72,8.669,3.363;
 p,mg,1.310,0.4911,0.2364,0.08733,0.03237,0.00745;
 d,mg,1.601,0.686,0.126,0.294,0.0468;
 f,mg,1.372,0.588,0.094,0.252;
 }
   {hf,maxit=500;accu,20;}
 {ccsd(t),nocheck,maxit=250;orbital,IGNORE_ERROR;core}

 Variables initialized (889), CPU time= 0.01 sec
 Commands  initialized (702), CPU time= 0.01 sec, 572 directives.
 Default parameters read. Elapsed time= 0.04 sec

 Checking input...
 Passed
1


                                         ***  PROGRAM SYSTEM MOLPRO  ***
                                       Copyright, TTI GmbH Stuttgart, 2015
                                    Version 2015.1 linked Jul  9 2018 13:16:40


 **********************************************************************************************************************************
 LABEL *   hno CCSD(T)/TZ-F12 QFF                                                        
  64 bit serial version                                                                  DATE: 04-Mar-20          TIME: 13:49:47  
 **********************************************************************************************************************************

 SHA1:             d5ffa45e93fdbca01ffc919aa182cfdae0147319
 **********************************************************************************************************************************

 THRESHOLDS:

 ZERO    =  1.00D-22  ONEINT  =  1.00D-22  TWOINT  =  1.00D-22  PREFAC  =  1.00D-14  LOCALI  =  1.00D-09  EORDER  =  1.00D-04
 ENERGY  =  1.00D-12  ETEST   =  0.00D+00  EDENS   =  0.00D+00  THRDEDEF=  1.00D-06  GRADIENT=  1.00D-02  STEP    =  1.00D-03
 ORBITAL =  1.00D-05  CIVEC   =  1.00D-05  COEFF   =  1.00D-04  PRINTCI =  5.00D-02  PUNCHCI =  9.90D+01  OPTGRAD =  3.00D-04
 OPTENERG=  1.00D-06  OPTSTEP =  3.00D-04  THRGRAD =  1.00D-10  COMPRESS=  1.00D-11  VARMIN  =  1.00D-07  VARMAX  =  1.00D-03
 THRDOUB =  0.00D+00  THRDIV  =  1.00D-05  THRRED  =  1.00D-07  THRPSP  =  1.00D+00  THRDC   =  1.00D-10  THRCS   =  1.00D-10
 THRNRM  =  1.00D-08  THREQ   =  0.00D+00  THRDE   =  1.00D+00  THRREF  =  1.00D-05  SPARFAC =  1.00D+00  THRDLP  =  1.00D-07
 THRDIA  =  1.00D-10  THRDLS  =  1.00D-07  THRGPS  =  0.00D+00  THRKEX  =  0.00D+00  THRDIS  =  2.00D-01  THRVAR  =  1.00D-10
 THRLOC  =  1.00D-06  THRGAP  =  1.00D-06  THRLOCT = -1.00D+00  THRGAPT = -1.00D+00  THRORB  =  1.00D-06  THRMLTP =  0.00D+00
 THRCPQCI=  1.00D-10  KEXTA   =  0.00D+00  THRCOARS=  0.00D+00  SYMTOL  =  1.00D-06  GRADTOL =  1.00D-06  THROVL  =  1.00D-08
 THRORTH =  1.00D-08  GRID    =  1.00D-06  GRIDMAX =  1.00D-03  DTMAX   =  0.00D+00  THROCCDE=  1.00D-01  THROCCDE=  1.00D-01



 THRESHOLDS:

 ZERO    =  1.00D-22  ONEINT  =  1.00D-22  TWOINT  =  1.00D-22  PREFAC  =  1.00D-14  LOCALI  =  1.00D-09  EORDER  =  1.00D-04
 ENERGY  =  1.00D-12  ETEST   =  0.00D+00  EDENS   =  0.00D+00  THRDEDEF=  1.00D-06  GRADIENT=  1.00D-02  STEP    =  1.00D-03
 ORBITAL =  1.00D-05  CIVEC   =  1.00D-05  COEFF   =  1.00D-04  PRINTCI =  5.00D-02  PUNCHCI =  9.90D+01  OPTGRAD =  1.00D-08
 OPTENERG=  1.00D-06  OPTSTEP =  1.00D-08  THRGRAD =  1.00D-10  COMPRESS=  1.00D-11  VARMIN  =  1.00D-07  VARMAX  =  1.00D-03
 THRDOUB =  0.00D+00  THRDIV  =  1.00D-05  THRRED  =  1.00D-07  THRPSP  =  1.00D+00  THRDC   =  1.00D-10  THRCS   =  1.00D-10
 THRNRM  =  1.00D-08  THREQ   =  0.00D+00  THRDE   =  1.00D+00  THRREF  =  1.00D-05  SPARFAC =  1.00D+00  THRDLP  =  1.00D-07
 THRDIA  =  1.00D-10  THRDLS  =  1.00D-07  THRGPS  =  0.00D+00  THRKEX  =  0.00D+00  THRDIS  =  2.00D-01  THRVAR  =  1.00D-10
 THRLOC  =  1.00D-06  THRGAP  =  1.00D-06  THRLOCT = -1.00D+00  THRGAPT = -1.00D+00  THRORB  =  1.00D-06  THRMLTP =  0.00D+00
 THRCPQCI=  1.00D-10  KEXTA   =  0.00D+00  THRCOARS=  0.00D+00  SYMTOL  =  1.00D-06  GRADTOL =  1.00D-06  THROVL  =  1.00D-08
 THRORTH =  1.00D-08  GRID    =  1.00D-06  GRIDMAX =  1.00D-03  DTMAX   =  0.00D+00  THROCCDE=  1.00D-01  THROCCDE=  1.00D-01



 Input parameters for SORTINT:

 COMPRESS =    0.000000
 C_FINAL  =    1.000000
 DEBUG    =   -1.000000
 C_SORT1  =    0.000000
 C_SEWARD =    0.000000
 THRESH   =    0.000000
 IO       =  molpro                                                          
 SPRI     =    0.000000
 SETTING GEOMTYP        =    XYZ
 ZUNIT=BOHR
 

 Variable memory set to  995000000 words,  buffer space   230000 words

 SETTING BASIS          =    USERDEF


 Recomputing integrals since basis changed


 Using spherical harmonics

 Library entry H      S aug-cc-pVTZ          selected for orbital group  1
 Library entry H      P aug-cc-pVTZ          selected for orbital group  1
 Library entry H      D aug-cc-pVTZ          selected for orbital group  1


 PROGRAM * SEWARD (Integral evaluation for generally contracted gaussian basis sets)     Author: Roland Lindh, 1990

 Geometry written to block  1 of record 700


 Point group  Cs  



 ATOMIC COORDINATES

 NR  ATOM    CHARGE       X              Y              Z

   1  H       1.00    0.000000000    1.667258517   -1.936271305
   2  N       7.00    0.000000000   -0.156362605   -1.144580693
   3  O       8.00    0.000000000    0.030871878    1.130262407

 Bond lengths in Bohr (Angstrom)

 1-2  1.988056342  2-3  2.282535406
     ( 1.052034110)     ( 1.207865720)

 Bond angles

  1-2-3  108.76195129

 NUCLEAR CHARGE:                   16
 NUMBER OF PRIMITIVE AOS:         203
 NUMBER OF SYMMETRY AOS:          173
 NUMBER OF CONTRACTIONS:          171   ( 114A'  +  57A"  )
 NUMBER OF CORE ORBITALS:           2   (   2A'  +   0A"  )
 NUMBER OF VALENCE ORBITALS:        9   (   7A'  +   2A"  )


 NUCLEAR REPULSION ENERGY   30.35675695


 Eigenvalues of metric

         1 0.104E-02 0.249E-02 0.334E-02 0.636E-02 0.984E-02 0.137E-01 0.144E-01 0.231E-01
         2 0.363E-01 0.531E-01 0.697E-01 0.942E-01 0.131E+00 0.134E+00 0.140E+00 0.142E+00


 Contracted 2-electron integrals neglected if value below      1.0D-22

       46150453. INTEGRALS WRITTEN OUT IN   11270 BLOCKS ON RECORD 1290 OF FILE 1


 NUMBER OF SORTED TWO-ELECTRON INTEGRALS:   55360566.     BUFFER LENGTH:  32768
 NUMBER OF SEGMENTS:   4  SEGMENT LENGTH:   15997996      RECORD LENGTH: 524288

 Memory used in sort:      16.56 MW

 SORT1 READ    46150453. AND WROTE    46587926. INTEGRALS IN    136 RECORDS. CPU TIME:     0.69 SEC, REAL TIME:     1.03 SEC
 SORT2 READ    46587926. AND WROTE    55360566. INTEGRALS IN      4 RECORDS. CPU TIME:     0.64 SEC, REAL TIME:     0.86 SEC

 FILE SIZES:   FILE 1:   759.3 MBYTE,  FILE 4:   570.5 MBYTE,   TOTAL:   1329.8 MBYTE

 OPERATOR DM      FOR CENTER  0  COORDINATES:    0.000000    0.000000    0.000000


 **********************************************************************************************************************************
 DATASETS  * FILE   NREC   LENGTH (MB)   RECORD NAMES
              1      19      421.28       500      610      700      900      950      970     1000      129      960     1100   
                                          VAR    BASINP    GEOM    SYMINP    ZMAT    AOBASIS   BASIS     P2S    ABASIS      S 
                                         1400     1410     1200     1210     1080     1600     1650     1300     1700   
                                           T        V       H0       H01     AOSYM     SMH    MOLCAS    ERIS     OPER   

 PROGRAMS   *        TOTAL       INT
 CPU TIMES  *         4.07      3.99
 REAL TIME  *         5.52 SEC
 DISK USED  *         1.33 GB      
 **********************************************************************************************************************************


 PROGRAM * RHF-SCF (CLOSED SHELL)       Authors: W. Meyer, H.-J. Werner


 NUMBER OF ELECTRONS:       8+    8-
 CONVERGENCE THRESHOLDS:    1.00E-10 (Density)    1.00E-13 (Energy)
 MAX. NUMBER OF ITERATIONS:      500
 INTERPOLATION TYPE:            DIIS
 INTERPOLATION STEPS:              2 (START)      1 (STEP)
 LEVEL SHIFTS:                  0.00 (CLOSED)  0.00 (OPEN) 



 Orbital guess generated from atomic densities. Full valence occupancy:    9   2

 Molecular orbital dump at record        2100.2

 Initial occupancy:   7   1

 ITERATION    DDIFF          GRAD             ENERGY        2-EL.EN.            DIPOLE MOMENTS         DIIS   ORB.
    1      0.000D+00      0.000D+00      -129.78933159    154.036955    0.00000    0.57457   -1.01471    0    start
    2      0.000D+00      0.878D-02      -129.81623328    155.214065    0.00000    0.59729   -0.19870    1    diag
    3      0.364D-02      0.666D-02      -129.83894111    155.334115    0.00000    0.54876   -0.58576    2    diag
    4      0.141D-02      0.104D-02      -129.83972586    155.059377    0.00000    0.55659   -0.52323    3    diag
    5      0.332D-03      0.337D-03      -129.83984603    155.147584    0.00000    0.56266   -0.52569    4    diag
    6      0.153D-03      0.987D-04      -129.83986561    155.131506    0.00000    0.56324   -0.52157    5    diag
    7      0.607D-04      0.495D-04      -129.83987138    155.134043    0.00000    0.56457   -0.51907    6    diag
    8      0.412D-04      0.170D-04      -129.83987200    155.133222    0.00000    0.56463   -0.51816    7    diag
    9      0.143D-04      0.317D-05      -129.83987203    155.133108    0.00000    0.56458   -0.51798    8    diag
   10      0.290D-05      0.726D-06      -129.83987203    155.133094    0.00000    0.56454   -0.51795    9    orth
   11      0.867D-06      0.144D-06      -129.83987203    155.133090    0.00000    0.56454   -0.51795    9    diag
   12      0.205D-06      0.298D-07      -129.83987203    155.133089    0.00000    0.56453   -0.51794    9    diag
   13      0.498D-07      0.787D-08      -129.83987203    155.133089    0.00000    0.56453   -0.51794    9    diag
   14      0.115D-07      0.139D-08      -129.83987203    155.133089    0.00000    0.56453   -0.51794    9    diag
   15      0.147D-08      0.373D-09      -129.83987203    155.133089    0.00000    0.56453   -0.51794    9    diag
   16      0.327D-09      0.109D-09      -129.83987203    155.133089    0.00000    0.56453   -0.51794    9    diag
   17      0.742D-10      0.299D-10      -129.83987203    155.133089    0.00000    0.56453   -0.51794    9    diag
   18      0.234D-10      0.997D-11      -129.83987203    155.133089    0.00000    0.56453   -0.51794    9    diag
   19      0.949D-11      0.245D-11      -129.83987203    155.133089    0.00000    0.56453   -0.51794    9    fixocc
   20      0.240D-11      0.801D-12      -129.83987203    155.133089    0.00000    0.56453   -0.51794    0    orth

 Final occupancy:   7   1

 !RHF STATE 1.1 Energy               -129.839872028122
 Nuclear energy                        30.35675695
 One-electron energy                 -237.76317338
 Two-electron energy                   77.56654440
 Virial quotient                       -1.00164669
 !RHF STATE 1.1 Dipole moment           0.00000000     0.56453255    -0.51794315
 Dipole moment /Debye                   0.00000000     1.43480464    -1.31639395

 Orbital energies:

         1.1          2.1          3.1          4.1          5.1          6.1          7.1          8.1          9.1
    -20.651409   -15.710481    -1.527832    -0.993241    -0.745200    -0.664370    -0.428328     0.039649     0.192763

         1.2          2.2          3.2
     -0.594182     0.078986     0.239596

 HOMO      7.1    -0.428328 =     -11.6554eV
 LUMO      8.1     0.039649 =       1.0789eV
 LUMO-HOMO         0.467977 =      12.7343eV


 **********************************************************************************************************************************
 DATASETS  * FILE   NREC   LENGTH (MB)   RECORD NAMES
              1      19      421.28       500      610      700      900      950      970     1000      129      960     1100   
                                          VAR    BASINP    GEOM    SYMINP    ZMAT    AOBASIS   BASIS     P2S    ABASIS      S 
                                         1400     1410     1200     1210     1080     1600     1650     1300     1700   
                                           T        V       H0       H01     AOSYM     SMH    MOLCAS    ERIS     OPER   

              2       4        3.13       700     1000      520     2100   
                                         GEOM     BASIS   MCVARS     RHF  

 PROGRAMS   *        TOTAL        HF       INT
 CPU TIMES  *         8.93      4.86      3.99
 REAL TIME  *        11.53 SEC
 DISK USED  *         1.33 GB      
 **********************************************************************************************************************************


 PROGRAM * CCSD (Closed-shell coupled cluster)     Authors: C. Hampel, H.-J. Werner, 1991, M. Deegan, P.J. Knowles, 1992


 Convergence thresholds:  THRVAR = 1.00D-08  THRDEN = 1.00D-12

 CCSD(T)     terms to be evaluated (factor= 1.000)


 Number of closed-shell orbitals:   8 (   7   1 )
 Number of external orbitals:     163 ( 107  56 )

 Molecular orbitals read from record     2100.2  Type=RHF/CANONICAL (state 1.1)

 Number of N-1 electron functions:               8
 Number of N-2 electron functions:              36
 Number of singly external CSFs:               805
 Number of doubly external CSFs:            449165
 Total number of CSFs:                      449971

 Length of J-op  integral file:               0.00 MB
 Length of K-op  integral file:               1.15 MB
 Length of 3-ext integral record:             0.00 MB

 Memory could be reduced to 24.90 Mwords without degradation in triples

 Integral transformation finished. Total CPU:   0.83 sec, npass=  1  Memory used:   6.89 MW

 Reference energy:                   -129.83987203

 MP2 singlet pair energy:              -0.37892228
 MP2 triplet pair energy:              -0.18662368
 MP2 correlation energy:               -0.56554596
 MP2 total energy:                   -130.40541799

 SCS-MP2 correlation energy:           -0.57082814   (PS=  1.200000  PT=  0.333333)
 SCS-MP2 total energy:               -130.41070016

 ITER.      SQ.NORM     CORR.ENERGY   TOTAL ENERGY   ENERGY CHANGE        DEN1      VAR(S)    VAR(P)  DIIS     TIME  TIME/IT
   1      1.11976682    -0.57027907  -130.41015109    -0.00473311     0.01297979  0.34D-02  0.31D-02  1  1     1.74     0.95
   2      1.13064886    -0.56997975  -130.40985178     0.00029932    -0.01371374  0.91D-04  0.50D-03  2  2     2.68     0.98
   3      1.13590368    -0.57030670  -130.41017872    -0.00032695    -0.00235767  0.56D-04  0.68D-04  3  3     3.54     0.98
   4      1.13934540    -0.57029847  -130.41017050     0.00000822    -0.00138715  0.46D-05  0.98D-05  4  4     4.44     0.98
   5      1.14040283    -0.57032293  -130.41019495    -0.00002445    -0.00024875  0.16D-05  0.19D-05  5  5     5.32     0.99
   6      1.14081497    -0.57031689  -130.41018892     0.00000604    -0.00003974  0.14D-06  0.42D-06  6  6     6.18     0.99
   7      1.14089994    -0.57031718  -130.41018920    -0.00000029     0.00000046  0.20D-07  0.95D-07  6  1     7.08     0.99
   8      1.14093436    -0.57031545  -130.41018748     0.00000172    -0.00000479  0.42D-08  0.14D-07  6  2     7.96     0.99
   9      1.14093928    -0.57031553  -130.41018756    -0.00000007     0.00000110  0.18D-08  0.18D-08  6  3     8.84     0.99
  10      1.14094095    -0.57031584  -130.41018787    -0.00000031    -0.00000064  0.42D-09  0.26D-09  6  4     9.76     0.99
  11      1.14093997    -0.57031598  -130.41018801    -0.00000014     0.00000034  0.10D-09  0.26D-10  6  5    10.67     0.99
  12      1.14093908    -0.57031611  -130.41018814    -0.00000014     0.00000035  0.11D-10  0.67D-11  6  6    11.61     0.99
  13      1.14093854    -0.57031612  -130.41018815    -0.00000001     0.00000011  0.45D-11  0.12D-11  6  1    12.49     0.99
  14      1.14093810    -0.57031615  -130.41018818    -0.00000003     0.00000011  0.47D-12  0.41D-12  6  3    13.38     0.99
  15      1.14093794    -0.57031615  -130.41018818    -0.00000000     0.00000002  0.12D-12  0.28D-13  6  2    14.31     0.99
  16      1.14093788    -0.57031615  -130.41018818    -0.00000000     0.00000001  0.25D-13  0.61D-14  6  4    15.21     0.99
  17      1.14093786    -0.57031616  -130.41018818    -0.00000000     0.00000001  0.44D-14  0.11D-14  6  5    16.10     0.99
  18      1.14093786    -0.57031616  -130.41018818    -0.00000000     0.00000000  0.45D-15  0.29D-15  6  6    16.99     0.99
  19      1.14093786    -0.57031616  -130.41018818     0.00000000    -0.00000000  0.55D-16  0.39D-16  6  1    17.90     0.99
  20      1.14093786    -0.57031616  -130.41018818     0.00000000    -0.00000000  0.23D-17  0.83D-17  6  3    18.81     0.99
  21      1.14093786    -0.57031616  -130.41018818     0.00000000    -0.00000000  0.12D-17  0.21D-17  6  2    19.69     1.00
  22      1.14093786    -0.57031616  -130.41018818     0.00000000    -0.00000000  0.23D-18  0.74D-18  6  4    20.59     1.00
  23      1.14093786    -0.57031616  -130.41018818    -0.00000000     0.00000000  0.13D-18  0.11D-18  6  5    21.47     1.00
  24      1.14093786    -0.57031616  -130.41018818     0.00000000    -0.00000000  0.54D-20  0.14D-19  6  1    22.37     1.00
  25      1.14093786    -0.57031616  -130.41018818     0.00000000     0.00000000  0.31D-21  0.15D-20  6  6    23.28     1.00
  26      1.14093786    -0.57031616  -130.41018818    -0.00000000     0.00000000  0.12D-21  0.33D-21  6  3    24.15     1.00

 Norm of t1 vector:      0.07783978      S-energy:     0.00000000      T1 diagnostic:  0.01376026
                                                                       D1 diagnostic:  0.04409917

 Doubles amplitudes (print threshold =  0.500E-01):

         I         J         SYM. A    SYM. B    A         B      T(IJ, AB)

         8         8         2         2         1         1     -0.13448129


 Total CPU time for triples:     17.04 sec


 RESULTS
 =======

  Reference energy                   -129.839872028122

  Correlated core orbitals:             1.1       2.1
  Orbital energies:                   -20.6514  -15.7105
 
  CCSD core-core energy                -0.079233258522
  CCSD core-valence energy             -0.036075880349
  CCSD valence correlation energy      -0.455007016713
 
  CCSD singlet pair energy             -0.407857360838
  CCSD triplet pair energy             -0.162458794746
  CCSD correlation energy              -0.570316155583

  Triples (T) contribution             -0.022287726873
  Total correlation energy             -0.592603882456

  CCSD total energy                  -130.410188183705
  CCSD[T] energy                     -130.433649860914
  CCSD-T energy                      -130.432034889545
 !CCSD(T) total energy               -130.432475910577

 Timing summary (sec):

 STEP                 CPU(USER)    SYS     CPU(TOT)    WALL
 Transformation          0.84      0.16      1.00      1.03
 CCSD iterations        23.31      2.62     25.93     25.92
 Triples                17.04      0.57     17.61     17.61

 Program statistics:

 Available memory in ccsd:               994999644
 Min. memory needed in ccsd:               1368037
 Max. memory used in ccsd:                 1750502
 Max. memory used in cckext:               2014357 (26 integral passes)



 **********************************************************************************************************************************
 DATASETS  * FILE   NREC   LENGTH (MB)   RECORD NAMES
              1      20      500.19       500      610      700      900      950      970     1000      129      960     1100   
                                          VAR    BASINP    GEOM    SYMINP    ZMAT    AOBASIS   BASIS     P2S    ABASIS      S 
                                         1400     1410     1200     1210     1080     1600     1650     1300     1700     1380   
                                           T        V       H0       H01     AOSYM     SMH    MOLCAS    ERIS     OPER     JKOP   

              2       4        3.13       700     1000      520     2100   
                                         GEOM     BASIS   MCVARS     RHF  

 PROGRAMS   *        TOTAL   CCSD(T)        HF       INT
 CPU TIMES  *        50.14     41.21      4.86      3.99
 REAL TIME  *        56.12 SEC
 DISK USED  *         1.33 GB      
 **********************************************************************************************************************************

 CCSD(T)/USERDEF energy=   -130.432475910577

        CCSD(T)         HF-SCF  
   -130.43247591   -129.83987203
 **********************************************************************************************************************************
 Molpro calculation terminated
 Variable memory released
