
 Primary working directories    : /tmp/r2666/282373.maple
 Secondary working directories  : /tmp/r2666/282373.maple
 Wavefunction directory         : /ddn/home4/r2666/wfu/
 Main file repository           : /tmp/r2666/282373.maple/

 SHA1      : d5ffa45e93fdbca01ffc919aa182cfdae0147319
 NAME      : 2015.1.35
 ARCHNAME  : linux/x86_64
 FC        : /opt/intel/composer_xe_2015.1.133/bin/intel64/ifort
 BLASLIB   : -Wl,-_start-group /opt/intel/mkl/lib/intel64/libmkl_intel_ilp64.a /opt/intel/mkl/lib/intel64/libmkl_intel_thread.a /opt/intel/mkl/lib/intel64/libmkl_core.a -Wl,-_end-group
 id        : olemiss

 Nodes     nprocs
 cn055        1

 Using customized tuning parameters: mindgm=1; mindgv=20; mindgc=4; mindgr=1; noblas=0; minvec=7
 default implementation of scratch files=df  

 ***,hno CCSD(T)/TZ-F12 QFF
 memory, 995, m;
 gthresh,energy=1.d-12,zero=1.d-22,oneint=1.d-22,twoint=1.d-22;
 gthresh,optgrad=1.d-8,optstep=1.d-8;
 nocompress;
 geomtyp=xyz
 bohr
 geometry={
 3
         12        12
 H        0.0000000000        1.6572939528       -1.9149164960
 N        0.0000000000       -0.1591567188       -1.1545912707
 O        0.0000000000        0.0436305560        1.1189181757
 }
 
 basis={
 default=aug-cc-pvtz
 s,C,8236.0,1235.0,280.8, 79.27,25.59, 8.997,3.319
 s,C,0.9059,0.3643,0.1285000
 p,C,56.0,18.71,4.133,0.2827,0.3827,0.1209
 d,C,30.0,10.0,3.3,1.097,0.318
 f,C,7.0,2.3,0.7610
 s,N,11420.0,1712.0,389.3,110.0,35.57,12.54,4.644
 s,N,1.293,0.5118,0.1787
 p,N,79.89,26.63,5.948,1.742,0.555,0.1725
 d,N,45.0,15.0,5.0,1.654,0.469
 f,N,9.9,3.3,1.093
 s,O,15330.0,2299.0,522.4,147.3,47.55,16.76,6.207
 s,O,1.752,0.6882,0.2384
 p,O,103.5,34.46,7.749,2.28,0.7156,0.214
 d,O,63.0,21.0,7.0,2.314,0.645
 f,O,12.9,4.3,1.428
 s,mg,164900.0,24710.0,5628.0,1596.0,521.0;
 s,mg,188.0,73.01,29.90,12.54,4.306,1.826;
 s,mg,0.7417,0.0761,0.145,0.033,0.0129;
 p,mg,950.70,316.90,74.86,23.72,8.669,3.363;
 p,mg,1.310,0.4911,0.2364,0.08733,0.03237,0.00745;
 d,mg,1.601,0.686,0.126,0.294,0.0468;
 f,mg,1.372,0.588,0.094,0.252;
 }
   {hf,maxit=500;accu,20;}
 {ccsd(t),nocheck,maxit=250;orbital,IGNORE_ERROR;core}

 Variables initialized (889), CPU time= 0.00 sec
 Commands  initialized (702), CPU time= 0.01 sec, 572 directives.
 Default parameters read. Elapsed time= 0.06 sec

 Checking input...
 Passed
1


                                         ***  PROGRAM SYSTEM MOLPRO  ***
                                       Copyright, TTI GmbH Stuttgart, 2015
                                    Version 2015.1 linked Jul  9 2018 13:16:40


 **********************************************************************************************************************************
 LABEL *   hno CCSD(T)/TZ-F12 QFF                                                        
  64 bit serial version                                                                  DATE: 04-Mar-20          TIME: 13:48:48  
 **********************************************************************************************************************************

 SHA1:             d5ffa45e93fdbca01ffc919aa182cfdae0147319
 **********************************************************************************************************************************

 THRESHOLDS:

 ZERO    =  1.00D-22  ONEINT  =  1.00D-22  TWOINT  =  1.00D-22  PREFAC  =  1.00D-14  LOCALI  =  1.00D-09  EORDER  =  1.00D-04
 ENERGY  =  1.00D-12  ETEST   =  0.00D+00  EDENS   =  0.00D+00  THRDEDEF=  1.00D-06  GRADIENT=  1.00D-02  STEP    =  1.00D-03
 ORBITAL =  1.00D-05  CIVEC   =  1.00D-05  COEFF   =  1.00D-04  PRINTCI =  5.00D-02  PUNCHCI =  9.90D+01  OPTGRAD =  3.00D-04
 OPTENERG=  1.00D-06  OPTSTEP =  3.00D-04  THRGRAD =  1.00D-10  COMPRESS=  1.00D-11  VARMIN  =  1.00D-07  VARMAX  =  1.00D-03
 THRDOUB =  0.00D+00  THRDIV  =  1.00D-05  THRRED  =  1.00D-07  THRPSP  =  1.00D+00  THRDC   =  1.00D-10  THRCS   =  1.00D-10
 THRNRM  =  1.00D-08  THREQ   =  0.00D+00  THRDE   =  1.00D+00  THRREF  =  1.00D-05  SPARFAC =  1.00D+00  THRDLP  =  1.00D-07
 THRDIA  =  1.00D-10  THRDLS  =  1.00D-07  THRGPS  =  0.00D+00  THRKEX  =  0.00D+00  THRDIS  =  2.00D-01  THRVAR  =  1.00D-10
 THRLOC  =  1.00D-06  THRGAP  =  1.00D-06  THRLOCT = -1.00D+00  THRGAPT = -1.00D+00  THRORB  =  1.00D-06  THRMLTP =  0.00D+00
 THRCPQCI=  1.00D-10  KEXTA   =  0.00D+00  THRCOARS=  0.00D+00  SYMTOL  =  1.00D-06  GRADTOL =  1.00D-06  THROVL  =  1.00D-08
 THRORTH =  1.00D-08  GRID    =  1.00D-06  GRIDMAX =  1.00D-03  DTMAX   =  0.00D+00  THROCCDE=  1.00D-01  THROCCDE=  1.00D-01



 THRESHOLDS:

 ZERO    =  1.00D-22  ONEINT  =  1.00D-22  TWOINT  =  1.00D-22  PREFAC  =  1.00D-14  LOCALI  =  1.00D-09  EORDER  =  1.00D-04
 ENERGY  =  1.00D-12  ETEST   =  0.00D+00  EDENS   =  0.00D+00  THRDEDEF=  1.00D-06  GRADIENT=  1.00D-02  STEP    =  1.00D-03
 ORBITAL =  1.00D-05  CIVEC   =  1.00D-05  COEFF   =  1.00D-04  PRINTCI =  5.00D-02  PUNCHCI =  9.90D+01  OPTGRAD =  1.00D-08
 OPTENERG=  1.00D-06  OPTSTEP =  1.00D-08  THRGRAD =  1.00D-10  COMPRESS=  1.00D-11  VARMIN  =  1.00D-07  VARMAX  =  1.00D-03
 THRDOUB =  0.00D+00  THRDIV  =  1.00D-05  THRRED  =  1.00D-07  THRPSP  =  1.00D+00  THRDC   =  1.00D-10  THRCS   =  1.00D-10
 THRNRM  =  1.00D-08  THREQ   =  0.00D+00  THRDE   =  1.00D+00  THRREF  =  1.00D-05  SPARFAC =  1.00D+00  THRDLP  =  1.00D-07
 THRDIA  =  1.00D-10  THRDLS  =  1.00D-07  THRGPS  =  0.00D+00  THRKEX  =  0.00D+00  THRDIS  =  2.00D-01  THRVAR  =  1.00D-10
 THRLOC  =  1.00D-06  THRGAP  =  1.00D-06  THRLOCT = -1.00D+00  THRGAPT = -1.00D+00  THRORB  =  1.00D-06  THRMLTP =  0.00D+00
 THRCPQCI=  1.00D-10  KEXTA   =  0.00D+00  THRCOARS=  0.00D+00  SYMTOL  =  1.00D-06  GRADTOL =  1.00D-06  THROVL  =  1.00D-08
 THRORTH =  1.00D-08  GRID    =  1.00D-06  GRIDMAX =  1.00D-03  DTMAX   =  0.00D+00  THROCCDE=  1.00D-01  THROCCDE=  1.00D-01



 Input parameters for SORTINT:

 COMPRESS =    0.000000
 C_FINAL  =    1.000000
 DEBUG    =   -1.000000
 C_SORT1  =    0.000000
 C_SEWARD =    0.000000
 THRESH   =    0.000000
 IO       =  molpro                                                          
 SPRI     =    0.000000
 SETTING GEOMTYP        =    XYZ
 ZUNIT=BOHR
 

 Variable memory set to  995000000 words,  buffer space   230000 words

 SETTING BASIS          =    USERDEF


 Recomputing integrals since basis changed


 Using spherical harmonics

 Library entry H      S aug-cc-pVTZ          selected for orbital group  1
 Library entry H      P aug-cc-pVTZ          selected for orbital group  1
 Library entry H      D aug-cc-pVTZ          selected for orbital group  1


 PROGRAM * SEWARD (Integral evaluation for generally contracted gaussian basis sets)     Author: Roland Lindh, 1990

 Geometry written to block  1 of record 700


 Point group  Cs  



 ATOMIC COORDINATES

 NR  ATOM    CHARGE       X              Y              Z

   1  H       1.00    0.000000000    1.657293953   -1.914916496
   2  N       7.00    0.000000000   -0.159156719   -1.154591271
   3  O       8.00    0.000000000    0.043630556    1.118918176

 Bond lengths in Bohr (Angstrom)

 1-2  1.969159082  2-3  2.282535406
     ( 1.042034111)     ( 1.207865720)

 Bond angles

  1-2-3  107.61603570

 NUCLEAR CHARGE:                   16
 NUMBER OF PRIMITIVE AOS:         203
 NUMBER OF SYMMETRY AOS:          173
 NUMBER OF CONTRACTIONS:          171   ( 114A'  +  57A"  )
 NUMBER OF CORE ORBITALS:           2   (   2A'  +   0A"  )
 NUMBER OF VALENCE ORBITALS:        9   (   7A'  +   2A"  )


 NUCLEAR REPULSION ENERGY   30.41703281


 Eigenvalues of metric

         1 0.102E-02 0.249E-02 0.329E-02 0.628E-02 0.952E-02 0.136E-01 0.145E-01 0.226E-01
         2 0.352E-01 0.530E-01 0.694E-01 0.940E-01 0.131E+00 0.134E+00 0.139E+00 0.142E+00


 Contracted 2-electron integrals neglected if value below      1.0D-22

       46153623. INTEGRALS WRITTEN OUT IN   11271 BLOCKS ON RECORD 1290 OF FILE 1


 NUMBER OF SORTED TWO-ELECTRON INTEGRALS:   55360566.     BUFFER LENGTH:  32768
 NUMBER OF SEGMENTS:   4  SEGMENT LENGTH:   15997996      RECORD LENGTH: 524288

 Memory used in sort:      16.56 MW

 SORT1 READ    46153623. AND WROTE    46591136. INTEGRALS IN    136 RECORDS. CPU TIME:     1.29 SEC, REAL TIME:     1.69 SEC
 SORT2 READ    46591136. AND WROTE    55360566. INTEGRALS IN      4 RECORDS. CPU TIME:     0.81 SEC, REAL TIME:     1.11 SEC

 FILE SIZES:   FILE 1:   759.4 MBYTE,  FILE 4:   570.5 MBYTE,   TOTAL:   1329.8 MBYTE

 OPERATOR DM      FOR CENTER  0  COORDINATES:    0.000000    0.000000    0.000000


 **********************************************************************************************************************************
 DATASETS  * FILE   NREC   LENGTH (MB)   RECORD NAMES
              1      19      421.30       500      610      700      900      950      970     1000      129      960     1100   
                                          VAR    BASINP    GEOM    SYMINP    ZMAT    AOBASIS   BASIS     P2S    ABASIS      S 
                                         1400     1410     1200     1210     1080     1600     1650     1300     1700   
                                           T        V       H0       H01     AOSYM     SMH    MOLCAS    ERIS     OPER   

 PROGRAMS   *        TOTAL       INT
 CPU TIMES  *         5.82      5.73
 REAL TIME  *         7.93 SEC
 DISK USED  *         1.33 GB      
 **********************************************************************************************************************************


 PROGRAM * RHF-SCF (CLOSED SHELL)       Authors: W. Meyer, H.-J. Werner


 NUMBER OF ELECTRONS:       8+    8-
 CONVERGENCE THRESHOLDS:    1.00E-10 (Density)    1.00E-13 (Energy)
 MAX. NUMBER OF ITERATIONS:      500
 INTERPOLATION TYPE:            DIIS
 INTERPOLATION STEPS:              2 (START)      1 (STEP)
 LEVEL SHIFTS:                  0.00 (CLOSED)  0.00 (OPEN) 



 Orbital guess generated from atomic densities. Full valence occupancy:    9   2

 Molecular orbital dump at record        2100.2

 Initial occupancy:   7   1

 ITERATION    DDIFF          GRAD             ENERGY        2-EL.EN.            DIPOLE MOMENTS         DIIS   ORB.
    1      0.000D+00      0.000D+00      -129.78999100    154.156655    0.00000    0.57108   -1.01059    0    start
    2      0.000D+00      0.875D-02      -129.81692759    155.317356    0.00000    0.59869   -0.19810    1    diag
    3      0.366D-02      0.662D-02      -129.83928006    155.441133    0.00000    0.54763   -0.58233    2    diag
    4      0.141D-02      0.104D-02      -129.84006009    155.168226    0.00000    0.55607   -0.52010    3    diag
    5      0.332D-03      0.336D-03      -129.84017879    155.255313    0.00000    0.56190   -0.52242    4    diag
    6      0.153D-03      0.981D-04      -129.84019805    155.239348    0.00000    0.56246   -0.51833    5    diag
    7      0.604D-04      0.493D-04      -129.84020375    155.241834    0.00000    0.56376   -0.51581    6    diag
    8      0.411D-04      0.168D-04      -129.84020436    155.241012    0.00000    0.56381   -0.51490    7    diag
    9      0.142D-04      0.312D-05      -129.84020439    155.240903    0.00000    0.56376   -0.51472    8    diag
   10      0.288D-05      0.707D-06      -129.84020439    155.240891    0.00000    0.56372   -0.51469    9    orth
   11      0.863D-06      0.141D-06      -129.84020439    155.240887    0.00000    0.56371   -0.51469    9    diag
   12      0.203D-06      0.292D-07      -129.84020439    155.240887    0.00000    0.56371   -0.51469    9    diag
   13      0.492D-07      0.768D-08      -129.84020439    155.240886    0.00000    0.56371   -0.51469    9    diag
   14      0.111D-07      0.135D-08      -129.84020439    155.240886    0.00000    0.56371   -0.51469    9    diag
   15      0.142D-08      0.361D-09      -129.84020439    155.240886    0.00000    0.56371   -0.51469    9    diag
   16      0.317D-09      0.106D-09      -129.84020439    155.240886    0.00000    0.56371   -0.51469    9    diag
   17      0.720D-10      0.288D-10      -129.84020439    155.240886    0.00000    0.56371   -0.51469    0    orth

 Final occupancy:   7   1

 !RHF STATE 1.1 Energy               -129.840204386345
 Nuclear energy                        30.41703281
 One-electron energy                 -237.87768036
 Two-electron energy                   77.62044316
 Virial quotient                       -1.00149278
 !RHF STATE 1.1 Dipole moment           0.00000000     0.56371175    -0.51468759
 Dipole moment /Debye                   0.00000000     1.43271852    -1.30811969

 Orbital energies:

         1.1          2.1          3.1          4.1          5.1          6.1          7.1          8.1          9.1
    -20.650951   -15.709348    -1.528567    -0.995095    -0.746364    -0.664162    -0.429711     0.039827     0.193751

         1.2          2.2          3.2
     -0.594198     0.079235     0.239566

 HOMO      7.1    -0.429711 =     -11.6930eV
 LUMO      8.1     0.039827 =       1.0837eV
 LUMO-HOMO         0.469538 =      12.7768eV


 **********************************************************************************************************************************
 DATASETS  * FILE   NREC   LENGTH (MB)   RECORD NAMES
              1      19      421.30       500      610      700      900      950      970     1000      129      960     1100   
                                          VAR    BASINP    GEOM    SYMINP    ZMAT    AOBASIS   BASIS     P2S    ABASIS      S 
                                         1400     1410     1200     1210     1080     1600     1650     1300     1700   
                                           T        V       H0       H01     AOSYM     SMH    MOLCAS    ERIS     OPER   

              2       4        3.13       700     1000      520     2100   
                                         GEOM     BASIS   MCVARS     RHF  

 PROGRAMS   *        TOTAL        HF       INT
 CPU TIMES  *        10.86      5.04      5.73
 REAL TIME  *        14.32 SEC
 DISK USED  *         1.33 GB      
 **********************************************************************************************************************************


 PROGRAM * CCSD (Closed-shell coupled cluster)     Authors: C. Hampel, H.-J. Werner, 1991, M. Deegan, P.J. Knowles, 1992


 Convergence thresholds:  THRVAR = 1.00D-08  THRDEN = 1.00D-12

 CCSD(T)     terms to be evaluated (factor= 1.000)


 Number of closed-shell orbitals:   8 (   7   1 )
 Number of external orbitals:     163 ( 107  56 )

 Molecular orbitals read from record     2100.2  Type=RHF/CANONICAL (state 1.1)

 Number of N-1 electron functions:               8
 Number of N-2 electron functions:              36
 Number of singly external CSFs:               805
 Number of doubly external CSFs:            449165
 Total number of CSFs:                      449971

 Length of J-op  integral file:               0.00 MB
 Length of K-op  integral file:               1.15 MB
 Length of 3-ext integral record:             0.00 MB

 Memory could be reduced to 24.90 Mwords without degradation in triples

 Integral transformation finished. Total CPU:   1.07 sec, npass=  1  Memory used:   6.89 MW

 Reference energy:                   -129.84020439

 MP2 singlet pair energy:              -0.37870556
 MP2 triplet pair energy:              -0.18650905
 MP2 correlation energy:               -0.56521461
 MP2 total energy:                   -130.40541900

 SCS-MP2 correlation energy:           -0.57049675   (PS=  1.200000  PT=  0.333333)
 SCS-MP2 total energy:               -130.41070114

 ITER.      SQ.NORM     CORR.ENERGY   TOTAL ENERGY   ENERGY CHANGE        DEN1      VAR(S)    VAR(P)  DIIS     TIME  TIME/IT
   1      1.11940879    -0.56996915  -130.41017353    -0.00475453     0.01284381  0.33D-02  0.31D-02  1  1     2.36     1.34
   2      1.13020446    -0.56968075  -130.40988514     0.00028839    -0.01364193  0.89D-04  0.49D-03  2  2     3.61     1.35
   3      1.13539150    -0.56999930  -130.41020369    -0.00031855    -0.00233997  0.53D-04  0.68D-04  3  3     4.87     1.36
   4      1.13879052    -0.56999226  -130.41019664     0.00000704    -0.00137449  0.43D-05  0.96D-05  4  4     6.13     1.37
   5      1.13981882    -0.57001618  -130.41022056    -0.00002392    -0.00024165  0.15D-05  0.18D-05  5  5     7.36     1.37
   6      1.14021698    -0.57001033  -130.41021471     0.00000585    -0.00003826  0.13D-06  0.41D-06  6  6     8.61     1.37
   7      1.14029815    -0.57001071  -130.41021510    -0.00000038     0.00000060  0.17D-07  0.94D-07  6  1     9.89     1.38
   8      1.14033119    -0.57000901  -130.41021340     0.00000170    -0.00000464  0.41D-08  0.13D-07  6  2    11.18     1.38
   9      1.14033558    -0.57000914  -130.41021353    -0.00000013     0.00000113  0.17D-08  0.17D-08  6  3    12.46     1.38
  10      1.14033711    -0.57000944  -130.41021383    -0.00000030    -0.00000061  0.40D-09  0.24D-09  6  4    13.73     1.38
  11      1.14033616    -0.57000957  -130.41021396    -0.00000013     0.00000033  0.95D-10  0.24D-10  6  5    14.99     1.38
  12      1.14033533    -0.57000970  -130.41021409    -0.00000013     0.00000032  0.96D-11  0.61D-11  6  6    16.23     1.38
  13      1.14033484    -0.57000971  -130.41021410    -0.00000001     0.00000010  0.39D-11  0.11D-11  6  1    17.51     1.38
  14      1.14033443    -0.57000974  -130.41021412    -0.00000002     0.00000010  0.41D-12  0.36D-12  6  3    18.79     1.39
  15      1.14033428    -0.57000974  -130.41021412    -0.00000000     0.00000002  0.99D-13  0.25D-13  6  2    20.06     1.39
  16      1.14033422    -0.57000974  -130.41021413    -0.00000000     0.00000001  0.22D-13  0.55D-14  6  4    21.30     1.39
  17      1.14033420    -0.57000974  -130.41021413    -0.00000000     0.00000001  0.40D-14  0.10D-14  6  5    22.57     1.39
  18      1.14033420    -0.57000974  -130.41021413    -0.00000000     0.00000000  0.42D-15  0.27D-15  6  6    23.83     1.39
  19      1.14033420    -0.57000974  -130.41021413     0.00000000    -0.00000000  0.50D-16  0.38D-16  6  1    25.09     1.39
  20      1.14033421    -0.57000974  -130.41021413     0.00000000    -0.00000000  0.21D-17  0.82D-17  6  3    26.35     1.39
  21      1.14033421    -0.57000974  -130.41021413     0.00000000    -0.00000000  0.11D-17  0.20D-17  6  2    27.63     1.39
  22      1.14033421    -0.57000974  -130.41021413     0.00000000    -0.00000000  0.24D-18  0.72D-18  6  4    28.91     1.39
  23      1.14033421    -0.57000974  -130.41021413    -0.00000000     0.00000000  0.12D-18  0.10D-18  6  5    30.20     1.39
  24      1.14033421    -0.57000974  -130.41021413     0.00000000    -0.00000000  0.49D-20  0.13D-19  6  1    31.48     1.39
  25      1.14033421    -0.57000974  -130.41021413     0.00000000     0.00000000  0.31D-21  0.13D-20  6  6    32.78     1.39
  26      1.14033421    -0.57000974  -130.41021413    -0.00000000     0.00000000  0.14D-21  0.17D-21  6  1    34.04     1.39

 Norm of t1 vector:      0.07706370      S-energy:     0.00000000      T1 diagnostic:  0.01362307
                                                                       D1 diagnostic:  0.04396816

 Doubles amplitudes (print threshold =  0.500E-01):

         I         J         SYM. A    SYM. B    A         B      T(IJ, AB)

         8         8         2         2         1         1     -0.13474116


 Total CPU time for triples:     18.62 sec


 RESULTS
 =======

  Reference energy                   -129.840204386345

  Correlated core orbitals:             1.1       2.1
  Orbital energies:                   -20.6510  -15.7093
 
  CCSD core-core energy                -0.079230509965
  CCSD core-valence energy             -0.036097657340
  CCSD valence correlation energy      -0.454681572645
 
  CCSD singlet pair energy             -0.407577687316
  CCSD triplet pair energy             -0.162432052640
  CCSD correlation energy              -0.570009739950

  Triples (T) contribution             -0.022209100275
  Total correlation energy             -0.592218840225

  CCSD total energy                  -130.410214126295
  CCSD[T] energy                     -130.433580681847
  CCSD-T energy                      -130.431987657314
 !CCSD(T) total energy               -130.432423226570

 Timing summary (sec):

 STEP                 CPU(USER)    SYS     CPU(TOT)    WALL
 Transformation          1.09      0.21      1.30      1.30
 CCSD iterations        32.95      3.13     36.08     36.09
 Triples                18.62      0.68     19.30     19.30

 Program statistics:

 Available memory in ccsd:               994999644
 Min. memory needed in ccsd:               1368037
 Max. memory used in ccsd:                 1750502
 Max. memory used in cckext:               2014357 (26 integral passes)



 **********************************************************************************************************************************
 DATASETS  * FILE   NREC   LENGTH (MB)   RECORD NAMES
              1      20      500.22       500      610      700      900      950      970     1000      129      960     1100   
                                          VAR    BASINP    GEOM    SYMINP    ZMAT    AOBASIS   BASIS     P2S    ABASIS      S 
                                         1400     1410     1200     1210     1080     1600     1650     1300     1700     1380   
                                           T        V       H0       H01     AOSYM     SMH    MOLCAS    ERIS     OPER     JKOP   

              2       4        3.13       700     1000      520     2100   
                                         GEOM     BASIS   MCVARS     RHF  

 PROGRAMS   *        TOTAL   CCSD(T)        HF       INT
 CPU TIMES  *        63.54     52.68      5.04      5.73
 REAL TIME  *        71.04 SEC
 DISK USED  *         1.33 GB      
 **********************************************************************************************************************************

 CCSD(T)/USERDEF energy=   -130.432423226570

        CCSD(T)         HF-SCF  
   -130.43242323   -129.84020439
 **********************************************************************************************************************************
 Molpro calculation terminated
 Variable memory released
