
 Primary working directories    : /tmp/r2666/282448.maple
 Secondary working directories  : /tmp/r2666/282448.maple
 Wavefunction directory         : /ddn/home4/r2666/wfu/
 Main file repository           : /tmp/r2666/282448.maple/

 SHA1      : d5ffa45e93fdbca01ffc919aa182cfdae0147319
 NAME      : 2015.1.35
 ARCHNAME  : linux/x86_64
 FC        : /opt/intel/composer_xe_2015.1.133/bin/intel64/ifort
 BLASLIB   : -Wl,-_start-group /opt/intel/mkl/lib/intel64/libmkl_intel_ilp64.a /opt/intel/mkl/lib/intel64/libmkl_intel_thread.a /opt/intel/mkl/lib/intel64/libmkl_core.a -Wl,-_end-group
 id        : olemiss

 Nodes     nprocs
 cn095        1

 Using customized tuning parameters: mindgm=1; mindgv=20; mindgc=4; mindgr=1; noblas=0; minvec=7
 default implementation of scratch files=df  

 ***,hno CCSD(T)/TZ-F12 QFF
 memory, 995, m;
 gthresh,energy=1.d-12,zero=1.d-22,oneint=1.d-22,twoint=1.d-22;
 gthresh,optgrad=1.d-8,optstep=1.d-8;
 nocompress;
 geomtyp=xyz
 bohr
 geometry={
 3
         87        87
 H        0.0000000000        1.6695778576       -1.9249111143
 N        0.0000000000       -0.1672224002       -1.1399328176
 O        0.0000000000        0.0394123326        1.1142543410
 }
 
 basis={
 default=aug-cc-pvtz
 s,C,8236.0,1235.0,280.8, 79.27,25.59, 8.997,3.319
 s,C,0.9059,0.3643,0.1285000
 p,C,56.0,18.71,4.133,0.2827,0.3827,0.1209
 d,C,30.0,10.0,3.3,1.097,0.318
 f,C,7.0,2.3,0.7610
 s,N,11420.0,1712.0,389.3,110.0,35.57,12.54,4.644
 s,N,1.293,0.5118,0.1787
 p,N,79.89,26.63,5.948,1.742,0.555,0.1725
 d,N,45.0,15.0,5.0,1.654,0.469
 f,N,9.9,3.3,1.093
 s,O,15330.0,2299.0,522.4,147.3,47.55,16.76,6.207
 s,O,1.752,0.6882,0.2384
 p,O,103.5,34.46,7.749,2.28,0.7156,0.214
 d,O,63.0,21.0,7.0,2.314,0.645
 f,O,12.9,4.3,1.428
 s,mg,164900.0,24710.0,5628.0,1596.0,521.0;
 s,mg,188.0,73.01,29.90,12.54,4.306,1.826;
 s,mg,0.7417,0.0761,0.145,0.033,0.0129;
 p,mg,950.70,316.90,74.86,23.72,8.669,3.363;
 p,mg,1.310,0.4911,0.2364,0.08733,0.03237,0.00745;
 d,mg,1.601,0.686,0.126,0.294,0.0468;
 f,mg,1.372,0.588,0.094,0.252;
 }
   {hf,maxit=500;accu,20;}
 {ccsd(t),nocheck,maxit=250;orbital,IGNORE_ERROR;core}

 Variables initialized (889), CPU time= 0.00 sec
 Commands  initialized (702), CPU time= 0.01 sec, 572 directives.
 Default parameters read. Elapsed time= 0.04 sec

 Checking input...
 Passed
1


                                         ***  PROGRAM SYSTEM MOLPRO  ***
                                       Copyright, TTI GmbH Stuttgart, 2015
                                    Version 2015.1 linked Jul  9 2018 13:16:40


 **********************************************************************************************************************************
 LABEL *   hno CCSD(T)/TZ-F12 QFF                                                        
  64 bit serial version                                                                  DATE: 04-Mar-20          TIME: 13:49:54  
 **********************************************************************************************************************************

 SHA1:             d5ffa45e93fdbca01ffc919aa182cfdae0147319
 **********************************************************************************************************************************

 THRESHOLDS:

 ZERO    =  1.00D-22  ONEINT  =  1.00D-22  TWOINT  =  1.00D-22  PREFAC  =  1.00D-14  LOCALI  =  1.00D-09  EORDER  =  1.00D-04
 ENERGY  =  1.00D-12  ETEST   =  0.00D+00  EDENS   =  0.00D+00  THRDEDEF=  1.00D-06  GRADIENT=  1.00D-02  STEP    =  1.00D-03
 ORBITAL =  1.00D-05  CIVEC   =  1.00D-05  COEFF   =  1.00D-04  PRINTCI =  5.00D-02  PUNCHCI =  9.90D+01  OPTGRAD =  3.00D-04
 OPTENERG=  1.00D-06  OPTSTEP =  3.00D-04  THRGRAD =  1.00D-10  COMPRESS=  1.00D-11  VARMIN  =  1.00D-07  VARMAX  =  1.00D-03
 THRDOUB =  0.00D+00  THRDIV  =  1.00D-05  THRRED  =  1.00D-07  THRPSP  =  1.00D+00  THRDC   =  1.00D-10  THRCS   =  1.00D-10
 THRNRM  =  1.00D-08  THREQ   =  0.00D+00  THRDE   =  1.00D+00  THRREF  =  1.00D-05  SPARFAC =  1.00D+00  THRDLP  =  1.00D-07
 THRDIA  =  1.00D-10  THRDLS  =  1.00D-07  THRGPS  =  0.00D+00  THRKEX  =  0.00D+00  THRDIS  =  2.00D-01  THRVAR  =  1.00D-10
 THRLOC  =  1.00D-06  THRGAP  =  1.00D-06  THRLOCT = -1.00D+00  THRGAPT = -1.00D+00  THRORB  =  1.00D-06  THRMLTP =  0.00D+00
 THRCPQCI=  1.00D-10  KEXTA   =  0.00D+00  THRCOARS=  0.00D+00  SYMTOL  =  1.00D-06  GRADTOL =  1.00D-06  THROVL  =  1.00D-08
 THRORTH =  1.00D-08  GRID    =  1.00D-06  GRIDMAX =  1.00D-03  DTMAX   =  0.00D+00  THROCCDE=  1.00D-01  THROCCDE=  1.00D-01



 THRESHOLDS:

 ZERO    =  1.00D-22  ONEINT  =  1.00D-22  TWOINT  =  1.00D-22  PREFAC  =  1.00D-14  LOCALI  =  1.00D-09  EORDER  =  1.00D-04
 ENERGY  =  1.00D-12  ETEST   =  0.00D+00  EDENS   =  0.00D+00  THRDEDEF=  1.00D-06  GRADIENT=  1.00D-02  STEP    =  1.00D-03
 ORBITAL =  1.00D-05  CIVEC   =  1.00D-05  COEFF   =  1.00D-04  PRINTCI =  5.00D-02  PUNCHCI =  9.90D+01  OPTGRAD =  1.00D-08
 OPTENERG=  1.00D-06  OPTSTEP =  1.00D-08  THRGRAD =  1.00D-10  COMPRESS=  1.00D-11  VARMIN  =  1.00D-07  VARMAX  =  1.00D-03
 THRDOUB =  0.00D+00  THRDIV  =  1.00D-05  THRRED  =  1.00D-07  THRPSP  =  1.00D+00  THRDC   =  1.00D-10  THRCS   =  1.00D-10
 THRNRM  =  1.00D-08  THREQ   =  0.00D+00  THRDE   =  1.00D+00  THRREF  =  1.00D-05  SPARFAC =  1.00D+00  THRDLP  =  1.00D-07
 THRDIA  =  1.00D-10  THRDLS  =  1.00D-07  THRGPS  =  0.00D+00  THRKEX  =  0.00D+00  THRDIS  =  2.00D-01  THRVAR  =  1.00D-10
 THRLOC  =  1.00D-06  THRGAP  =  1.00D-06  THRLOCT = -1.00D+00  THRGAPT = -1.00D+00  THRORB  =  1.00D-06  THRMLTP =  0.00D+00
 THRCPQCI=  1.00D-10  KEXTA   =  0.00D+00  THRCOARS=  0.00D+00  SYMTOL  =  1.00D-06  GRADTOL =  1.00D-06  THROVL  =  1.00D-08
 THRORTH =  1.00D-08  GRID    =  1.00D-06  GRIDMAX =  1.00D-03  DTMAX   =  0.00D+00  THROCCDE=  1.00D-01  THROCCDE=  1.00D-01



 Input parameters for SORTINT:

 COMPRESS =    0.000000
 C_FINAL  =    1.000000
 DEBUG    =   -1.000000
 C_SORT1  =    0.000000
 C_SEWARD =    0.000000
 THRESH   =    0.000000
 IO       =  molpro                                                          
 SPRI     =    0.000000
 SETTING GEOMTYP        =    XYZ
 ZUNIT=BOHR
 

 Variable memory set to  995000000 words,  buffer space   230000 words

 SETTING BASIS          =    USERDEF


 Recomputing integrals since basis changed


 Using spherical harmonics

 Library entry H      S aug-cc-pVTZ          selected for orbital group  1
 Library entry H      P aug-cc-pVTZ          selected for orbital group  1
 Library entry H      D aug-cc-pVTZ          selected for orbital group  1


 PROGRAM * SEWARD (Integral evaluation for generally contracted gaussian basis sets)     Author: Roland Lindh, 1990

 Geometry written to block  1 of record 700


 Point group  Cs  



 ATOMIC COORDINATES

 NR  ATOM    CHARGE       X              Y              Z

   1  H       1.00    0.000000000    1.669577858   -1.924911114
   2  N       7.00    0.000000000   -0.167222400   -1.139932818
   3  O       8.00    0.000000000    0.039412333    1.114254341

 Bond lengths in Bohr (Angstrom)

 1-2  1.997504972  2-3  2.263638147
     ( 1.057034110)     ( 1.197865721)

 Bond angles

  1-2-3  107.90251459

 NUCLEAR CHARGE:                   16
 NUMBER OF PRIMITIVE AOS:         203
 NUMBER OF SYMMETRY AOS:          173
 NUMBER OF CONTRACTIONS:          171   ( 114A'  +  57A"  )
 NUMBER OF CORE ORBITALS:           2   (   2A'  +   0A"  )
 NUMBER OF VALENCE ORBITALS:        9   (   7A'  +   2A"  )


 NUCLEAR REPULSION ENERGY   30.56298038


 Eigenvalues of metric

         1 0.104E-02 0.241E-02 0.331E-02 0.634E-02 0.100E-01 0.137E-01 0.144E-01 0.230E-01
         2 0.369E-01 0.517E-01 0.698E-01 0.940E-01 0.131E+00 0.134E+00 0.141E+00 0.142E+00


 Contracted 2-electron integrals neglected if value below      1.0D-22

       46229249. INTEGRALS WRITTEN OUT IN   11290 BLOCKS ON RECORD 1290 OF FILE 1


 NUMBER OF SORTED TWO-ELECTRON INTEGRALS:   55360566.     BUFFER LENGTH:  32768
 NUMBER OF SEGMENTS:   4  SEGMENT LENGTH:   15997996      RECORD LENGTH: 524288

 Memory used in sort:      16.56 MW

 SORT1 READ    46229249. AND WROTE    46667524. INTEGRALS IN    136 RECORDS. CPU TIME:     0.80 SEC, REAL TIME:     1.15 SEC
 SORT2 READ    46667524. AND WROTE    55360566. INTEGRALS IN      4 RECORDS. CPU TIME:     0.67 SEC, REAL TIME:     0.99 SEC

 FILE SIZES:   FILE 1:   760.6 MBYTE,  FILE 4:   570.5 MBYTE,   TOTAL:   1331.1 MBYTE

 OPERATOR DM      FOR CENTER  0  COORDINATES:    0.000000    0.000000    0.000000


 **********************************************************************************************************************************
 DATASETS  * FILE   NREC   LENGTH (MB)   RECORD NAMES
              1      19      421.80       500      610      700      900      950      970     1000      129      960     1100   
                                          VAR    BASINP    GEOM    SYMINP    ZMAT    AOBASIS   BASIS     P2S    ABASIS      S 
                                         1400     1410     1200     1210     1080     1600     1650     1300     1700   
                                           T        V       H0       H01     AOSYM     SMH    MOLCAS    ERIS     OPER   

 PROGRAMS   *        TOTAL       INT
 CPU TIMES  *         4.72      4.63
 REAL TIME  *         6.42 SEC
 DISK USED  *         1.33 GB      
 **********************************************************************************************************************************


 PROGRAM * RHF-SCF (CLOSED SHELL)       Authors: W. Meyer, H.-J. Werner


 NUMBER OF ELECTRONS:       8+    8-
 CONVERGENCE THRESHOLDS:    1.00E-10 (Density)    1.00E-13 (Energy)
 MAX. NUMBER OF ITERATIONS:      500
 INTERPOLATION TYPE:            DIIS
 INTERPOLATION STEPS:              2 (START)      1 (STEP)
 LEVEL SHIFTS:                  0.00 (CLOSED)  0.00 (OPEN) 



 Orbital guess generated from atomic densities. Full valence occupancy:    9   2

 Molecular orbital dump at record        2100.2

 Initial occupancy:   7   1

 ITERATION    DDIFF          GRAD             ENERGY        2-EL.EN.            DIPOLE MOMENTS         DIIS   ORB.
    1      0.000D+00      0.000D+00      -129.79153245    154.404595    0.00000    0.55894   -0.98098    0    start
    2      0.000D+00      0.871D-02      -129.81872632    155.602664    0.00000    0.59044   -0.19762    1    diag
    3      0.358D-02      0.649D-02      -129.84011096    155.700629    0.00000    0.53842   -0.56692    2    diag
    4      0.138D-02      0.102D-02      -129.84087317    155.432980    0.00000    0.54687   -0.50643    3    diag
    5      0.326D-03      0.333D-03      -129.84099084    155.520479    0.00000    0.55294   -0.50904    4    diag
    6      0.152D-03      0.979D-04      -129.84101004    155.504455    0.00000    0.55356   -0.50509    5    diag
    7      0.605D-04      0.486D-04      -129.84101553    155.507127    0.00000    0.55493   -0.50272    6    diag
    8      0.407D-04      0.161D-04      -129.84101607    155.506340    0.00000    0.55499   -0.50188    7    diag
    9      0.134D-04      0.298D-05      -129.84101610    155.506234    0.00000    0.55495   -0.50171    8    diag
   10      0.266D-05      0.693D-06      -129.84101610    155.506221    0.00000    0.55491   -0.50168    9    orth
   11      0.825D-06      0.140D-06      -129.84101610    155.506216    0.00000    0.55490   -0.50168    9    diag
   12      0.200D-06      0.287D-07      -129.84101610    155.506215    0.00000    0.55490   -0.50168    9    diag
   13      0.492D-07      0.750D-08      -129.84101610    155.506215    0.00000    0.55490   -0.50168    9    diag
   14      0.112D-07      0.136D-08      -129.84101610    155.506215    0.00000    0.55490   -0.50168    9    diag
   15      0.155D-08      0.381D-09      -129.84101610    155.506215    0.00000    0.55490   -0.50168    9    diag
   16      0.342D-09      0.119D-09      -129.84101610    155.506215    0.00000    0.55490   -0.50168    9    diag
   17      0.932D-10      0.352D-10      -129.84101610    155.506215    0.00000    0.55490   -0.50168    0    orth

 Final occupancy:   7   1

 !RHF STATE 1.1 Energy               -129.841016096787
 Nuclear energy                        30.56298038
 One-electron energy                 -238.15710403
 Two-electron energy                   77.75310755
 Virial quotient                       -1.00137447
 !RHF STATE 1.1 Dipole moment           0.00000000     0.55489877    -0.50167507
 Dipole moment /Debye                   0.00000000     1.41031961    -1.27504733

 Orbital energies:

         1.1          2.1          3.1          4.1          5.1          6.1          7.1          8.1          9.1
    -20.650387   -15.709652    -1.536532    -0.989167    -0.747821    -0.667129    -0.425551     0.039870     0.192898

         1.2          2.2          3.2
     -0.599204     0.082710     0.239807

 HOMO      7.1    -0.425551 =     -11.5798eV
 LUMO      8.1     0.039870 =       1.0849eV
 LUMO-HOMO         0.465421 =      12.6648eV


 **********************************************************************************************************************************
 DATASETS  * FILE   NREC   LENGTH (MB)   RECORD NAMES
              1      19      421.80       500      610      700      900      950      970     1000      129      960     1100   
                                          VAR    BASINP    GEOM    SYMINP    ZMAT    AOBASIS   BASIS     P2S    ABASIS      S 
                                         1400     1410     1200     1210     1080     1600     1650     1300     1700   
                                           T        V       H0       H01     AOSYM     SMH    MOLCAS    ERIS     OPER   

              2       4        3.13       700     1000      520     2100   
                                         GEOM     BASIS   MCVARS     RHF  

 PROGRAMS   *        TOTAL        HF       INT
 CPU TIMES  *         9.57      4.85      4.63
 REAL TIME  *        12.29 SEC
 DISK USED  *         1.33 GB      
 **********************************************************************************************************************************


 PROGRAM * CCSD (Closed-shell coupled cluster)     Authors: C. Hampel, H.-J. Werner, 1991, M. Deegan, P.J. Knowles, 1992


 Convergence thresholds:  THRVAR = 1.00D-08  THRDEN = 1.00D-12

 CCSD(T)     terms to be evaluated (factor= 1.000)


 Number of closed-shell orbitals:   8 (   7   1 )
 Number of external orbitals:     163 ( 107  56 )

 Molecular orbitals read from record     2100.2  Type=RHF/CANONICAL (state 1.1)

 Number of N-1 electron functions:               8
 Number of N-2 electron functions:              36
 Number of singly external CSFs:               805
 Number of doubly external CSFs:            449165
 Total number of CSFs:                      449971

 Length of J-op  integral file:               0.00 MB
 Length of K-op  integral file:               1.15 MB
 Length of 3-ext integral record:             0.00 MB

 Memory could be reduced to 24.90 Mwords without degradation in triples

 Integral transformation finished. Total CPU:   0.96 sec, npass=  1  Memory used:   6.89 MW

 Reference energy:                   -129.84101610

 MP2 singlet pair energy:              -0.37804674
 MP2 triplet pair energy:              -0.18606622
 MP2 correlation energy:               -0.56411296
 MP2 total energy:                   -130.40512906

 SCS-MP2 correlation energy:           -0.56943062   (PS=  1.200000  PT=  0.333333)
 SCS-MP2 total energy:               -130.41044672

 ITER.      SQ.NORM     CORR.ENERGY   TOTAL ENERGY   ENERGY CHANGE        DEN1      VAR(S)    VAR(P)  DIIS     TIME  TIME/IT
   1      1.11886086    -0.56919887  -130.41021497    -0.00508591     0.01221664  0.33D-02  0.30D-02  1  1     1.97     1.05
   2      1.12950031    -0.56898635  -130.41000244     0.00021252    -0.01346049  0.86D-04  0.49D-03  2  2     3.08     1.14
   3      1.13461178    -0.56930292  -130.41031902    -0.00031657    -0.00232665  0.53D-04  0.65D-04  3  3     4.25     1.18
   4      1.13792513    -0.56929378  -130.41030988     0.00000914    -0.00135355  0.43D-05  0.93D-05  4  4     5.43     1.20
   5      1.13891883    -0.56931729  -130.41033338    -0.00002351    -0.00023349  0.15D-05  0.18D-05  5  5     6.62     1.22
   6      1.13930833    -0.56931185  -130.41032794     0.00000544    -0.00003723  0.14D-06  0.40D-06  6  6     7.78     1.23
   7      1.13939184    -0.56931199  -130.41032809    -0.00000014    -0.00000000  0.21D-07  0.89D-07  6  1     8.97     1.24
   8      1.13942568    -0.56931038  -130.41032648     0.00000161    -0.00000461  0.41D-08  0.13D-07  6  2    10.17     1.25
   9      1.13943059    -0.56931046  -130.41032656    -0.00000008     0.00000095  0.17D-08  0.16D-08  6  3    11.38     1.26
  10      1.13943215    -0.56931076  -130.41032686    -0.00000030    -0.00000057  0.37D-09  0.22D-09  6  4    12.59     1.26
  11      1.13943121    -0.56931089  -130.41032699    -0.00000013     0.00000033  0.91D-10  0.22D-10  6  5    13.78     1.27
  12      1.13943034    -0.56931102  -130.41032711    -0.00000013     0.00000033  0.95D-11  0.59D-11  6  6    15.02     1.28
  13      1.13942984    -0.56931103  -130.41032712    -0.00000001     0.00000010  0.41D-11  0.10D-11  6  1    16.25     1.28
  14      1.13942943    -0.56931105  -130.41032715    -0.00000002     0.00000010  0.43D-12  0.35D-12  6  3    17.46     1.29
  15      1.13942928    -0.56931105  -130.41032715    -0.00000000     0.00000002  0.11D-12  0.23D-13  6  2    18.62     1.28
  16      1.13942923    -0.56931105  -130.41032715    -0.00000000     0.00000001  0.24D-13  0.53D-14  6  4    19.85     1.29
  17      1.13942921    -0.56931105  -130.41032715    -0.00000000     0.00000001  0.39D-14  0.10D-14  6  5    20.96     1.28
  18      1.13942921    -0.56931105  -130.41032715    -0.00000000     0.00000000  0.38D-15  0.26D-15  6  6    22.03     1.28
  19      1.13942921    -0.56931105  -130.41032715     0.00000000    -0.00000000  0.44D-16  0.31D-16  6  1    23.02     1.27
  20      1.13942922    -0.56931105  -130.41032715     0.00000000    -0.00000000  0.18D-17  0.62D-17  6  3    24.20     1.27
  21      1.13942922    -0.56931105  -130.41032715     0.00000000    -0.00000000  0.91D-18  0.15D-17  6  2    25.34     1.27
  22      1.13942922    -0.56931105  -130.41032715     0.00000000    -0.00000000  0.14D-18  0.53D-18  6  4    26.55     1.27
  23      1.13942922    -0.56931105  -130.41032715    -0.00000000     0.00000000  0.41D-19  0.81D-19  6  2    27.73     1.27
  24      1.13942922    -0.56931105  -130.41032715     0.00000000    -0.00000000  0.24D-20  0.14D-19  6  1    28.93     1.27
  25      1.13942922    -0.56931105  -130.41032715    -0.00000000     0.00000000  0.26D-21  0.11D-20  6  6    30.10     1.27
  26      1.13942922    -0.56931105  -130.41032715     0.00000000     0.00000000  0.59D-22  0.73D-22  6  5    31.31     1.27
  27      1.13942922    -0.56931105  -130.41032715    -0.00000000     0.00000000  0.18D-22  0.13D-22  6  3    32.50     1.27

 Norm of t1 vector:      0.07628564      S-energy:     0.00000000      T1 diagnostic:  0.01348552
                                                                       D1 diagnostic:  0.04277274

 Doubles amplitudes (print threshold =  0.500E-01):

         I         J         SYM. A    SYM. B    A         B      T(IJ, AB)

         8         8         2         2         1         1     -0.13157250


 Total CPU time for triples:     21.37 sec


 RESULTS
 =======

  Reference energy                   -129.841016096787

  Correlated core orbitals:             1.1       2.1
  Orbital energies:                   -20.6504  -15.7097
 
  CCSD core-core energy                -0.079227007087
  CCSD core-valence energy             -0.036131174935
  CCSD valence correlation energy      -0.453952871496
 
  CCSD singlet pair energy             -0.406942413038
  CCSD triplet pair energy             -0.162368640485
  CCSD correlation energy              -0.569311053517

  Triples (T) contribution             -0.022002187407
  Total correlation energy             -0.591313240924

  CCSD total energy                  -130.410327150304
  CCSD[T] energy                     -130.433459900079
  CCSD-T energy                      -130.431899482043
 !CCSD(T) total energy               -130.432329337711

 Timing summary (sec):

 STEP                 CPU(USER)    SYS     CPU(TOT)    WALL
 Transformation          0.98      0.18      1.16      1.16
 CCSD iterations        31.53      2.87     34.40     34.41
 Triples                21.37      0.66     22.03     22.02

 Program statistics:

 Available memory in ccsd:               994999644
 Min. memory needed in ccsd:               1368037
 Max. memory used in ccsd:                 1750502
 Max. memory used in cckext:               2014357 (27 integral passes)



 **********************************************************************************************************************************
 DATASETS  * FILE   NREC   LENGTH (MB)   RECORD NAMES
              1      20      500.72       500      610      700      900      950      970     1000      129      960     1100   
                                          VAR    BASINP    GEOM    SYMINP    ZMAT    AOBASIS   BASIS     P2S    ABASIS      S 
                                         1400     1410     1200     1210     1080     1600     1650     1300     1700     1380   
                                           T        V       H0       H01     AOSYM     SMH    MOLCAS    ERIS     OPER     JKOP   

              2       4        3.13       700     1000      520     2100   
                                         GEOM     BASIS   MCVARS     RHF  

 PROGRAMS   *        TOTAL   CCSD(T)        HF       INT
 CPU TIMES  *        63.47     53.90      4.85      4.63
 REAL TIME  *        69.91 SEC
 DISK USED  *         1.33 GB      
 **********************************************************************************************************************************

 CCSD(T)/USERDEF energy=   -130.432329337711

        CCSD(T)         HF-SCF  
   -130.43232934   -129.84101610
 **********************************************************************************************************************************
 Molpro calculation terminated
 Variable memory released
