
 Primary working directories    : /tmp/r2666/282386.maple
 Secondary working directories  : /tmp/r2666/282386.maple
 Wavefunction directory         : /ddn/home4/r2666/wfu/
 Main file repository           : /tmp/r2666/282386.maple/

 SHA1      : d5ffa45e93fdbca01ffc919aa182cfdae0147319
 NAME      : 2015.1.35
 ARCHNAME  : linux/x86_64
 FC        : /opt/intel/composer_xe_2015.1.133/bin/intel64/ifort
 BLASLIB   : -Wl,-_start-group /opt/intel/mkl/lib/intel64/libmkl_intel_ilp64.a /opt/intel/mkl/lib/intel64/libmkl_intel_thread.a /opt/intel/mkl/lib/intel64/libmkl_core.a -Wl,-_end-group
 id        : olemiss

 Nodes     nprocs
 cn086        1

 Using customized tuning parameters: mindgm=1; mindgv=20; mindgc=4; mindgr=1; noblas=0; minvec=7
 default implementation of scratch files=df  

 ***,hno CCSD(T)/TZ-F12 QFF
 memory, 995, m;
 gthresh,energy=1.d-12,zero=1.d-22,oneint=1.d-22,twoint=1.d-22;
 gthresh,optgrad=1.d-8,optstep=1.d-8;
 nocompress;
 geomtyp=xyz
 bohr
 geometry={
 3
         25        25
 H        0.0000000000        1.6610501612       -1.9163303170
 N        0.0000000000       -0.1627036796       -1.1489904923
 O        0.0000000000        0.0434213083        1.1147312183
 }
 
 basis={
 default=aug-cc-pvtz
 s,C,8236.0,1235.0,280.8, 79.27,25.59, 8.997,3.319
 s,C,0.9059,0.3643,0.1285000
 p,C,56.0,18.71,4.133,0.2827,0.3827,0.1209
 d,C,30.0,10.0,3.3,1.097,0.318
 f,C,7.0,2.3,0.7610
 s,N,11420.0,1712.0,389.3,110.0,35.57,12.54,4.644
 s,N,1.293,0.5118,0.1787
 p,N,79.89,26.63,5.948,1.742,0.555,0.1725
 d,N,45.0,15.0,5.0,1.654,0.469
 f,N,9.9,3.3,1.093
 s,O,15330.0,2299.0,522.4,147.3,47.55,16.76,6.207
 s,O,1.752,0.6882,0.2384
 p,O,103.5,34.46,7.749,2.28,0.7156,0.214
 d,O,63.0,21.0,7.0,2.314,0.645
 f,O,12.9,4.3,1.428
 s,mg,164900.0,24710.0,5628.0,1596.0,521.0;
 s,mg,188.0,73.01,29.90,12.54,4.306,1.826;
 s,mg,0.7417,0.0761,0.145,0.033,0.0129;
 p,mg,950.70,316.90,74.86,23.72,8.669,3.363;
 p,mg,1.310,0.4911,0.2364,0.08733,0.03237,0.00745;
 d,mg,1.601,0.686,0.126,0.294,0.0468;
 f,mg,1.372,0.588,0.094,0.252;
 }
   {hf,maxit=500;accu,20;}
 {ccsd(t),nocheck,maxit=250;orbital,IGNORE_ERROR;core}

 Variables initialized (889), CPU time= 0.00 sec
 Commands  initialized (702), CPU time= 0.01 sec, 572 directives.
 Default parameters read. Elapsed time= 0.04 sec

 Checking input...
 Passed
1


                                         ***  PROGRAM SYSTEM MOLPRO  ***
                                       Copyright, TTI GmbH Stuttgart, 2015
                                    Version 2015.1 linked Jul  9 2018 13:16:40


 **********************************************************************************************************************************
 LABEL *   hno CCSD(T)/TZ-F12 QFF                                                        
  64 bit serial version                                                                  DATE: 04-Mar-20          TIME: 13:48:53  
 **********************************************************************************************************************************

 SHA1:             d5ffa45e93fdbca01ffc919aa182cfdae0147319
 **********************************************************************************************************************************

 THRESHOLDS:

 ZERO    =  1.00D-22  ONEINT  =  1.00D-22  TWOINT  =  1.00D-22  PREFAC  =  1.00D-14  LOCALI  =  1.00D-09  EORDER  =  1.00D-04
 ENERGY  =  1.00D-12  ETEST   =  0.00D+00  EDENS   =  0.00D+00  THRDEDEF=  1.00D-06  GRADIENT=  1.00D-02  STEP    =  1.00D-03
 ORBITAL =  1.00D-05  CIVEC   =  1.00D-05  COEFF   =  1.00D-04  PRINTCI =  5.00D-02  PUNCHCI =  9.90D+01  OPTGRAD =  3.00D-04
 OPTENERG=  1.00D-06  OPTSTEP =  3.00D-04  THRGRAD =  1.00D-10  COMPRESS=  1.00D-11  VARMIN  =  1.00D-07  VARMAX  =  1.00D-03
 THRDOUB =  0.00D+00  THRDIV  =  1.00D-05  THRRED  =  1.00D-07  THRPSP  =  1.00D+00  THRDC   =  1.00D-10  THRCS   =  1.00D-10
 THRNRM  =  1.00D-08  THREQ   =  0.00D+00  THRDE   =  1.00D+00  THRREF  =  1.00D-05  SPARFAC =  1.00D+00  THRDLP  =  1.00D-07
 THRDIA  =  1.00D-10  THRDLS  =  1.00D-07  THRGPS  =  0.00D+00  THRKEX  =  0.00D+00  THRDIS  =  2.00D-01  THRVAR  =  1.00D-10
 THRLOC  =  1.00D-06  THRGAP  =  1.00D-06  THRLOCT = -1.00D+00  THRGAPT = -1.00D+00  THRORB  =  1.00D-06  THRMLTP =  0.00D+00
 THRCPQCI=  1.00D-10  KEXTA   =  0.00D+00  THRCOARS=  0.00D+00  SYMTOL  =  1.00D-06  GRADTOL =  1.00D-06  THROVL  =  1.00D-08
 THRORTH =  1.00D-08  GRID    =  1.00D-06  GRIDMAX =  1.00D-03  DTMAX   =  0.00D+00  THROCCDE=  1.00D-01  THROCCDE=  1.00D-01



 THRESHOLDS:

 ZERO    =  1.00D-22  ONEINT  =  1.00D-22  TWOINT  =  1.00D-22  PREFAC  =  1.00D-14  LOCALI  =  1.00D-09  EORDER  =  1.00D-04
 ENERGY  =  1.00D-12  ETEST   =  0.00D+00  EDENS   =  0.00D+00  THRDEDEF=  1.00D-06  GRADIENT=  1.00D-02  STEP    =  1.00D-03
 ORBITAL =  1.00D-05  CIVEC   =  1.00D-05  COEFF   =  1.00D-04  PRINTCI =  5.00D-02  PUNCHCI =  9.90D+01  OPTGRAD =  1.00D-08
 OPTENERG=  1.00D-06  OPTSTEP =  1.00D-08  THRGRAD =  1.00D-10  COMPRESS=  1.00D-11  VARMIN  =  1.00D-07  VARMAX  =  1.00D-03
 THRDOUB =  0.00D+00  THRDIV  =  1.00D-05  THRRED  =  1.00D-07  THRPSP  =  1.00D+00  THRDC   =  1.00D-10  THRCS   =  1.00D-10
 THRNRM  =  1.00D-08  THREQ   =  0.00D+00  THRDE   =  1.00D+00  THRREF  =  1.00D-05  SPARFAC =  1.00D+00  THRDLP  =  1.00D-07
 THRDIA  =  1.00D-10  THRDLS  =  1.00D-07  THRGPS  =  0.00D+00  THRKEX  =  0.00D+00  THRDIS  =  2.00D-01  THRVAR  =  1.00D-10
 THRLOC  =  1.00D-06  THRGAP  =  1.00D-06  THRLOCT = -1.00D+00  THRGAPT = -1.00D+00  THRORB  =  1.00D-06  THRMLTP =  0.00D+00
 THRCPQCI=  1.00D-10  KEXTA   =  0.00D+00  THRCOARS=  0.00D+00  SYMTOL  =  1.00D-06  GRADTOL =  1.00D-06  THROVL  =  1.00D-08
 THRORTH =  1.00D-08  GRID    =  1.00D-06  GRIDMAX =  1.00D-03  DTMAX   =  0.00D+00  THROCCDE=  1.00D-01  THROCCDE=  1.00D-01



 Input parameters for SORTINT:

 COMPRESS =    0.000000
 C_FINAL  =    1.000000
 DEBUG    =   -1.000000
 C_SORT1  =    0.000000
 C_SEWARD =    0.000000
 THRESH   =    0.000000
 IO       =  molpro                                                          
 SPRI     =    0.000000
 SETTING GEOMTYP        =    XYZ
 ZUNIT=BOHR
 

 Variable memory set to  995000000 words,  buffer space   230000 words

 SETTING BASIS          =    USERDEF


 Recomputing integrals since basis changed


 Using spherical harmonics

 Library entry H      S aug-cc-pVTZ          selected for orbital group  1
 Library entry H      P aug-cc-pVTZ          selected for orbital group  1
 Library entry H      D aug-cc-pVTZ          selected for orbital group  1


 PROGRAM * SEWARD (Integral evaluation for generally contracted gaussian basis sets)     Author: Roland Lindh, 1990

 Geometry written to block  1 of record 700


 Point group  Cs  



 ATOMIC COORDINATES

 NR  ATOM    CHARGE       X              Y              Z

   1  H       1.00    0.000000000    1.661050161   -1.916330317
   2  N       7.00    0.000000000   -0.162703680   -1.148990492
   3  O       8.00    0.000000000    0.043421308    1.114731218

 Bond lengths in Bohr (Angstrom)

 1-2  1.978607712  2-3  2.273086777
     ( 1.047034111)     ( 1.202865721)

 Bond angles

  1-2-3  107.61603569

 NUCLEAR CHARGE:                   16
 NUMBER OF PRIMITIVE AOS:         203
 NUMBER OF SYMMETRY AOS:          173
 NUMBER OF CONTRACTIONS:          171   ( 114A'  +  57A"  )
 NUMBER OF CORE ORBITALS:           2   (   2A'  +   0A"  )
 NUMBER OF VALENCE ORBITALS:        9   (   7A'  +   2A"  )


 NUCLEAR REPULSION ENERGY   30.50243406


 Eigenvalues of metric

         1 0.102E-02 0.245E-02 0.329E-02 0.629E-02 0.969E-02 0.136E-01 0.144E-01 0.227E-01
         2 0.358E-01 0.524E-01 0.694E-01 0.939E-01 0.131E+00 0.134E+00 0.140E+00 0.142E+00


 Contracted 2-electron integrals neglected if value below      1.0D-22

       46188655. INTEGRALS WRITTEN OUT IN   11280 BLOCKS ON RECORD 1290 OF FILE 1


 NUMBER OF SORTED TWO-ELECTRON INTEGRALS:   55360566.     BUFFER LENGTH:  32768
 NUMBER OF SEGMENTS:   4  SEGMENT LENGTH:   15997996      RECORD LENGTH: 524288

 Memory used in sort:      16.56 MW

 SORT1 READ    46188655. AND WROTE    46626576. INTEGRALS IN    136 RECORDS. CPU TIME:     0.72 SEC, REAL TIME:     1.00 SEC
 SORT2 READ    46626576. AND WROTE    55360566. INTEGRALS IN      4 RECORDS. CPU TIME:     0.63 SEC, REAL TIME:     0.83 SEC

 FILE SIZES:   FILE 1:   760.0 MBYTE,  FILE 4:   570.5 MBYTE,   TOTAL:   1330.4 MBYTE

 OPERATOR DM      FOR CENTER  0  COORDINATES:    0.000000    0.000000    0.000000


 **********************************************************************************************************************************
 DATASETS  * FILE   NREC   LENGTH (MB)   RECORD NAMES
              1      19      421.54       500      610      700      900      950      970     1000      129      960     1100   
                                          VAR    BASINP    GEOM    SYMINP    ZMAT    AOBASIS   BASIS     P2S    ABASIS      S 
                                         1400     1410     1200     1210     1080     1600     1650     1300     1700   
                                           T        V       H0       H01     AOSYM     SMH    MOLCAS    ERIS     OPER   

 PROGRAMS   *        TOTAL       INT
 CPU TIMES  *         3.96      3.88
 REAL TIME  *         5.31 SEC
 DISK USED  *         1.33 GB      
 **********************************************************************************************************************************


 PROGRAM * RHF-SCF (CLOSED SHELL)       Authors: W. Meyer, H.-J. Werner


 NUMBER OF ELECTRONS:       8+    8-
 CONVERGENCE THRESHOLDS:    1.00E-10 (Density)    1.00E-13 (Energy)
 MAX. NUMBER OF ITERATIONS:      500
 INTERPOLATION TYPE:            DIIS
 INTERPOLATION STEPS:              2 (START)      1 (STEP)
 LEVEL SHIFTS:                  0.00 (CLOSED)  0.00 (OPEN) 



 Orbital guess generated from atomic densities. Full valence occupancy:    9   2

 Molecular orbital dump at record        2100.2

 Initial occupancy:   7   1

 ITERATION    DDIFF          GRAD             ENERGY        2-EL.EN.            DIPOLE MOMENTS         DIIS   ORB.
    1      0.000D+00      0.000D+00      -129.79098656    154.306121    0.00000    0.56563   -0.99542    0    start
    2      0.000D+00      0.872D-02      -129.81806408    155.481721    0.00000    0.59507   -0.19855    1    diag
    3      0.363D-02      0.654D-02      -129.83983392    155.593480    0.00000    0.54352   -0.57454    2    diag
    4      0.139D-02      0.103D-02      -129.84060414    155.323598    0.00000    0.55206   -0.51322    3    diag
    5      0.329D-03      0.334D-03      -129.84072191    155.410644    0.00000    0.55795   -0.51566    4    diag
    6      0.152D-03      0.978D-04      -129.84074104    155.394678    0.00000    0.55854   -0.51164    5    diag
    7      0.604D-04      0.489D-04      -129.84074662    155.397242    0.00000    0.55987   -0.50919    6    diag
    8      0.408D-04      0.164D-04      -129.84074719    155.396438    0.00000    0.55992   -0.50832    7    diag
    9      0.137D-04      0.304D-05      -129.84074721    155.396332    0.00000    0.55987   -0.50814    8    diag
   10      0.277D-05      0.697D-06      -129.84074722    155.396320    0.00000    0.55983   -0.50812    9    orth
   11      0.845D-06      0.139D-06      -129.84074722    155.396316    0.00000    0.55983   -0.50811    9    diag
   12      0.201D-06      0.287D-07      -129.84074722    155.396315    0.00000    0.55983   -0.50811    9    diag
   13      0.490D-07      0.752D-08      -129.84074722    155.396315    0.00000    0.55982   -0.50811    9    diag
   14      0.111D-07      0.134D-08      -129.84074722    155.396315    0.00000    0.55982   -0.50811    9    diag
   15      0.147D-08      0.366D-09      -129.84074722    155.396315    0.00000    0.55982   -0.50811    9    diag
   16      0.325D-09      0.111D-09      -129.84074722    155.396315    0.00000    0.55982   -0.50811    9    diag
   17      0.818D-10      0.318D-10      -129.84074722    155.396315    0.00000    0.55982   -0.50811    0    orth

 Final occupancy:   7   1

 !RHF STATE 1.1 Energy               -129.840747215270
 Nuclear energy                        30.50243406
 One-electron energy                 -238.04133862
 Two-electron energy                   77.69815735
 Virial quotient                       -1.00140208
 !RHF STATE 1.1 Dipole moment           0.00000000     0.55982493    -0.50811235
 Dipole moment /Debye                   0.00000000     1.42283984    -1.29140820

 Orbital energies:

         1.1          2.1          3.1          4.1          5.1          6.1          7.1          8.1          9.1
    -20.650568   -15.709179    -1.532616    -0.992650    -0.747361    -0.665599    -0.427881     0.039875     0.193556

         1.2          2.2          3.2
     -0.596658     0.081006     0.239688

 HOMO      7.1    -0.427881 =     -11.6432eV
 LUMO      8.1     0.039875 =       1.0851eV
 LUMO-HOMO         0.467756 =      12.7283eV


 **********************************************************************************************************************************
 DATASETS  * FILE   NREC   LENGTH (MB)   RECORD NAMES
              1      19      421.54       500      610      700      900      950      970     1000      129      960     1100   
                                          VAR    BASINP    GEOM    SYMINP    ZMAT    AOBASIS   BASIS     P2S    ABASIS      S 
                                         1400     1410     1200     1210     1080     1600     1650     1300     1700   
                                           T        V       H0       H01     AOSYM     SMH    MOLCAS    ERIS     OPER   

              2       4        3.13       700     1000      520     2100   
                                         GEOM     BASIS   MCVARS     RHF  

 PROGRAMS   *        TOTAL        HF       INT
 CPU TIMES  *         8.12      4.16      3.88
 REAL TIME  *        10.45 SEC
 DISK USED  *         1.33 GB      
 **********************************************************************************************************************************


 PROGRAM * CCSD (Closed-shell coupled cluster)     Authors: C. Hampel, H.-J. Werner, 1991, M. Deegan, P.J. Knowles, 1992


 Convergence thresholds:  THRVAR = 1.00D-08  THRDEN = 1.00D-12

 CCSD(T)     terms to be evaluated (factor= 1.000)


 Number of closed-shell orbitals:   8 (   7   1 )
 Number of external orbitals:     163 ( 107  56 )

 Molecular orbitals read from record     2100.2  Type=RHF/CANONICAL (state 1.1)

 Number of N-1 electron functions:               8
 Number of N-2 electron functions:              36
 Number of singly external CSFs:               805
 Number of doubly external CSFs:            449165
 Total number of CSFs:                      449971

 Length of J-op  integral file:               0.00 MB
 Length of K-op  integral file:               1.15 MB
 Length of 3-ext integral record:             0.00 MB

 Memory could be reduced to 24.90 Mwords without degradation in triples

 Integral transformation finished. Total CPU:   0.79 sec, npass=  1  Memory used:   6.89 MW

 Reference energy:                   -129.84074722

 MP2 singlet pair energy:              -0.37831722
 MP2 triplet pair energy:              -0.18625565
 MP2 correlation energy:               -0.56457287
 MP2 total energy:                   -130.40532009

 SCS-MP2 correlation energy:           -0.56987307   (PS=  1.200000  PT=  0.333333)
 SCS-MP2 total energy:               -130.41062028

 ITER.      SQ.NORM     CORR.ENERGY   TOTAL ENERGY   ENERGY CHANGE        DEN1      VAR(S)    VAR(P)  DIIS     TIME  TIME/IT
   1      1.11904302    -0.56950026  -130.41024748    -0.00492739     0.01249453  0.33D-02  0.30D-02  1  1     1.65     0.92
   2      1.12973908    -0.56925249  -130.40999970     0.00024778    -0.01353317  0.88D-04  0.49D-03  2  2     2.53     0.95
   3      1.13487219    -0.56956816  -130.41031538    -0.00031567    -0.00232882  0.52D-04  0.66D-04  3  3     3.42     0.96
   4      1.13821842    -0.56956032  -130.41030754     0.00000784    -0.00136098  0.42D-05  0.94D-05  4  4     4.30     0.96
   5      1.13922318    -0.56958391  -130.41033113    -0.00002359    -0.00023600  0.15D-05  0.18D-05  5  5     5.23     0.97
   6      1.13961414    -0.56957830  -130.41032552     0.00000561    -0.00003744  0.13D-06  0.41D-06  6  6     6.11     0.97
   7      1.13969570    -0.56957859  -130.41032581    -0.00000029     0.00000032  0.19D-07  0.92D-07  6  1     7.00     0.97
   8      1.13972884    -0.56957695  -130.41032417     0.00000164    -0.00000459  0.41D-08  0.13D-07  6  2     7.87     0.97
   9      1.13973339    -0.56957707  -130.41032428    -0.00000012     0.00000104  0.17D-08  0.16D-08  6  3     8.78     0.97
  10      1.13973490    -0.56957736  -130.41032458    -0.00000030    -0.00000058  0.38D-09  0.23D-09  6  4     9.71     0.97
  11      1.13973395    -0.56957750  -130.41032471    -0.00000013     0.00000033  0.92D-10  0.23D-10  6  5    10.57     0.98
  12      1.13973312    -0.56957762  -130.41032484    -0.00000013     0.00000033  0.94D-11  0.59D-11  6  6    11.43     0.98
  13      1.13973263    -0.56957763  -130.41032485    -0.00000001     0.00000010  0.39D-11  0.10D-11  6  1    12.32     0.98
  14      1.13973223    -0.56957766  -130.41032487    -0.00000002     0.00000010  0.42D-12  0.35D-12  6  3    13.20     0.98
  15      1.13973207    -0.56957766  -130.41032487    -0.00000000     0.00000002  0.10D-12  0.24D-13  6  2    14.09     0.98
  16      1.13973202    -0.56957766  -130.41032487    -0.00000000     0.00000001  0.23D-13  0.53D-14  6  4    14.97     0.98
  17      1.13973200    -0.56957766  -130.41032487    -0.00000000     0.00000001  0.39D-14  0.10D-14  6  5    15.87     0.98
  18      1.13973200    -0.56957766  -130.41032487    -0.00000000     0.00000000  0.40D-15  0.26D-15  6  6    16.76     0.98
  19      1.13973200    -0.56957766  -130.41032487     0.00000000    -0.00000000  0.47D-16  0.34D-16  6  1    17.65     0.98
  20      1.13973200    -0.56957766  -130.41032487     0.00000000    -0.00000000  0.19D-17  0.71D-17  6  3    18.53     0.98
  21      1.13973200    -0.56957766  -130.41032487     0.00000000    -0.00000000  0.96D-18  0.17D-17  6  2    19.42     0.98
  22      1.13973200    -0.56957766  -130.41032487     0.00000000    -0.00000000  0.19D-18  0.62D-18  6  4    20.28     0.98
  23      1.13973200    -0.56957766  -130.41032487    -0.00000000     0.00000000  0.11D-18  0.92D-19  6  5    21.17     0.98
  24      1.13973200    -0.56957766  -130.41032487     0.00000000    -0.00000000  0.47D-20  0.11D-19  6  1    22.05     0.98
  25      1.13973200    -0.56957766  -130.41032487     0.00000000     0.00000000  0.26D-21  0.12D-20  6  6    22.94     0.98
  26      1.13973200    -0.56957766  -130.41032487    -0.00000000     0.00000000  0.92D-22  0.27D-21  6  3    23.82     0.98

 Norm of t1 vector:      0.07650258      S-energy:     0.00000000      T1 diagnostic:  0.01352387
                                                                       D1 diagnostic:  0.04334919

 Doubles amplitudes (print threshold =  0.500E-01):

         I         J         SYM. A    SYM. B    A         B      T(IJ, AB)

         8         8         2         2         1         1     -0.13319910


 Total CPU time for triples:     14.55 sec


 RESULTS
 =======

  Reference energy                   -129.840747215270

  Correlated core orbitals:             1.1       2.1
  Orbital energies:                   -20.6506  -15.7092
 
  CCSD core-core energy                -0.079228347320
  CCSD core-valence energy             -0.036119382751
  CCSD valence correlation energy      -0.454229929015
 
  CCSD singlet pair energy             -0.407185676741
  CCSD triplet pair energy             -0.162391982352
  CCSD correlation energy              -0.569577659087

  Triples (T) contribution             -0.022085520110
  Total correlation energy             -0.591663179197

  CCSD total energy                  -130.410324874357
  CCSD[T] energy                     -130.433550684483
  CCSD-T energy                      -130.431978942475
 !CCSD(T) total energy               -130.432410394467

 Timing summary (sec):

 STEP                 CPU(USER)    SYS     CPU(TOT)    WALL
 Transformation          0.81      0.18      0.99      1.00
 CCSD iterations        23.01      2.42     25.43     25.44
 Triples                14.55      0.52     15.07     15.06

 Program statistics:

 Available memory in ccsd:               994999644
 Min. memory needed in ccsd:               1368037
 Max. memory used in ccsd:                 1750502
 Max. memory used in cckext:               2014357 (26 integral passes)



 **********************************************************************************************************************************
 DATASETS  * FILE   NREC   LENGTH (MB)   RECORD NAMES
              1      20      500.45       500      610      700      900      950      970     1000      129      960     1100   
                                          VAR    BASINP    GEOM    SYMINP    ZMAT    AOBASIS   BASIS     P2S    ABASIS      S 
                                         1400     1410     1200     1210     1080     1600     1650     1300     1700     1380   
                                           T        V       H0       H01     AOSYM     SMH    MOLCAS    ERIS     OPER     JKOP   

              2       4        3.13       700     1000      520     2100   
                                         GEOM     BASIS   MCVARS     RHF  

 PROGRAMS   *        TOTAL   CCSD(T)        HF       INT
 CPU TIMES  *        46.50     38.38      4.16      3.88
 REAL TIME  *        51.98 SEC
 DISK USED  *         1.33 GB      
 **********************************************************************************************************************************

 CCSD(T)/USERDEF energy=   -130.432410394467

        CCSD(T)         HF-SCF  
   -130.43241039   -129.84074722
 **********************************************************************************************************************************
 Molpro calculation terminated
 Variable memory released
