
 Primary working directories    : /tmp/r2666/282385.maple
 Secondary working directories  : /tmp/r2666/282385.maple
 Wavefunction directory         : /ddn/home4/r2666/wfu/
 Main file repository           : /tmp/r2666/282385.maple/

 SHA1      : d5ffa45e93fdbca01ffc919aa182cfdae0147319
 NAME      : 2015.1.35
 ARCHNAME  : linux/x86_64
 FC        : /opt/intel/composer_xe_2015.1.133/bin/intel64/ifort
 BLASLIB   : -Wl,-_start-group /opt/intel/mkl/lib/intel64/libmkl_intel_ilp64.a /opt/intel/mkl/lib/intel64/libmkl_intel_thread.a /opt/intel/mkl/lib/intel64/libmkl_core.a -Wl,-_end-group
 id        : olemiss

 Nodes     nprocs
 cn081        1

 Using customized tuning parameters: mindgm=1; mindgv=20; mindgc=4; mindgr=1; noblas=0; minvec=7
 default implementation of scratch files=df  

 ***,hno CCSD(T)/TZ-F12 QFF
 memory, 995, m;
 gthresh,energy=1.d-12,zero=1.d-22,oneint=1.d-22,twoint=1.d-22;
 gthresh,optgrad=1.d-8,optstep=1.d-8;
 nocompress;
 geomtyp=xyz
 bohr
 geometry={
 3
         24        24
 H        0.0000000000        1.6608889763       -1.9247855000
 N        0.0000000000       -0.1556984120       -1.1406307072
 O        0.0000000000        0.0365772258        1.1148266162
 }
 
 basis={
 default=aug-cc-pvtz
 s,C,8236.0,1235.0,280.8, 79.27,25.59, 8.997,3.319
 s,C,0.9059,0.3643,0.1285000
 p,C,56.0,18.71,4.133,0.2827,0.3827,0.1209
 d,C,30.0,10.0,3.3,1.097,0.318
 f,C,7.0,2.3,0.7610
 s,N,11420.0,1712.0,389.3,110.0,35.57,12.54,4.644
 s,N,1.293,0.5118,0.1787
 p,N,79.89,26.63,5.948,1.742,0.555,0.1725
 d,N,45.0,15.0,5.0,1.654,0.469
 f,N,9.9,3.3,1.093
 s,O,15330.0,2299.0,522.4,147.3,47.55,16.76,6.207
 s,O,1.752,0.6882,0.2384
 p,O,103.5,34.46,7.749,2.28,0.7156,0.214
 d,O,63.0,21.0,7.0,2.314,0.645
 f,O,12.9,4.3,1.428
 s,mg,164900.0,24710.0,5628.0,1596.0,521.0;
 s,mg,188.0,73.01,29.90,12.54,4.306,1.826;
 s,mg,0.7417,0.0761,0.145,0.033,0.0129;
 p,mg,950.70,316.90,74.86,23.72,8.669,3.363;
 p,mg,1.310,0.4911,0.2364,0.08733,0.03237,0.00745;
 d,mg,1.601,0.686,0.126,0.294,0.0468;
 f,mg,1.372,0.588,0.094,0.252;
 }
   {hf,maxit=500;accu,20;}
 {ccsd(t),nocheck,maxit=250;orbital,IGNORE_ERROR;core}

 Variables initialized (889), CPU time= 0.01 sec
 Commands  initialized (702), CPU time= 0.01 sec, 572 directives.
 Default parameters read. Elapsed time= 0.05 sec

 Checking input...
 Passed
1


                                         ***  PROGRAM SYSTEM MOLPRO  ***
                                       Copyright, TTI GmbH Stuttgart, 2015
                                    Version 2015.1 linked Jul  9 2018 13:16:40


 **********************************************************************************************************************************
 LABEL *   hno CCSD(T)/TZ-F12 QFF                                                        
  64 bit serial version                                                                  DATE: 04-Mar-20          TIME: 13:48:52  
 **********************************************************************************************************************************

 SHA1:             d5ffa45e93fdbca01ffc919aa182cfdae0147319
 **********************************************************************************************************************************

 THRESHOLDS:

 ZERO    =  1.00D-22  ONEINT  =  1.00D-22  TWOINT  =  1.00D-22  PREFAC  =  1.00D-14  LOCALI  =  1.00D-09  EORDER  =  1.00D-04
 ENERGY  =  1.00D-12  ETEST   =  0.00D+00  EDENS   =  0.00D+00  THRDEDEF=  1.00D-06  GRADIENT=  1.00D-02  STEP    =  1.00D-03
 ORBITAL =  1.00D-05  CIVEC   =  1.00D-05  COEFF   =  1.00D-04  PRINTCI =  5.00D-02  PUNCHCI =  9.90D+01  OPTGRAD =  3.00D-04
 OPTENERG=  1.00D-06  OPTSTEP =  3.00D-04  THRGRAD =  1.00D-10  COMPRESS=  1.00D-11  VARMIN  =  1.00D-07  VARMAX  =  1.00D-03
 THRDOUB =  0.00D+00  THRDIV  =  1.00D-05  THRRED  =  1.00D-07  THRPSP  =  1.00D+00  THRDC   =  1.00D-10  THRCS   =  1.00D-10
 THRNRM  =  1.00D-08  THREQ   =  0.00D+00  THRDE   =  1.00D+00  THRREF  =  1.00D-05  SPARFAC =  1.00D+00  THRDLP  =  1.00D-07
 THRDIA  =  1.00D-10  THRDLS  =  1.00D-07  THRGPS  =  0.00D+00  THRKEX  =  0.00D+00  THRDIS  =  2.00D-01  THRVAR  =  1.00D-10
 THRLOC  =  1.00D-06  THRGAP  =  1.00D-06  THRLOCT = -1.00D+00  THRGAPT = -1.00D+00  THRORB  =  1.00D-06  THRMLTP =  0.00D+00
 THRCPQCI=  1.00D-10  KEXTA   =  0.00D+00  THRCOARS=  0.00D+00  SYMTOL  =  1.00D-06  GRADTOL =  1.00D-06  THROVL  =  1.00D-08
 THRORTH =  1.00D-08  GRID    =  1.00D-06  GRIDMAX =  1.00D-03  DTMAX   =  0.00D+00  THROCCDE=  1.00D-01  THROCCDE=  1.00D-01



 THRESHOLDS:

 ZERO    =  1.00D-22  ONEINT  =  1.00D-22  TWOINT  =  1.00D-22  PREFAC  =  1.00D-14  LOCALI  =  1.00D-09  EORDER  =  1.00D-04
 ENERGY  =  1.00D-12  ETEST   =  0.00D+00  EDENS   =  0.00D+00  THRDEDEF=  1.00D-06  GRADIENT=  1.00D-02  STEP    =  1.00D-03
 ORBITAL =  1.00D-05  CIVEC   =  1.00D-05  COEFF   =  1.00D-04  PRINTCI =  5.00D-02  PUNCHCI =  9.90D+01  OPTGRAD =  1.00D-08
 OPTENERG=  1.00D-06  OPTSTEP =  1.00D-08  THRGRAD =  1.00D-10  COMPRESS=  1.00D-11  VARMIN  =  1.00D-07  VARMAX  =  1.00D-03
 THRDOUB =  0.00D+00  THRDIV  =  1.00D-05  THRRED  =  1.00D-07  THRPSP  =  1.00D+00  THRDC   =  1.00D-10  THRCS   =  1.00D-10
 THRNRM  =  1.00D-08  THREQ   =  0.00D+00  THRDE   =  1.00D+00  THRREF  =  1.00D-05  SPARFAC =  1.00D+00  THRDLP  =  1.00D-07
 THRDIA  =  1.00D-10  THRDLS  =  1.00D-07  THRGPS  =  0.00D+00  THRKEX  =  0.00D+00  THRDIS  =  2.00D-01  THRVAR  =  1.00D-10
 THRLOC  =  1.00D-06  THRGAP  =  1.00D-06  THRLOCT = -1.00D+00  THRGAPT = -1.00D+00  THRORB  =  1.00D-06  THRMLTP =  0.00D+00
 THRCPQCI=  1.00D-10  KEXTA   =  0.00D+00  THRCOARS=  0.00D+00  SYMTOL  =  1.00D-06  GRADTOL =  1.00D-06  THROVL  =  1.00D-08
 THRORTH =  1.00D-08  GRID    =  1.00D-06  GRIDMAX =  1.00D-03  DTMAX   =  0.00D+00  THROCCDE=  1.00D-01  THROCCDE=  1.00D-01



 Input parameters for SORTINT:

 COMPRESS =    0.000000
 C_FINAL  =    1.000000
 DEBUG    =   -1.000000
 C_SORT1  =    0.000000
 C_SEWARD =    0.000000
 THRESH   =    0.000000
 IO       =  molpro                                                          
 SPRI     =    0.000000
 SETTING GEOMTYP        =    XYZ
 ZUNIT=BOHR
 

 Variable memory set to  995000000 words,  buffer space   230000 words

 SETTING BASIS          =    USERDEF


 Recomputing integrals since basis changed


 Using spherical harmonics

 Library entry H      S aug-cc-pVTZ          selected for orbital group  1
 Library entry H      P aug-cc-pVTZ          selected for orbital group  1
 Library entry H      D aug-cc-pVTZ          selected for orbital group  1


 PROGRAM * SEWARD (Integral evaluation for generally contracted gaussian basis sets)     Author: Roland Lindh, 1990

 Geometry written to block  1 of record 700


 Point group  Cs  



 ATOMIC COORDINATES

 NR  ATOM    CHARGE       X              Y              Z

   1  H       1.00    0.000000000    1.660888976   -1.924785500
   2  N       7.00    0.000000000   -0.155698412   -1.140630707
   3  O       8.00    0.000000000    0.036577226    1.114826616

 Bond lengths in Bohr (Angstrom)

 1-2  1.978607712  2-3  2.263638147
     ( 1.047034111)     ( 1.197865721)

 Bond angles

  1-2-3  108.47547239

 NUCLEAR CHARGE:                   16
 NUMBER OF PRIMITIVE AOS:         203
 NUMBER OF SYMMETRY AOS:          173
 NUMBER OF CONTRACTIONS:          171   ( 114A'  +  57A"  )
 NUMBER OF CORE ORBITALS:           2   (   2A'  +   0A"  )
 NUMBER OF VALENCE ORBITALS:        9   (   7A'  +   2A"  )


 NUCLEAR REPULSION ENERGY   30.59804452


 Eigenvalues of metric

         1 0.101E-02 0.240E-02 0.327E-02 0.627E-02 0.968E-02 0.136E-01 0.144E-01 0.226E-01
         2 0.357E-01 0.516E-01 0.689E-01 0.940E-01 0.131E+00 0.134E+00 0.140E+00 0.142E+00


 Contracted 2-electron integrals neglected if value below      1.0D-22

       46227167. INTEGRALS WRITTEN OUT IN   11289 BLOCKS ON RECORD 1290 OF FILE 1


 NUMBER OF SORTED TWO-ELECTRON INTEGRALS:   55360566.     BUFFER LENGTH:  32768
 NUMBER OF SEGMENTS:   4  SEGMENT LENGTH:   15997996      RECORD LENGTH: 524288

 Memory used in sort:      16.56 MW

 SORT1 READ    46227167. AND WROTE    46665429. INTEGRALS IN    136 RECORDS. CPU TIME:     0.73 SEC, REAL TIME:     1.00 SEC
 SORT2 READ    46665429. AND WROTE    55360566. INTEGRALS IN      4 RECORDS. CPU TIME:     0.63 SEC, REAL TIME:     0.85 SEC

 FILE SIZES:   FILE 1:   760.6 MBYTE,  FILE 4:   570.5 MBYTE,   TOTAL:   1331.0 MBYTE

 OPERATOR DM      FOR CENTER  0  COORDINATES:    0.000000    0.000000    0.000000


 **********************************************************************************************************************************
 DATASETS  * FILE   NREC   LENGTH (MB)   RECORD NAMES
              1      19      421.79       500      610      700      900      950      970     1000      129      960     1100   
                                          VAR    BASINP    GEOM    SYMINP    ZMAT    AOBASIS   BASIS     P2S    ABASIS      S 
                                         1400     1410     1200     1210     1080     1600     1650     1300     1700   
                                           T        V       H0       H01     AOSYM     SMH    MOLCAS    ERIS     OPER   

 PROGRAMS   *        TOTAL       INT
 CPU TIMES  *         4.08      3.99
 REAL TIME  *         5.45 SEC
 DISK USED  *         1.33 GB      
 **********************************************************************************************************************************


 PROGRAM * RHF-SCF (CLOSED SHELL)       Authors: W. Meyer, H.-J. Werner


 NUMBER OF ELECTRONS:       8+    8-
 CONVERGENCE THRESHOLDS:    1.00E-10 (Density)    1.00E-13 (Energy)
 MAX. NUMBER OF ITERATIONS:      500
 INTERPOLATION TYPE:            DIIS
 INTERPOLATION STEPS:              2 (START)      1 (STEP)
 LEVEL SHIFTS:                  0.00 (CLOSED)  0.00 (OPEN) 



 Orbital guess generated from atomic densities. Full valence occupancy:    9   2

 Molecular orbital dump at record        2100.2

 Initial occupancy:   7   1

 ITERATION    DDIFF          GRAD             ENERGY        2-EL.EN.            DIPOLE MOMENTS         DIIS   ORB.
    1      0.000D+00      0.000D+00      -129.79238064    154.473518    0.00000    0.57065   -0.98153    0    start
    2      0.000D+00      0.866D-02      -129.81955968    155.661883    0.00000    0.59160   -0.20423    1    diag
    3      0.360D-02      0.642D-02      -129.84047785    155.762162    0.00000    0.54452   -0.57047    2    diag
    4      0.137D-02      0.103D-02      -129.84123944    155.495659    0.00000    0.55275   -0.50981    3    diag
    5      0.328D-03      0.331D-03      -129.84135508    155.582506    0.00000    0.55872   -0.51241    4    diag
    6      0.152D-03      0.968D-04      -129.84137380    155.566625    0.00000    0.55935   -0.50848    5    diag
    7      0.602D-04      0.481D-04      -129.84137917    155.569237    0.00000    0.56069   -0.50611    6    diag
    8      0.405D-04      0.160D-04      -129.84137970    155.568461    0.00000    0.56075   -0.50528    7    diag
    9      0.133D-04      0.294D-05      -129.84137972    155.568358    0.00000    0.56070   -0.50511    8    diag
   10      0.264D-05      0.687D-06      -129.84137972    155.568345    0.00000    0.56067   -0.50508    9    orth
   11      0.832D-06      0.138D-06      -129.84137972    155.568341    0.00000    0.56066   -0.50508    9    diag
   12      0.200D-06      0.280D-07      -129.84137972    155.568341    0.00000    0.56066   -0.50508    9    diag
   13      0.481D-07      0.728D-08      -129.84137972    155.568340    0.00000    0.56066   -0.50508    9    diag
   14      0.109D-07      0.131D-08      -129.84137972    155.568340    0.00000    0.56066   -0.50508    9    diag
   15      0.149D-08      0.364D-09      -129.84137972    155.568340    0.00000    0.56066   -0.50508    9    diag
   16      0.328D-09      0.113D-09      -129.84137972    155.568340    0.00000    0.56066   -0.50508    9    diag
   17      0.861D-10      0.326D-10      -129.84137972    155.568340    0.00000    0.56066   -0.50508    9    diag
   18      0.286D-10      0.105D-10      -129.84137972    155.568340    0.00000    0.56066   -0.50508    0    orth

 Final occupancy:   7   1

 !RHF STATE 1.1 Energy               -129.841379724247
 Nuclear energy                        30.59804452
 One-electron energy                 -238.22359440
 Two-electron energy                   77.78417016
 Virial quotient                       -1.00127193
 !RHF STATE 1.1 Dipole moment           0.00000000     0.56065831    -0.50507613
 Dipole moment /Debye                   0.00000000     1.42495794    -1.28369138

 Orbital energies:

         1.1          2.1          3.1          4.1          5.1          6.1          7.1          8.1          9.1
    -20.650303   -15.708173    -1.536324    -0.992033    -0.748851    -0.667233    -0.425751     0.039865     0.193755

         1.2          2.2          3.2
     -0.598958     0.082560     0.239951

 HOMO      7.1    -0.425751 =     -11.5853eV
 LUMO      8.1     0.039865 =       1.0848eV
 LUMO-HOMO         0.465617 =      12.6701eV


 **********************************************************************************************************************************
 DATASETS  * FILE   NREC   LENGTH (MB)   RECORD NAMES
              1      19      421.79       500      610      700      900      950      970     1000      129      960     1100   
                                          VAR    BASINP    GEOM    SYMINP    ZMAT    AOBASIS   BASIS     P2S    ABASIS      S 
                                         1400     1410     1200     1210     1080     1600     1650     1300     1700   
                                           T        V       H0       H01     AOSYM     SMH    MOLCAS    ERIS     OPER   

              2       4        3.13       700     1000      520     2100   
                                         GEOM     BASIS   MCVARS     RHF  

 PROGRAMS   *        TOTAL        HF       INT
 CPU TIMES  *         8.49      4.41      3.99
 REAL TIME  *        10.81 SEC
 DISK USED  *         1.33 GB      
 **********************************************************************************************************************************


 PROGRAM * CCSD (Closed-shell coupled cluster)     Authors: C. Hampel, H.-J. Werner, 1991, M. Deegan, P.J. Knowles, 1992


 Convergence thresholds:  THRVAR = 1.00D-08  THRDEN = 1.00D-12

 CCSD(T)     terms to be evaluated (factor= 1.000)


 Number of closed-shell orbitals:   8 (   7   1 )
 Number of external orbitals:     163 ( 107  56 )

 Molecular orbitals read from record     2100.2  Type=RHF/CANONICAL (state 1.1)

 Number of N-1 electron functions:               8
 Number of N-2 electron functions:              36
 Number of singly external CSFs:               805
 Number of doubly external CSFs:            449165
 Total number of CSFs:                      449971

 Length of J-op  integral file:               0.00 MB
 Length of K-op  integral file:               1.15 MB
 Length of 3-ext integral record:             0.00 MB

 Memory could be reduced to 24.90 Mwords without degradation in triples

 Integral transformation finished. Total CPU:   0.79 sec, npass=  1  Memory used:   6.89 MW

 Reference energy:                   -129.84137972

 MP2 singlet pair energy:              -0.37782220
 MP2 triplet pair energy:              -0.18595079
 MP2 correlation energy:               -0.56377299
 MP2 total energy:                   -130.40515271

 SCS-MP2 correlation energy:           -0.56908935   (PS=  1.200000  PT=  0.333333)
 SCS-MP2 total energy:               -130.41046907

 ITER.      SQ.NORM     CORR.ENERGY   TOTAL ENERGY   ENERGY CHANGE        DEN1      VAR(S)    VAR(P)  DIIS     TIME  TIME/IT
   1      1.11853620    -0.56888232  -130.41026205    -0.00510934     0.01211314  0.32D-02  0.30D-02  1  1     1.67     0.92
   2      1.12911684    -0.56867411  -130.41005384     0.00020821    -0.01340781  0.86D-04  0.48D-03  2  2     2.53     0.94
   3      1.13418728    -0.56898587  -130.41036559    -0.00031176    -0.00231087  0.52D-04  0.65D-04  3  3     3.43     0.95
   4      1.13748152    -0.56897750  -130.41035723     0.00000837    -0.00134543  0.41D-05  0.93D-05  4  4     4.31     0.96
   5      1.13846689    -0.56900068  -130.41038041    -0.00002318    -0.00023061  0.15D-05  0.18D-05  5  5     5.19     0.96
   6      1.13885383    -0.56899528  -130.41037500     0.00000541    -0.00003687  0.13D-06  0.42D-06  6  6     6.10     0.97
   7      1.13893671    -0.56899554  -130.41037526    -0.00000026     0.00000002  0.19D-07  0.92D-07  6  1     7.00     0.97
   8      1.13897019    -0.56899397  -130.41037369     0.00000157    -0.00000456  0.42D-08  0.13D-07  6  2     7.92     0.97
   9      1.13897491    -0.56899407  -130.41037380    -0.00000011     0.00000095  0.17D-08  0.16D-08  6  3     8.80     0.97
  10      1.13897638    -0.56899438  -130.41037410    -0.00000030    -0.00000055  0.39D-09  0.22D-09  6  4     9.69     0.97
  11      1.13897542    -0.56899451  -130.41037423    -0.00000013     0.00000033  0.92D-10  0.23D-10  6  5    10.58     0.97
  12      1.13897455    -0.56899463  -130.41037436    -0.00000013     0.00000033  0.95D-11  0.59D-11  6  6    11.42     0.97
  13      1.13897406    -0.56899464  -130.41037437    -0.00000001     0.00000010  0.41D-11  0.10D-11  6  1    12.30     0.97
  14      1.13897365    -0.56899467  -130.41037439    -0.00000002     0.00000010  0.44D-12  0.35D-12  6  3    13.18     0.98
  15      1.13897350    -0.56899467  -130.41037439    -0.00000000     0.00000002  0.10D-12  0.24D-13  6  2    14.07     0.98
  16      1.13897345    -0.56899467  -130.41037439    -0.00000000     0.00000001  0.23D-13  0.54D-14  6  4    14.94     0.98
  17      1.13897343    -0.56899467  -130.41037440    -0.00000000     0.00000001  0.38D-14  0.10D-14  6  5    15.85     0.98
  18      1.13897343    -0.56899467  -130.41037440    -0.00000000     0.00000000  0.38D-15  0.25D-15  6  6    16.75     0.98
  19      1.13897343    -0.56899467  -130.41037440     0.00000000    -0.00000000  0.44D-16  0.31D-16  6  1    17.64     0.98
  20      1.13897343    -0.56899467  -130.41037440     0.00000000    -0.00000000  0.18D-17  0.62D-17  6  3    18.55     0.98
  21      1.13897343    -0.56899467  -130.41037440     0.00000000    -0.00000000  0.92D-18  0.15D-17  6  2    19.44     0.98
  22      1.13897344    -0.56899467  -130.41037440     0.00000000    -0.00000000  0.16D-18  0.53D-18  6  4    20.34     0.98
  23      1.13897344    -0.56899467  -130.41037440    -0.00000000     0.00000000  0.93D-19  0.81D-19  6  5    21.23     0.98
  24      1.13897344    -0.56899467  -130.41037440     0.00000000    -0.00000000  0.43D-20  0.10D-19  6  1    22.12     0.98
  25      1.13897344    -0.56899467  -130.41037440     0.00000000     0.00000000  0.23D-21  0.12D-20  6  6    23.01     0.98
  26      1.13897344    -0.56899467  -130.41037440    -0.00000000     0.00000000  0.10D-21  0.27D-21  6  3    23.91     0.98

 Norm of t1 vector:      0.07597164      S-energy:     0.00000000      T1 diagnostic:  0.01343002
                                                                       D1 diagnostic:  0.04280004

 Doubles amplitudes (print threshold =  0.500E-01):

         I         J         SYM. A    SYM. B    A         B      T(IJ, AB)

         8         8         2         2         1         1     -0.13157233


 Total CPU time for triples:     14.53 sec


 RESULTS
 =======

  Reference energy                   -129.841379724247

  Correlated core orbitals:             1.1       2.1
  Orbital energies:                   -20.6503  -15.7082
 
  CCSD core-core energy                -0.079226371814
  CCSD core-valence energy             -0.036151904712
  CCSD valence correlation energy      -0.453616394406
 
  CCSD singlet pair energy             -0.406658522340
  CCSD triplet pair energy             -0.162336148594
  CCSD correlation energy              -0.568994670932

  Triples (T) contribution             -0.021938548232
  Total correlation energy             -0.590933219164

  CCSD total energy                  -130.410374395179
  CCSD[T] energy                     -130.433435660236
  CCSD-T energy                      -130.431886435029
 !CCSD(T) total energy               -130.432312943411

 Timing summary (sec):

 STEP                 CPU(USER)    SYS     CPU(TOT)    WALL
 Transformation          0.81      0.18      0.99      1.00
 CCSD iterations        23.10      2.32     25.42     25.42
 Triples                14.53      0.59     15.12     15.11

 Program statistics:

 Available memory in ccsd:               994999644
 Min. memory needed in ccsd:               1368037
 Max. memory used in ccsd:                 1750502
 Max. memory used in cckext:               2014357 (26 integral passes)



 **********************************************************************************************************************************
 DATASETS  * FILE   NREC   LENGTH (MB)   RECORD NAMES
              1      20      500.70       500      610      700      900      950      970     1000      129      960     1100   
                                          VAR    BASINP    GEOM    SYMINP    ZMAT    AOBASIS   BASIS     P2S    ABASIS      S 
                                         1400     1410     1200     1210     1080     1600     1650     1300     1700     1380   
                                           T        V       H0       H01     AOSYM     SMH    MOLCAS    ERIS     OPER     JKOP   

              2       4        3.13       700     1000      520     2100   
                                         GEOM     BASIS   MCVARS     RHF  

 PROGRAMS   *        TOTAL   CCSD(T)        HF       INT
 CPU TIMES  *        46.95     38.46      4.41      3.99
 REAL TIME  *        52.38 SEC
 DISK USED  *         1.33 GB      
 **********************************************************************************************************************************

 CCSD(T)/USERDEF energy=   -130.432312943411

        CCSD(T)         HF-SCF  
   -130.43231294   -129.84137972
 **********************************************************************************************************************************
 Molpro calculation terminated
 Variable memory released
