
 Primary working directories    : /tmp/r2666/282460.maple
 Secondary working directories  : /tmp/r2666/282460.maple
 Wavefunction directory         : /ddn/home4/r2666/wfu/
 Main file repository           : /tmp/r2666/282460.maple/

 SHA1      : d5ffa45e93fdbca01ffc919aa182cfdae0147319
 NAME      : 2015.1.35
 ARCHNAME  : linux/x86_64
 FC        : /opt/intel/composer_xe_2015.1.133/bin/intel64/ifort
 BLASLIB   : -Wl,-_start-group /opt/intel/mkl/lib/intel64/libmkl_intel_ilp64.a /opt/intel/mkl/lib/intel64/libmkl_intel_thread.a /opt/intel/mkl/lib/intel64/libmkl_core.a -Wl,-_end-group
 id        : olemiss

 Nodes     nprocs
 cn076        1

 Using customized tuning parameters: mindgm=1; mindgv=20; mindgc=4; mindgr=1; noblas=0; minvec=7
 default implementation of scratch files=df  

 ***,hno CCSD(T)/TZ-F12 QFF
 memory, 995, m;
 gthresh,energy=1.d-12,zero=1.d-22,oneint=1.d-22,twoint=1.d-22;
 gthresh,optgrad=1.d-8,optstep=1.d-8;
 nocompress;
 geomtyp=xyz
 bohr
 geometry={
 3
         99        99
 H        0.0000000000        1.6716102446       -1.9363340083
 N        0.0000000000       -0.1621359488       -1.1442475161
 O        0.0000000000        0.0322934942        1.1299919334
 }
 
 basis={
 default=aug-cc-pvtz
 s,C,8236.0,1235.0,280.8, 79.27,25.59, 8.997,3.319
 s,C,0.9059,0.3643,0.1285000
 p,C,56.0,18.71,4.133,0.2827,0.3827,0.1209
 d,C,30.0,10.0,3.3,1.097,0.318
 f,C,7.0,2.3,0.7610
 s,N,11420.0,1712.0,389.3,110.0,35.57,12.54,4.644
 s,N,1.293,0.5118,0.1787
 p,N,79.89,26.63,5.948,1.742,0.555,0.1725
 d,N,45.0,15.0,5.0,1.654,0.469
 f,N,9.9,3.3,1.093
 s,O,15330.0,2299.0,522.4,147.3,47.55,16.76,6.207
 s,O,1.752,0.6882,0.2384
 p,O,103.5,34.46,7.749,2.28,0.7156,0.214
 d,O,63.0,21.0,7.0,2.314,0.645
 f,O,12.9,4.3,1.428
 s,mg,164900.0,24710.0,5628.0,1596.0,521.0;
 s,mg,188.0,73.01,29.90,12.54,4.306,1.826;
 s,mg,0.7417,0.0761,0.145,0.033,0.0129;
 p,mg,950.70,316.90,74.86,23.72,8.669,3.363;
 p,mg,1.310,0.4911,0.2364,0.08733,0.03237,0.00745;
 d,mg,1.601,0.686,0.126,0.294,0.0468;
 f,mg,1.372,0.588,0.094,0.252;
 }
   {hf,maxit=500;accu,20;}
 {ccsd(t),nocheck,maxit=250;orbital,IGNORE_ERROR;core}

 Variables initialized (889), CPU time= 0.01 sec
 Commands  initialized (702), CPU time= 0.01 sec, 572 directives.
 Default parameters read. Elapsed time= 0.06 sec

 Checking input...
 Passed
1


                                         ***  PROGRAM SYSTEM MOLPRO  ***
                                       Copyright, TTI GmbH Stuttgart, 2015
                                    Version 2015.1 linked Jul  9 2018 13:16:40


 **********************************************************************************************************************************
 LABEL *   hno CCSD(T)/TZ-F12 QFF                                                        
  64 bit serial version                                                                  DATE: 04-Mar-20          TIME: 13:50:02  
 **********************************************************************************************************************************

 SHA1:             d5ffa45e93fdbca01ffc919aa182cfdae0147319
 **********************************************************************************************************************************

 THRESHOLDS:

 ZERO    =  1.00D-22  ONEINT  =  1.00D-22  TWOINT  =  1.00D-22  PREFAC  =  1.00D-14  LOCALI  =  1.00D-09  EORDER  =  1.00D-04
 ENERGY  =  1.00D-12  ETEST   =  0.00D+00  EDENS   =  0.00D+00  THRDEDEF=  1.00D-06  GRADIENT=  1.00D-02  STEP    =  1.00D-03
 ORBITAL =  1.00D-05  CIVEC   =  1.00D-05  COEFF   =  1.00D-04  PRINTCI =  5.00D-02  PUNCHCI =  9.90D+01  OPTGRAD =  3.00D-04
 OPTENERG=  1.00D-06  OPTSTEP =  3.00D-04  THRGRAD =  1.00D-10  COMPRESS=  1.00D-11  VARMIN  =  1.00D-07  VARMAX  =  1.00D-03
 THRDOUB =  0.00D+00  THRDIV  =  1.00D-05  THRRED  =  1.00D-07  THRPSP  =  1.00D+00  THRDC   =  1.00D-10  THRCS   =  1.00D-10
 THRNRM  =  1.00D-08  THREQ   =  0.00D+00  THRDE   =  1.00D+00  THRREF  =  1.00D-05  SPARFAC =  1.00D+00  THRDLP  =  1.00D-07
 THRDIA  =  1.00D-10  THRDLS  =  1.00D-07  THRGPS  =  0.00D+00  THRKEX  =  0.00D+00  THRDIS  =  2.00D-01  THRVAR  =  1.00D-10
 THRLOC  =  1.00D-06  THRGAP  =  1.00D-06  THRLOCT = -1.00D+00  THRGAPT = -1.00D+00  THRORB  =  1.00D-06  THRMLTP =  0.00D+00
 THRCPQCI=  1.00D-10  KEXTA   =  0.00D+00  THRCOARS=  0.00D+00  SYMTOL  =  1.00D-06  GRADTOL =  1.00D-06  THROVL  =  1.00D-08
 THRORTH =  1.00D-08  GRID    =  1.00D-06  GRIDMAX =  1.00D-03  DTMAX   =  0.00D+00  THROCCDE=  1.00D-01  THROCCDE=  1.00D-01



 THRESHOLDS:

 ZERO    =  1.00D-22  ONEINT  =  1.00D-22  TWOINT  =  1.00D-22  PREFAC  =  1.00D-14  LOCALI  =  1.00D-09  EORDER  =  1.00D-04
 ENERGY  =  1.00D-12  ETEST   =  0.00D+00  EDENS   =  0.00D+00  THRDEDEF=  1.00D-06  GRADIENT=  1.00D-02  STEP    =  1.00D-03
 ORBITAL =  1.00D-05  CIVEC   =  1.00D-05  COEFF   =  1.00D-04  PRINTCI =  5.00D-02  PUNCHCI =  9.90D+01  OPTGRAD =  1.00D-08
 OPTENERG=  1.00D-06  OPTSTEP =  1.00D-08  THRGRAD =  1.00D-10  COMPRESS=  1.00D-11  VARMIN  =  1.00D-07  VARMAX  =  1.00D-03
 THRDOUB =  0.00D+00  THRDIV  =  1.00D-05  THRRED  =  1.00D-07  THRPSP  =  1.00D+00  THRDC   =  1.00D-10  THRCS   =  1.00D-10
 THRNRM  =  1.00D-08  THREQ   =  0.00D+00  THRDE   =  1.00D+00  THRREF  =  1.00D-05  SPARFAC =  1.00D+00  THRDLP  =  1.00D-07
 THRDIA  =  1.00D-10  THRDLS  =  1.00D-07  THRGPS  =  0.00D+00  THRKEX  =  0.00D+00  THRDIS  =  2.00D-01  THRVAR  =  1.00D-10
 THRLOC  =  1.00D-06  THRGAP  =  1.00D-06  THRLOCT = -1.00D+00  THRGAPT = -1.00D+00  THRORB  =  1.00D-06  THRMLTP =  0.00D+00
 THRCPQCI=  1.00D-10  KEXTA   =  0.00D+00  THRCOARS=  0.00D+00  SYMTOL  =  1.00D-06  GRADTOL =  1.00D-06  THROVL  =  1.00D-08
 THRORTH =  1.00D-08  GRID    =  1.00D-06  GRIDMAX =  1.00D-03  DTMAX   =  0.00D+00  THROCCDE=  1.00D-01  THROCCDE=  1.00D-01



 Input parameters for SORTINT:

 COMPRESS =    0.000000
 C_FINAL  =    1.000000
 DEBUG    =   -1.000000
 C_SORT1  =    0.000000
 C_SEWARD =    0.000000
 THRESH   =    0.000000
 IO       =  molpro                                                          
 SPRI     =    0.000000
 SETTING GEOMTYP        =    XYZ
 ZUNIT=BOHR
 

 Variable memory set to  995000000 words,  buffer space   230000 words

 SETTING BASIS          =    USERDEF


 Recomputing integrals since basis changed


 Using spherical harmonics

 Library entry H      S aug-cc-pVTZ          selected for orbital group  1
 Library entry H      P aug-cc-pVTZ          selected for orbital group  1
 Library entry H      D aug-cc-pVTZ          selected for orbital group  1


 PROGRAM * SEWARD (Integral evaluation for generally contracted gaussian basis sets)     Author: Roland Lindh, 1990

 Geometry written to block  1 of record 700


 Point group  Cs  



 ATOMIC COORDINATES

 NR  ATOM    CHARGE       X              Y              Z

   1  H       1.00    0.000000000    1.671610245   -1.936334008
   2  N       7.00    0.000000000   -0.162135949   -1.144247516
   3  O       8.00    0.000000000    0.032293494    1.129991933

 Bond lengths in Bohr (Angstrom)

 1-2  1.997504972  2-3  2.282535407
     ( 1.057034110)     ( 1.207865720)

 Bond angles

  1-2-3  108.47547239

 NUCLEAR CHARGE:                   16
 NUMBER OF PRIMITIVE AOS:         203
 NUMBER OF SYMMETRY AOS:          173
 NUMBER OF CONTRACTIONS:          171   ( 114A'  +  57A"  )
 NUMBER OF CORE ORBITALS:           2   (   2A'  +   0A"  )
 NUMBER OF VALENCE ORBITALS:        9   (   7A'  +   2A"  )


 NUCLEAR REPULSION ENERGY   30.33930925


 Eigenvalues of metric

         1 0.105E-02 0.249E-02 0.336E-02 0.639E-02 0.100E-01 0.137E-01 0.145E-01 0.233E-01
         2 0.369E-01 0.532E-01 0.701E-01 0.942E-01 0.131E+00 0.134E+00 0.141E+00 0.142E+00


 Contracted 2-electron integrals neglected if value below      1.0D-22

       46151244. INTEGRALS WRITTEN OUT IN   11271 BLOCKS ON RECORD 1290 OF FILE 1


 NUMBER OF SORTED TWO-ELECTRON INTEGRALS:   55360566.     BUFFER LENGTH:  32768
 NUMBER OF SEGMENTS:   4  SEGMENT LENGTH:   15997996      RECORD LENGTH: 524288

 Memory used in sort:      16.56 MW

 SORT1 READ    46151244. AND WROTE    46588729. INTEGRALS IN    136 RECORDS. CPU TIME:     0.66 SEC, REAL TIME:     1.01 SEC
 SORT2 READ    46588729. AND WROTE    55360566. INTEGRALS IN      4 RECORDS. CPU TIME:     0.59 SEC, REAL TIME:     0.83 SEC

 FILE SIZES:   FILE 1:   759.4 MBYTE,  FILE 4:   570.5 MBYTE,   TOTAL:   1329.8 MBYTE

 OPERATOR DM      FOR CENTER  0  COORDINATES:    0.000000    0.000000    0.000000


 **********************************************************************************************************************************
 DATASETS  * FILE   NREC   LENGTH (MB)   RECORD NAMES
              1      19      421.29       500      610      700      900      950      970     1000      129      960     1100   
                                          VAR    BASINP    GEOM    SYMINP    ZMAT    AOBASIS   BASIS     P2S    ABASIS      S 
                                         1400     1410     1200     1210     1080     1600     1650     1300     1700   
                                           T        V       H0       H01     AOSYM     SMH    MOLCAS    ERIS     OPER   

 PROGRAMS   *        TOTAL       INT
 CPU TIMES  *         3.95      3.86
 REAL TIME  *         5.35 SEC
 DISK USED  *         1.33 GB      
 **********************************************************************************************************************************


 PROGRAM * RHF-SCF (CLOSED SHELL)       Authors: W. Meyer, H.-J. Werner


 NUMBER OF ELECTRONS:       8+    8-
 CONVERGENCE THRESHOLDS:    1.00E-10 (Density)    1.00E-13 (Energy)
 MAX. NUMBER OF ITERATIONS:      500
 INTERPOLATION TYPE:            DIIS
 INTERPOLATION STEPS:              2 (START)      1 (STEP)
 LEVEL SHIFTS:                  0.00 (CLOSED)  0.00 (OPEN) 



 Orbital guess generated from atomic densities. Full valence occupancy:    9   2

 Molecular orbital dump at record        2100.2

 Initial occupancy:   7   1

 ITERATION    DDIFF          GRAD             ENERGY        2-EL.EN.            DIPOLE MOMENTS         DIIS   ORB.
    1      0.000D+00      0.000D+00      -129.78889634    154.003020    0.00000    0.56872   -1.01460    0    start
    2      0.000D+00      0.880D-02      -129.81579688    155.184688    0.00000    0.59685   -0.19541    1    diag
    3      0.363D-02      0.670D-02      -129.83875472    155.303635    0.00000    0.54579   -0.58408    2    diag
    4      0.142D-02      0.104D-02      -129.83953971    155.028328    0.00000    0.55372   -0.52164    3    diag
    5      0.330D-03      0.338D-03      -129.83966095    155.116862    0.00000    0.55984   -0.52410    4    diag
    6      0.153D-03      0.993D-04      -129.83968078    155.100708    0.00000    0.56041   -0.51997    5    diag
    7      0.609D-04      0.498D-04      -129.83968661    155.103274    0.00000    0.56176   -0.51746    6    diag
    8      0.413D-04      0.171D-04      -129.83968724    155.102447    0.00000    0.56182   -0.51655    7    diag
    9      0.143D-04      0.319D-05      -129.83968727    155.102331    0.00000    0.56177   -0.51637    8    diag
   10      0.291D-05      0.729D-06      -129.83968727    155.102317    0.00000    0.56173   -0.51634    9    orth
   11      0.864D-06      0.145D-06      -129.83968727    155.102313    0.00000    0.56172   -0.51634    9    diag
   12      0.205D-06      0.301D-07      -129.83968727    155.102312    0.00000    0.56172   -0.51633    9    diag
   13      0.503D-07      0.797D-08      -129.83968727    155.102311    0.00000    0.56172   -0.51633    9    diag
   14      0.117D-07      0.141D-08      -129.83968727    155.102311    0.00000    0.56172   -0.51633    9    diag
   15      0.150D-08      0.379D-09      -129.83968727    155.102311    0.00000    0.56172   -0.51633    9    diag
   16      0.332D-09      0.112D-09      -129.83968727    155.102311    0.00000    0.56172   -0.51633    9    diag
   17      0.776D-10      0.312D-10      -129.83968727    155.102311    0.00000    0.56172   -0.51633    9    diag
   18      0.248D-10      0.104D-10      -129.83968727    155.102311    0.00000    0.56172   -0.51633    0    orth

 Final occupancy:   7   1

 !RHF STATE 1.1 Energy               -129.839687267850
 Nuclear energy                        30.33930925
 One-electron energy                 -237.73015223
 Two-electron energy                   77.55115571
 Virial quotient                       -1.00169758
 !RHF STATE 1.1 Dipole moment           0.00000000     0.56172172    -0.51633428
 Dipole moment /Debye                   0.00000000     1.42766070    -1.31230489

 Orbital energies:

         1.1          2.1          3.1          4.1          5.1          6.1          7.1          8.1          9.1
    -20.651443   -15.711213    -1.527928    -0.991818    -0.744664    -0.664321    -0.428234     0.039649     0.192333

         1.2          2.2          3.2
     -0.594299     0.079062     0.239524

 HOMO      7.1    -0.428234 =     -11.6528eV
 LUMO      8.1     0.039649 =       1.0789eV
 LUMO-HOMO         0.467883 =      12.7317eV


 **********************************************************************************************************************************
 DATASETS  * FILE   NREC   LENGTH (MB)   RECORD NAMES
              1      19      421.29       500      610      700      900      950      970     1000      129      960     1100   
                                          VAR    BASINP    GEOM    SYMINP    ZMAT    AOBASIS   BASIS     P2S    ABASIS      S 
                                         1400     1410     1200     1210     1080     1600     1650     1300     1700   
                                           T        V       H0       H01     AOSYM     SMH    MOLCAS    ERIS     OPER   

              2       4        3.13       700     1000      520     2100   
                                         GEOM     BASIS   MCVARS     RHF  

 PROGRAMS   *        TOTAL        HF       INT
 CPU TIMES  *         8.40      4.45      3.86
 REAL TIME  *        10.70 SEC
 DISK USED  *         1.33 GB      
 **********************************************************************************************************************************


 PROGRAM * CCSD (Closed-shell coupled cluster)     Authors: C. Hampel, H.-J. Werner, 1991, M. Deegan, P.J. Knowles, 1992


 Convergence thresholds:  THRVAR = 1.00D-08  THRDEN = 1.00D-12

 CCSD(T)     terms to be evaluated (factor= 1.000)


 Number of closed-shell orbitals:   8 (   7   1 )
 Number of external orbitals:     163 ( 107  56 )

 Molecular orbitals read from record     2100.2  Type=RHF/CANONICAL (state 1.1)

 Number of N-1 electron functions:               8
 Number of N-2 electron functions:              36
 Number of singly external CSFs:               805
 Number of doubly external CSFs:            449165
 Total number of CSFs:                      449971

 Length of J-op  integral file:               0.00 MB
 Length of K-op  integral file:               1.15 MB
 Length of 3-ext integral record:             0.00 MB

 Memory could be reduced to 24.90 Mwords without degradation in triples

 Integral transformation finished. Total CPU:   0.82 sec, npass=  1  Memory used:   6.89 MW

 Reference energy:                   -129.83968727

 MP2 singlet pair energy:              -0.37903465
 MP2 triplet pair energy:              -0.18668185
 MP2 correlation energy:               -0.56571650
 MP2 total energy:                   -130.40540377

 SCS-MP2 correlation energy:           -0.57099918   (PS=  1.200000  PT=  0.333333)
 SCS-MP2 total energy:               -130.41068644

 ITER.      SQ.NORM     CORR.ENERGY   TOTAL ENERGY   ENERGY CHANGE        DEN1      VAR(S)    VAR(P)  DIIS     TIME  TIME/IT
   1      1.11992857    -0.57043747  -130.41012474    -0.00472097     0.01303265  0.34D-02  0.31D-02  1  1     1.70     0.93
   2      1.13083992    -0.57013559  -130.40982285     0.00030189    -0.01374035  0.91D-04  0.50D-03  2  2     2.59     0.95
   3      1.13611528    -0.57046499  -130.41015226    -0.00032940    -0.00236555  0.56D-04  0.68D-04  3  3     3.47     0.96
   4      1.13956643    -0.57045637  -130.41014364     0.00000862    -0.00139119  0.46D-05  0.98D-05  4  4     4.35     0.96
   5      1.14062823    -0.57048099  -130.41016826    -0.00002462    -0.00025026  0.16D-05  0.19D-05  5  5     5.22     0.97
   6      1.14104166    -0.57047494  -130.41016221     0.00000605    -0.00003993  0.14D-06  0.41D-06  6  6     6.12     0.97
   7      1.14112694    -0.57047517  -130.41016243    -0.00000023     0.00000044  0.21D-07  0.94D-07  6  1     6.99     0.97
   8      1.14116152    -0.57047343  -130.41016069     0.00000174    -0.00000482  0.41D-08  0.14D-07  6  2     7.86     0.97
   9      1.14116653    -0.57047348  -130.41016075    -0.00000006     0.00000110  0.18D-08  0.18D-08  6  3     8.74     0.97
  10      1.14116825    -0.57047379  -130.41016106    -0.00000031    -0.00000065  0.41D-09  0.25D-09  6  4     9.64     0.97
  11      1.14116729    -0.57047393  -130.41016120    -0.00000014     0.00000034  0.10D-09  0.26D-10  6  5    10.55     0.97
  12      1.14116638    -0.57047407  -130.41016134    -0.00000014     0.00000035  0.11D-10  0.67D-11  6  6    11.45     0.97
  13      1.14116585    -0.57047408  -130.41016135    -0.00000001     0.00000011  0.45D-11  0.12D-11  6  1    12.34     0.97
  14      1.14116541    -0.57047411  -130.41016137    -0.00000003     0.00000011  0.47D-12  0.41D-12  6  3    13.23     0.98
  15      1.14116524    -0.57047411  -130.41016137    -0.00000000     0.00000002  0.12D-12  0.28D-13  6  2    14.13     0.98
  16      1.14116519    -0.57047411  -130.41016138    -0.00000000     0.00000001  0.26D-13  0.61D-14  6  4    14.99     0.98
  17      1.14116517    -0.57047411  -130.41016138    -0.00000000     0.00000001  0.44D-14  0.11D-14  6  5    15.92     0.98
  18      1.14116516    -0.57047411  -130.41016138    -0.00000000     0.00000000  0.45D-15  0.29D-15  6  6    16.80     0.98
  19      1.14116517    -0.57047411  -130.41016138     0.00000000    -0.00000000  0.55D-16  0.39D-16  6  1    17.64     0.98
  20      1.14116517    -0.57047411  -130.41016138     0.00000000    -0.00000000  0.24D-17  0.83D-17  6  3    18.53     0.98
  21      1.14116517    -0.57047411  -130.41016138     0.00000000    -0.00000000  0.12D-17  0.21D-17  6  2    19.41     0.98
  22      1.14116517    -0.57047411  -130.41016138     0.00000000    -0.00000000  0.21D-18  0.75D-18  6  4    20.30     0.98
  23      1.14116517    -0.57047411  -130.41016138    -0.00000000     0.00000000  0.13D-18  0.11D-18  6  5    21.21     0.98
  24      1.14116517    -0.57047411  -130.41016138     0.00000000    -0.00000000  0.56D-20  0.14D-19  6  1    22.09     0.98
  25      1.14116517    -0.57047411  -130.41016138     0.00000000     0.00000000  0.30D-21  0.15D-20  6  6    22.97     0.98
  26      1.14116517    -0.57047411  -130.41016138    -0.00000000     0.00000000  0.12D-21  0.33D-21  6  3    23.88     0.98

 Norm of t1 vector:      0.07799392      S-energy:     0.00000000      T1 diagnostic:  0.01378751
                                                                       D1 diagnostic:  0.04408516

 Doubles amplitudes (print threshold =  0.500E-01):

         I         J         SYM. A    SYM. B    A         B      T(IJ, AB)

         8         8         2         2         1         1     -0.13447776


 Total CPU time for triples:     14.38 sec


 RESULTS
 =======

  Reference energy                   -129.839687267850

  Correlated core orbitals:             1.1       2.1
  Orbital energies:                   -20.6514  -15.7112
 
  CCSD core-core energy                -0.079233560644
  CCSD core-valence energy             -0.036065582622
  CCSD valence correlation energy      -0.455174966142
 
  CCSD singlet pair energy             -0.407999208971
  CCSD triplet pair energy             -0.162474900439
  CCSD correlation energy              -0.570474109409

  Triples (T) contribution             -0.022319531505
  Total correlation energy             -0.592793640914

  CCSD total energy                  -130.410161377259
  CCSD[T] energy                     -130.433658864614
  CCSD-T energy                      -130.432038191055
 !CCSD(T) total energy               -130.432480908763

 Timing summary (sec):

 STEP                 CPU(USER)    SYS     CPU(TOT)    WALL
 Transformation          0.84      0.16      1.00      1.00
 CCSD iterations        23.04      2.42     25.46     25.47
 Triples                14.38      0.56     14.94     14.93

 Program statistics:

 Available memory in ccsd:               994999644
 Min. memory needed in ccsd:               1368037
 Max. memory used in ccsd:                 1750502
 Max. memory used in cckext:               2014357 (26 integral passes)



 **********************************************************************************************************************************
 DATASETS  * FILE   NREC   LENGTH (MB)   RECORD NAMES
              1      20      500.20       500      610      700      900      950      970     1000      129      960     1100   
                                          VAR    BASINP    GEOM    SYMINP    ZMAT    AOBASIS   BASIS     P2S    ABASIS      S 
                                         1400     1410     1200     1210     1080     1600     1650     1300     1700     1380   
                                           T        V       H0       H01     AOSYM     SMH    MOLCAS    ERIS     OPER     JKOP   

              2       4        3.13       700     1000      520     2100   
                                         GEOM     BASIS   MCVARS     RHF  

 PROGRAMS   *        TOTAL   CCSD(T)        HF       INT
 CPU TIMES  *        46.68     38.28      4.45      3.86
 REAL TIME  *        52.13 SEC
 DISK USED  *         1.33 GB      
 **********************************************************************************************************************************

 CCSD(T)/USERDEF energy=   -130.432480908763

        CCSD(T)         HF-SCF  
   -130.43248091   -129.83968727
 **********************************************************************************************************************************
 Molpro calculation terminated
 Variable memory released
