
 Primary working directories    : /tmp/r2666/282424.maple
 Secondary working directories  : /tmp/r2666/282424.maple
 Wavefunction directory         : /ddn/home4/r2666/wfu/
 Main file repository           : /tmp/r2666/282424.maple/

 SHA1      : d5ffa45e93fdbca01ffc919aa182cfdae0147319
 NAME      : 2015.1.35
 ARCHNAME  : linux/x86_64
 FC        : /opt/intel/composer_xe_2015.1.133/bin/intel64/ifort
 BLASLIB   : -Wl,-_start-group /opt/intel/mkl/lib/intel64/libmkl_intel_ilp64.a /opt/intel/mkl/lib/intel64/libmkl_intel_thread.a /opt/intel/mkl/lib/intel64/libmkl_core.a -Wl,-_end-group
 id        : olemiss

 Nodes     nprocs
 cn087        1

 Using customized tuning parameters: mindgm=1; mindgv=20; mindgc=4; mindgr=1; noblas=0; minvec=7
 default implementation of scratch files=df  

 ***,hno CCSD(T)/TZ-F12 QFF
 memory, 995, m;
 gthresh,energy=1.d-12,zero=1.d-22,oneint=1.d-22,twoint=1.d-22;
 gthresh,optgrad=1.d-8,optstep=1.d-8;
 nocompress;
 geomtyp=xyz
 bohr
 geometry={
 3
         63        63
 H        0.0000000000        1.6661752425       -1.9184816923
 N        0.0000000000       -0.1683408953       -1.1523755903
 O        0.0000000000        0.0439334428        1.1202676917
 }
 
 basis={
 default=aug-cc-pvtz
 s,C,8236.0,1235.0,280.8, 79.27,25.59, 8.997,3.319
 s,C,0.9059,0.3643,0.1285000
 p,C,56.0,18.71,4.133,0.2827,0.3827,0.1209
 d,C,30.0,10.0,3.3,1.097,0.318
 f,C,7.0,2.3,0.7610
 s,N,11420.0,1712.0,389.3,110.0,35.57,12.54,4.644
 s,N,1.293,0.5118,0.1787
 p,N,79.89,26.63,5.948,1.742,0.555,0.1725
 d,N,45.0,15.0,5.0,1.654,0.469
 f,N,9.9,3.3,1.093
 s,O,15330.0,2299.0,522.4,147.3,47.55,16.76,6.207
 s,O,1.752,0.6882,0.2384
 p,O,103.5,34.46,7.749,2.28,0.7156,0.214
 d,O,63.0,21.0,7.0,2.314,0.645
 f,O,12.9,4.3,1.428
 s,mg,164900.0,24710.0,5628.0,1596.0,521.0;
 s,mg,188.0,73.01,29.90,12.54,4.306,1.826;
 s,mg,0.7417,0.0761,0.145,0.033,0.0129;
 p,mg,950.70,316.90,74.86,23.72,8.669,3.363;
 p,mg,1.310,0.4911,0.2364,0.08733,0.03237,0.00745;
 d,mg,1.601,0.686,0.126,0.294,0.0468;
 f,mg,1.372,0.588,0.094,0.252;
 }
   {hf,maxit=500;accu,20;}
 {ccsd(t),nocheck,maxit=250;orbital,IGNORE_ERROR;core}

 Variables initialized (889), CPU time= 0.01 sec
 Commands  initialized (702), CPU time= 0.00 sec, 572 directives.
 Default parameters read. Elapsed time= 0.04 sec

 Checking input...
 Passed
1


                                         ***  PROGRAM SYSTEM MOLPRO  ***
                                       Copyright, TTI GmbH Stuttgart, 2015
                                    Version 2015.1 linked Jul  9 2018 13:16:40


 **********************************************************************************************************************************
 LABEL *   hno CCSD(T)/TZ-F12 QFF                                                        
  64 bit serial version                                                                  DATE: 04-Mar-20          TIME: 13:49:43  
 **********************************************************************************************************************************

 SHA1:             d5ffa45e93fdbca01ffc919aa182cfdae0147319
 **********************************************************************************************************************************

 THRESHOLDS:

 ZERO    =  1.00D-22  ONEINT  =  1.00D-22  TWOINT  =  1.00D-22  PREFAC  =  1.00D-14  LOCALI  =  1.00D-09  EORDER  =  1.00D-04
 ENERGY  =  1.00D-12  ETEST   =  0.00D+00  EDENS   =  0.00D+00  THRDEDEF=  1.00D-06  GRADIENT=  1.00D-02  STEP    =  1.00D-03
 ORBITAL =  1.00D-05  CIVEC   =  1.00D-05  COEFF   =  1.00D-04  PRINTCI =  5.00D-02  PUNCHCI =  9.90D+01  OPTGRAD =  3.00D-04
 OPTENERG=  1.00D-06  OPTSTEP =  3.00D-04  THRGRAD =  1.00D-10  COMPRESS=  1.00D-11  VARMIN  =  1.00D-07  VARMAX  =  1.00D-03
 THRDOUB =  0.00D+00  THRDIV  =  1.00D-05  THRRED  =  1.00D-07  THRPSP  =  1.00D+00  THRDC   =  1.00D-10  THRCS   =  1.00D-10
 THRNRM  =  1.00D-08  THREQ   =  0.00D+00  THRDE   =  1.00D+00  THRREF  =  1.00D-05  SPARFAC =  1.00D+00  THRDLP  =  1.00D-07
 THRDIA  =  1.00D-10  THRDLS  =  1.00D-07  THRGPS  =  0.00D+00  THRKEX  =  0.00D+00  THRDIS  =  2.00D-01  THRVAR  =  1.00D-10
 THRLOC  =  1.00D-06  THRGAP  =  1.00D-06  THRLOCT = -1.00D+00  THRGAPT = -1.00D+00  THRORB  =  1.00D-06  THRMLTP =  0.00D+00
 THRCPQCI=  1.00D-10  KEXTA   =  0.00D+00  THRCOARS=  0.00D+00  SYMTOL  =  1.00D-06  GRADTOL =  1.00D-06  THROVL  =  1.00D-08
 THRORTH =  1.00D-08  GRID    =  1.00D-06  GRIDMAX =  1.00D-03  DTMAX   =  0.00D+00  THROCCDE=  1.00D-01  THROCCDE=  1.00D-01



 THRESHOLDS:

 ZERO    =  1.00D-22  ONEINT  =  1.00D-22  TWOINT  =  1.00D-22  PREFAC  =  1.00D-14  LOCALI  =  1.00D-09  EORDER  =  1.00D-04
 ENERGY  =  1.00D-12  ETEST   =  0.00D+00  EDENS   =  0.00D+00  THRDEDEF=  1.00D-06  GRADIENT=  1.00D-02  STEP    =  1.00D-03
 ORBITAL =  1.00D-05  CIVEC   =  1.00D-05  COEFF   =  1.00D-04  PRINTCI =  5.00D-02  PUNCHCI =  9.90D+01  OPTGRAD =  1.00D-08
 OPTENERG=  1.00D-06  OPTSTEP =  1.00D-08  THRGRAD =  1.00D-10  COMPRESS=  1.00D-11  VARMIN  =  1.00D-07  VARMAX  =  1.00D-03
 THRDOUB =  0.00D+00  THRDIV  =  1.00D-05  THRRED  =  1.00D-07  THRPSP  =  1.00D+00  THRDC   =  1.00D-10  THRCS   =  1.00D-10
 THRNRM  =  1.00D-08  THREQ   =  0.00D+00  THRDE   =  1.00D+00  THRREF  =  1.00D-05  SPARFAC =  1.00D+00  THRDLP  =  1.00D-07
 THRDIA  =  1.00D-10  THRDLS  =  1.00D-07  THRGPS  =  0.00D+00  THRKEX  =  0.00D+00  THRDIS  =  2.00D-01  THRVAR  =  1.00D-10
 THRLOC  =  1.00D-06  THRGAP  =  1.00D-06  THRLOCT = -1.00D+00  THRGAPT = -1.00D+00  THRORB  =  1.00D-06  THRMLTP =  0.00D+00
 THRCPQCI=  1.00D-10  KEXTA   =  0.00D+00  THRCOARS=  0.00D+00  SYMTOL  =  1.00D-06  GRADTOL =  1.00D-06  THROVL  =  1.00D-08
 THRORTH =  1.00D-08  GRID    =  1.00D-06  GRIDMAX =  1.00D-03  DTMAX   =  0.00D+00  THROCCDE=  1.00D-01  THROCCDE=  1.00D-01



 Input parameters for SORTINT:

 COMPRESS =    0.000000
 C_FINAL  =    1.000000
 DEBUG    =   -1.000000
 C_SORT1  =    0.000000
 C_SEWARD =    0.000000
 THRESH   =    0.000000
 IO       =  molpro                                                          
 SPRI     =    0.000000
 SETTING GEOMTYP        =    XYZ
 ZUNIT=BOHR
 

 Variable memory set to  995000000 words,  buffer space   230000 words

 SETTING BASIS          =    USERDEF


 Recomputing integrals since basis changed


 Using spherical harmonics

 Library entry H      S aug-cc-pVTZ          selected for orbital group  1
 Library entry H      P aug-cc-pVTZ          selected for orbital group  1
 Library entry H      D aug-cc-pVTZ          selected for orbital group  1


 PROGRAM * SEWARD (Integral evaluation for generally contracted gaussian basis sets)     Author: Roland Lindh, 1990

 Geometry written to block  1 of record 700


 Point group  Cs  



 ATOMIC COORDINATES

 NR  ATOM    CHARGE       X              Y              Z

   1  H       1.00    0.000000000    1.666175243   -1.918481692
   2  N       7.00    0.000000000   -0.168340895   -1.152375590
   3  O       8.00    0.000000000    0.043933443    1.120267692

 Bond lengths in Bohr (Angstrom)

 1-2  1.988056342  2-3  2.282535406
     ( 1.052034110)     ( 1.207865720)

 Bond angles

  1-2-3  107.32955679

 NUCLEAR CHARGE:                   16
 NUMBER OF PRIMITIVE AOS:         203
 NUMBER OF SYMMETRY AOS:          173
 NUMBER OF CONTRACTIONS:          171   ( 114A'  +  57A"  )
 NUMBER OF CORE ORBITALS:           2   (   2A'  +   0A"  )
 NUMBER OF VALENCE ORBITALS:        9   (   7A'  +   2A"  )


 NUCLEAR REPULSION ENERGY   30.37758493


 Eigenvalues of metric

         1 0.104E-02 0.249E-02 0.333E-02 0.635E-02 0.986E-02 0.137E-01 0.145E-01 0.230E-01
         2 0.364E-01 0.532E-01 0.702E-01 0.940E-01 0.131E+00 0.134E+00 0.140E+00 0.142E+00


 Contracted 2-electron integrals neglected if value below      1.0D-22

       46154584. INTEGRALS WRITTEN OUT IN   11271 BLOCKS ON RECORD 1290 OF FILE 1


 NUMBER OF SORTED TWO-ELECTRON INTEGRALS:   55360566.     BUFFER LENGTH:  32768
 NUMBER OF SEGMENTS:   4  SEGMENT LENGTH:   15997996      RECORD LENGTH: 524288

 Memory used in sort:      16.56 MW

 SORT1 READ    46154584. AND WROTE    46592104. INTEGRALS IN    136 RECORDS. CPU TIME:     0.76 SEC, REAL TIME:     1.03 SEC
 SORT2 READ    46592104. AND WROTE    55360566. INTEGRALS IN      4 RECORDS. CPU TIME:     0.62 SEC, REAL TIME:     0.86 SEC

 FILE SIZES:   FILE 1:   759.4 MBYTE,  FILE 4:   570.5 MBYTE,   TOTAL:   1329.8 MBYTE

 OPERATOR DM      FOR CENTER  0  COORDINATES:    0.000000    0.000000    0.000000


 **********************************************************************************************************************************
 DATASETS  * FILE   NREC   LENGTH (MB)   RECORD NAMES
              1      19      421.31       500      610      700      900      950      970     1000      129      960     1100   
                                          VAR    BASINP    GEOM    SYMINP    ZMAT    AOBASIS   BASIS     P2S    ABASIS      S 
                                         1400     1410     1200     1210     1080     1600     1650     1300     1700   
                                           T        V       H0       H01     AOSYM     SMH    MOLCAS    ERIS     OPER   

 PROGRAMS   *        TOTAL       INT
 CPU TIMES  *         4.01      3.91
 REAL TIME  *         5.43 SEC
 DISK USED  *         1.33 GB      
 **********************************************************************************************************************************


 PROGRAM * RHF-SCF (CLOSED SHELL)       Authors: W. Meyer, H.-J. Werner


 NUMBER OF ELECTRONS:       8+    8-
 CONVERGENCE THRESHOLDS:    1.00E-10 (Density)    1.00E-13 (Energy)
 MAX. NUMBER OF ITERATIONS:      500
 INTERPOLATION TYPE:            DIIS
 INTERPOLATION STEPS:              2 (START)      1 (STEP)
 LEVEL SHIFTS:                  0.00 (CLOSED)  0.00 (OPEN) 



 Orbital guess generated from atomic densities. Full valence occupancy:    9   2

 Molecular orbital dump at record        2100.2

 Initial occupancy:   7   1

 ITERATION    DDIFF          GRAD             ENERGY        2-EL.EN.            DIPOLE MOMENTS         DIIS   ORB.
    1      0.000D+00      0.000D+00      -129.78917833    154.080411    0.00000    0.56206   -1.01135    0    start
    2      0.000D+00      0.879D-02      -129.81611265    155.250954    0.00000    0.59791   -0.19275    1    diag
    3      0.364D-02      0.669D-02      -129.83894789    155.372415    0.00000    0.54297   -0.58015    2    diag
    4      0.142D-02      0.104D-02      -129.83972886    155.098309    0.00000    0.55150   -0.51804    3    diag
    5      0.330D-03      0.338D-03      -129.83984952    155.186110    0.00000    0.55745   -0.52039    4    diag
    6      0.153D-03      0.992D-04      -129.83986925    155.169998    0.00000    0.55800   -0.51626    5    diag
    7      0.607D-04      0.497D-04      -129.83987506    155.172539    0.00000    0.55933   -0.51374    6    diag
    8      0.412D-04      0.170D-04      -129.83987569    155.171706    0.00000    0.55938   -0.51283    7    diag
    9      0.143D-04      0.316D-05      -129.83987571    155.171595    0.00000    0.55933   -0.51265    8    diag
   10      0.290D-05      0.716D-06      -129.83987571    155.171581    0.00000    0.55930   -0.51262    9    orth
   11      0.859D-06      0.143D-06      -129.83987572    155.171577    0.00000    0.55929   -0.51262    9    diag
   12      0.204D-06      0.298D-07      -129.83987572    155.171577    0.00000    0.55929   -0.51262    9    diag
   13      0.502D-07      0.788D-08      -129.83987572    155.171576    0.00000    0.55929   -0.51262    9    diag
   14      0.115D-07      0.139D-08      -129.83987572    155.171576    0.00000    0.55929   -0.51262    9    diag
   15      0.147D-08      0.374D-09      -129.83987572    155.171576    0.00000    0.55929   -0.51262    9    diag
   16      0.328D-09      0.111D-09      -129.83987572    155.171576    0.00000    0.55929   -0.51262    9    diag
   17      0.779D-10      0.311D-10      -129.83987572    155.171576    0.00000    0.55929   -0.51262    9    diag
   18      0.245D-10      0.104D-10      -129.83987572    155.171576    0.00000    0.55929   -0.51262    0    orth

 Final occupancy:   7   1

 !RHF STATE 1.1 Energy               -129.839875715028
 Nuclear energy                        30.37758493
 One-electron energy                 -237.80324883
 Two-electron energy                   77.58578818
 Virial quotient                       -1.00160541
 !RHF STATE 1.1 Dipole moment           0.00000000     0.55928584    -0.51261664
 Dipole moment /Debye                   0.00000000     1.42146969    -1.30285621

 Orbital energies:

         1.1          2.1          3.1          4.1          5.1          6.1          7.1          8.1          9.1
    -20.651068   -15.710753    -1.528581    -0.992368    -0.745288    -0.664103    -0.429296     0.039798     0.192873

         1.2          2.2          3.2
     -0.594379     0.079327     0.239454

 HOMO      7.1    -0.429296 =     -11.6817eV
 LUMO      8.1     0.039798 =       1.0830eV
 LUMO-HOMO         0.469094 =      12.7647eV


 **********************************************************************************************************************************
 DATASETS  * FILE   NREC   LENGTH (MB)   RECORD NAMES
              1      19      421.31       500      610      700      900      950      970     1000      129      960     1100   
                                          VAR    BASINP    GEOM    SYMINP    ZMAT    AOBASIS   BASIS     P2S    ABASIS      S 
                                         1400     1410     1200     1210     1080     1600     1650     1300     1700   
                                           T        V       H0       H01     AOSYM     SMH    MOLCAS    ERIS     OPER   

              2       4        3.13       700     1000      520     2100   
                                         GEOM     BASIS   MCVARS     RHF  

 PROGRAMS   *        TOTAL        HF       INT
 CPU TIMES  *         8.41      4.40      3.91
 REAL TIME  *        10.92 SEC
 DISK USED  *         1.33 GB      
 **********************************************************************************************************************************


 PROGRAM * CCSD (Closed-shell coupled cluster)     Authors: C. Hampel, H.-J. Werner, 1991, M. Deegan, P.J. Knowles, 1992


 Convergence thresholds:  THRVAR = 1.00D-08  THRDEN = 1.00D-12

 CCSD(T)     terms to be evaluated (factor= 1.000)


 Number of closed-shell orbitals:   8 (   7   1 )
 Number of external orbitals:     163 ( 107  56 )

 Molecular orbitals read from record     2100.2  Type=RHF/CANONICAL (state 1.1)

 Number of N-1 electron functions:               8
 Number of N-2 electron functions:              36
 Number of singly external CSFs:               805
 Number of doubly external CSFs:            449165
 Total number of CSFs:                      449971

 Length of J-op  integral file:               0.00 MB
 Length of K-op  integral file:               1.15 MB
 Length of 3-ext integral record:             0.00 MB

 Memory could be reduced to 24.90 Mwords without degradation in triples

 Integral transformation finished. Total CPU:   0.82 sec, npass=  1  Memory used:   6.89 MW

 Reference energy:                   -129.83987572

 MP2 singlet pair energy:              -0.37892648
 MP2 triplet pair energy:              -0.18662389
 MP2 correlation energy:               -0.56555038
 MP2 total energy:                   -130.40542609

 SCS-MP2 correlation energy:           -0.57083331   (PS=  1.200000  PT=  0.333333)
 SCS-MP2 total energy:               -130.41070903

 ITER.      SQ.NORM     CORR.ENERGY   TOTAL ENERGY   ENERGY CHANGE        DEN1      VAR(S)    VAR(P)  DIIS     TIME  TIME/IT
   1      1.11973359    -0.57028106  -130.41015677    -0.00473068     0.01295242  0.34D-02  0.31D-02  1  1     1.74     0.95
   2      1.13059073    -0.56998686  -130.40986257     0.00029420    -0.01369696  0.90D-04  0.50D-03  2  2     2.64     0.97
   3      1.13582172    -0.57031073  -130.41018645    -0.00032388    -0.00235578  0.54D-04  0.68D-04  3  3     3.55     0.98
   4      1.13924263    -0.57030289  -130.41017860     0.00000785    -0.00138309  0.44D-05  0.96D-05  4  4     4.45     0.98
   5      1.14028236    -0.57032718  -130.41020290    -0.00002430    -0.00024518  0.16D-05  0.18D-05  5  5     5.41     0.99
   6      1.14068480    -0.57032128  -130.41019699     0.00000590    -0.00003880  0.14D-06  0.41D-06  6  6     6.36     1.00
   7      1.14076705    -0.57032155  -130.41019726    -0.00000027     0.00000055  0.20D-07  0.92D-07  6  1     7.25     1.00
   8      1.14080055    -0.57031982  -130.41019553     0.00000173    -0.00000471  0.40D-08  0.13D-07  6  2     8.14     1.00
   9      1.14080517    -0.57031991  -130.41019563    -0.00000010     0.00000112  0.17D-08  0.17D-08  6  3     9.04     1.00
  10      1.14080680    -0.57032021  -130.41019593    -0.00000030    -0.00000063  0.39D-09  0.24D-09  6  4     9.97     1.00
  11      1.14080586    -0.57032035  -130.41019606    -0.00000013     0.00000033  0.96D-10  0.24D-10  6  5    10.91     1.00
  12      1.14080501    -0.57032048  -130.41019619    -0.00000013     0.00000033  0.98D-11  0.62D-11  6  6    11.79     1.00
  13      1.14080451    -0.57032049  -130.41019620    -0.00000001     0.00000010  0.40D-11  0.11D-11  6  1    12.72     1.00
  14      1.14080410    -0.57032051  -130.41019623    -0.00000003     0.00000010  0.42D-12  0.37D-12  6  3    13.65     1.00
  15      1.14080394    -0.57032051  -130.41019623    -0.00000000     0.00000002  0.11D-12  0.26D-13  6  2    14.58     1.01
  16      1.14080388    -0.57032051  -130.41019623    -0.00000000     0.00000001  0.23D-13  0.56D-14  6  4    15.52     1.01
  17      1.14080386    -0.57032051  -130.41019623    -0.00000000     0.00000001  0.41D-14  0.10D-14  6  5    16.43     1.01
  18      1.14080386    -0.57032051  -130.41019623    -0.00000000     0.00000000  0.43D-15  0.27D-15  6  6    17.35     1.01
  19      1.14080386    -0.57032051  -130.41019623     0.00000000    -0.00000000  0.52D-16  0.38D-16  6  1    18.26     1.01
  20      1.14080386    -0.57032051  -130.41019623     0.00000000    -0.00000000  0.21D-17  0.82D-17  6  3    19.23     1.01
  21      1.14080386    -0.57032051  -130.41019623     0.00000000    -0.00000000  0.11D-17  0.21D-17  6  2    20.14     1.01
  22      1.14080387    -0.57032051  -130.41019623     0.00000000    -0.00000000  0.21D-18  0.74D-18  6  4    21.07     1.01
  23      1.14080386    -0.57032051  -130.41019623    -0.00000000     0.00000000  0.12D-18  0.11D-18  6  5    22.00     1.01
  24      1.14080387    -0.57032051  -130.41019623     0.00000000    -0.00000000  0.53D-20  0.13D-19  6  1    22.92     1.02
  25      1.14080387    -0.57032051  -130.41019623     0.00000000     0.00000000  0.30D-21  0.13D-20  6  6    23.84     1.02
  26      1.14080387    -0.57032051  -130.41019623    -0.00000000     0.00000000  0.97D-22  0.29D-21  6  3    24.75     1.02

 Norm of t1 vector:      0.07743385      S-energy:     0.00000000      T1 diagnostic:  0.01368850
                                                                       D1 diagnostic:  0.04396843

 Doubles amplitudes (print threshold =  0.500E-01):

         I         J         SYM. A    SYM. B    A         B      T(IJ, AB)

         8         8         2         2         1         1     -0.13469105


 Total CPU time for triples:     16.10 sec


 RESULTS
 =======

  Reference energy                   -129.839875715028

  Correlated core orbitals:             1.1       2.1
  Orbital energies:                   -20.6511  -15.7108
 
  CCSD core-core energy                -0.079231554536
  CCSD core-valence energy             -0.036076650013
  CCSD valence correlation energy      -0.455012309980
 
  CCSD singlet pair energy             -0.407857566139
  CCSD triplet pair energy             -0.162462948392
  CCSD correlation energy              -0.570320514529

  Triples (T) contribution             -0.022273983241
  Total correlation energy             -0.592594497770

  CCSD total energy                  -130.410196229557
  CCSD[T] energy                     -130.433636733996
  CCSD-T energy                      -130.432031053872
 !CCSD(T) total energy               -130.432470212798

 Timing summary (sec):

 STEP                 CPU(USER)    SYS     CPU(TOT)    WALL
 Transformation          0.85      0.16      1.01      1.02
 CCSD iterations        23.91      2.54     26.45     26.46
 Triples                16.10      0.53     16.63     16.63

 Program statistics:

 Available memory in ccsd:               994999644
 Min. memory needed in ccsd:               1368037
 Max. memory used in ccsd:                 1750502
 Max. memory used in cckext:               2014357 (26 integral passes)



 **********************************************************************************************************************************
 DATASETS  * FILE   NREC   LENGTH (MB)   RECORD NAMES
              1      20      500.23       500      610      700      900      950      970     1000      129      960     1100   
                                          VAR    BASINP    GEOM    SYMINP    ZMAT    AOBASIS   BASIS     P2S    ABASIS      S 
                                         1400     1410     1200     1210     1080     1600     1650     1300     1700     1380   
                                           T        V       H0       H01     AOSYM     SMH    MOLCAS    ERIS     OPER     JKOP   

              2       4        3.13       700     1000      520     2100   
                                         GEOM     BASIS   MCVARS     RHF  

 PROGRAMS   *        TOTAL   CCSD(T)        HF       INT
 CPU TIMES  *        49.29     40.87      4.40      3.91
 REAL TIME  *        55.06 SEC
 DISK USED  *         1.33 GB      
 **********************************************************************************************************************************

 CCSD(T)/USERDEF energy=   -130.432470212798

        CCSD(T)         HF-SCF  
   -130.43247021   -129.83987572
 **********************************************************************************************************************************
 Molpro calculation terminated
 Variable memory released
