
 Primary working directories    : /tmp/r2666/282367.maple
 Secondary working directories  : /tmp/r2666/282367.maple
 Wavefunction directory         : /ddn/home4/r2666/wfu/
 Main file repository           : /tmp/r2666/282367.maple/

 SHA1      : d5ffa45e93fdbca01ffc919aa182cfdae0147319
 NAME      : 2015.1.35
 ARCHNAME  : linux/x86_64
 FC        : /opt/intel/composer_xe_2015.1.133/bin/intel64/ifort
 BLASLIB   : -Wl,-_start-group /opt/intel/mkl/lib/intel64/libmkl_intel_ilp64.a /opt/intel/mkl/lib/intel64/libmkl_intel_thread.a /opt/intel/mkl/lib/intel64/libmkl_core.a -Wl,-_end-group
 id        : olemiss

 Nodes     nprocs
 cn063        1

 Using customized tuning parameters: mindgm=1; mindgv=20; mindgc=4; mindgr=1; noblas=0; minvec=7
 default implementation of scratch files=df  

 ***,hno CCSD(T)/TZ-F12 QFF
 memory, 995, m;
 gthresh,energy=1.d-12,zero=1.d-22,oneint=1.d-22,twoint=1.d-22;
 gthresh,optgrad=1.d-8,optstep=1.d-8;
 nocompress;
 geomtyp=xyz
 bohr
 geometry={
 3
          6         6
 H        0.0000000000        1.6534001358       -1.9219510022
 N        0.0000000000       -0.1486380909       -1.1518060249
 O        0.0000000000        0.0370057451        1.1231674361
 }
 
 basis={
 default=aug-cc-pvtz
 s,C,8236.0,1235.0,280.8, 79.27,25.59, 8.997,3.319
 s,C,0.9059,0.3643,0.1285000
 p,C,56.0,18.71,4.133,0.2827,0.3827,0.1209
 d,C,30.0,10.0,3.3,1.097,0.318
 f,C,7.0,2.3,0.7610
 s,N,11420.0,1712.0,389.3,110.0,35.57,12.54,4.644
 s,N,1.293,0.5118,0.1787
 p,N,79.89,26.63,5.948,1.742,0.555,0.1725
 d,N,45.0,15.0,5.0,1.654,0.469
 f,N,9.9,3.3,1.093
 s,O,15330.0,2299.0,522.4,147.3,47.55,16.76,6.207
 s,O,1.752,0.6882,0.2384
 p,O,103.5,34.46,7.749,2.28,0.7156,0.214
 d,O,63.0,21.0,7.0,2.314,0.645
 f,O,12.9,4.3,1.428
 s,mg,164900.0,24710.0,5628.0,1596.0,521.0;
 s,mg,188.0,73.01,29.90,12.54,4.306,1.826;
 s,mg,0.7417,0.0761,0.145,0.033,0.0129;
 p,mg,950.70,316.90,74.86,23.72,8.669,3.363;
 p,mg,1.310,0.4911,0.2364,0.08733,0.03237,0.00745;
 d,mg,1.601,0.686,0.126,0.294,0.0468;
 f,mg,1.372,0.588,0.094,0.252;
 }
   {hf,maxit=500;accu,20;}
 {ccsd(t),nocheck,maxit=250;orbital,IGNORE_ERROR;core}

 Variables initialized (889), CPU time= 0.01 sec
 Commands  initialized (702), CPU time= 0.00 sec, 572 directives.
 Default parameters read. Elapsed time= 0.05 sec

 Checking input...
 Passed
1


                                         ***  PROGRAM SYSTEM MOLPRO  ***
                                       Copyright, TTI GmbH Stuttgart, 2015
                                    Version 2015.1 linked Jul  9 2018 13:16:40


 **********************************************************************************************************************************
 LABEL *   hno CCSD(T)/TZ-F12 QFF                                                        
  64 bit serial version                                                                  DATE: 04-Mar-20          TIME: 13:48:44  
 **********************************************************************************************************************************

 SHA1:             d5ffa45e93fdbca01ffc919aa182cfdae0147319
 **********************************************************************************************************************************

 THRESHOLDS:

 ZERO    =  1.00D-22  ONEINT  =  1.00D-22  TWOINT  =  1.00D-22  PREFAC  =  1.00D-14  LOCALI  =  1.00D-09  EORDER  =  1.00D-04
 ENERGY  =  1.00D-12  ETEST   =  0.00D+00  EDENS   =  0.00D+00  THRDEDEF=  1.00D-06  GRADIENT=  1.00D-02  STEP    =  1.00D-03
 ORBITAL =  1.00D-05  CIVEC   =  1.00D-05  COEFF   =  1.00D-04  PRINTCI =  5.00D-02  PUNCHCI =  9.90D+01  OPTGRAD =  3.00D-04
 OPTENERG=  1.00D-06  OPTSTEP =  3.00D-04  THRGRAD =  1.00D-10  COMPRESS=  1.00D-11  VARMIN  =  1.00D-07  VARMAX  =  1.00D-03
 THRDOUB =  0.00D+00  THRDIV  =  1.00D-05  THRRED  =  1.00D-07  THRPSP  =  1.00D+00  THRDC   =  1.00D-10  THRCS   =  1.00D-10
 THRNRM  =  1.00D-08  THREQ   =  0.00D+00  THRDE   =  1.00D+00  THRREF  =  1.00D-05  SPARFAC =  1.00D+00  THRDLP  =  1.00D-07
 THRDIA  =  1.00D-10  THRDLS  =  1.00D-07  THRGPS  =  0.00D+00  THRKEX  =  0.00D+00  THRDIS  =  2.00D-01  THRVAR  =  1.00D-10
 THRLOC  =  1.00D-06  THRGAP  =  1.00D-06  THRLOCT = -1.00D+00  THRGAPT = -1.00D+00  THRORB  =  1.00D-06  THRMLTP =  0.00D+00
 THRCPQCI=  1.00D-10  KEXTA   =  0.00D+00  THRCOARS=  0.00D+00  SYMTOL  =  1.00D-06  GRADTOL =  1.00D-06  THROVL  =  1.00D-08
 THRORTH =  1.00D-08  GRID    =  1.00D-06  GRIDMAX =  1.00D-03  DTMAX   =  0.00D+00  THROCCDE=  1.00D-01  THROCCDE=  1.00D-01



 THRESHOLDS:

 ZERO    =  1.00D-22  ONEINT  =  1.00D-22  TWOINT  =  1.00D-22  PREFAC  =  1.00D-14  LOCALI  =  1.00D-09  EORDER  =  1.00D-04
 ENERGY  =  1.00D-12  ETEST   =  0.00D+00  EDENS   =  0.00D+00  THRDEDEF=  1.00D-06  GRADIENT=  1.00D-02  STEP    =  1.00D-03
 ORBITAL =  1.00D-05  CIVEC   =  1.00D-05  COEFF   =  1.00D-04  PRINTCI =  5.00D-02  PUNCHCI =  9.90D+01  OPTGRAD =  1.00D-08
 OPTENERG=  1.00D-06  OPTSTEP =  1.00D-08  THRGRAD =  1.00D-10  COMPRESS=  1.00D-11  VARMIN  =  1.00D-07  VARMAX  =  1.00D-03
 THRDOUB =  0.00D+00  THRDIV  =  1.00D-05  THRRED  =  1.00D-07  THRPSP  =  1.00D+00  THRDC   =  1.00D-10  THRCS   =  1.00D-10
 THRNRM  =  1.00D-08  THREQ   =  0.00D+00  THRDE   =  1.00D+00  THRREF  =  1.00D-05  SPARFAC =  1.00D+00  THRDLP  =  1.00D-07
 THRDIA  =  1.00D-10  THRDLS  =  1.00D-07  THRGPS  =  0.00D+00  THRKEX  =  0.00D+00  THRDIS  =  2.00D-01  THRVAR  =  1.00D-10
 THRLOC  =  1.00D-06  THRGAP  =  1.00D-06  THRLOCT = -1.00D+00  THRGAPT = -1.00D+00  THRORB  =  1.00D-06  THRMLTP =  0.00D+00
 THRCPQCI=  1.00D-10  KEXTA   =  0.00D+00  THRCOARS=  0.00D+00  SYMTOL  =  1.00D-06  GRADTOL =  1.00D-06  THROVL  =  1.00D-08
 THRORTH =  1.00D-08  GRID    =  1.00D-06  GRIDMAX =  1.00D-03  DTMAX   =  0.00D+00  THROCCDE=  1.00D-01  THROCCDE=  1.00D-01



 Input parameters for SORTINT:

 COMPRESS =    0.000000
 C_FINAL  =    1.000000
 DEBUG    =   -1.000000
 C_SORT1  =    0.000000
 C_SEWARD =    0.000000
 THRESH   =    0.000000
 IO       =  molpro                                                          
 SPRI     =    0.000000
 SETTING GEOMTYP        =    XYZ
 ZUNIT=BOHR
 

 Variable memory set to  995000000 words,  buffer space   230000 words

 SETTING BASIS          =    USERDEF


 Recomputing integrals since basis changed


 Using spherical harmonics

 Library entry H      S aug-cc-pVTZ          selected for orbital group  1
 Library entry H      P aug-cc-pVTZ          selected for orbital group  1
 Library entry H      D aug-cc-pVTZ          selected for orbital group  1


 PROGRAM * SEWARD (Integral evaluation for generally contracted gaussian basis sets)     Author: Roland Lindh, 1990

 Geometry written to block  1 of record 700


 Point group  Cs  



 ATOMIC COORDINATES

 NR  ATOM    CHARGE       X              Y              Z

   1  H       1.00    0.000000000    1.653400136   -1.921951002
   2  N       7.00    0.000000000   -0.148638091   -1.151806025
   3  O       8.00    0.000000000    0.037005745    1.123167436

 Bond lengths in Bohr (Angstrom)

 1-2  1.959710452  2-3  2.282535407
     ( 1.037034111)     ( 1.207865720)

 Bond angles

  1-2-3  108.47547239

 NUCLEAR CHARGE:                   16
 NUMBER OF PRIMITIVE AOS:         203
 NUMBER OF SYMMETRY AOS:          173
 NUMBER OF CONTRACTIONS:          171   ( 114A'  +  57A"  )
 NUMBER OF CORE ORBITALS:           2   (   2A'  +   0A"  )
 NUMBER OF VALENCE ORBITALS:        9   (   7A'  +   2A"  )


 NUCLEAR REPULSION ENERGY   30.42657787


 Eigenvalues of metric

         1 0.101E-02 0.248E-02 0.327E-02 0.625E-02 0.936E-02 0.136E-01 0.144E-01 0.224E-01
         2 0.345E-01 0.529E-01 0.687E-01 0.941E-01 0.131E+00 0.134E+00 0.139E+00 0.142E+00


 Contracted 2-electron integrals neglected if value below      1.0D-22

       46150744. INTEGRALS WRITTEN OUT IN   11271 BLOCKS ON RECORD 1290 OF FILE 1


 NUMBER OF SORTED TWO-ELECTRON INTEGRALS:   55360566.     BUFFER LENGTH:  32768
 NUMBER OF SEGMENTS:   4  SEGMENT LENGTH:   15997996      RECORD LENGTH: 524288

 Memory used in sort:      16.56 MW

 SORT1 READ    46150744. AND WROTE    46588223. INTEGRALS IN    136 RECORDS. CPU TIME:     1.29 SEC, REAL TIME:     1.62 SEC
 SORT2 READ    46588223. AND WROTE    55360566. INTEGRALS IN      4 RECORDS. CPU TIME:     0.73 SEC, REAL TIME:     1.00 SEC

 FILE SIZES:   FILE 1:   759.4 MBYTE,  FILE 4:   570.5 MBYTE,   TOTAL:   1329.8 MBYTE

 OPERATOR DM      FOR CENTER  0  COORDINATES:    0.000000    0.000000    0.000000


 **********************************************************************************************************************************
 DATASETS  * FILE   NREC   LENGTH (MB)   RECORD NAMES
              1      19      421.28       500      610      700      900      950      970     1000      129      960     1100   
                                          VAR    BASINP    GEOM    SYMINP    ZMAT    AOBASIS   BASIS     P2S    ABASIS      S 
                                         1400     1410     1200     1210     1080     1600     1650     1300     1700   
                                           T        V       H0       H01     AOSYM     SMH    MOLCAS    ERIS     OPER   

 PROGRAMS   *        TOTAL       INT
 CPU TIMES  *         5.69      5.60
 REAL TIME  *         7.33 SEC
 DISK USED  *         1.33 GB      
 **********************************************************************************************************************************


 PROGRAM * RHF-SCF (CLOSED SHELL)       Authors: W. Meyer, H.-J. Werner


 NUMBER OF ELECTRONS:       8+    8-
 CONVERGENCE THRESHOLDS:    1.00E-10 (Density)    1.00E-13 (Energy)
 MAX. NUMBER OF ITERATIONS:      500
 INTERPOLATION TYPE:            DIIS
 INTERPOLATION STEPS:              2 (START)      1 (STEP)
 LEVEL SHIFTS:                  0.00 (CLOSED)  0.00 (OPEN) 



 Orbital guess generated from atomic densities. Full valence occupancy:    9   2

 Molecular orbital dump at record        2100.2

 Initial occupancy:   7   1

 ITERATION    DDIFF          GRAD             ENERGY        2-EL.EN.            DIPOLE MOMENTS         DIIS   ORB.
    1      0.000D+00      0.000D+00      -129.79041594    154.173210    0.00000    0.58166   -1.01174    0    start
    2      0.000D+00      0.872D-02      -129.81733555    155.332504    0.00000    0.59889   -0.20367    1    diag
    3      0.367D-02      0.657D-02      -129.83938563    155.456524    0.00000    0.55284   -0.58610    2    diag
    4      0.140D-02      0.104D-02      -129.84016712    155.183934    0.00000    0.56088   -0.52361    3    diag
    5      0.334D-03      0.335D-03      -129.84028459    155.270859    0.00000    0.56672   -0.52596    4    diag
    6      0.153D-03      0.973D-04      -129.84030355    155.254982    0.00000    0.56729   -0.52189    5    diag
    7      0.603D-04      0.490D-04      -129.84030917    155.257437    0.00000    0.56858   -0.51938    6    diag
    8      0.410D-04      0.167D-04      -129.84030977    155.256625    0.00000    0.56863   -0.51847    7    diag
    9      0.141D-04      0.310D-05      -129.84030980    155.256517    0.00000    0.56858   -0.51829    8    diag
   10      0.287D-05      0.708D-06      -129.84030980    155.256505    0.00000    0.56855   -0.51827    9    orth
   11      0.869D-06      0.140D-06      -129.84030980    155.256501    0.00000    0.56854   -0.51826    9    diag
   12      0.203D-06      0.289D-07      -129.84030980    155.256501    0.00000    0.56854   -0.51826    9    diag
   13      0.485D-07      0.759D-08      -129.84030980    155.256501    0.00000    0.56854   -0.51826    9    diag
   14      0.110D-07      0.133D-08      -129.84030980    155.256501    0.00000    0.56854   -0.51826    9    diag
   15      0.139D-08      0.356D-09      -129.84030980    155.256501    0.00000    0.56854   -0.51826    9    diag
   16      0.313D-09      0.103D-09      -129.84030980    155.256501    0.00000    0.56854   -0.51826    9    diag
   17      0.676D-10      0.273D-10      -129.84030980    155.256501    0.00000    0.56854   -0.51826    9    diag
   18      0.202D-10      0.892D-11      -129.84030980    155.256501    0.00000    0.56854   -0.51826    0    orth

 Final occupancy:   7   1

 !RHF STATE 1.1 Energy               -129.840309799403
 Nuclear energy                        30.42657787
 One-electron energy                 -237.89513797
 Two-electron energy                   77.62825030
 Virial quotient                       -1.00145551
 !RHF STATE 1.1 Dipole moment           0.00000000     0.56853762    -0.51826270
 Dipole moment /Debye                   0.00000000     1.44498383    -1.31720610

 Orbital energies:

         1.1          2.1          3.1          4.1          5.1          6.1          7.1          8.1          9.1
    -20.651067   -15.708509    -1.528177    -0.996953    -0.746860    -0.664330    -0.429413     0.039766     0.194109

         1.2          2.2          3.2
     -0.594010     0.079014     0.239687

 HOMO      7.1    -0.429413 =     -11.6849eV
 LUMO      8.1     0.039766 =       1.0821eV
 LUMO-HOMO         0.469180 =      12.7670eV


 **********************************************************************************************************************************
 DATASETS  * FILE   NREC   LENGTH (MB)   RECORD NAMES
              1      19      421.28       500      610      700      900      950      970     1000      129      960     1100   
                                          VAR    BASINP    GEOM    SYMINP    ZMAT    AOBASIS   BASIS     P2S    ABASIS      S 
                                         1400     1410     1200     1210     1080     1600     1650     1300     1700   
                                           T        V       H0       H01     AOSYM     SMH    MOLCAS    ERIS     OPER   

              2       4        3.13       700     1000      520     2100   
                                         GEOM     BASIS   MCVARS     RHF  

 PROGRAMS   *        TOTAL        HF       INT
 CPU TIMES  *        11.08      5.39      5.60
 REAL TIME  *        14.08 SEC
 DISK USED  *         1.33 GB      
 **********************************************************************************************************************************


 PROGRAM * CCSD (Closed-shell coupled cluster)     Authors: C. Hampel, H.-J. Werner, 1991, M. Deegan, P.J. Knowles, 1992


 Convergence thresholds:  THRVAR = 1.00D-08  THRDEN = 1.00D-12

 CCSD(T)     terms to be evaluated (factor= 1.000)


 Number of closed-shell orbitals:   8 (   7   1 )
 Number of external orbitals:     163 ( 107  56 )

 Molecular orbitals read from record     2100.2  Type=RHF/CANONICAL (state 1.1)

 Number of N-1 electron functions:               8
 Number of N-2 electron functions:              36
 Number of singly external CSFs:               805
 Number of doubly external CSFs:            449165
 Total number of CSFs:                      449971

 Length of J-op  integral file:               0.00 MB
 Length of K-op  integral file:               1.15 MB
 Length of 3-ext integral record:             0.00 MB

 Memory could be reduced to 24.90 Mwords without degradation in triples

 Integral transformation finished. Total CPU:   1.03 sec, npass=  1  Memory used:   6.89 MW

 Reference energy:                   -129.84030980

 MP2 singlet pair energy:              -0.37859467
 MP2 triplet pair energy:              -0.18645148
 MP2 correlation energy:               -0.56504615
 MP2 total energy:                   -130.40535595

 SCS-MP2 correlation energy:           -0.57032785   (PS=  1.200000  PT=  0.333333)
 SCS-MP2 total energy:               -130.41063765

 ITER.      SQ.NORM     CORR.ENERGY   TOTAL ENERGY   ENERGY CHANGE        DEN1      VAR(S)    VAR(P)  DIIS     TIME  TIME/IT
   1      1.11926588    -0.56981435  -130.41012415    -0.00476820     0.01280264  0.33D-02  0.31D-02  1  1     2.23     1.25
   2      1.13004402    -0.56952673  -130.40983653     0.00028762    -0.01362290  0.89D-04  0.49D-03  2  2     3.44     1.29
   3      1.13522175    -0.56984425  -130.41015405    -0.00031752    -0.00233332  0.53D-04  0.68D-04  3  3     4.68     1.30
   4      1.13862103    -0.56983749  -130.41014729     0.00000676    -0.00137245  0.43D-05  0.97D-05  4  4     5.87     1.31
   5      1.13965241    -0.56986131  -130.41017111    -0.00002382    -0.00024163  0.15D-05  0.19D-05  5  5     7.10     1.31
   6      1.14005330    -0.56985543  -130.41016523     0.00000588    -0.00003847  0.12D-06  0.43D-06  6  6     8.30     1.31
   7      1.14013534    -0.56985589  -130.41016569    -0.00000045     0.00000057  0.16D-07  0.97D-07  6  1     9.55     1.32
   8      1.14016864    -0.56985421  -130.41016401     0.00000167    -0.00000466  0.42D-08  0.14D-07  6  2    10.81     1.32
   9      1.14017307    -0.56985435  -130.41016415    -0.00000014     0.00000112  0.18D-08  0.17D-08  6  3    12.04     1.32
  10      1.14017458    -0.56985465  -130.41016445    -0.00000030    -0.00000061  0.41D-09  0.25D-09  6  4    13.26     1.32
  11      1.14017361    -0.56985479  -130.41016459    -0.00000014     0.00000034  0.99D-10  0.25D-10  6  5    14.47     1.32
  12      1.14017277    -0.56985492  -130.41016472    -0.00000013     0.00000033  0.99D-11  0.62D-11  6  6    15.69     1.32
  13      1.14017227    -0.56985493  -130.41016473    -0.00000001     0.00000010  0.40D-11  0.11D-11  6  1    16.91     1.32
  14      1.14017185    -0.56985495  -130.41016475    -0.00000003     0.00000010  0.42D-12  0.38D-12  6  3    18.13     1.33
  15      1.14017169    -0.56985495  -130.41016475    -0.00000000     0.00000002  0.10D-12  0.27D-13  6  2    19.36     1.33
  16      1.14017164    -0.56985496  -130.41016476    -0.00000000     0.00000001  0.22D-13  0.57D-14  6  4    20.59     1.33
  17      1.14017162    -0.56985496  -130.41016476    -0.00000000     0.00000001  0.40D-14  0.10D-14  6  5    21.82     1.33
  18      1.14017161    -0.56985496  -130.41016476    -0.00000000     0.00000000  0.43D-15  0.27D-15  6  6    23.05     1.33
  19      1.14017162    -0.56985496  -130.41016476     0.00000000    -0.00000000  0.51D-16  0.38D-16  6  1    24.30     1.33
  20      1.14017162    -0.56985496  -130.41016476     0.00000000    -0.00000000  0.21D-17  0.81D-17  6  3    25.56     1.33
  21      1.14017162    -0.56985496  -130.41016476     0.00000000    -0.00000000  0.11D-17  0.20D-17  6  2    26.76     1.33
  22      1.14017162    -0.56985496  -130.41016476     0.00000000    -0.00000000  0.27D-18  0.71D-18  6  4    27.99     1.33
  23      1.14017162    -0.56985496  -130.41016476    -0.00000000     0.00000000  0.13D-18  0.10D-18  6  5    29.21     1.33
  24      1.14017162    -0.56985496  -130.41016476     0.00000000    -0.00000000  0.48D-20  0.13D-19  6  1    30.43     1.33
  25      1.14017162    -0.56985496  -130.41016476     0.00000000     0.00000000  0.32D-21  0.13D-20  6  6    31.67     1.33
  26      1.14017162    -0.56985496  -130.41016476    -0.00000000     0.00000000  0.15D-21  0.18D-21  6  1    32.91     1.33

 Norm of t1 vector:      0.07707819      S-energy:     0.00000000      T1 diagnostic:  0.01362563
                                                                       D1 diagnostic:  0.04403324

 Doubles amplitudes (print threshold =  0.500E-01):

         I         J         SYM. A    SYM. B    A         B      T(IJ, AB)

         8         8         2         2         1         1     -0.13466703


 Total CPU time for triples:     15.09 sec


 RESULTS
 =======

  Reference energy                   -129.840309799403

  Correlated core orbitals:             1.1       2.1
  Orbital energies:                   -20.6511  -15.7085
 
  CCSD core-core energy                -0.079230809649
  CCSD core-valence energy             -0.036108049055
  CCSD valence correlation energy      -0.454516097838
 
  CCSD singlet pair energy             -0.407440852402
  CCSD triplet pair energy             -0.162414104142
  CCSD correlation energy              -0.569854956542

  Triples (T) contribution             -0.022183831527
  Total correlation energy             -0.592038788069

  CCSD total energy                  -130.410164755945
  CCSD[T] energy                     -130.433505092455
  CCSD-T energy                      -130.431913916687
 !CCSD(T) total energy               -130.432348587472

 Timing summary (sec):

 STEP                 CPU(USER)    SYS     CPU(TOT)    WALL
 Transformation          1.05      0.21      1.26      1.27
 CCSD iterations        31.87      2.66     34.53     34.53
 Triples                15.09      0.46     15.55     15.55

 Program statistics:

 Available memory in ccsd:               994999644
 Min. memory needed in ccsd:               1368037
 Max. memory used in ccsd:                 1750502
 Max. memory used in cckext:               2014357 (26 integral passes)



 **********************************************************************************************************************************
 DATASETS  * FILE   NREC   LENGTH (MB)   RECORD NAMES
              1      20      500.20       500      610      700      900      950      970     1000      129      960     1100   
                                          VAR    BASINP    GEOM    SYMINP    ZMAT    AOBASIS   BASIS     P2S    ABASIS      S 
                                         1400     1410     1200     1210     1080     1600     1650     1300     1700     1380   
                                           T        V       H0       H01     AOSYM     SMH    MOLCAS    ERIS     OPER     JKOP   

              2       4        3.13       700     1000      520     2100   
                                         GEOM     BASIS   MCVARS     RHF  

 PROGRAMS   *        TOTAL   CCSD(T)        HF       INT
 CPU TIMES  *        59.11     48.03      5.39      5.60
 REAL TIME  *        65.48 SEC
 DISK USED  *         1.33 GB      
 **********************************************************************************************************************************

 CCSD(T)/USERDEF energy=   -130.432348587472

        CCSD(T)         HF-SCF  
   -130.43234859   -129.84030980
 **********************************************************************************************************************************
 Molpro calculation terminated
 Variable memory released
