
 Primary working directories    : /tmp/r2666/282444.maple
 Secondary working directories  : /tmp/r2666/282444.maple
 Wavefunction directory         : /ddn/home4/r2666/wfu/
 Main file repository           : /tmp/r2666/282444.maple/

 SHA1      : d5ffa45e93fdbca01ffc919aa182cfdae0147319
 NAME      : 2015.1.35
 ARCHNAME  : linux/x86_64
 FC        : /opt/intel/composer_xe_2015.1.133/bin/intel64/ifort
 BLASLIB   : -Wl,-_start-group /opt/intel/mkl/lib/intel64/libmkl_intel_ilp64.a /opt/intel/mkl/lib/intel64/libmkl_intel_thread.a /opt/intel/mkl/lib/intel64/libmkl_core.a -Wl,-_end-group
 id        : olemiss

 Nodes     nprocs
 cn063        1

 Using customized tuning parameters: mindgm=1; mindgv=20; mindgc=4; mindgr=1; noblas=0; minvec=7
 default implementation of scratch files=df  

 ***,hno CCSD(T)/TZ-F12 QFF
 memory, 995, m;
 gthresh,energy=1.d-12,zero=1.d-22,oneint=1.d-22,twoint=1.d-22;
 gthresh,optgrad=1.d-8,optstep=1.d-8;
 nocompress;
 geomtyp=xyz
 bohr
 geometry={
 3
         83        83
 H        0.0000000000        1.6692679447       -1.9356948799
 N        0.0000000000       -0.1607106920       -1.1588125151
 O        0.0000000000        0.0332105373        1.1439178040
 }
 
 basis={
 default=aug-cc-pvtz
 s,C,8236.0,1235.0,280.8, 79.27,25.59, 8.997,3.319
 s,C,0.9059,0.3643,0.1285000
 p,C,56.0,18.71,4.133,0.2827,0.3827,0.1209
 d,C,30.0,10.0,3.3,1.097,0.318
 f,C,7.0,2.3,0.7610
 s,N,11420.0,1712.0,389.3,110.0,35.57,12.54,4.644
 s,N,1.293,0.5118,0.1787
 p,N,79.89,26.63,5.948,1.742,0.555,0.1725
 d,N,45.0,15.0,5.0,1.654,0.469
 f,N,9.9,3.3,1.093
 s,O,15330.0,2299.0,522.4,147.3,47.55,16.76,6.207
 s,O,1.752,0.6882,0.2384
 p,O,103.5,34.46,7.749,2.28,0.7156,0.214
 d,O,63.0,21.0,7.0,2.314,0.645
 f,O,12.9,4.3,1.428
 s,mg,164900.0,24710.0,5628.0,1596.0,521.0;
 s,mg,188.0,73.01,29.90,12.54,4.306,1.826;
 s,mg,0.7417,0.0761,0.145,0.033,0.0129;
 p,mg,950.70,316.90,74.86,23.72,8.669,3.363;
 p,mg,1.310,0.4911,0.2364,0.08733,0.03237,0.00745;
 d,mg,1.601,0.686,0.126,0.294,0.0468;
 f,mg,1.372,0.588,0.094,0.252;
 }
   {hf,maxit=500;accu,20;}
 {ccsd(t),nocheck,maxit=250;orbital,IGNORE_ERROR;core}

 Variables initialized (889), CPU time= 0.00 sec
 Commands  initialized (702), CPU time= 0.01 sec, 572 directives.
 Default parameters read. Elapsed time= 0.05 sec

 Checking input...
 Passed
1


                                         ***  PROGRAM SYSTEM MOLPRO  ***
                                       Copyright, TTI GmbH Stuttgart, 2015
                                    Version 2015.1 linked Jul  9 2018 13:16:40


 **********************************************************************************************************************************
 LABEL *   hno CCSD(T)/TZ-F12 QFF                                                        
  64 bit serial version                                                                  DATE: 04-Mar-20          TIME: 13:49:51  
 **********************************************************************************************************************************

 SHA1:             d5ffa45e93fdbca01ffc919aa182cfdae0147319
 **********************************************************************************************************************************

 THRESHOLDS:

 ZERO    =  1.00D-22  ONEINT  =  1.00D-22  TWOINT  =  1.00D-22  PREFAC  =  1.00D-14  LOCALI  =  1.00D-09  EORDER  =  1.00D-04
 ENERGY  =  1.00D-12  ETEST   =  0.00D+00  EDENS   =  0.00D+00  THRDEDEF=  1.00D-06  GRADIENT=  1.00D-02  STEP    =  1.00D-03
 ORBITAL =  1.00D-05  CIVEC   =  1.00D-05  COEFF   =  1.00D-04  PRINTCI =  5.00D-02  PUNCHCI =  9.90D+01  OPTGRAD =  3.00D-04
 OPTENERG=  1.00D-06  OPTSTEP =  3.00D-04  THRGRAD =  1.00D-10  COMPRESS=  1.00D-11  VARMIN  =  1.00D-07  VARMAX  =  1.00D-03
 THRDOUB =  0.00D+00  THRDIV  =  1.00D-05  THRRED  =  1.00D-07  THRPSP  =  1.00D+00  THRDC   =  1.00D-10  THRCS   =  1.00D-10
 THRNRM  =  1.00D-08  THREQ   =  0.00D+00  THRDE   =  1.00D+00  THRREF  =  1.00D-05  SPARFAC =  1.00D+00  THRDLP  =  1.00D-07
 THRDIA  =  1.00D-10  THRDLS  =  1.00D-07  THRGPS  =  0.00D+00  THRKEX  =  0.00D+00  THRDIS  =  2.00D-01  THRVAR  =  1.00D-10
 THRLOC  =  1.00D-06  THRGAP  =  1.00D-06  THRLOCT = -1.00D+00  THRGAPT = -1.00D+00  THRORB  =  1.00D-06  THRMLTP =  0.00D+00
 THRCPQCI=  1.00D-10  KEXTA   =  0.00D+00  THRCOARS=  0.00D+00  SYMTOL  =  1.00D-06  GRADTOL =  1.00D-06  THROVL  =  1.00D-08
 THRORTH =  1.00D-08  GRID    =  1.00D-06  GRIDMAX =  1.00D-03  DTMAX   =  0.00D+00  THROCCDE=  1.00D-01  THROCCDE=  1.00D-01



 THRESHOLDS:

 ZERO    =  1.00D-22  ONEINT  =  1.00D-22  TWOINT  =  1.00D-22  PREFAC  =  1.00D-14  LOCALI  =  1.00D-09  EORDER  =  1.00D-04
 ENERGY  =  1.00D-12  ETEST   =  0.00D+00  EDENS   =  0.00D+00  THRDEDEF=  1.00D-06  GRADIENT=  1.00D-02  STEP    =  1.00D-03
 ORBITAL =  1.00D-05  CIVEC   =  1.00D-05  COEFF   =  1.00D-04  PRINTCI =  5.00D-02  PUNCHCI =  9.90D+01  OPTGRAD =  1.00D-08
 OPTENERG=  1.00D-06  OPTSTEP =  1.00D-08  THRGRAD =  1.00D-10  COMPRESS=  1.00D-11  VARMIN  =  1.00D-07  VARMAX  =  1.00D-03
 THRDOUB =  0.00D+00  THRDIV  =  1.00D-05  THRRED  =  1.00D-07  THRPSP  =  1.00D+00  THRDC   =  1.00D-10  THRCS   =  1.00D-10
 THRNRM  =  1.00D-08  THREQ   =  0.00D+00  THRDE   =  1.00D+00  THRREF  =  1.00D-05  SPARFAC =  1.00D+00  THRDLP  =  1.00D-07
 THRDIA  =  1.00D-10  THRDLS  =  1.00D-07  THRGPS  =  0.00D+00  THRKEX  =  0.00D+00  THRDIS  =  2.00D-01  THRVAR  =  1.00D-10
 THRLOC  =  1.00D-06  THRGAP  =  1.00D-06  THRLOCT = -1.00D+00  THRGAPT = -1.00D+00  THRORB  =  1.00D-06  THRMLTP =  0.00D+00
 THRCPQCI=  1.00D-10  KEXTA   =  0.00D+00  THRCOARS=  0.00D+00  SYMTOL  =  1.00D-06  GRADTOL =  1.00D-06  THROVL  =  1.00D-08
 THRORTH =  1.00D-08  GRID    =  1.00D-06  GRIDMAX =  1.00D-03  DTMAX   =  0.00D+00  THROCCDE=  1.00D-01  THROCCDE=  1.00D-01



 Input parameters for SORTINT:

 COMPRESS =    0.000000
 C_FINAL  =    1.000000
 DEBUG    =   -1.000000
 C_SORT1  =    0.000000
 C_SEWARD =    0.000000
 THRESH   =    0.000000
 IO       =  molpro                                                          
 SPRI     =    0.000000
 SETTING GEOMTYP        =    XYZ
 ZUNIT=BOHR
 

 Variable memory set to  995000000 words,  buffer space   230000 words

 SETTING BASIS          =    USERDEF


 Recomputing integrals since basis changed


 Using spherical harmonics

 Library entry H      S aug-cc-pVTZ          selected for orbital group  1
 Library entry H      P aug-cc-pVTZ          selected for orbital group  1
 Library entry H      D aug-cc-pVTZ          selected for orbital group  1


 PROGRAM * SEWARD (Integral evaluation for generally contracted gaussian basis sets)     Author: Roland Lindh, 1990

 Geometry written to block  1 of record 700


 Point group  Cs  



 ATOMIC COORDINATES

 NR  ATOM    CHARGE       X              Y              Z

   1  H       1.00    0.000000000    1.669267945   -1.935694880
   2  N       7.00    0.000000000   -0.160710692   -1.158812515
   3  O       8.00    0.000000000    0.033210537    1.143917804

 Bond lengths in Bohr (Angstrom)

 1-2  1.988056342  2-3  2.310881296
     ( 1.052034110)     ( 1.222865719)

 Bond angles

  1-2-3  108.18899349

 NUCLEAR CHARGE:                   16
 NUMBER OF PRIMITIVE AOS:         203
 NUMBER OF SYMMETRY AOS:          173
 NUMBER OF CONTRACTIONS:          171   ( 114A'  +  57A"  )
 NUMBER OF CORE ORBITALS:           2   (   2A'  +   0A"  )
 NUMBER OF VALENCE ORBITALS:        9   (   7A'  +   2A"  )


 NUCLEAR REPULSION ENERGY   30.04829741


 Eigenvalues of metric

         1 0.107E-02 0.262E-02 0.340E-02 0.644E-02 0.985E-02 0.137E-01 0.146E-01 0.233E-01
         2 0.365E-01 0.553E-01 0.708E-01 0.943E-01 0.132E+00 0.134E+00 0.140E+00 0.142E+00


 Contracted 2-electron integrals neglected if value below      1.0D-22

       46068645. INTEGRALS WRITTEN OUT IN   11250 BLOCKS ON RECORD 1290 OF FILE 1


 NUMBER OF SORTED TWO-ELECTRON INTEGRALS:   55360566.     BUFFER LENGTH:  32768
 NUMBER OF SEGMENTS:   4  SEGMENT LENGTH:   15997996      RECORD LENGTH: 524288

 Memory used in sort:      16.56 MW

 SORT1 READ    46068645. AND WROTE    46505291. INTEGRALS IN    135 RECORDS. CPU TIME:     1.28 SEC, REAL TIME:     1.63 SEC
 SORT2 READ    46505291. AND WROTE    55360566. INTEGRALS IN      4 RECORDS. CPU TIME:     0.78 SEC, REAL TIME:     1.02 SEC

 FILE SIZES:   FILE 1:   758.0 MBYTE,  FILE 4:   566.3 MBYTE,   TOTAL:   1324.3 MBYTE

 OPERATOR DM      FOR CENTER  0  COORDINATES:    0.000000    0.000000    0.000000


 **********************************************************************************************************************************
 DATASETS  * FILE   NREC   LENGTH (MB)   RECORD NAMES
              1      19      420.72       500      610      700      900      950      970     1000      129      960     1100   
                                          VAR    BASINP    GEOM    SYMINP    ZMAT    AOBASIS   BASIS     P2S    ABASIS      S 
                                         1400     1410     1200     1210     1080     1600     1650     1300     1700   
                                           T        V       H0       H01     AOSYM     SMH    MOLCAS    ERIS     OPER   

 PROGRAMS   *        TOTAL       INT
 CPU TIMES  *         5.70      5.60
 REAL TIME  *         7.22 SEC
 DISK USED  *         1.32 GB      
 **********************************************************************************************************************************


 PROGRAM * RHF-SCF (CLOSED SHELL)       Authors: W. Meyer, H.-J. Werner


 NUMBER OF ELECTRONS:       8+    8-
 CONVERGENCE THRESHOLDS:    1.00E-10 (Density)    1.00E-13 (Energy)
 MAX. NUMBER OF ITERATIONS:      500
 INTERPOLATION TYPE:            DIIS
 INTERPOLATION STEPS:              2 (START)      1 (STEP)
 LEVEL SHIFTS:                  0.00 (CLOSED)  0.00 (OPEN) 



 Orbital guess generated from atomic densities. Full valence occupancy:    9   2

 Molecular orbital dump at record        2100.2

 Initial occupancy:   7   1

 ITERATION    DDIFF          GRAD             ENERGY        2-EL.EN.            DIPOLE MOMENTS         DIIS   ORB.
    1      0.000D+00      0.000D+00      -129.78465739    153.488711    0.00000    0.57623   -1.06192    0    start
    2      0.000D+00      0.893D-02      -129.81099221    154.630974    0.00000    0.60690   -0.18678    1    diag
    3      0.373D-02      0.702D-02      -129.83640968    154.785117    0.00000    0.55350   -0.60505    2    diag
    4      0.148D-02      0.106D-02      -129.83722342    154.499888    0.00000    0.56124   -0.54011    3    diag
    5      0.337D-03      0.344D-03      -129.83734925    154.589263    0.00000    0.56726   -0.54226    4    diag
    6      0.155D-03      0.101D-03      -129.83736987    154.572969    0.00000    0.56776   -0.53787    5    diag
    7      0.613D-04      0.514D-04      -129.83737621    154.575355    0.00000    0.56905   -0.53515    6    diag
    8      0.421D-04      0.184D-04      -129.83737698    154.574456    0.00000    0.56910   -0.53413    7    diag
    9      0.158D-04      0.350D-05      -129.83737702    154.574328    0.00000    0.56905   -0.53392    8    diag
   10      0.331D-05      0.771D-06      -129.83737702    154.574313    0.00000    0.56901   -0.53389    9    orth
   11      0.915D-06      0.152D-06      -129.83737702    154.574309    0.00000    0.56900   -0.53389    9    diag
   12      0.212D-06      0.327D-07      -129.83737702    154.574309    0.00000    0.56900   -0.53389    9    diag
   13      0.524D-07      0.900D-08      -129.83737702    154.574308    0.00000    0.56900   -0.53389    9    diag
   14      0.124D-07      0.158D-08      -129.83737702    154.574308    0.00000    0.56900   -0.53389    9    diag
   15      0.141D-08      0.417D-09      -129.83737702    154.574308    0.00000    0.56900   -0.53389    9    diag
   16      0.352D-09      0.120D-09      -129.83737702    154.574308    0.00000    0.56900   -0.53389    9    diag
   17      0.649D-10      0.320D-10      -129.83737702    154.574308    0.00000    0.56900   -0.53389    9    diag
   18      0.183D-10      0.104D-10      -129.83737702    154.574308    0.00000    0.56900   -0.53389    9    diag
   19      0.662D-11      0.245D-11      -129.83737702    154.574308    0.00000    0.56900   -0.53389    9    fixocc
   20      0.167D-11      0.562D-12      -129.83737702    154.574308    0.00000    0.56900   -0.53389    0    orth

 Final occupancy:   7   1

 !RHF STATE 1.1 Energy               -129.837377019102
 Nuclear energy                        30.04829741
 One-electron energy                 -237.17282855
 Two-electron energy                   77.28715412
 Virial quotient                       -1.00206306
 !RHF STATE 1.1 Dipole moment           0.00000000     0.56899891    -0.53388690
 Dipole moment /Debye                   0.00000000     1.44615625    -1.35691627

 Orbital energies:

         1.1          2.1          3.1          4.1          5.1          6.1          7.1          8.1          9.1
    -20.652659   -15.713119    -1.516006    -0.996370    -0.740689    -0.659959    -0.433217     0.039474     0.192053

         1.2          2.2          3.2
     -0.587242     0.073908     0.239060

 HOMO      7.1    -0.433217 =     -11.7884eV
 LUMO      8.1     0.039474 =       1.0741eV
 LUMO-HOMO         0.472692 =      12.8626eV


 **********************************************************************************************************************************
 DATASETS  * FILE   NREC   LENGTH (MB)   RECORD NAMES
              1      19      420.72       500      610      700      900      950      970     1000      129      960     1100   
                                          VAR    BASINP    GEOM    SYMINP    ZMAT    AOBASIS   BASIS     P2S    ABASIS      S 
                                         1400     1410     1200     1210     1080     1600     1650     1300     1700   
                                           T        V       H0       H01     AOSYM     SMH    MOLCAS    ERIS     OPER   

              2       4        3.13       700     1000      520     2100   
                                         GEOM     BASIS   MCVARS     RHF  

 PROGRAMS   *        TOTAL        HF       INT
 CPU TIMES  *        11.73      6.03      5.60
 REAL TIME  *        14.81 SEC
 DISK USED  *         1.32 GB      
 **********************************************************************************************************************************


 PROGRAM * CCSD (Closed-shell coupled cluster)     Authors: C. Hampel, H.-J. Werner, 1991, M. Deegan, P.J. Knowles, 1992


 Convergence thresholds:  THRVAR = 1.00D-08  THRDEN = 1.00D-12

 CCSD(T)     terms to be evaluated (factor= 1.000)


 Number of closed-shell orbitals:   8 (   7   1 )
 Number of external orbitals:     163 ( 107  56 )

 Molecular orbitals read from record     2100.2  Type=RHF/CANONICAL (state 1.1)

 Number of N-1 electron functions:               8
 Number of N-2 electron functions:              36
 Number of singly external CSFs:               805
 Number of doubly external CSFs:            449165
 Total number of CSFs:                      449971

 Length of J-op  integral file:               0.00 MB
 Length of K-op  integral file:               1.15 MB
 Length of 3-ext integral record:             0.00 MB

 Memory could be reduced to 24.90 Mwords without degradation in triples

 Integral transformation finished. Total CPU:   1.09 sec, npass=  1  Memory used:   6.89 MW

 Reference energy:                   -129.83737702

 MP2 singlet pair energy:              -0.38044214
 MP2 triplet pair energy:              -0.18757644
 MP2 correlation energy:               -0.56801859
 MP2 total energy:                   -130.40539561

 SCS-MP2 correlation energy:           -0.57324481   (PS=  1.200000  PT=  0.333333)
 SCS-MP2 total energy:               -130.41062182

 ITER.      SQ.NORM     CORR.ENERGY   TOTAL ENERGY   ENERGY CHANGE        DEN1      VAR(S)    VAR(P)  DIIS     TIME  TIME/IT
   1      1.12136423    -0.57218225  -130.40955927    -0.00416366     0.01422864  0.36D-02  0.33D-02  1  1     2.30     1.26
   2      1.13264823    -0.57174394  -130.40912096     0.00043831    -0.01413459  0.98D-04  0.52D-03  2  2     3.54     1.30
   3      1.13813764    -0.57208807  -130.40946509    -0.00034413    -0.00241553  0.60D-04  0.73D-04  3  3     4.78     1.32
   4      1.14177723    -0.57208129  -130.40945831     0.00000677    -0.00144122  0.50D-05  0.11D-04  4  4     6.02     1.33
   5      1.14293061    -0.57210748  -130.40948450    -0.00002619    -0.00027287  0.17D-05  0.19D-05  5  5     7.29     1.33
   6      1.14337345    -0.57210058  -130.40947760     0.00000690    -0.00004336  0.15D-06  0.42D-06  6  6     8.54     1.34
   7      1.14345900    -0.57210098  -130.40947800    -0.00000041     0.00000124  0.20D-07  0.98D-07  6  1     9.78     1.34
   8      1.14349370    -0.57209904  -130.40947605     0.00000195    -0.00000504  0.39D-08  0.15D-07  6  2    11.04     1.34
   9      1.14349842    -0.57209909  -130.40947611    -0.00000006     0.00000138  0.18D-08  0.21D-08  6  3    12.30     1.34
  10      1.14350031    -0.57209940  -130.40947642    -0.00000031    -0.00000078  0.45D-09  0.30D-09  6  4    13.54     1.34
  11      1.14349933    -0.57209955  -130.40947657    -0.00000015     0.00000035  0.11D-09  0.31D-10  6  5    14.79     1.34
  12      1.14349844    -0.57209969  -130.40947671    -0.00000015     0.00000035  0.12D-10  0.74D-11  6  6    16.05     1.35
  13      1.14349789    -0.57209970  -130.40947672    -0.00000001     0.00000011  0.46D-11  0.13D-11  6  1    17.27     1.35
  14      1.14349742    -0.57209973  -130.40947675    -0.00000003     0.00000011  0.46D-12  0.46D-12  6  3    18.53     1.35
  15      1.14349724    -0.57209973  -130.40947675    -0.00000000     0.00000002  0.12D-12  0.32D-13  6  2    19.79     1.35
  16      1.14349718    -0.57209974  -130.40947676    -0.00000000     0.00000001  0.25D-13  0.68D-14  6  4    21.02     1.35
  17      1.14349715    -0.57209974  -130.40947676    -0.00000000     0.00000001  0.49D-14  0.12D-14  6  5    22.29     1.35
  18      1.14349715    -0.57209974  -130.40947676    -0.00000000     0.00000000  0.56D-15  0.33D-15  6  6    23.58     1.35
  19      1.14349715    -0.57209974  -130.40947676     0.00000000    -0.00000000  0.73D-16  0.53D-16  6  1    24.81     1.35
  20      1.14349715    -0.57209974  -130.40947676     0.00000000    -0.00000000  0.30D-17  0.12D-16  6  3    26.06     1.35
  21      1.14349715    -0.57209974  -130.40947676     0.00000000    -0.00000000  0.16D-17  0.32D-17  6  2    27.32     1.35
  22      1.14349715    -0.57209974  -130.40947676     0.00000000    -0.00000000  0.40D-18  0.11D-17  6  4    28.56     1.35
  23      1.14349715    -0.57209974  -130.40947676    -0.00000000     0.00000000  0.20D-18  0.16D-18  6  5    29.81     1.35
  24      1.14349715    -0.57209974  -130.40947676     0.00000000    -0.00000000  0.69D-20  0.19D-19  6  1    31.06     1.35
  25      1.14349715    -0.57209974  -130.40947676     0.00000000     0.00000000  0.50D-21  0.18D-20  6  6    32.32     1.35
  26      1.14349715    -0.57209974  -130.40947676    -0.00000000     0.00000000  0.19D-21  0.27D-21  6  1    33.59     1.35

 Norm of t1 vector:      0.08013224      S-energy:     0.00000000      T1 diagnostic:  0.01416551
                                                                       D1 diagnostic:  0.04601017

 Doubles amplitudes (print threshold =  0.500E-01):

         I         J         SYM. A    SYM. B    A         B      T(IJ, AB)

         8         8         2         2         1         1     -0.13905635


 Total CPU time for triples:     15.61 sec


 RESULTS
 =======

  Reference energy                   -129.837377019102

  Correlated core orbitals:             1.1       2.1
  Orbital energies:                   -20.6527  -15.7131
 
  CCSD core-core energy                -0.079240428704
  CCSD core-valence energy             -0.035982708584
  CCSD valence correlation energy      -0.456876599867
 
  CCSD singlet pair energy             -0.409472600192
  CCSD triplet pair energy             -0.162627136963
  CCSD correlation energy              -0.572099737154

  Triples (T) contribution             -0.022764063521
  Total correlation energy             -0.594863800675

  CCSD total energy                  -130.409476756257
  CCSD[T] energy                     -130.433482667712
  CCSD-T energy                      -130.431782127345
 !CCSD(T) total energy               -130.432240819778

 Timing summary (sec):

 STEP                 CPU(USER)    SYS     CPU(TOT)    WALL
 Transformation          1.11      0.18      1.29      1.30
 CCSD iterations        32.48      2.65     35.13     35.13
 Triples                15.61      0.50     16.11     16.11

 Program statistics:

 Available memory in ccsd:               994999644
 Min. memory needed in ccsd:               1368037
 Max. memory used in ccsd:                 1750502
 Max. memory used in cckext:               2014357 (26 integral passes)



 **********************************************************************************************************************************
 DATASETS  * FILE   NREC   LENGTH (MB)   RECORD NAMES
              1      20      499.63       500      610      700      900      950      970     1000      129      960     1100   
                                          VAR    BASINP    GEOM    SYMINP    ZMAT    AOBASIS   BASIS     P2S    ABASIS      S 
                                         1400     1410     1200     1210     1080     1600     1650     1300     1700     1380   
                                           T        V       H0       H01     AOSYM     SMH    MOLCAS    ERIS     OPER     JKOP   

              2       4        3.13       700     1000      520     2100   
                                         GEOM     BASIS   MCVARS     RHF  

 PROGRAMS   *        TOTAL   CCSD(T)        HF       INT
 CPU TIMES  *        60.96     49.23      6.03      5.60
 REAL TIME  *        67.38 SEC
 DISK USED  *         1.32 GB      
 **********************************************************************************************************************************

 CCSD(T)/USERDEF energy=   -130.432240819778

        CCSD(T)         HF-SCF  
   -130.43224082   -129.83737702
 **********************************************************************************************************************************
 Molpro calculation terminated
 Variable memory released
