
 Primary working directories    : /tmp/r2666/282479.maple
 Secondary working directories  : /tmp/r2666/282479.maple
 Wavefunction directory         : /ddn/home4/r2666/wfu/
 Main file repository           : /tmp/r2666/282479.maple/

 SHA1      : d5ffa45e93fdbca01ffc919aa182cfdae0147319
 NAME      : 2015.1.35
 ARCHNAME  : linux/x86_64
 FC        : /opt/intel/composer_xe_2015.1.133/bin/intel64/ifort
 BLASLIB   : -Wl,-_start-group /opt/intel/mkl/lib/intel64/libmkl_intel_ilp64.a /opt/intel/mkl/lib/intel64/libmkl_intel_thread.a /opt/intel/mkl/lib/intel64/libmkl_core.a -Wl,-_end-group
 id        : olemiss

 Nodes     nprocs
 cn074        1

 Using customized tuning parameters: mindgm=1; mindgv=20; mindgc=4; mindgr=1; noblas=0; minvec=7
 default implementation of scratch files=df  

 ***,hno CCSD(T)/TZ-F12 QFF
 memory, 995, m;
 gthresh,energy=1.d-12,zero=1.d-22,oneint=1.d-22,twoint=1.d-22;
 gthresh,optgrad=1.d-8,optstep=1.d-8;
 nocompress;
 geomtyp=xyz
 bohr
 geometry={
 3
        118       118
 H        0.0000000000        1.6761610939       -1.9399429478
 N        0.0000000000       -0.1654978519       -1.1423496382
 O        0.0000000000        0.0311045480        1.1317029949
 }
 
 basis={
 default=aug-cc-pvtz
 s,C,8236.0,1235.0,280.8, 79.27,25.59, 8.997,3.319
 s,C,0.9059,0.3643,0.1285000
 p,C,56.0,18.71,4.133,0.2827,0.3827,0.1209
 d,C,30.0,10.0,3.3,1.097,0.318
 f,C,7.0,2.3,0.7610
 s,N,11420.0,1712.0,389.3,110.0,35.57,12.54,4.644
 s,N,1.293,0.5118,0.1787
 p,N,79.89,26.63,5.948,1.742,0.555,0.1725
 d,N,45.0,15.0,5.0,1.654,0.469
 f,N,9.9,3.3,1.093
 s,O,15330.0,2299.0,522.4,147.3,47.55,16.76,6.207
 s,O,1.752,0.6882,0.2384
 p,O,103.5,34.46,7.749,2.28,0.7156,0.214
 d,O,63.0,21.0,7.0,2.314,0.645
 f,O,12.9,4.3,1.428
 s,mg,164900.0,24710.0,5628.0,1596.0,521.0;
 s,mg,188.0,73.01,29.90,12.54,4.306,1.826;
 s,mg,0.7417,0.0761,0.145,0.033,0.0129;
 p,mg,950.70,316.90,74.86,23.72,8.669,3.363;
 p,mg,1.310,0.4911,0.2364,0.08733,0.03237,0.00745;
 d,mg,1.601,0.686,0.126,0.294,0.0468;
 f,mg,1.372,0.588,0.094,0.252;
 }
   {hf,maxit=500;accu,20;}
 {ccsd(t),nocheck,maxit=250;orbital,IGNORE_ERROR;core}

 Variables initialized (889), CPU time= 0.01 sec
 Commands  initialized (702), CPU time= 0.01 sec, 572 directives.
 Default parameters read. Elapsed time= 0.05 sec

 Checking input...
 Passed
1


                                         ***  PROGRAM SYSTEM MOLPRO  ***
                                       Copyright, TTI GmbH Stuttgart, 2015
                                    Version 2015.1 linked Jul  9 2018 13:16:40


 **********************************************************************************************************************************
 LABEL *   hno CCSD(T)/TZ-F12 QFF                                                        
  64 bit serial version                                                                  DATE: 04-Mar-20          TIME: 13:50:28  
 **********************************************************************************************************************************

 SHA1:             d5ffa45e93fdbca01ffc919aa182cfdae0147319
 **********************************************************************************************************************************

 THRESHOLDS:

 ZERO    =  1.00D-22  ONEINT  =  1.00D-22  TWOINT  =  1.00D-22  PREFAC  =  1.00D-14  LOCALI  =  1.00D-09  EORDER  =  1.00D-04
 ENERGY  =  1.00D-12  ETEST   =  0.00D+00  EDENS   =  0.00D+00  THRDEDEF=  1.00D-06  GRADIENT=  1.00D-02  STEP    =  1.00D-03
 ORBITAL =  1.00D-05  CIVEC   =  1.00D-05  COEFF   =  1.00D-04  PRINTCI =  5.00D-02  PUNCHCI =  9.90D+01  OPTGRAD =  3.00D-04
 OPTENERG=  1.00D-06  OPTSTEP =  3.00D-04  THRGRAD =  1.00D-10  COMPRESS=  1.00D-11  VARMIN  =  1.00D-07  VARMAX  =  1.00D-03
 THRDOUB =  0.00D+00  THRDIV  =  1.00D-05  THRRED  =  1.00D-07  THRPSP  =  1.00D+00  THRDC   =  1.00D-10  THRCS   =  1.00D-10
 THRNRM  =  1.00D-08  THREQ   =  0.00D+00  THRDE   =  1.00D+00  THRREF  =  1.00D-05  SPARFAC =  1.00D+00  THRDLP  =  1.00D-07
 THRDIA  =  1.00D-10  THRDLS  =  1.00D-07  THRGPS  =  0.00D+00  THRKEX  =  0.00D+00  THRDIS  =  2.00D-01  THRVAR  =  1.00D-10
 THRLOC  =  1.00D-06  THRGAP  =  1.00D-06  THRLOCT = -1.00D+00  THRGAPT = -1.00D+00  THRORB  =  1.00D-06  THRMLTP =  0.00D+00
 THRCPQCI=  1.00D-10  KEXTA   =  0.00D+00  THRCOARS=  0.00D+00  SYMTOL  =  1.00D-06  GRADTOL =  1.00D-06  THROVL  =  1.00D-08
 THRORTH =  1.00D-08  GRID    =  1.00D-06  GRIDMAX =  1.00D-03  DTMAX   =  0.00D+00  THROCCDE=  1.00D-01  THROCCDE=  1.00D-01



 THRESHOLDS:

 ZERO    =  1.00D-22  ONEINT  =  1.00D-22  TWOINT  =  1.00D-22  PREFAC  =  1.00D-14  LOCALI  =  1.00D-09  EORDER  =  1.00D-04
 ENERGY  =  1.00D-12  ETEST   =  0.00D+00  EDENS   =  0.00D+00  THRDEDEF=  1.00D-06  GRADIENT=  1.00D-02  STEP    =  1.00D-03
 ORBITAL =  1.00D-05  CIVEC   =  1.00D-05  COEFF   =  1.00D-04  PRINTCI =  5.00D-02  PUNCHCI =  9.90D+01  OPTGRAD =  1.00D-08
 OPTENERG=  1.00D-06  OPTSTEP =  1.00D-08  THRGRAD =  1.00D-10  COMPRESS=  1.00D-11  VARMIN  =  1.00D-07  VARMAX  =  1.00D-03
 THRDOUB =  0.00D+00  THRDIV  =  1.00D-05  THRRED  =  1.00D-07  THRPSP  =  1.00D+00  THRDC   =  1.00D-10  THRCS   =  1.00D-10
 THRNRM  =  1.00D-08  THREQ   =  0.00D+00  THRDE   =  1.00D+00  THRREF  =  1.00D-05  SPARFAC =  1.00D+00  THRDLP  =  1.00D-07
 THRDIA  =  1.00D-10  THRDLS  =  1.00D-07  THRGPS  =  0.00D+00  THRKEX  =  0.00D+00  THRDIS  =  2.00D-01  THRVAR  =  1.00D-10
 THRLOC  =  1.00D-06  THRGAP  =  1.00D-06  THRLOCT = -1.00D+00  THRGAPT = -1.00D+00  THRORB  =  1.00D-06  THRMLTP =  0.00D+00
 THRCPQCI=  1.00D-10  KEXTA   =  0.00D+00  THRCOARS=  0.00D+00  SYMTOL  =  1.00D-06  GRADTOL =  1.00D-06  THROVL  =  1.00D-08
 THRORTH =  1.00D-08  GRID    =  1.00D-06  GRIDMAX =  1.00D-03  DTMAX   =  0.00D+00  THROCCDE=  1.00D-01  THROCCDE=  1.00D-01



 Input parameters for SORTINT:

 COMPRESS =    0.000000
 C_FINAL  =    1.000000
 DEBUG    =   -1.000000
 C_SORT1  =    0.000000
 C_SEWARD =    0.000000
 THRESH   =    0.000000
 IO       =  molpro                                                          
 SPRI     =    0.000000
 SETTING GEOMTYP        =    XYZ
 ZUNIT=BOHR
 

 Variable memory set to  995000000 words,  buffer space   230000 words

 SETTING BASIS          =    USERDEF


 Recomputing integrals since basis changed


 Using spherical harmonics

 Library entry H      S aug-cc-pVTZ          selected for orbital group  1
 Library entry H      P aug-cc-pVTZ          selected for orbital group  1
 Library entry H      D aug-cc-pVTZ          selected for orbital group  1


 PROGRAM * SEWARD (Integral evaluation for generally contracted gaussian basis sets)     Author: Roland Lindh, 1990

 Geometry written to block  1 of record 700


 Point group  Cs  



 ATOMIC COORDINATES

 NR  ATOM    CHARGE       X              Y              Z

   1  H       1.00    0.000000000    1.676161094   -1.939942948
   2  N       7.00    0.000000000   -0.165497852   -1.142349638
   3  O       8.00    0.000000000    0.031104548    1.131702995

 Bond lengths in Bohr (Angstrom)

 1-2  2.006953602  2-3  2.282535406
     ( 1.062034109)     ( 1.207865720)

 Bond angles

  1-2-3  108.47547239

 NUCLEAR CHARGE:                   16
 NUMBER OF PRIMITIVE AOS:         203
 NUMBER OF SYMMETRY AOS:          173
 NUMBER OF CONTRACTIONS:          171   ( 114A'  +  57A"  )
 NUMBER OF CORE ORBITALS:           2   (   2A'  +   0A"  )
 NUMBER OF VALENCE ORBITALS:        9   (   7A'  +   2A"  )


 NUCLEAR REPULSION ENERGY   30.31792539


 Eigenvalues of metric

         1 0.106E-02 0.249E-02 0.338E-02 0.643E-02 0.102E-01 0.138E-01 0.145E-01 0.235E-01
         2 0.375E-01 0.532E-01 0.705E-01 0.942E-01 0.131E+00 0.134E+00 0.141E+00 0.142E+00


 Contracted 2-electron integrals neglected if value below      1.0D-22

       46151446. INTEGRALS WRITTEN OUT IN   11271 BLOCKS ON RECORD 1290 OF FILE 1


 NUMBER OF SORTED TWO-ELECTRON INTEGRALS:   55360566.     BUFFER LENGTH:  32768
 NUMBER OF SEGMENTS:   4  SEGMENT LENGTH:   15997996      RECORD LENGTH: 524288

 Memory used in sort:      16.56 MW

 SORT1 READ    46151446. AND WROTE    46588930. INTEGRALS IN    136 RECORDS. CPU TIME:     0.73 SEC, REAL TIME:     1.00 SEC
 SORT2 READ    46588930. AND WROTE    55360566. INTEGRALS IN      4 RECORDS. CPU TIME:     0.60 SEC, REAL TIME:     0.84 SEC

 FILE SIZES:   FILE 1:   759.4 MBYTE,  FILE 4:   570.5 MBYTE,   TOTAL:   1329.8 MBYTE

 OPERATOR DM      FOR CENTER  0  COORDINATES:    0.000000    0.000000    0.000000


 **********************************************************************************************************************************
 DATASETS  * FILE   NREC   LENGTH (MB)   RECORD NAMES
              1      19      421.29       500      610      700      900      950      970     1000      129      960     1100   
                                          VAR    BASINP    GEOM    SYMINP    ZMAT    AOBASIS   BASIS     P2S    ABASIS      S 
                                         1400     1410     1200     1210     1080     1600     1650     1300     1700   
                                           T        V       H0       H01     AOSYM     SMH    MOLCAS    ERIS     OPER   

 PROGRAMS   *        TOTAL       INT
 CPU TIMES  *         3.92      3.84
 REAL TIME  *         5.35 SEC
 DISK USED  *         1.33 GB      
 **********************************************************************************************************************************


 PROGRAM * RHF-SCF (CLOSED SHELL)       Authors: W. Meyer, H.-J. Werner


 NUMBER OF ELECTRONS:       8+    8-
 CONVERGENCE THRESHOLDS:    1.00E-10 (Density)    1.00E-13 (Energy)
 MAX. NUMBER OF ITERATIONS:      500
 INTERPOLATION TYPE:            DIIS
 INTERPOLATION STEPS:              2 (START)      1 (STEP)
 LEVEL SHIFTS:                  0.00 (CLOSED)  0.00 (OPEN) 



 Orbital guess generated from atomic densities. Full valence occupancy:    9   2

 Molecular orbital dump at record        2100.2

 Initial occupancy:   7   1

 ITERATION    DDIFF          GRAD             ENERGY        2-EL.EN.            DIPOLE MOMENTS         DIIS   ORB.
    1      0.000D+00      0.000D+00      -129.78844922    153.960588    0.00000    0.56531   -1.01506    0    start
    2      0.000D+00      0.882D-02      -129.81534012    155.148275    0.00000    0.59627   -0.19330    1    diag
    3      0.363D-02      0.673D-02      -129.83852044    155.265753    0.00000    0.54393   -0.58348    2    diag
    4      0.143D-02      0.104D-02      -129.83930652    154.989742    0.00000    0.55183   -0.52104    3    diag
    5      0.330D-03      0.338D-03      -129.83942872    155.078688    0.00000    0.55802   -0.52354    4    diag
    6      0.153D-03      0.998D-04      -129.83944878    155.062465    0.00000    0.55859   -0.51938    5    diag
    7      0.610D-04      0.499D-04      -129.83945467    155.065059    0.00000    0.55996   -0.51688    6    diag
    8      0.413D-04      0.171D-04      -129.83945530    155.064228    0.00000    0.56002   -0.51597    7    diag
    9      0.144D-04      0.322D-05      -129.83945533    155.064111    0.00000    0.55997   -0.51578    8    diag
   10      0.292D-05      0.735D-06      -129.83945533    155.064096    0.00000    0.55993   -0.51575    9    orth
   11      0.862D-06      0.146D-06      -129.83945533    155.064091    0.00000    0.55992   -0.51575    9    diag
   12      0.206D-06      0.304D-07      -129.83945533    155.064091    0.00000    0.55992   -0.51575    9    diag
   13      0.507D-07      0.807D-08      -129.83945533    155.064090    0.00000    0.55992   -0.51575    9    diag
   14      0.119D-07      0.143D-08      -129.83945533    155.064090    0.00000    0.55992   -0.51575    9    diag
   15      0.153D-08      0.386D-09      -129.83945533    155.064090    0.00000    0.55992   -0.51575    9    diag
   16      0.338D-09      0.114D-09      -129.83945533    155.064090    0.00000    0.55992   -0.51575    9    diag
   17      0.803D-10      0.324D-10      -129.83945533    155.064090    0.00000    0.55992   -0.51575    9    diag
   18      0.260D-10      0.109D-10      -129.83945533    155.064090    0.00000    0.55992   -0.51575    9    diag
   19      0.106D-10      0.264D-11      -129.83945533    155.064090    0.00000    0.55992   -0.51575    9    fixocc
   20      0.266D-11      0.663D-12      -129.83945533    155.064090    0.00000    0.55992   -0.51575    9    orth
   21      0.385D-12      0.422D-12      -129.83945533    155.064090    0.00000    0.55992   -0.51575    0    orth

 Final occupancy:   7   1

 !RHF STATE 1.1 Energy               -129.839455330721
 Nuclear energy                        30.31792539
 One-electron energy                 -237.68942581
 Two-electron energy                   77.53204509
 Virial quotient                       -1.00175537
 !RHF STATE 1.1 Dipole moment           0.00000000     0.55991946    -0.51574804
 Dipole moment /Debye                   0.00000000     1.42308010    -1.31081491

 Orbital energies:

         1.1          2.1          3.1          4.1          5.1          6.1          7.1          8.1          9.1
    -20.651550   -15.711889    -1.527883    -0.990589    -0.744113    -0.664328    -0.427937     0.039620     0.191868

         1.2          2.2          3.2
     -0.594380     0.079067     0.239478

 HOMO      7.1    -0.427937 =     -11.6448eV
 LUMO      8.1     0.039620 =       1.0781eV
 LUMO-HOMO         0.467557 =      12.7229eV


 **********************************************************************************************************************************
 DATASETS  * FILE   NREC   LENGTH (MB)   RECORD NAMES
              1      19      421.29       500      610      700      900      950      970     1000      129      960     1100   
                                          VAR    BASINP    GEOM    SYMINP    ZMAT    AOBASIS   BASIS     P2S    ABASIS      S 
                                         1400     1410     1200     1210     1080     1600     1650     1300     1700   
                                           T        V       H0       H01     AOSYM     SMH    MOLCAS    ERIS     OPER   

              2       4        3.13       700     1000      520     2100   
                                         GEOM     BASIS   MCVARS     RHF  

 PROGRAMS   *        TOTAL        HF       INT
 CPU TIMES  *         8.93      5.01      3.84
 REAL TIME  *        11.57 SEC
 DISK USED  *         1.33 GB      
 **********************************************************************************************************************************


 PROGRAM * CCSD (Closed-shell coupled cluster)     Authors: C. Hampel, H.-J. Werner, 1991, M. Deegan, P.J. Knowles, 1992


 Convergence thresholds:  THRVAR = 1.00D-08  THRDEN = 1.00D-12

 CCSD(T)     terms to be evaluated (factor= 1.000)


 Number of closed-shell orbitals:   8 (   7   1 )
 Number of external orbitals:     163 ( 107  56 )

 Molecular orbitals read from record     2100.2  Type=RHF/CANONICAL (state 1.1)

 Number of N-1 electron functions:               8
 Number of N-2 electron functions:              36
 Number of singly external CSFs:               805
 Number of doubly external CSFs:            449165
 Total number of CSFs:                      449971

 Length of J-op  integral file:               0.00 MB
 Length of K-op  integral file:               1.15 MB
 Length of 3-ext integral record:             0.00 MB

 Memory could be reduced to 24.90 Mwords without degradation in triples

 Integral transformation finished. Total CPU:   0.81 sec, npass=  1  Memory used:   6.89 MW

 Reference energy:                   -129.83945533

 MP2 singlet pair energy:              -0.37914793
 MP2 triplet pair energy:              -0.18674141
 MP2 correlation energy:               -0.56588934
 MP2 total energy:                   -130.40534467

 SCS-MP2 correlation energy:           -0.57117217   (PS=  1.200000  PT=  0.333333)
 SCS-MP2 total energy:               -130.41062750

 ITER.      SQ.NORM     CORR.ENERGY   TOTAL ENERGY   ENERGY CHANGE        DEN1      VAR(S)    VAR(P)  DIIS     TIME  TIME/IT
   1      1.12009935    -0.57059848  -130.41005381    -0.00470915     0.01309193  0.34D-02  0.31D-02  1  1     1.77     1.01
   2      1.13104576    -0.57029298  -130.40974831     0.00030550    -0.01377079  0.91D-04  0.50D-03  2  2     2.69     1.01
   3      1.13634714    -0.57062555  -130.41008088    -0.00033257    -0.00237395  0.57D-04  0.69D-04  3  3     3.63     1.02
   4      1.13981246    -0.57061647  -130.41007180     0.00000908    -0.00139619  0.47D-05  0.99D-05  4  4     4.55     1.02
   5      1.14088253    -0.57064130  -130.41009663    -0.00002483    -0.00025256  0.17D-05  0.19D-05  5  5     5.47     1.02
   6      1.14129933    -0.57063520  -130.41009054     0.00000610    -0.00004031  0.15D-06  0.41D-06  6  6     6.43     1.03
   7      1.14138551    -0.57063537  -130.41009070    -0.00000017     0.00000041  0.22D-07  0.93D-07  6  1     7.35     1.02
   8      1.14142047    -0.57063362  -130.41008895     0.00000176    -0.00000486  0.41D-08  0.14D-07  6  2     8.26     1.02
   9      1.14142564    -0.57063365  -130.41008898    -0.00000004     0.00000109  0.18D-08  0.18D-08  6  3     9.19     1.02
  10      1.14142743    -0.57063396  -130.41008929    -0.00000031    -0.00000066  0.41D-09  0.26D-09  6  4    10.17     1.02
  11      1.14142647    -0.57063410  -130.41008943    -0.00000014     0.00000034  0.10D-09  0.26D-10  6  5    11.13     1.03
  12      1.14142555    -0.57063424  -130.41008957    -0.00000014     0.00000036  0.11D-10  0.68D-11  6  6    12.04     1.03
  13      1.14142501    -0.57063425  -130.41008958    -0.00000001     0.00000011  0.46D-11  0.12D-11  6  1    12.96     1.02
  14      1.14142456    -0.57063428  -130.41008961    -0.00000003     0.00000011  0.47D-12  0.41D-12  6  3    13.88     1.02
  15      1.14142439    -0.57063428  -130.41008961    -0.00000000     0.00000002  0.12D-12  0.28D-13  6  2    14.81     1.02
  16      1.14142434    -0.57063428  -130.41008961    -0.00000000     0.00000001  0.26D-13  0.62D-14  6  4    15.79     1.03
  17      1.14142431    -0.57063428  -130.41008961    -0.00000000     0.00000001  0.45D-14  0.11D-14  6  5    16.73     1.03
  18      1.14142431    -0.57063428  -130.41008961    -0.00000000     0.00000000  0.45D-15  0.30D-15  6  6    17.62     1.03
  19      1.14142431    -0.57063428  -130.41008961     0.00000000    -0.00000000  0.56D-16  0.39D-16  6  1    18.51     1.02
  20      1.14142432    -0.57063428  -130.41008961     0.00000000    -0.00000000  0.24D-17  0.83D-17  6  3    19.42     1.02
  21      1.14142432    -0.57063428  -130.41008961     0.00000000    -0.00000000  0.12D-17  0.20D-17  6  2    20.31     1.02
  22      1.14142432    -0.57063428  -130.41008961     0.00000000    -0.00000000  0.20D-18  0.75D-18  6  4    21.22     1.02
  23      1.14142432    -0.57063428  -130.41008961    -0.00000000     0.00000000  0.12D-18  0.11D-18  6  5    22.14     1.02
  24      1.14142432    -0.57063428  -130.41008961     0.00000000    -0.00000000  0.58D-20  0.14D-19  6  1    23.10     1.02
  25      1.14142432    -0.57063428  -130.41008961     0.00000000     0.00000000  0.30D-21  0.15D-20  6  6    24.09     1.02
  26      1.14142432    -0.57063428  -130.41008961    -0.00000000     0.00000000  0.12D-21  0.33D-21  6  3    25.02     1.02

 Norm of t1 vector:      0.07823480      S-energy:     0.00000000      T1 diagnostic:  0.01383009
                                                                       D1 diagnostic:  0.04409785

 Doubles amplitudes (print threshold =  0.500E-01):

         I         J         SYM. A    SYM. B    A         B      T(IJ, AB)

         8         8         2         2         1         1     -0.13443205


 Total CPU time for triples:     15.08 sec


 RESULTS
 =======

  Reference energy                   -129.839455330721

  Correlated core orbitals:             1.1       2.1
  Orbital energies:                   -20.6515  -15.7119
 
  CCSD core-core energy                -0.079234172147
  CCSD core-valence energy             -0.036055307772
  CCSD valence correlation energy      -0.455344801736
 
  CCSD singlet pair energy             -0.408143220816
  CCSD triplet pair energy             -0.162491060840
  CCSD correlation energy              -0.570634281655

  Triples (T) contribution             -0.022354734659
  Total correlation energy             -0.592989016315

  CCSD total energy                  -130.410089612377
  CCSD[T] energy                     -130.433627896906
  CCSD-T energy                      -130.431999529471
 !CCSD(T) total energy               -130.432444347036

 Timing summary (sec):

 STEP                 CPU(USER)    SYS     CPU(TOT)    WALL
 Transformation          0.83      0.15      0.98      0.99
 CCSD iterations        24.21      2.43     26.64     26.63
 Triples                15.08      0.56     15.64     15.65

 Program statistics:

 Available memory in ccsd:               994999644
 Min. memory needed in ccsd:               1368037
 Max. memory used in ccsd:                 1750502
 Max. memory used in cckext:               2014357 (26 integral passes)



 **********************************************************************************************************************************
 DATASETS  * FILE   NREC   LENGTH (MB)   RECORD NAMES
              1      20      500.20       500      610      700      900      950      970     1000      129      960     1100   
                                          VAR    BASINP    GEOM    SYMINP    ZMAT    AOBASIS   BASIS     P2S    ABASIS      S 
                                         1400     1410     1200     1210     1080     1600     1650     1300     1700     1380   
                                           T        V       H0       H01     AOSYM     SMH    MOLCAS    ERIS     OPER     JKOP   

              2       4        3.13       700     1000      520     2100   
                                         GEOM     BASIS   MCVARS     RHF  

 PROGRAMS   *        TOTAL   CCSD(T)        HF       INT
 CPU TIMES  *        49.06     40.13      5.01      3.84
 REAL TIME  *        54.88 SEC
 DISK USED  *         1.33 GB      
 **********************************************************************************************************************************

 CCSD(T)/USERDEF energy=   -130.432444347036

        CCSD(T)         HF-SCF  
   -130.43244435   -129.83945533
 **********************************************************************************************************************************
 Molpro calculation terminated
 Variable memory released
