
 Primary working directories    : /tmp/r2666/282477.maple
 Secondary working directories  : /tmp/r2666/282477.maple
 Wavefunction directory         : /ddn/home4/r2666/wfu/
 Main file repository           : /tmp/r2666/282477.maple/

 SHA1      : d5ffa45e93fdbca01ffc919aa182cfdae0147319
 NAME      : 2015.1.35
 ARCHNAME  : linux/x86_64
 FC        : /opt/intel/composer_xe_2015.1.133/bin/intel64/ifort
 BLASLIB   : -Wl,-_start-group /opt/intel/mkl/lib/intel64/libmkl_intel_ilp64.a /opt/intel/mkl/lib/intel64/libmkl_intel_thread.a /opt/intel/mkl/lib/intel64/libmkl_core.a -Wl,-_end-group
 id        : olemiss

 Nodes     nprocs
 cn047        1

 Using customized tuning parameters: mindgm=1; mindgv=20; mindgc=4; mindgr=1; noblas=0; minvec=7
 default implementation of scratch files=df  

 ***,hno CCSD(T)/TZ-F12 QFF
 memory, 995, m;
 gthresh,energy=1.d-12,zero=1.d-22,oneint=1.d-22,twoint=1.d-22;
 gthresh,optgrad=1.d-8,optstep=1.d-8;
 nocompress;
 geomtyp=xyz
 bohr
 geometry={
 3
        116       116
 H        0.0000000000        1.6757426304       -1.9328017016
 N        0.0000000000       -0.1703280053       -1.1454733277
 O        0.0000000000        0.0363531649        1.1276854383
 }
 
 basis={
 default=aug-cc-pvtz
 s,C,8236.0,1235.0,280.8, 79.27,25.59, 8.997,3.319
 s,C,0.9059,0.3643,0.1285000
 p,C,56.0,18.71,4.133,0.2827,0.3827,0.1209
 d,C,30.0,10.0,3.3,1.097,0.318
 f,C,7.0,2.3,0.7610
 s,N,11420.0,1712.0,389.3,110.0,35.57,12.54,4.644
 s,N,1.293,0.5118,0.1787
 p,N,79.89,26.63,5.948,1.742,0.555,0.1725
 d,N,45.0,15.0,5.0,1.654,0.469
 f,N,9.9,3.3,1.093
 s,O,15330.0,2299.0,522.4,147.3,47.55,16.76,6.207
 s,O,1.752,0.6882,0.2384
 p,O,103.5,34.46,7.749,2.28,0.7156,0.214
 d,O,63.0,21.0,7.0,2.314,0.645
 f,O,12.9,4.3,1.428
 s,mg,164900.0,24710.0,5628.0,1596.0,521.0;
 s,mg,188.0,73.01,29.90,12.54,4.306,1.826;
 s,mg,0.7417,0.0761,0.145,0.033,0.0129;
 p,mg,950.70,316.90,74.86,23.72,8.669,3.363;
 p,mg,1.310,0.4911,0.2364,0.08733,0.03237,0.00745;
 d,mg,1.601,0.686,0.126,0.294,0.0468;
 f,mg,1.372,0.588,0.094,0.252;
 }
   {hf,maxit=500;accu,20;}
 {ccsd(t),nocheck,maxit=250;orbital,IGNORE_ERROR;core}

 Variables initialized (889), CPU time= 0.00 sec
 Commands  initialized (702), CPU time= 0.01 sec, 572 directives.
 Default parameters read. Elapsed time= 0.05 sec

 Checking input...
 Passed
1


                                         ***  PROGRAM SYSTEM MOLPRO  ***
                                       Copyright, TTI GmbH Stuttgart, 2015
                                    Version 2015.1 linked Jul  9 2018 13:16:40


 **********************************************************************************************************************************
 LABEL *   hno CCSD(T)/TZ-F12 QFF                                                        
  64 bit serial version                                                                  DATE: 04-Mar-20          TIME: 13:50:27  
 **********************************************************************************************************************************

 SHA1:             d5ffa45e93fdbca01ffc919aa182cfdae0147319
 **********************************************************************************************************************************

 THRESHOLDS:

 ZERO    =  1.00D-22  ONEINT  =  1.00D-22  TWOINT  =  1.00D-22  PREFAC  =  1.00D-14  LOCALI  =  1.00D-09  EORDER  =  1.00D-04
 ENERGY  =  1.00D-12  ETEST   =  0.00D+00  EDENS   =  0.00D+00  THRDEDEF=  1.00D-06  GRADIENT=  1.00D-02  STEP    =  1.00D-03
 ORBITAL =  1.00D-05  CIVEC   =  1.00D-05  COEFF   =  1.00D-04  PRINTCI =  5.00D-02  PUNCHCI =  9.90D+01  OPTGRAD =  3.00D-04
 OPTENERG=  1.00D-06  OPTSTEP =  3.00D-04  THRGRAD =  1.00D-10  COMPRESS=  1.00D-11  VARMIN  =  1.00D-07  VARMAX  =  1.00D-03
 THRDOUB =  0.00D+00  THRDIV  =  1.00D-05  THRRED  =  1.00D-07  THRPSP  =  1.00D+00  THRDC   =  1.00D-10  THRCS   =  1.00D-10
 THRNRM  =  1.00D-08  THREQ   =  0.00D+00  THRDE   =  1.00D+00  THRREF  =  1.00D-05  SPARFAC =  1.00D+00  THRDLP  =  1.00D-07
 THRDIA  =  1.00D-10  THRDLS  =  1.00D-07  THRGPS  =  0.00D+00  THRKEX  =  0.00D+00  THRDIS  =  2.00D-01  THRVAR  =  1.00D-10
 THRLOC  =  1.00D-06  THRGAP  =  1.00D-06  THRLOCT = -1.00D+00  THRGAPT = -1.00D+00  THRORB  =  1.00D-06  THRMLTP =  0.00D+00
 THRCPQCI=  1.00D-10  KEXTA   =  0.00D+00  THRCOARS=  0.00D+00  SYMTOL  =  1.00D-06  GRADTOL =  1.00D-06  THROVL  =  1.00D-08
 THRORTH =  1.00D-08  GRID    =  1.00D-06  GRIDMAX =  1.00D-03  DTMAX   =  0.00D+00  THROCCDE=  1.00D-01  THROCCDE=  1.00D-01



 THRESHOLDS:

 ZERO    =  1.00D-22  ONEINT  =  1.00D-22  TWOINT  =  1.00D-22  PREFAC  =  1.00D-14  LOCALI  =  1.00D-09  EORDER  =  1.00D-04
 ENERGY  =  1.00D-12  ETEST   =  0.00D+00  EDENS   =  0.00D+00  THRDEDEF=  1.00D-06  GRADIENT=  1.00D-02  STEP    =  1.00D-03
 ORBITAL =  1.00D-05  CIVEC   =  1.00D-05  COEFF   =  1.00D-04  PRINTCI =  5.00D-02  PUNCHCI =  9.90D+01  OPTGRAD =  1.00D-08
 OPTENERG=  1.00D-06  OPTSTEP =  1.00D-08  THRGRAD =  1.00D-10  COMPRESS=  1.00D-11  VARMIN  =  1.00D-07  VARMAX  =  1.00D-03
 THRDOUB =  0.00D+00  THRDIV  =  1.00D-05  THRRED  =  1.00D-07  THRPSP  =  1.00D+00  THRDC   =  1.00D-10  THRCS   =  1.00D-10
 THRNRM  =  1.00D-08  THREQ   =  0.00D+00  THRDE   =  1.00D+00  THRREF  =  1.00D-05  SPARFAC =  1.00D+00  THRDLP  =  1.00D-07
 THRDIA  =  1.00D-10  THRDLS  =  1.00D-07  THRGPS  =  0.00D+00  THRKEX  =  0.00D+00  THRDIS  =  2.00D-01  THRVAR  =  1.00D-10
 THRLOC  =  1.00D-06  THRGAP  =  1.00D-06  THRLOCT = -1.00D+00  THRGAPT = -1.00D+00  THRORB  =  1.00D-06  THRMLTP =  0.00D+00
 THRCPQCI=  1.00D-10  KEXTA   =  0.00D+00  THRCOARS=  0.00D+00  SYMTOL  =  1.00D-06  GRADTOL =  1.00D-06  THROVL  =  1.00D-08
 THRORTH =  1.00D-08  GRID    =  1.00D-06  GRIDMAX =  1.00D-03  DTMAX   =  0.00D+00  THROCCDE=  1.00D-01  THROCCDE=  1.00D-01



 Input parameters for SORTINT:

 COMPRESS =    0.000000
 C_FINAL  =    1.000000
 DEBUG    =   -1.000000
 C_SORT1  =    0.000000
 C_SEWARD =    0.000000
 THRESH   =    0.000000
 IO       =  molpro                                                          
 SPRI     =    0.000000
 SETTING GEOMTYP        =    XYZ
 ZUNIT=BOHR
 

 Variable memory set to  995000000 words,  buffer space   230000 words

 SETTING BASIS          =    USERDEF


 Recomputing integrals since basis changed


 Using spherical harmonics

 Library entry H      S aug-cc-pVTZ          selected for orbital group  1
 Library entry H      P aug-cc-pVTZ          selected for orbital group  1
 Library entry H      D aug-cc-pVTZ          selected for orbital group  1


 PROGRAM * SEWARD (Integral evaluation for generally contracted gaussian basis sets)     Author: Roland Lindh, 1990

 Geometry written to block  1 of record 700


 Point group  Cs  



 ATOMIC COORDINATES

 NR  ATOM    CHARGE       X              Y              Z

   1  H       1.00    0.000000000    1.675742630   -1.932801702
   2  N       7.00    0.000000000   -0.170328005   -1.145473328
   3  O       8.00    0.000000000    0.036353165    1.127685438

 Bond lengths in Bohr (Angstrom)

 1-2  2.006953602  2-3  2.282535406
     ( 1.062034110)     ( 1.207865720)

 Bond angles

  1-2-3  107.90251459

 NUCLEAR CHARGE:                   16
 NUMBER OF PRIMITIVE AOS:         203
 NUMBER OF SYMMETRY AOS:          173
 NUMBER OF CONTRACTIONS:          171   ( 114A'  +  57A"  )
 NUMBER OF CORE ORBITALS:           2   (   2A'  +   0A"  )
 NUMBER OF VALENCE ORBITALS:        9   (   7A'  +   2A"  )


 NUCLEAR REPULSION ENERGY   30.32619968


 Eigenvalues of metric

         1 0.106E-02 0.250E-02 0.337E-02 0.642E-02 0.102E-01 0.138E-01 0.145E-01 0.235E-01
         2 0.376E-01 0.533E-01 0.707E-01 0.941E-01 0.131E+00 0.134E+00 0.141E+00 0.142E+00


 Contracted 2-electron integrals neglected if value below      1.0D-22

       46153435. INTEGRALS WRITTEN OUT IN   11271 BLOCKS ON RECORD 1290 OF FILE 1


 NUMBER OF SORTED TWO-ELECTRON INTEGRALS:   55360566.     BUFFER LENGTH:  32768
 NUMBER OF SEGMENTS:   4  SEGMENT LENGTH:   15997996      RECORD LENGTH: 524288

 Memory used in sort:      16.56 MW

 SORT1 READ    46153435. AND WROTE    46590945. INTEGRALS IN    136 RECORDS. CPU TIME:     1.65 SEC, REAL TIME:     2.04 SEC
 SORT2 READ    46590945. AND WROTE    55360566. INTEGRALS IN      4 RECORDS. CPU TIME:     0.94 SEC, REAL TIME:     1.20 SEC

 FILE SIZES:   FILE 1:   759.4 MBYTE,  FILE 4:   570.5 MBYTE,   TOTAL:   1329.8 MBYTE

 OPERATOR DM      FOR CENTER  0  COORDINATES:    0.000000    0.000000    0.000000


 **********************************************************************************************************************************
 DATASETS  * FILE   NREC   LENGTH (MB)   RECORD NAMES
              1      19      421.30       500      610      700      900      950      970     1000      129      960     1100   
                                          VAR    BASINP    GEOM    SYMINP    ZMAT    AOBASIS   BASIS     P2S    ABASIS      S 
                                         1400     1410     1200     1210     1080     1600     1650     1300     1700   
                                           T        V       H0       H01     AOSYM     SMH    MOLCAS    ERIS     OPER   

 PROGRAMS   *        TOTAL       INT
 CPU TIMES  *         6.99      6.89
 REAL TIME  *         8.86 SEC
 DISK USED  *         1.33 GB      
 **********************************************************************************************************************************


 PROGRAM * RHF-SCF (CLOSED SHELL)       Authors: W. Meyer, H.-J. Werner


 NUMBER OF ELECTRONS:       8+    8-
 CONVERGENCE THRESHOLDS:    1.00E-10 (Density)    1.00E-13 (Energy)
 MAX. NUMBER OF ITERATIONS:      500
 INTERPOLATION TYPE:            DIIS
 INTERPOLATION STEPS:              2 (START)      1 (STEP)
 LEVEL SHIFTS:                  0.00 (CLOSED)  0.00 (OPEN) 



 Orbital guess generated from atomic densities. Full valence occupancy:    9   2

 Molecular orbital dump at record        2100.2

 Initial occupancy:   7   1

 ITERATION    DDIFF          GRAD             ENERGY        2-EL.EN.            DIPOLE MOMENTS         DIIS   ORB.
    1      0.000D+00      0.000D+00      -129.78839328    153.977897    0.00000    0.56027   -1.01373    0    start
    2      0.000D+00      0.883D-02      -129.81529774    155.162964    0.00000    0.59658   -0.19088    1    diag
    3      0.363D-02      0.674D-02      -129.83853172    155.280971    0.00000    0.54163   -0.58120    2    diag
    4      0.143D-02      0.104D-02      -129.83931624    155.005231    0.00000    0.54981   -0.51894    3    diag
    5      0.329D-03      0.339D-03      -129.83943863    155.094009    0.00000    0.55596   -0.52139    4    diag
    6      0.153D-03      0.100D-03      -129.83945875    155.077771    0.00000    0.55652   -0.51723    5    diag
    7      0.610D-04      0.500D-04      -129.83946466    155.080367    0.00000    0.55789   -0.51472    6    diag
    8      0.413D-04      0.172D-04      -129.83946529    155.079531    0.00000    0.55794   -0.51381    7    diag
    9      0.144D-04      0.321D-05      -129.83946532    155.079414    0.00000    0.55789   -0.51362    8    diag
   10      0.292D-05      0.731D-06      -129.83946532    155.079400    0.00000    0.55785   -0.51360    9    orth
   11      0.859D-06      0.146D-06      -129.83946532    155.079395    0.00000    0.55785   -0.51359    9    diag
   12      0.205D-06      0.304D-07      -129.83946532    155.079394    0.00000    0.55784   -0.51359    9    diag
   13      0.509D-07      0.807D-08      -129.83946532    155.079394    0.00000    0.55784   -0.51359    9    diag
   14      0.119D-07      0.143D-08      -129.83946532    155.079394    0.00000    0.55784   -0.51359    9    diag
   15      0.153D-08      0.386D-09      -129.83946532    155.079394    0.00000    0.55784   -0.51359    9    diag
   16      0.338D-09      0.115D-09      -129.83946532    155.079394    0.00000    0.55784   -0.51359    9    diag
   17      0.819D-10      0.329D-10      -129.83946532    155.079394    0.00000    0.55784   -0.51359    0    orth

 Final occupancy:   7   1

 !RHF STATE 1.1 Energy               -129.839465320407
 Nuclear energy                        30.32619968
 One-electron energy                 -237.70536200
 Two-electron energy                   77.53969700
 Virial quotient                       -1.00173911
 !RHF STATE 1.1 Dipole moment           0.00000000     0.55784313    -0.51359149
 Dipole moment /Debye                   0.00000000     1.41780294    -1.30533387

 Orbital energies:

         1.1          2.1          3.1          4.1          5.1          6.1          7.1          8.1          9.1
    -20.651412   -15.711999    -1.528173    -0.990252    -0.744147    -0.664223    -0.428322     0.039679     0.191910

         1.2          2.2          3.2
     -0.594457     0.079203     0.239420

 HOMO      7.1    -0.428322 =     -11.6552eV
 LUMO      8.1     0.039679 =       1.0797eV
 LUMO-HOMO         0.468001 =      12.7349eV


 **********************************************************************************************************************************
 DATASETS  * FILE   NREC   LENGTH (MB)   RECORD NAMES
              1      19      421.30       500      610      700      900      950      970     1000      129      960     1100   
                                          VAR    BASINP    GEOM    SYMINP    ZMAT    AOBASIS   BASIS     P2S    ABASIS      S 
                                         1400     1410     1200     1210     1080     1600     1650     1300     1700   
                                           T        V       H0       H01     AOSYM     SMH    MOLCAS    ERIS     OPER   

              2       4        3.13       700     1000      520     2100   
                                         GEOM     BASIS   MCVARS     RHF  

 PROGRAMS   *        TOTAL        HF       INT
 CPU TIMES  *        13.57      6.58      6.89
 REAL TIME  *        16.90 SEC
 DISK USED  *         1.33 GB      
 **********************************************************************************************************************************


 PROGRAM * CCSD (Closed-shell coupled cluster)     Authors: C. Hampel, H.-J. Werner, 1991, M. Deegan, P.J. Knowles, 1992


 Convergence thresholds:  THRVAR = 1.00D-08  THRDEN = 1.00D-12

 CCSD(T)     terms to be evaluated (factor= 1.000)


 Number of closed-shell orbitals:   8 (   7   1 )
 Number of external orbitals:     163 ( 107  56 )

 Molecular orbitals read from record     2100.2  Type=RHF/CANONICAL (state 1.1)

 Number of N-1 electron functions:               8
 Number of N-2 electron functions:              36
 Number of singly external CSFs:               805
 Number of doubly external CSFs:            449165
 Total number of CSFs:                      449971

 Length of J-op  integral file:               0.00 MB
 Length of K-op  integral file:               1.15 MB
 Length of 3-ext integral record:             0.00 MB

 Memory could be reduced to 24.90 Mwords without degradation in triples

 Integral transformation finished. Total CPU:   1.40 sec, npass=  1  Memory used:   6.89 MW

 Reference energy:                   -129.83946532

 MP2 singlet pair energy:              -0.37914915
 MP2 triplet pair energy:              -0.18674045
 MP2 correlation energy:               -0.56588960
 MP2 total energy:                   -130.40535492

 SCS-MP2 correlation energy:           -0.57117303   (PS=  1.200000  PT=  0.333333)
 SCS-MP2 total energy:               -130.41063835

 ITER.      SQ.NORM     CORR.ENERGY   TOTAL ENERGY   ENERGY CHANGE        DEN1      VAR(S)    VAR(P)  DIIS     TIME  TIME/IT
   1      1.12008574    -0.57059815  -130.41006347    -0.00470855     0.01308007  0.34D-02  0.31D-02  1  1     2.97     1.61
   2      1.13102202    -0.57029491  -130.40976023     0.00030324    -0.01376380  0.91D-04  0.50D-03  2  2     4.57     1.66
   3      1.13631373    -0.57062623  -130.41009155    -0.00033132    -0.00237323  0.56D-04  0.69D-04  3  3     6.17     1.68
   4      1.13977072    -0.57061732  -130.41008264     0.00000891    -0.00139457  0.47D-05  0.98D-05  4  4     7.74     1.69
   5      1.14083345    -0.57064209  -130.41010741    -0.00002477    -0.00025107  0.17D-05  0.18D-05  5  5     9.31     1.69
   6      1.14124628    -0.57063606  -130.41010138     0.00000604    -0.00003993  0.15D-06  0.40D-06  6  6    10.91     1.70
   7      1.14133135    -0.57063622  -130.41010154    -0.00000017     0.00000045  0.22D-07  0.92D-07  6  1    12.50     1.70
   8      1.14136594    -0.57063446  -130.41009978     0.00000176    -0.00000483  0.40D-08  0.14D-07  6  2    14.09     1.71
   9      1.14137099    -0.57063451  -130.41009983    -0.00000005     0.00000110  0.17D-08  0.18D-08  6  3    15.68     1.71
  10      1.14137276    -0.57063481  -130.41010013    -0.00000030    -0.00000066  0.40D-09  0.25D-09  6  4    17.25     1.71
  11      1.14137181    -0.57063495  -130.41010027    -0.00000014     0.00000034  0.10D-09  0.26D-10  6  5    18.87     1.71
  12      1.14137091    -0.57063508  -130.41010040    -0.00000014     0.00000035  0.10D-10  0.65D-11  6  6    20.46     1.71
  13      1.14137038    -0.57063509  -130.41010041    -0.00000001     0.00000011  0.44D-11  0.12D-11  6  1    22.09     1.71
  14      1.14136995    -0.57063512  -130.41010044    -0.00000003     0.00000010  0.45D-12  0.40D-12  6  3    23.69     1.71
  15      1.14136978    -0.57063512  -130.41010044    -0.00000000     0.00000002  0.12D-12  0.27D-13  6  2    25.26     1.71
  16      1.14136973    -0.57063512  -130.41010044    -0.00000000     0.00000001  0.26D-13  0.60D-14  6  4    26.84     1.71
  17      1.14136971    -0.57063512  -130.41010044    -0.00000000     0.00000001  0.44D-14  0.11D-14  6  5    28.45     1.71
  18      1.14136970    -0.57063512  -130.41010044    -0.00000000     0.00000000  0.45D-15  0.29D-15  6  6    30.00     1.71
  19      1.14136970    -0.57063512  -130.41010044     0.00000000    -0.00000000  0.55D-16  0.38D-16  6  1    31.56     1.72
  20      1.14136971    -0.57063512  -130.41010044     0.00000000    -0.00000000  0.23D-17  0.82D-17  6  3    33.14     1.72
  21      1.14136971    -0.57063512  -130.41010044     0.00000000    -0.00000000  0.11D-17  0.20D-17  6  2    34.73     1.72
  22      1.14136971    -0.57063512  -130.41010044     0.00000000    -0.00000000  0.19D-18  0.74D-18  6  4    36.35     1.72
  23      1.14136971    -0.57063512  -130.41010044    -0.00000000     0.00000000  0.12D-18  0.11D-18  6  5    37.94     1.72
  24      1.14136971    -0.57063512  -130.41010044     0.00000000    -0.00000000  0.57D-20  0.14D-19  6  1    39.53     1.72
  25      1.14136971    -0.57063512  -130.41010044     0.00000000     0.00000000  0.30D-21  0.14D-20  6  6    41.09     1.72
  26      1.14136971    -0.57063512  -130.41010044    -0.00000000     0.00000000  0.11D-21  0.32D-21  6  3    42.70     1.72

 Norm of t1 vector:      0.07806713      S-energy:     0.00000000      T1 diagnostic:  0.01380045
                                                                       D1 diagnostic:  0.04404506

 Doubles amplitudes (print threshold =  0.500E-01):

         I         J         SYM. A    SYM. B    A         B      T(IJ, AB)

         8         8         2         2         1         1     -0.13451869


 Total CPU time for triples:     23.96 sec


 RESULTS
 =======

  Reference energy                   -129.839465320406

  Correlated core orbitals:             1.1       2.1
  Orbital energies:                   -20.6514  -15.7120
 
  CCSD core-core energy                -0.079233499652
  CCSD core-valence energy             -0.036055612030
  CCSD valence correlation energy      -0.455346011757
 
  CCSD singlet pair energy             -0.408143227831
  CCSD triplet pair energy             -0.162491895615
  CCSD correlation energy              -0.570635123439

  Triples (T) contribution             -0.022348931356
  Total correlation energy             -0.592984054795

  CCSD total energy                  -130.410100443845
  CCSD[T] energy                     -130.433629823870
  CCSD-T energy                      -130.432005338118
 !CCSD(T) total energy               -130.432449375202

 Timing summary (sec):

 STEP                 CPU(USER)    SYS     CPU(TOT)    WALL
 Transformation          1.43      0.21      1.64      1.64
 CCSD iterations        41.28      3.37     44.65     44.65
 Triples                23.96      0.67     24.63     24.63

 Program statistics:

 Available memory in ccsd:               994999644
 Min. memory needed in ccsd:               1368037
 Max. memory used in ccsd:                 1750502
 Max. memory used in cckext:               2014357 (26 integral passes)



 **********************************************************************************************************************************
 DATASETS  * FILE   NREC   LENGTH (MB)   RECORD NAMES
              1      20      500.22       500      610      700      900      950      970     1000      129      960     1100   
                                          VAR    BASINP    GEOM    SYMINP    ZMAT    AOBASIS   BASIS     P2S    ABASIS      S 
                                         1400     1410     1200     1210     1080     1600     1650     1300     1700     1380   
                                           T        V       H0       H01     AOSYM     SMH    MOLCAS    ERIS     OPER     JKOP   

              2       4        3.13       700     1000      520     2100   
                                         GEOM     BASIS   MCVARS     RHF  

 PROGRAMS   *        TOTAL   CCSD(T)        HF       INT
 CPU TIMES  *        80.26     66.69      6.58      6.89
 REAL TIME  *        87.86 SEC
 DISK USED  *         1.33 GB      
 **********************************************************************************************************************************

 CCSD(T)/USERDEF energy=   -130.432449375202

        CCSD(T)         HF-SCF  
   -130.43244938   -129.83946532
 **********************************************************************************************************************************
 Molpro calculation terminated
 Variable memory released
