
 Primary working directories    : /tmp/r2666/282406.maple
 Secondary working directories  : /tmp/r2666/282406.maple
 Wavefunction directory         : /ddn/home4/r2666/wfu/
 Main file repository           : /tmp/r2666/282406.maple/

 SHA1      : d5ffa45e93fdbca01ffc919aa182cfdae0147319
 NAME      : 2015.1.35
 ARCHNAME  : linux/x86_64
 FC        : /opt/intel/composer_xe_2015.1.133/bin/intel64/ifort
 BLASLIB   : -Wl,-_start-group /opt/intel/mkl/lib/intel64/libmkl_intel_ilp64.a /opt/intel/mkl/lib/intel64/libmkl_intel_thread.a /opt/intel/mkl/lib/intel64/libmkl_core.a -Wl,-_end-group
 id        : olemiss

 Nodes     nprocs
 cn080        1

 Using customized tuning parameters: mindgm=1; mindgv=20; mindgc=4; mindgr=1; noblas=0; minvec=7
 default implementation of scratch files=df  

 ***,hno CCSD(T)/TZ-F12 QFF
 memory, 995, m;
 gthresh,energy=1.d-12,zero=1.d-22,oneint=1.d-22,twoint=1.d-22;
 gthresh,optgrad=1.d-8,optstep=1.d-8;
 nocompress;
 geomtyp=xyz
 bohr
 geometry={
 3
         45        45
 H        0.0000000000        1.6647122751       -1.9321189941
 N        0.0000000000       -0.1573172911       -1.1606938596
 O        0.0000000000        0.0343728060        1.1422232627
 }
 
 basis={
 default=aug-cc-pvtz
 s,C,8236.0,1235.0,280.8, 79.27,25.59, 8.997,3.319
 s,C,0.9059,0.3643,0.1285000
 p,C,56.0,18.71,4.133,0.2827,0.3827,0.1209
 d,C,30.0,10.0,3.3,1.097,0.318
 f,C,7.0,2.3,0.7610
 s,N,11420.0,1712.0,389.3,110.0,35.57,12.54,4.644
 s,N,1.293,0.5118,0.1787
 p,N,79.89,26.63,5.948,1.742,0.555,0.1725
 d,N,45.0,15.0,5.0,1.654,0.469
 f,N,9.9,3.3,1.093
 s,O,15330.0,2299.0,522.4,147.3,47.55,16.76,6.207
 s,O,1.752,0.6882,0.2384
 p,O,103.5,34.46,7.749,2.28,0.7156,0.214
 d,O,63.0,21.0,7.0,2.314,0.645
 f,O,12.9,4.3,1.428
 s,mg,164900.0,24710.0,5628.0,1596.0,521.0;
 s,mg,188.0,73.01,29.90,12.54,4.306,1.826;
 s,mg,0.7417,0.0761,0.145,0.033,0.0129;
 p,mg,950.70,316.90,74.86,23.72,8.669,3.363;
 p,mg,1.310,0.4911,0.2364,0.08733,0.03237,0.00745;
 d,mg,1.601,0.686,0.126,0.294,0.0468;
 f,mg,1.372,0.588,0.094,0.252;
 }
   {hf,maxit=500;accu,20;}
 {ccsd(t),nocheck,maxit=250;orbital,IGNORE_ERROR;core}

 Variables initialized (889), CPU time= 0.01 sec
 Commands  initialized (702), CPU time= 0.01 sec, 572 directives.
 Default parameters read. Elapsed time= 0.04 sec

 Checking input...
 Passed
1


                                         ***  PROGRAM SYSTEM MOLPRO  ***
                                       Copyright, TTI GmbH Stuttgart, 2015
                                    Version 2015.1 linked Jul  9 2018 13:16:40


 **********************************************************************************************************************************
 LABEL *   hno CCSD(T)/TZ-F12 QFF                                                        
  64 bit serial version                                                                  DATE: 04-Mar-20          TIME: 13:49:03  
 **********************************************************************************************************************************

 SHA1:             d5ffa45e93fdbca01ffc919aa182cfdae0147319
 **********************************************************************************************************************************

 THRESHOLDS:

 ZERO    =  1.00D-22  ONEINT  =  1.00D-22  TWOINT  =  1.00D-22  PREFAC  =  1.00D-14  LOCALI  =  1.00D-09  EORDER  =  1.00D-04
 ENERGY  =  1.00D-12  ETEST   =  0.00D+00  EDENS   =  0.00D+00  THRDEDEF=  1.00D-06  GRADIENT=  1.00D-02  STEP    =  1.00D-03
 ORBITAL =  1.00D-05  CIVEC   =  1.00D-05  COEFF   =  1.00D-04  PRINTCI =  5.00D-02  PUNCHCI =  9.90D+01  OPTGRAD =  3.00D-04
 OPTENERG=  1.00D-06  OPTSTEP =  3.00D-04  THRGRAD =  1.00D-10  COMPRESS=  1.00D-11  VARMIN  =  1.00D-07  VARMAX  =  1.00D-03
 THRDOUB =  0.00D+00  THRDIV  =  1.00D-05  THRRED  =  1.00D-07  THRPSP  =  1.00D+00  THRDC   =  1.00D-10  THRCS   =  1.00D-10
 THRNRM  =  1.00D-08  THREQ   =  0.00D+00  THRDE   =  1.00D+00  THRREF  =  1.00D-05  SPARFAC =  1.00D+00  THRDLP  =  1.00D-07
 THRDIA  =  1.00D-10  THRDLS  =  1.00D-07  THRGPS  =  0.00D+00  THRKEX  =  0.00D+00  THRDIS  =  2.00D-01  THRVAR  =  1.00D-10
 THRLOC  =  1.00D-06  THRGAP  =  1.00D-06  THRLOCT = -1.00D+00  THRGAPT = -1.00D+00  THRORB  =  1.00D-06  THRMLTP =  0.00D+00
 THRCPQCI=  1.00D-10  KEXTA   =  0.00D+00  THRCOARS=  0.00D+00  SYMTOL  =  1.00D-06  GRADTOL =  1.00D-06  THROVL  =  1.00D-08
 THRORTH =  1.00D-08  GRID    =  1.00D-06  GRIDMAX =  1.00D-03  DTMAX   =  0.00D+00  THROCCDE=  1.00D-01  THROCCDE=  1.00D-01



 THRESHOLDS:

 ZERO    =  1.00D-22  ONEINT  =  1.00D-22  TWOINT  =  1.00D-22  PREFAC  =  1.00D-14  LOCALI  =  1.00D-09  EORDER  =  1.00D-04
 ENERGY  =  1.00D-12  ETEST   =  0.00D+00  EDENS   =  0.00D+00  THRDEDEF=  1.00D-06  GRADIENT=  1.00D-02  STEP    =  1.00D-03
 ORBITAL =  1.00D-05  CIVEC   =  1.00D-05  COEFF   =  1.00D-04  PRINTCI =  5.00D-02  PUNCHCI =  9.90D+01  OPTGRAD =  1.00D-08
 OPTENERG=  1.00D-06  OPTSTEP =  1.00D-08  THRGRAD =  1.00D-10  COMPRESS=  1.00D-11  VARMIN  =  1.00D-07  VARMAX  =  1.00D-03
 THRDOUB =  0.00D+00  THRDIV  =  1.00D-05  THRRED  =  1.00D-07  THRPSP  =  1.00D+00  THRDC   =  1.00D-10  THRCS   =  1.00D-10
 THRNRM  =  1.00D-08  THREQ   =  0.00D+00  THRDE   =  1.00D+00  THRREF  =  1.00D-05  SPARFAC =  1.00D+00  THRDLP  =  1.00D-07
 THRDIA  =  1.00D-10  THRDLS  =  1.00D-07  THRGPS  =  0.00D+00  THRKEX  =  0.00D+00  THRDIS  =  2.00D-01  THRVAR  =  1.00D-10
 THRLOC  =  1.00D-06  THRGAP  =  1.00D-06  THRLOCT = -1.00D+00  THRGAPT = -1.00D+00  THRORB  =  1.00D-06  THRMLTP =  0.00D+00
 THRCPQCI=  1.00D-10  KEXTA   =  0.00D+00  THRCOARS=  0.00D+00  SYMTOL  =  1.00D-06  GRADTOL =  1.00D-06  THROVL  =  1.00D-08
 THRORTH =  1.00D-08  GRID    =  1.00D-06  GRIDMAX =  1.00D-03  DTMAX   =  0.00D+00  THROCCDE=  1.00D-01  THROCCDE=  1.00D-01



 Input parameters for SORTINT:

 COMPRESS =    0.000000
 C_FINAL  =    1.000000
 DEBUG    =   -1.000000
 C_SORT1  =    0.000000
 C_SEWARD =    0.000000
 THRESH   =    0.000000
 IO       =  molpro                                                          
 SPRI     =    0.000000
 SETTING GEOMTYP        =    XYZ
 ZUNIT=BOHR
 

 Variable memory set to  995000000 words,  buffer space   230000 words

 SETTING BASIS          =    USERDEF


 Recomputing integrals since basis changed


 Using spherical harmonics

 Library entry H      S aug-cc-pVTZ          selected for orbital group  1
 Library entry H      P aug-cc-pVTZ          selected for orbital group  1
 Library entry H      D aug-cc-pVTZ          selected for orbital group  1


 PROGRAM * SEWARD (Integral evaluation for generally contracted gaussian basis sets)     Author: Roland Lindh, 1990

 Geometry written to block  1 of record 700


 Point group  Cs  



 ATOMIC COORDINATES

 NR  ATOM    CHARGE       X              Y              Z

   1  H       1.00    0.000000000    1.664712275   -1.932118994
   2  N       7.00    0.000000000   -0.157317291   -1.160693860
   3  O       8.00    0.000000000    0.034372806    1.142223263

 Bond lengths in Bohr (Angstrom)

 1-2  1.978607712  2-3  2.310881296
     ( 1.047034111)     ( 1.222865719)

 Bond angles

  1-2-3  108.18899349

 NUCLEAR CHARGE:                   16
 NUMBER OF PRIMITIVE AOS:         203
 NUMBER OF SYMMETRY AOS:          173
 NUMBER OF CONTRACTIONS:          171   ( 114A'  +  57A"  )
 NUMBER OF CORE ORBITALS:           2   (   2A'  +   0A"  )
 NUMBER OF VALENCE ORBITALS:        9   (   7A'  +   2A"  )


 NUCLEAR REPULSION ENERGY   30.06994795


 Eigenvalues of metric

         1 0.106E-02 0.262E-02 0.338E-02 0.640E-02 0.969E-02 0.137E-01 0.146E-01 0.231E-01
         2 0.359E-01 0.552E-01 0.705E-01 0.943E-01 0.132E+00 0.134E+00 0.140E+00 0.142E+00


 Contracted 2-electron integrals neglected if value below      1.0D-22

       46068558. INTEGRALS WRITTEN OUT IN   11250 BLOCKS ON RECORD 1290 OF FILE 1


 NUMBER OF SORTED TWO-ELECTRON INTEGRALS:   55360566.     BUFFER LENGTH:  32768
 NUMBER OF SEGMENTS:   4  SEGMENT LENGTH:   15997996      RECORD LENGTH: 524288

 Memory used in sort:      16.56 MW

 SORT1 READ    46068558. AND WROTE    46505203. INTEGRALS IN    135 RECORDS. CPU TIME:     0.75 SEC, REAL TIME:     1.05 SEC
 SORT2 READ    46505203. AND WROTE    55360566. INTEGRALS IN      4 RECORDS. CPU TIME:     0.61 SEC, REAL TIME:     0.86 SEC

 FILE SIZES:   FILE 1:   758.0 MBYTE,  FILE 4:   566.3 MBYTE,   TOTAL:   1324.3 MBYTE

 OPERATOR DM      FOR CENTER  0  COORDINATES:    0.000000    0.000000    0.000000


 **********************************************************************************************************************************
 DATASETS  * FILE   NREC   LENGTH (MB)   RECORD NAMES
              1      19      420.71       500      610      700      900      950      970     1000      129      960     1100   
                                          VAR    BASINP    GEOM    SYMINP    ZMAT    AOBASIS   BASIS     P2S    ABASIS      S 
                                         1400     1410     1200     1210     1080     1600     1650     1300     1700   
                                           T        V       H0       H01     AOSYM     SMH    MOLCAS    ERIS     OPER   

 PROGRAMS   *        TOTAL       INT
 CPU TIMES  *         4.20      4.11
 REAL TIME  *         5.58 SEC
 DISK USED  *         1.32 GB      
 **********************************************************************************************************************************


 PROGRAM * RHF-SCF (CLOSED SHELL)       Authors: W. Meyer, H.-J. Werner


 NUMBER OF ELECTRONS:       8+    8-
 CONVERGENCE THRESHOLDS:    1.00E-10 (Density)    1.00E-13 (Energy)
 MAX. NUMBER OF ITERATIONS:      500
 INTERPOLATION TYPE:            DIIS
 INTERPOLATION STEPS:              2 (START)      1 (STEP)
 LEVEL SHIFTS:                  0.00 (CLOSED)  0.00 (OPEN) 



 Orbital guess generated from atomic densities. Full valence occupancy:    9   2

 Molecular orbital dump at record        2100.2

 Initial occupancy:   7   1

 ITERATION    DDIFF          GRAD             ENERGY        2-EL.EN.            DIPOLE MOMENTS         DIIS   ORB.
    1      0.000D+00      0.000D+00      -129.78508102    153.530255    0.00000    0.57937   -1.06093    0    start
    2      0.000D+00      0.891D-02      -129.81143330    154.667429    0.00000    0.60718   -0.18882    1    diag
    3      0.373D-02      0.699D-02      -129.83659666    154.822763    0.00000    0.55511   -0.60541    2    diag
    4      0.148D-02      0.106D-02      -129.83740966    154.538192    0.00000    0.56288   -0.54045    3    diag
    5      0.338D-03      0.344D-03      -129.83753451    154.627165    0.00000    0.56884   -0.54258    4    diag
    6      0.155D-03      0.101D-03      -129.83755491    154.610947    0.00000    0.56934   -0.53821    5    diag
    7      0.611D-04      0.512D-04      -129.83756119    154.613307    0.00000    0.57061   -0.53549    6    diag
    8      0.420D-04      0.184D-04      -129.83756196    154.612411    0.00000    0.57066   -0.53446    7    diag
    9      0.157D-04      0.347D-05      -129.83756199    154.612286    0.00000    0.57061   -0.53426    8    diag
   10      0.330D-05      0.765D-06      -129.83756199    154.612272    0.00000    0.57057   -0.53423    9    orth
   11      0.915D-06      0.150D-06      -129.83756199    154.612268    0.00000    0.57056   -0.53423    9    diag
   12      0.212D-06      0.325D-07      -129.83756199    154.612267    0.00000    0.57056   -0.53423    9    diag
   13      0.520D-07      0.892D-08      -129.83756199    154.612267    0.00000    0.57056   -0.53423    9    diag
   14      0.122D-07      0.157D-08      -129.83756199    154.612267    0.00000    0.57056   -0.53423    9    diag
   15      0.139D-08      0.416D-09      -129.83756199    154.612267    0.00000    0.57056   -0.53423    9    diag
   16      0.351D-09      0.121D-09      -129.83756199    154.612267    0.00000    0.57056   -0.53423    9    diag
   17      0.645D-10      0.322D-10      -129.83756199    154.612267    0.00000    0.57056   -0.53423    0    orth

 Final occupancy:   7   1

 !RHF STATE 1.1 Energy               -129.837561992352
 Nuclear energy                        30.06994795
 One-electron energy                 -237.21364348
 Two-electron energy                   77.30613354
 Virial quotient                       -1.00200342
 !RHF STATE 1.1 Dipole moment           0.00000000     0.57055978    -0.53422665
 Dipole moment /Debye                   0.00000000     1.45012333    -1.35777978

 Orbital energies:

         1.1          2.1          3.1          4.1          5.1          6.1          7.1          8.1          9.1
    -20.652581   -15.712456    -1.516084    -0.997643    -0.741256    -0.659969    -0.433517     0.039507     0.192514

         1.2          2.2          3.2
     -0.587181     0.073890     0.239106

 HOMO      7.1    -0.433517 =     -11.7966eV
 LUMO      8.1     0.039507 =       1.0750eV
 LUMO-HOMO         0.473025 =      12.8717eV


 **********************************************************************************************************************************
 DATASETS  * FILE   NREC   LENGTH (MB)   RECORD NAMES
              1      19      420.71       500      610      700      900      950      970     1000      129      960     1100   
                                          VAR    BASINP    GEOM    SYMINP    ZMAT    AOBASIS   BASIS     P2S    ABASIS      S 
                                         1400     1410     1200     1210     1080     1600     1650     1300     1700   
                                           T        V       H0       H01     AOSYM     SMH    MOLCAS    ERIS     OPER   

              2       4        3.13       700     1000      520     2100   
                                         GEOM     BASIS   MCVARS     RHF  

 PROGRAMS   *        TOTAL        HF       INT
 CPU TIMES  *         8.64      4.44      4.11
 REAL TIME  *        10.88 SEC
 DISK USED  *         1.32 GB      
 **********************************************************************************************************************************


 PROGRAM * CCSD (Closed-shell coupled cluster)     Authors: C. Hampel, H.-J. Werner, 1991, M. Deegan, P.J. Knowles, 1992


 Convergence thresholds:  THRVAR = 1.00D-08  THRDEN = 1.00D-12

 CCSD(T)     terms to be evaluated (factor= 1.000)


 Number of closed-shell orbitals:   8 (   7   1 )
 Number of external orbitals:     163 ( 107  56 )

 Molecular orbitals read from record     2100.2  Type=RHF/CANONICAL (state 1.1)

 Number of N-1 electron functions:               8
 Number of N-2 electron functions:              36
 Number of singly external CSFs:               805
 Number of doubly external CSFs:            449165
 Total number of CSFs:                      449971

 Length of J-op  integral file:               0.00 MB
 Length of K-op  integral file:               1.15 MB
 Length of 3-ext integral record:             0.00 MB

 Memory could be reduced to 24.90 Mwords without degradation in triples

 Integral transformation finished. Total CPU:   0.89 sec, npass=  1  Memory used:   6.89 MW

 Reference energy:                   -129.83756199

 MP2 singlet pair energy:              -0.38033226
 MP2 triplet pair energy:              -0.18751885
 MP2 correlation energy:               -0.56785112
 MP2 total energy:                   -130.40541311

 SCS-MP2 correlation energy:           -0.57307711   (PS=  1.200000  PT=  0.333333)
 SCS-MP2 total energy:               -130.41063910

 ITER.      SQ.NORM     CORR.ENERGY   TOTAL ENERGY   ENERGY CHANGE        DEN1      VAR(S)    VAR(P)  DIIS     TIME  TIME/IT
   1      1.12119959    -0.57202654  -130.40958854    -0.00417543     0.01417056  0.36D-02  0.33D-02  1  1     1.83     0.99
   2      1.13245048    -0.57159223  -130.40915422     0.00043432    -0.01410508  0.97D-04  0.52D-03  2  2     2.77     1.01
   3      1.13791532    -0.57193328  -130.40949527    -0.00034105    -0.00240743  0.59D-04  0.73D-04  3  3     3.70     1.03
   4      1.14154189    -0.57192695  -130.40948895     0.00000632    -0.00143652  0.50D-05  0.10D-04  4  4     4.66     1.03
   5      1.14268719    -0.57195292  -130.40951491    -0.00002597    -0.00027059  0.17D-05  0.19D-05  5  5     5.62     1.04
   6      1.14312681    -0.57194606  -130.40950805     0.00000686    -0.00004299  0.14D-06  0.42D-06  6  6     6.60     1.04
   7      1.14321157    -0.57194652  -130.40950851    -0.00000046     0.00000127  0.19D-07  0.99D-07  6  1     7.58     1.04
   8      1.14324597    -0.57194459  -130.40950658     0.00000193    -0.00000500  0.40D-08  0.15D-07  6  2     8.56     1.04
   9      1.14325054    -0.57194467  -130.40950666    -0.00000008     0.00000139  0.18D-08  0.20D-08  6  3     9.50     1.04
  10      1.14325237    -0.57194498  -130.40950697    -0.00000031    -0.00000077  0.45D-09  0.29D-09  6  4    10.45     1.04
  11      1.14325139    -0.57194512  -130.40950711    -0.00000015     0.00000035  0.11D-09  0.30D-10  6  5    11.42     1.05
  12      1.14325051    -0.57194527  -130.40950726    -0.00000014     0.00000035  0.11D-10  0.73D-11  6  6    12.39     1.05
  13      1.14324997    -0.57194528  -130.40950727    -0.00000001     0.00000011  0.45D-11  0.13D-11  6  1    13.35     1.05
  14      1.14324952    -0.57194530  -130.40950730    -0.00000003     0.00000011  0.44D-12  0.45D-12  6  3    14.31     1.05
  15      1.14324933    -0.57194530  -130.40950730    -0.00000000     0.00000002  0.11D-12  0.32D-13  6  2    15.26     1.05
  16      1.14324927    -0.57194531  -130.40950730    -0.00000000     0.00000001  0.24D-13  0.67D-14  6  4    16.24     1.05
  17      1.14324925    -0.57194531  -130.40950730    -0.00000000     0.00000001  0.47D-14  0.12D-14  6  5    17.21     1.05
  18      1.14324924    -0.57194531  -130.40950730    -0.00000000     0.00000000  0.55D-15  0.33D-15  6  6    18.17     1.05
  19      1.14324925    -0.57194531  -130.40950730     0.00000000    -0.00000000  0.72D-16  0.53D-16  6  1    19.15     1.05
  20      1.14324925    -0.57194531  -130.40950730     0.00000000    -0.00000000  0.30D-17  0.12D-16  6  3    20.12     1.05
  21      1.14324925    -0.57194531  -130.40950730     0.00000000    -0.00000000  0.16D-17  0.32D-17  6  2    21.07     1.05
  22      1.14324925    -0.57194531  -130.40950730     0.00000000    -0.00000000  0.43D-18  0.11D-17  6  4    22.00     1.05
  23      1.14324925    -0.57194531  -130.40950730    -0.00000000     0.00000000  0.20D-18  0.15D-18  6  5    22.97     1.05
  24      1.14324925    -0.57194531  -130.40950730     0.00000000    -0.00000000  0.66D-20  0.19D-19  6  1    23.92     1.05
  25      1.14324925    -0.57194531  -130.40950730     0.00000000     0.00000000  0.51D-21  0.18D-20  6  6    24.88     1.05
  26      1.14324925    -0.57194531  -130.40950730    -0.00000000     0.00000000  0.18D-21  0.27D-21  6  1    25.86     1.05

 Norm of t1 vector:      0.07990860      S-energy:     0.00000000      T1 diagnostic:  0.01412598
                                                                       D1 diagnostic:  0.04599424

 Doubles amplitudes (print threshold =  0.500E-01):

         I         J         SYM. A    SYM. B    A         B      T(IJ, AB)

         8         8         2         2         1         1     -0.13910549


 Total CPU time for triples:     19.33 sec


 RESULTS
 =======

  Reference energy                   -129.837561992352

  Correlated core orbitals:             1.1       2.1
  Orbital energies:                   -20.6526  -15.7125
 
  CCSD core-core energy                -0.079239754854
  CCSD core-valence energy             -0.035993173401
  CCSD valence correlation energy      -0.456712380102
 
  CCSD singlet pair energy             -0.409332874658
  CCSD triplet pair energy             -0.162612433711
  CCSD correlation energy              -0.571945308358

  Triples (T) contribution             -0.022730331259
  Total correlation energy             -0.594675639617

  CCSD total energy                  -130.409507300709
  CCSD[T] energy                     -130.433474020611
  CCSD-T energy                      -130.431780937453
 !CCSD(T) total energy               -130.432237631969

 Timing summary (sec):

 STEP                 CPU(USER)    SYS     CPU(TOT)    WALL
 Transformation          0.90      0.15      1.05      1.05
 CCSD iterations        24.97      2.37     27.34     27.35
 Triples                19.33      0.59     19.92     19.92

 Program statistics:

 Available memory in ccsd:               994999644
 Min. memory needed in ccsd:               1368037
 Max. memory used in ccsd:                 1750502
 Max. memory used in cckext:               2014357 (26 integral passes)



 **********************************************************************************************************************************
 DATASETS  * FILE   NREC   LENGTH (MB)   RECORD NAMES
              1      20      499.63       500      610      700      900      950      970     1000      129      960     1100   
                                          VAR    BASINP    GEOM    SYMINP    ZMAT    AOBASIS   BASIS     P2S    ABASIS      S 
                                         1400     1410     1200     1210     1080     1600     1650     1300     1700     1380   
                                           T        V       H0       H01     AOSYM     SMH    MOLCAS    ERIS     OPER     JKOP   

              2       4        3.13       700     1000      520     2100   
                                         GEOM     BASIS   MCVARS     RHF  

 PROGRAMS   *        TOTAL   CCSD(T)        HF       INT
 CPU TIMES  *        53.86     45.22      4.44      4.11
 REAL TIME  *        59.24 SEC
 DISK USED  *         1.32 GB      
 **********************************************************************************************************************************

 CCSD(T)/USERDEF energy=   -130.432237631969

        CCSD(T)         HF-SCF  
   -130.43223763   -129.83756199
 **********************************************************************************************************************************
 Molpro calculation terminated
 Variable memory released
