
 Primary working directories    : /tmp/r2666/282451.maple
 Secondary working directories  : /tmp/r2666/282451.maple
 Wavefunction directory         : /ddn/home4/r2666/wfu/
 Main file repository           : /tmp/r2666/282451.maple/

 SHA1      : d5ffa45e93fdbca01ffc919aa182cfdae0147319
 NAME      : 2015.1.35
 ARCHNAME  : linux/x86_64
 FC        : /opt/intel/composer_xe_2015.1.133/bin/intel64/ifort
 BLASLIB   : -Wl,-_start-group /opt/intel/mkl/lib/intel64/libmkl_intel_ilp64.a /opt/intel/mkl/lib/intel64/libmkl_intel_thread.a /opt/intel/mkl/lib/intel64/libmkl_core.a -Wl,-_end-group
 id        : olemiss

 Nodes     nprocs
 cn079        1

 Using customized tuning parameters: mindgm=1; mindgv=20; mindgc=4; mindgr=1; noblas=0; minvec=7
 default implementation of scratch files=df  

 ***,hno CCSD(T)/TZ-F12 QFF
 memory, 995, m;
 gthresh,energy=1.d-12,zero=1.d-22,oneint=1.d-22,twoint=1.d-22;
 gthresh,optgrad=1.d-8,optstep=1.d-8;
 nocompress;
 geomtyp=xyz
 bohr
 geometry={
 3
         90        90
 H        0.0000000000        1.6701623450       -1.9234907811
 N        0.0000000000       -0.1694838699       -1.1452055395
 O        0.0000000000        0.0410893149        1.1181067296
 }
 
 basis={
 default=aug-cc-pvtz
 s,C,8236.0,1235.0,280.8, 79.27,25.59, 8.997,3.319
 s,C,0.9059,0.3643,0.1285000
 p,C,56.0,18.71,4.133,0.2827,0.3827,0.1209
 d,C,30.0,10.0,3.3,1.097,0.318
 f,C,7.0,2.3,0.7610
 s,N,11420.0,1712.0,389.3,110.0,35.57,12.54,4.644
 s,N,1.293,0.5118,0.1787
 p,N,79.89,26.63,5.948,1.742,0.555,0.1725
 d,N,45.0,15.0,5.0,1.654,0.469
 f,N,9.9,3.3,1.093
 s,O,15330.0,2299.0,522.4,147.3,47.55,16.76,6.207
 s,O,1.752,0.6882,0.2384
 p,O,103.5,34.46,7.749,2.28,0.7156,0.214
 d,O,63.0,21.0,7.0,2.314,0.645
 f,O,12.9,4.3,1.428
 s,mg,164900.0,24710.0,5628.0,1596.0,521.0;
 s,mg,188.0,73.01,29.90,12.54,4.306,1.826;
 s,mg,0.7417,0.0761,0.145,0.033,0.0129;
 p,mg,950.70,316.90,74.86,23.72,8.669,3.363;
 p,mg,1.310,0.4911,0.2364,0.08733,0.03237,0.00745;
 d,mg,1.601,0.686,0.126,0.294,0.0468;
 f,mg,1.372,0.588,0.094,0.252;
 }
   {hf,maxit=500;accu,20;}
 {ccsd(t),nocheck,maxit=250;orbital,IGNORE_ERROR;core}

 Variables initialized (889), CPU time= 0.01 sec
 Commands  initialized (702), CPU time= 0.01 sec, 572 directives.
 Default parameters read. Elapsed time= 0.04 sec

 Checking input...
 Passed
1


                                         ***  PROGRAM SYSTEM MOLPRO  ***
                                       Copyright, TTI GmbH Stuttgart, 2015
                                    Version 2015.1 linked Jul  9 2018 13:16:40


 **********************************************************************************************************************************
 LABEL *   hno CCSD(T)/TZ-F12 QFF                                                        
  64 bit serial version                                                                  DATE: 04-Mar-20          TIME: 13:49:56  
 **********************************************************************************************************************************

 SHA1:             d5ffa45e93fdbca01ffc919aa182cfdae0147319
 **********************************************************************************************************************************

 THRESHOLDS:

 ZERO    =  1.00D-22  ONEINT  =  1.00D-22  TWOINT  =  1.00D-22  PREFAC  =  1.00D-14  LOCALI  =  1.00D-09  EORDER  =  1.00D-04
 ENERGY  =  1.00D-12  ETEST   =  0.00D+00  EDENS   =  0.00D+00  THRDEDEF=  1.00D-06  GRADIENT=  1.00D-02  STEP    =  1.00D-03
 ORBITAL =  1.00D-05  CIVEC   =  1.00D-05  COEFF   =  1.00D-04  PRINTCI =  5.00D-02  PUNCHCI =  9.90D+01  OPTGRAD =  3.00D-04
 OPTENERG=  1.00D-06  OPTSTEP =  3.00D-04  THRGRAD =  1.00D-10  COMPRESS=  1.00D-11  VARMIN  =  1.00D-07  VARMAX  =  1.00D-03
 THRDOUB =  0.00D+00  THRDIV  =  1.00D-05  THRRED  =  1.00D-07  THRPSP  =  1.00D+00  THRDC   =  1.00D-10  THRCS   =  1.00D-10
 THRNRM  =  1.00D-08  THREQ   =  0.00D+00  THRDE   =  1.00D+00  THRREF  =  1.00D-05  SPARFAC =  1.00D+00  THRDLP  =  1.00D-07
 THRDIA  =  1.00D-10  THRDLS  =  1.00D-07  THRGPS  =  0.00D+00  THRKEX  =  0.00D+00  THRDIS  =  2.00D-01  THRVAR  =  1.00D-10
 THRLOC  =  1.00D-06  THRGAP  =  1.00D-06  THRLOCT = -1.00D+00  THRGAPT = -1.00D+00  THRORB  =  1.00D-06  THRMLTP =  0.00D+00
 THRCPQCI=  1.00D-10  KEXTA   =  0.00D+00  THRCOARS=  0.00D+00  SYMTOL  =  1.00D-06  GRADTOL =  1.00D-06  THROVL  =  1.00D-08
 THRORTH =  1.00D-08  GRID    =  1.00D-06  GRIDMAX =  1.00D-03  DTMAX   =  0.00D+00  THROCCDE=  1.00D-01  THROCCDE=  1.00D-01



 THRESHOLDS:

 ZERO    =  1.00D-22  ONEINT  =  1.00D-22  TWOINT  =  1.00D-22  PREFAC  =  1.00D-14  LOCALI  =  1.00D-09  EORDER  =  1.00D-04
 ENERGY  =  1.00D-12  ETEST   =  0.00D+00  EDENS   =  0.00D+00  THRDEDEF=  1.00D-06  GRADIENT=  1.00D-02  STEP    =  1.00D-03
 ORBITAL =  1.00D-05  CIVEC   =  1.00D-05  COEFF   =  1.00D-04  PRINTCI =  5.00D-02  PUNCHCI =  9.90D+01  OPTGRAD =  1.00D-08
 OPTENERG=  1.00D-06  OPTSTEP =  1.00D-08  THRGRAD =  1.00D-10  COMPRESS=  1.00D-11  VARMIN  =  1.00D-07  VARMAX  =  1.00D-03
 THRDOUB =  0.00D+00  THRDIV  =  1.00D-05  THRRED  =  1.00D-07  THRPSP  =  1.00D+00  THRDC   =  1.00D-10  THRCS   =  1.00D-10
 THRNRM  =  1.00D-08  THREQ   =  0.00D+00  THRDE   =  1.00D+00  THRREF  =  1.00D-05  SPARFAC =  1.00D+00  THRDLP  =  1.00D-07
 THRDIA  =  1.00D-10  THRDLS  =  1.00D-07  THRGPS  =  0.00D+00  THRKEX  =  0.00D+00  THRDIS  =  2.00D-01  THRVAR  =  1.00D-10
 THRLOC  =  1.00D-06  THRGAP  =  1.00D-06  THRLOCT = -1.00D+00  THRGAPT = -1.00D+00  THRORB  =  1.00D-06  THRMLTP =  0.00D+00
 THRCPQCI=  1.00D-10  KEXTA   =  0.00D+00  THRCOARS=  0.00D+00  SYMTOL  =  1.00D-06  GRADTOL =  1.00D-06  THROVL  =  1.00D-08
 THRORTH =  1.00D-08  GRID    =  1.00D-06  GRIDMAX =  1.00D-03  DTMAX   =  0.00D+00  THROCCDE=  1.00D-01  THROCCDE=  1.00D-01



 Input parameters for SORTINT:

 COMPRESS =    0.000000
 C_FINAL  =    1.000000
 DEBUG    =   -1.000000
 C_SORT1  =    0.000000
 C_SEWARD =    0.000000
 THRESH   =    0.000000
 IO       =  molpro                                                          
 SPRI     =    0.000000
 SETTING GEOMTYP        =    XYZ
 ZUNIT=BOHR
 

 Variable memory set to  995000000 words,  buffer space   230000 words

 SETTING BASIS          =    USERDEF


 Recomputing integrals since basis changed


 Using spherical harmonics

 Library entry H      S aug-cc-pVTZ          selected for orbital group  1
 Library entry H      P aug-cc-pVTZ          selected for orbital group  1
 Library entry H      D aug-cc-pVTZ          selected for orbital group  1


 PROGRAM * SEWARD (Integral evaluation for generally contracted gaussian basis sets)     Author: Roland Lindh, 1990

 Geometry written to block  1 of record 700


 Point group  Cs  



 ATOMIC COORDINATES

 NR  ATOM    CHARGE       X              Y              Z

   1  H       1.00    0.000000000    1.670162345   -1.923490781
   2  N       7.00    0.000000000   -0.169483870   -1.145205540
   3  O       8.00    0.000000000    0.041089315    1.118106730

 Bond lengths in Bohr (Angstrom)

 1-2  1.997504972  2-3  2.273086777
     ( 1.057034110)     ( 1.202865721)

 Bond angles

  1-2-3  107.61603570

 NUCLEAR CHARGE:                   16
 NUMBER OF PRIMITIVE AOS:         203
 NUMBER OF SYMMETRY AOS:          173
 NUMBER OF CONTRACTIONS:          171   ( 114A'  +  57A"  )
 NUMBER OF CORE ORBITALS:           2   (   2A'  +   0A"  )
 NUMBER OF VALENCE ORBITALS:        9   (   7A'  +   2A"  )


 NUCLEAR REPULSION ENERGY   30.45905294


 Eigenvalues of metric

         1 0.105E-02 0.245E-02 0.333E-02 0.636E-02 0.100E-01 0.137E-01 0.144E-01 0.231E-01
         2 0.370E-01 0.525E-01 0.701E-01 0.940E-01 0.131E+00 0.134E+00 0.141E+00 0.142E+00


 Contracted 2-electron integrals neglected if value below      1.0D-22

       46188620. INTEGRALS WRITTEN OUT IN   11280 BLOCKS ON RECORD 1290 OF FILE 1


 NUMBER OF SORTED TWO-ELECTRON INTEGRALS:   55360566.     BUFFER LENGTH:  32768
 NUMBER OF SEGMENTS:   4  SEGMENT LENGTH:   15997996      RECORD LENGTH: 524288

 Memory used in sort:      16.56 MW

 SORT1 READ    46188620. AND WROTE    46626542. INTEGRALS IN    136 RECORDS. CPU TIME:     0.71 SEC, REAL TIME:     1.01 SEC
 SORT2 READ    46626542. AND WROTE    55360566. INTEGRALS IN      4 RECORDS. CPU TIME:     0.63 SEC, REAL TIME:     0.83 SEC

 FILE SIZES:   FILE 1:   760.0 MBYTE,  FILE 4:   570.5 MBYTE,   TOTAL:   1330.4 MBYTE

 OPERATOR DM      FOR CENTER  0  COORDINATES:    0.000000    0.000000    0.000000


 **********************************************************************************************************************************
 DATASETS  * FILE   NREC   LENGTH (MB)   RECORD NAMES
              1      19      421.54       500      610      700      900      950      970     1000      129      960     1100   
                                          VAR    BASINP    GEOM    SYMINP    ZMAT    AOBASIS   BASIS     P2S    ABASIS      S 
                                         1400     1410     1200     1210     1080     1600     1650     1300     1700   
                                           T        V       H0       H01     AOSYM     SMH    MOLCAS    ERIS     OPER   

 PROGRAMS   *        TOTAL       INT
 CPU TIMES  *         3.99      3.91
 REAL TIME  *         5.33 SEC
 DISK USED  *         1.33 GB      
 **********************************************************************************************************************************


 PROGRAM * RHF-SCF (CLOSED SHELL)       Authors: W. Meyer, H.-J. Werner


 NUMBER OF ELECTRONS:       8+    8-
 CONVERGENCE THRESHOLDS:    1.00E-10 (Density)    1.00E-13 (Energy)
 MAX. NUMBER OF ITERATIONS:      500
 INTERPOLATION TYPE:            DIIS
 INTERPOLATION STEPS:              2 (START)      1 (STEP)
 LEVEL SHIFTS:                  0.00 (CLOSED)  0.00 (OPEN) 



 Orbital guess generated from atomic densities. Full valence occupancy:    9   2

 Molecular orbital dump at record        2100.2

 Initial occupancy:   7   1

 ITERATION    DDIFF          GRAD             ENERGY        2-EL.EN.            DIPOLE MOMENTS         DIIS   ORB.
    1      0.000D+00      0.000D+00      -129.79018583    154.220459    0.00000    0.55887   -0.99643    0    start
    2      0.000D+00      0.876D-02      -129.81725761    155.407978    0.00000    0.59394   -0.19430    1    diag
    3      0.361D-02      0.660D-02      -129.83946450    155.516891    0.00000    0.53984   -0.57329    2    diag
    4      0.140D-02      0.103D-02      -129.84023668    155.245651    0.00000    0.54831   -0.51199    3    diag
    5      0.328D-03      0.336D-03      -129.84035632    155.333502    0.00000    0.55435   -0.51449    4    diag
    6      0.153D-03      0.988D-04      -129.84037589    155.317398    0.00000    0.55494   -0.51044    5    diag
    7      0.607D-04      0.492D-04      -129.84038157    155.320019    0.00000    0.55630   -0.50799    6    diag
    8      0.410D-04      0.166D-04      -129.84038216    155.319207    0.00000    0.55636   -0.50712    7    diag
    9      0.138D-04      0.308D-05      -129.84038218    155.319098    0.00000    0.55631   -0.50694    8    diag
   10      0.278D-05      0.707D-06      -129.84038218    155.319084    0.00000    0.55627   -0.50691    9    orth
   11      0.842D-06      0.142D-06      -129.84038218    155.319080    0.00000    0.55626   -0.50691    9    diag
   12      0.202D-06      0.293D-07      -129.84038218    155.319079    0.00000    0.55626   -0.50691    9    diag
   13      0.499D-07      0.772D-08      -129.84038218    155.319079    0.00000    0.55626   -0.50691    9    diag
   14      0.115D-07      0.138D-08      -129.84038218    155.319079    0.00000    0.55626   -0.50691    9    diag
   15      0.153D-08      0.380D-09      -129.84038218    155.319079    0.00000    0.55626   -0.50691    9    diag
   16      0.337D-09      0.116D-09      -129.84038218    155.319079    0.00000    0.55626   -0.50691    9    diag
   17      0.873D-10      0.340D-10      -129.84038218    155.319079    0.00000    0.55626   -0.50691    0    orth

 Final occupancy:   7   1

 !RHF STATE 1.1 Energy               -129.840382182851
 Nuclear energy                        30.45905294
 One-electron energy                 -237.95897439
 Two-electron energy                   77.65953927
 Virial quotient                       -1.00152129
 !RHF STATE 1.1 Dipole moment           0.00000000     0.55626059    -0.50690652
 Dipole moment /Debye                   0.00000000     1.41378080    -1.28834348

 Orbital energies:

         1.1          2.1          3.1          4.1          5.1          6.1          7.1          8.1          9.1
    -20.650777   -15.710541    -1.532504    -0.990146    -0.746273    -0.665610    -0.427281     0.039818     0.192652

         1.2          2.2          3.2
     -0.596815     0.081020     0.239604

 HOMO      7.1    -0.427281 =     -11.6269eV
 LUMO      8.1     0.039818 =       1.0835eV
 LUMO-HOMO         0.467100 =      12.7104eV


 **********************************************************************************************************************************
 DATASETS  * FILE   NREC   LENGTH (MB)   RECORD NAMES
              1      19      421.54       500      610      700      900      950      970     1000      129      960     1100   
                                          VAR    BASINP    GEOM    SYMINP    ZMAT    AOBASIS   BASIS     P2S    ABASIS      S 
                                         1400     1410     1200     1210     1080     1600     1650     1300     1700   
                                           T        V       H0       H01     AOSYM     SMH    MOLCAS    ERIS     OPER   

              2       4        3.13       700     1000      520     2100   
                                         GEOM     BASIS   MCVARS     RHF  

 PROGRAMS   *        TOTAL        HF       INT
 CPU TIMES  *         8.10      4.10      3.91
 REAL TIME  *        10.36 SEC
 DISK USED  *         1.33 GB      
 **********************************************************************************************************************************


 PROGRAM * CCSD (Closed-shell coupled cluster)     Authors: C. Hampel, H.-J. Werner, 1991, M. Deegan, P.J. Knowles, 1992


 Convergence thresholds:  THRVAR = 1.00D-08  THRDEN = 1.00D-12

 CCSD(T)     terms to be evaluated (factor= 1.000)


 Number of closed-shell orbitals:   8 (   7   1 )
 Number of external orbitals:     163 ( 107  56 )

 Molecular orbitals read from record     2100.2  Type=RHF/CANONICAL (state 1.1)

 Number of N-1 electron functions:               8
 Number of N-2 electron functions:              36
 Number of singly external CSFs:               805
 Number of doubly external CSFs:            449165
 Total number of CSFs:                      449971

 Length of J-op  integral file:               0.00 MB
 Length of K-op  integral file:               1.15 MB
 Length of 3-ext integral record:             0.00 MB

 Memory could be reduced to 24.90 Mwords without degradation in triples

 Integral transformation finished. Total CPU:   0.82 sec, npass=  1  Memory used:   6.89 MW

 Reference energy:                   -129.84038218

 MP2 singlet pair energy:              -0.37853995
 MP2 triplet pair energy:              -0.18637152
 MP2 correlation energy:               -0.56491147
 MP2 total energy:                   -130.40529365

 SCS-MP2 correlation energy:           -0.57021244   (PS=  1.200000  PT=  0.333333)
 SCS-MP2 total energy:               -130.41059462

 ITER.      SQ.NORM     CORR.ENERGY   TOTAL ENERGY   ENERGY CHANGE        DEN1      VAR(S)    VAR(P)  DIIS     TIME  TIME/IT
   1      1.11937956    -0.56981568  -130.41019786    -0.00490421     0.01260953  0.33D-02  0.31D-02  1  1     1.68     0.91
   2      1.13014377    -0.56956135  -130.40994353     0.00025433    -0.01359238  0.88D-04  0.49D-03  2  2     2.55     0.94
   3      1.13532691    -0.56988305  -130.41026524    -0.00032171    -0.00234530  0.54D-04  0.67D-04  3  3     3.42     0.95
   4      1.13870019    -0.56987432  -130.41025651     0.00000873    -0.00137066  0.44D-05  0.95D-05  4  4     4.31     0.95
   5      1.13972011    -0.56989832  -130.41028050    -0.00002399    -0.00024027  0.16D-05  0.18D-05  5  5     5.16     0.95
   6      1.14011741    -0.56989263  -130.41027481     0.00000569    -0.00003817  0.14D-06  0.40D-06  6  6     6.03     0.96
   7      1.14020066    -0.56989281  -130.41027499    -0.00000018     0.00000026  0.21D-07  0.90D-07  6  1     6.92     0.96
   8      1.14023451    -0.56989113  -130.41027331     0.00000168    -0.00000468  0.41D-08  0.13D-07  6  2     7.80     0.96
   9      1.14023936    -0.56989121  -130.41027339    -0.00000008     0.00000103  0.17D-08  0.17D-08  6  3     8.68     0.96
  10      1.14024098    -0.56989151  -130.41027369    -0.00000030    -0.00000060  0.38D-09  0.23D-09  6  4     9.52     0.96
  11      1.14024004    -0.56989164  -130.41027382    -0.00000013     0.00000033  0.93D-10  0.24D-10  6  5    10.39     0.96
  12      1.14023918    -0.56989177  -130.41027395    -0.00000013     0.00000034  0.97D-11  0.61D-11  6  6    11.26     0.96
  13      1.14023867    -0.56989178  -130.41027396    -0.00000001     0.00000010  0.41D-11  0.11D-11  6  1    12.14     0.96
  14      1.14023826    -0.56989180  -130.41027399    -0.00000003     0.00000010  0.43D-12  0.36D-12  6  3    13.02     0.96
  15      1.14023810    -0.56989181  -130.41027399    -0.00000000     0.00000002  0.11D-12  0.25D-13  6  2    13.90     0.96
  16      1.14023805    -0.56989181  -130.41027399    -0.00000000     0.00000001  0.24D-13  0.55D-14  6  4    14.79     0.96
  17      1.14023803    -0.56989181  -130.41027399    -0.00000000     0.00000001  0.40D-14  0.10D-14  6  5    15.70     0.96
  18      1.14023803    -0.56989181  -130.41027399    -0.00000000     0.00000000  0.40D-15  0.27D-15  6  6    16.59     0.97
  19      1.14023803    -0.56989181  -130.41027399     0.00000000    -0.00000000  0.48D-16  0.34D-16  6  1    17.48     0.97
  20      1.14023803    -0.56989181  -130.41027399     0.00000000    -0.00000000  0.20D-17  0.71D-17  6  3    18.36     0.97
  21      1.14023803    -0.56989181  -130.41027399     0.00000000    -0.00000000  0.99D-18  0.17D-17  6  2    19.26     0.97
  22      1.14023803    -0.56989181  -130.41027399     0.00000000    -0.00000000  0.16D-18  0.63D-18  6  4    20.15     0.97
  23      1.14023803    -0.56989181  -130.41027399    -0.00000000     0.00000000  0.10D-18  0.94D-19  6  5    21.05     0.97
  24      1.14023803    -0.56989181  -130.41027399     0.00000000    -0.00000000  0.50D-20  0.12D-19  6  1    21.94     0.97
  25      1.14023803    -0.56989181  -130.41027399     0.00000000     0.00000000  0.26D-21  0.12D-20  6  6    22.85     0.97
  26      1.14023803    -0.56989181  -130.41027399    -0.00000000     0.00000000  0.10D-21  0.28D-21  6  3    23.76     0.97

 Norm of t1 vector:      0.07696723      S-energy:     0.00000000      T1 diagnostic:  0.01360601
                                                                       D1 diagnostic:  0.04337280

 Doubles amplitudes (print threshold =  0.500E-01):

         I         J         SYM. A    SYM. B    A         B      T(IJ, AB)

         8         8         2         2         1         1     -0.13311117


 Total CPU time for triples:     14.32 sec


 RESULTS
 =======

  Reference energy                   -129.840382182851

  Correlated core orbitals:             1.1       2.1
  Orbital energies:                   -20.6508  -15.7105
 
  CCSD core-core energy                -0.079229672609
  CCSD core-valence energy             -0.036098402314
  CCSD valence correlation energy      -0.454563733103
 
  CCSD singlet pair energy             -0.407469126102
  CCSD triplet pair energy             -0.162422681931
  CCSD correlation energy              -0.569891808026

  Triples (T) contribution             -0.022154305353
  Total correlation energy             -0.592046113379

  CCSD total energy                  -130.410273990878
  CCSD[T] energy                     -130.433579261458
  CCSD-T energy                      -130.431992795202
 !CCSD(T) total energy               -130.432428296231

 Timing summary (sec):

 STEP                 CPU(USER)    SYS     CPU(TOT)    WALL
 Transformation          0.83      0.15      0.98      1.01
 CCSD iterations        22.94      2.21     25.15     25.16
 Triples                14.32      0.49     14.81     14.82

 Program statistics:

 Available memory in ccsd:               994999644
 Min. memory needed in ccsd:               1368037
 Max. memory used in ccsd:                 1750502
 Max. memory used in cckext:               2014357 (26 integral passes)



 **********************************************************************************************************************************
 DATASETS  * FILE   NREC   LENGTH (MB)   RECORD NAMES
              1      20      500.45       500      610      700      900      950      970     1000      129      960     1100   
                                          VAR    BASINP    GEOM    SYMINP    ZMAT    AOBASIS   BASIS     P2S    ABASIS      S 
                                         1400     1410     1200     1210     1080     1600     1650     1300     1700     1380   
                                           T        V       H0       H01     AOSYM     SMH    MOLCAS    ERIS     OPER     JKOP   

              2       4        3.13       700     1000      520     2100   
                                         GEOM     BASIS   MCVARS     RHF  

 PROGRAMS   *        TOTAL   CCSD(T)        HF       INT
 CPU TIMES  *        46.22     38.12      4.10      3.91
 REAL TIME  *        51.39 SEC
 DISK USED  *         1.33 GB      
 **********************************************************************************************************************************

 CCSD(T)/USERDEF energy=   -130.432428296231

        CCSD(T)         HF-SCF  
   -130.43242830   -129.84038218
 **********************************************************************************************************************************
 Molpro calculation terminated
 Variable memory released
