
 Primary working directories    : /tmp/r2666/282362.maple
 Secondary working directories  : /tmp/r2666/282362.maple
 Wavefunction directory         : /ddn/home4/r2666/wfu/
 Main file repository           : /tmp/r2666/282362.maple/

 SHA1      : d5ffa45e93fdbca01ffc919aa182cfdae0147319
 NAME      : 2015.1.35
 ARCHNAME  : linux/x86_64
 FC        : /opt/intel/composer_xe_2015.1.133/bin/intel64/ifort
 BLASLIB   : -Wl,-_start-group /opt/intel/mkl/lib/intel64/libmkl_intel_ilp64.a /opt/intel/mkl/lib/intel64/libmkl_intel_thread.a /opt/intel/mkl/lib/intel64/libmkl_core.a -Wl,-_end-group
 id        : olemiss

 Nodes     nprocs
 cn087        1

 Using customized tuning parameters: mindgm=1; mindgv=20; mindgc=4; mindgr=1; noblas=0; minvec=7
 default implementation of scratch files=df  

 ***,hno CCSD(T)/TZ-F12 QFF
 memory, 995, m;
 gthresh,energy=1.d-12,zero=1.d-22,oneint=1.d-22,twoint=1.d-22;
 gthresh,optgrad=1.d-8,optstep=1.d-8;
 nocompress;
 geomtyp=xyz
 bohr
 geometry={
 3
          1         1
 H        0.0000000000        1.6668505430       -1.9291807890
 N        0.0000000000       -0.1611701010       -1.1477023540
 O        0.0000000000        0.0360873480        1.1262935520
 }
 
 basis={
 default=aug-cc-pvtz
 s,C,8236.0,1235.0,280.8, 79.27,25.59, 8.997,3.319
 s,C,0.9059,0.3643,0.1285000
 p,C,56.0,18.71,4.133,0.2827,0.3827,0.1209
 d,C,30.0,10.0,3.3,1.097,0.318
 f,C,7.0,2.3,0.7610
 s,N,11420.0,1712.0,389.3,110.0,35.57,12.54,4.644
 s,N,1.293,0.5118,0.1787
 p,N,79.89,26.63,5.948,1.742,0.555,0.1725
 d,N,45.0,15.0,5.0,1.654,0.469
 f,N,9.9,3.3,1.093
 s,O,15330.0,2299.0,522.4,147.3,47.55,16.76,6.207
 s,O,1.752,0.6882,0.2384
 p,O,103.5,34.46,7.749,2.28,0.7156,0.214
 d,O,63.0,21.0,7.0,2.314,0.645
 f,O,12.9,4.3,1.428
 s,mg,164900.0,24710.0,5628.0,1596.0,521.0;
 s,mg,188.0,73.01,29.90,12.54,4.306,1.826;
 s,mg,0.7417,0.0761,0.145,0.033,0.0129;
 p,mg,950.70,316.90,74.86,23.72,8.669,3.363;
 p,mg,1.310,0.4911,0.2364,0.08733,0.03237,0.00745;
 d,mg,1.601,0.686,0.126,0.294,0.0468;
 f,mg,1.372,0.588,0.094,0.252;
 }
   {hf,maxit=500;accu,20;}
 {ccsd(t),nocheck,maxit=250;orbital,IGNORE_ERROR;core}

 Variables initialized (889), CPU time= 0.01 sec
 Commands  initialized (702), CPU time= 0.01 sec, 572 directives.
 Default parameters read. Elapsed time= 0.05 sec

 Checking input...
 Passed
1


                                         ***  PROGRAM SYSTEM MOLPRO  ***
                                       Copyright, TTI GmbH Stuttgart, 2015
                                    Version 2015.1 linked Jul  9 2018 13:16:40


 **********************************************************************************************************************************
 LABEL *   hno CCSD(T)/TZ-F12 QFF                                                        
  64 bit serial version                                                                  DATE: 04-Mar-20          TIME: 13:48:31  
 **********************************************************************************************************************************

 SHA1:             d5ffa45e93fdbca01ffc919aa182cfdae0147319
 **********************************************************************************************************************************

 THRESHOLDS:

 ZERO    =  1.00D-22  ONEINT  =  1.00D-22  TWOINT  =  1.00D-22  PREFAC  =  1.00D-14  LOCALI  =  1.00D-09  EORDER  =  1.00D-04
 ENERGY  =  1.00D-12  ETEST   =  0.00D+00  EDENS   =  0.00D+00  THRDEDEF=  1.00D-06  GRADIENT=  1.00D-02  STEP    =  1.00D-03
 ORBITAL =  1.00D-05  CIVEC   =  1.00D-05  COEFF   =  1.00D-04  PRINTCI =  5.00D-02  PUNCHCI =  9.90D+01  OPTGRAD =  3.00D-04
 OPTENERG=  1.00D-06  OPTSTEP =  3.00D-04  THRGRAD =  1.00D-10  COMPRESS=  1.00D-11  VARMIN  =  1.00D-07  VARMAX  =  1.00D-03
 THRDOUB =  0.00D+00  THRDIV  =  1.00D-05  THRRED  =  1.00D-07  THRPSP  =  1.00D+00  THRDC   =  1.00D-10  THRCS   =  1.00D-10
 THRNRM  =  1.00D-08  THREQ   =  0.00D+00  THRDE   =  1.00D+00  THRREF  =  1.00D-05  SPARFAC =  1.00D+00  THRDLP  =  1.00D-07
 THRDIA  =  1.00D-10  THRDLS  =  1.00D-07  THRGPS  =  0.00D+00  THRKEX  =  0.00D+00  THRDIS  =  2.00D-01  THRVAR  =  1.00D-10
 THRLOC  =  1.00D-06  THRGAP  =  1.00D-06  THRLOCT = -1.00D+00  THRGAPT = -1.00D+00  THRORB  =  1.00D-06  THRMLTP =  0.00D+00
 THRCPQCI=  1.00D-10  KEXTA   =  0.00D+00  THRCOARS=  0.00D+00  SYMTOL  =  1.00D-06  GRADTOL =  1.00D-06  THROVL  =  1.00D-08
 THRORTH =  1.00D-08  GRID    =  1.00D-06  GRIDMAX =  1.00D-03  DTMAX   =  0.00D+00  THROCCDE=  1.00D-01  THROCCDE=  1.00D-01



 THRESHOLDS:

 ZERO    =  1.00D-22  ONEINT  =  1.00D-22  TWOINT  =  1.00D-22  PREFAC  =  1.00D-14  LOCALI  =  1.00D-09  EORDER  =  1.00D-04
 ENERGY  =  1.00D-12  ETEST   =  0.00D+00  EDENS   =  0.00D+00  THRDEDEF=  1.00D-06  GRADIENT=  1.00D-02  STEP    =  1.00D-03
 ORBITAL =  1.00D-05  CIVEC   =  1.00D-05  COEFF   =  1.00D-04  PRINTCI =  5.00D-02  PUNCHCI =  9.90D+01  OPTGRAD =  1.00D-08
 OPTENERG=  1.00D-06  OPTSTEP =  1.00D-08  THRGRAD =  1.00D-10  COMPRESS=  1.00D-11  VARMIN  =  1.00D-07  VARMAX  =  1.00D-03
 THRDOUB =  0.00D+00  THRDIV  =  1.00D-05  THRRED  =  1.00D-07  THRPSP  =  1.00D+00  THRDC   =  1.00D-10  THRCS   =  1.00D-10
 THRNRM  =  1.00D-08  THREQ   =  0.00D+00  THRDE   =  1.00D+00  THRREF  =  1.00D-05  SPARFAC =  1.00D+00  THRDLP  =  1.00D-07
 THRDIA  =  1.00D-10  THRDLS  =  1.00D-07  THRGPS  =  0.00D+00  THRKEX  =  0.00D+00  THRDIS  =  2.00D-01  THRVAR  =  1.00D-10
 THRLOC  =  1.00D-06  THRGAP  =  1.00D-06  THRLOCT = -1.00D+00  THRGAPT = -1.00D+00  THRORB  =  1.00D-06  THRMLTP =  0.00D+00
 THRCPQCI=  1.00D-10  KEXTA   =  0.00D+00  THRCOARS=  0.00D+00  SYMTOL  =  1.00D-06  GRADTOL =  1.00D-06  THROVL  =  1.00D-08
 THRORTH =  1.00D-08  GRID    =  1.00D-06  GRIDMAX =  1.00D-03  DTMAX   =  0.00D+00  THROCCDE=  1.00D-01  THROCCDE=  1.00D-01



 Input parameters for SORTINT:

 COMPRESS =    0.000000
 C_FINAL  =    1.000000
 DEBUG    =   -1.000000
 C_SORT1  =    0.000000
 C_SEWARD =    0.000000
 THRESH   =    0.000000
 IO       =  molpro                                                          
 SPRI     =    0.000000
 SETTING GEOMTYP        =    XYZ
 ZUNIT=BOHR
 

 Variable memory set to  995000000 words,  buffer space   230000 words

 SETTING BASIS          =    USERDEF


 Recomputing integrals since basis changed


 Using spherical harmonics

 Library entry H      S aug-cc-pVTZ          selected for orbital group  1
 Library entry H      P aug-cc-pVTZ          selected for orbital group  1
 Library entry H      D aug-cc-pVTZ          selected for orbital group  1


 PROGRAM * SEWARD (Integral evaluation for generally contracted gaussian basis sets)     Author: Roland Lindh, 1990

 Geometry written to block  1 of record 700


 Point group  Cs  



 ATOMIC COORDINATES

 NR  ATOM    CHARGE       X              Y              Z

   1  H       1.00    0.000000000    1.666850543   -1.929180789
   2  N       7.00    0.000000000   -0.161170101   -1.147702354
   3  O       8.00    0.000000000    0.036087348    1.126293552

 Bond lengths in Bohr (Angstrom)

 1-2  1.988056342  2-3  2.282535406
     ( 1.052034110)     ( 1.207865720)

 Bond angles

  1-2-3  108.18899349

 NUCLEAR CHARGE:                   16
 NUMBER OF PRIMITIVE AOS:         203
 NUMBER OF SYMMETRY AOS:          173
 NUMBER OF CONTRACTIONS:          171   ( 114A'  +  57A"  )
 NUMBER OF CORE ORBITALS:           2   (   2A'  +   0A"  )
 NUMBER OF VALENCE ORBITALS:        9   (   7A'  +   2A"  )


 NUCLEAR REPULSION ENERGY   30.36500034


 Eigenvalues of metric

         1 0.104E-02 0.249E-02 0.333E-02 0.636E-02 0.985E-02 0.137E-01 0.145E-01 0.230E-01
         2 0.364E-01 0.531E-01 0.699E-01 0.941E-01 0.131E+00 0.134E+00 0.140E+00 0.142E+00


 Contracted 2-electron integrals neglected if value below      1.0D-22

       46152012. INTEGRALS WRITTEN OUT IN   11271 BLOCKS ON RECORD 1290 OF FILE 1


 NUMBER OF SORTED TWO-ELECTRON INTEGRALS:   55360566.     BUFFER LENGTH:  32768
 NUMBER OF SEGMENTS:   4  SEGMENT LENGTH:   15997996      RECORD LENGTH: 524288

 Memory used in sort:      16.56 MW

 SORT1 READ    46152012. AND WROTE    46589510. INTEGRALS IN    136 RECORDS. CPU TIME:     0.85 SEC, REAL TIME:     1.16 SEC
 SORT2 READ    46589510. AND WROTE    55360566. INTEGRALS IN      4 RECORDS. CPU TIME:     0.74 SEC, REAL TIME:     0.96 SEC

 FILE SIZES:   FILE 1:   759.4 MBYTE,  FILE 4:   570.5 MBYTE,   TOTAL:   1329.8 MBYTE

 OPERATOR DM      FOR CENTER  0  COORDINATES:    0.000000    0.000000    0.000000


 **********************************************************************************************************************************
 DATASETS  * FILE   NREC   LENGTH (MB)   RECORD NAMES
              1      19      421.29       500      610      700      900      950      970     1000      129      960     1100   
                                          VAR    BASINP    GEOM    SYMINP    ZMAT    AOBASIS   BASIS     P2S    ABASIS      S 
                                         1400     1410     1200     1210     1080     1600     1650     1300     1700   
                                           T        V       H0       H01     AOSYM     SMH    MOLCAS    ERIS     OPER   

 PROGRAMS   *        TOTAL       INT
 CPU TIMES  *         4.45      4.37
 REAL TIME  *         5.94 SEC
 DISK USED  *         1.33 GB      
 **********************************************************************************************************************************


 PROGRAM * RHF-SCF (CLOSED SHELL)       Authors: W. Meyer, H.-J. Werner


 NUMBER OF ELECTRONS:       8+    8-
 CONVERGENCE THRESHOLDS:    1.00E-10 (Density)    1.00E-13 (Energy)
 MAX. NUMBER OF ITERATIONS:      500
 INTERPOLATION TYPE:            DIIS
 INTERPOLATION STEPS:              2 (START)      1 (STEP)
 LEVEL SHIFTS:                  0.00 (CLOSED)  0.00 (OPEN) 



 Orbital guess generated from atomic densities. Full valence occupancy:    9   2

 Molecular orbital dump at record        2100.2

 Initial occupancy:   7   1

 ITERATION    DDIFF          GRAD             ENERGY        2-EL.EN.            DIPOLE MOMENTS         DIIS   ORB.
    1      0.000D+00      0.000D+00      -129.78929528    154.054111    0.00000    0.56956   -1.01338    0    start
    2      0.000D+00      0.878D-02      -129.81621009    155.228628    0.00000    0.59753   -0.19631    1    diag
    3      0.364D-02      0.667D-02      -129.83896928    155.349250    0.00000    0.54645   -0.58352    2    diag
    4      0.142D-02      0.104D-02      -129.83975252    155.074760    0.00000    0.55455   -0.52116    3    diag
    5      0.331D-03      0.337D-03      -129.83987290    155.162805    0.00000    0.56058   -0.52357    4    diag
    6      0.153D-03      0.989D-04      -129.83989254    155.146714    0.00000    0.56115   -0.51945    5    diag
    7      0.607D-04      0.496D-04      -129.83989833    155.149253    0.00000    0.56248   -0.51694    6    diag
    8      0.412D-04      0.170D-04      -129.83989895    155.148427    0.00000    0.56253   -0.51603    7    diag
    9      0.143D-04      0.317D-05      -129.83989898    155.148314    0.00000    0.56248   -0.51585    8    diag
   10      0.290D-05      0.722D-06      -129.83989898    155.148301    0.00000    0.56245   -0.51582    9    orth
   11      0.863D-06      0.144D-06      -129.83989898    155.148296    0.00000    0.56244   -0.51582    9    diag
   12      0.204D-06      0.298D-07      -129.83989898    155.148296    0.00000    0.56244   -0.51581    9    diag
   13      0.499D-07      0.787D-08      -129.83989898    155.148295    0.00000    0.56244   -0.51581    9    diag
   14      0.115D-07      0.139D-08      -129.83989898    155.148295    0.00000    0.56244   -0.51581    9    diag
   15      0.147D-08      0.373D-09      -129.83989898    155.148295    0.00000    0.56244   -0.51581    9    diag
   16      0.327D-09      0.110D-09      -129.83989898    155.148295    0.00000    0.56244   -0.51581    9    diag
   17      0.756D-10      0.304D-10      -129.83989898    155.148295    0.00000    0.56244   -0.51581    9    diag
   18      0.238D-10      0.101D-10      -129.83989898    155.148295    0.00000    0.56244   -0.51581    9    diag
   19      0.970D-11      0.242D-11      -129.83989898    155.148295    0.00000    0.56244   -0.51581    9    fixocc
   20      0.244D-11      0.728D-12      -129.83989898    155.148295    0.00000    0.56244   -0.51581    9    orth
   21      0.287D-12      0.414D-12      -129.83989898    155.148295    0.00000    0.56244   -0.51581    9    diag
   22      0.137D-12      0.341D-12      -129.83989898    155.148295    0.00000    0.56244   -0.51581    9    diag
   23      0.110D-12      0.560D-12      -129.83989898    155.148295    0.00000    0.56244   -0.51581    9    diag
   24      0.154D-12      0.324D-12      -129.83989898    155.148295    0.00000    0.56244   -0.51581    0    orth

 Final occupancy:   7   1

 !RHF STATE 1.1 Energy               -129.839898977153
 Nuclear energy                        30.36500034
 One-electron energy                 -237.77904699
 Two-electron energy                   77.57414767
 Virial quotient                       -1.00163060
 !RHF STATE 1.1 Dipole moment           0.00000000     0.56243574    -0.51581391
 Dipole moment /Debye                   0.00000000     1.42947543    -1.31098233

 Orbital energies:

         1.1          2.1          3.1          4.1          5.1          6.1          7.1          8.1          9.1
    -20.651274   -15.710593    -1.528129    -0.992895    -0.745231    -0.664266    -0.428727     0.039708     0.192815

         1.2          2.2          3.2
     -0.594260     0.079122     0.239539

 HOMO      7.1    -0.428727 =     -11.6663eV
 LUMO      8.1     0.039708 =       1.0805eV
 LUMO-HOMO         0.468436 =      12.7468eV


 **********************************************************************************************************************************
 DATASETS  * FILE   NREC   LENGTH (MB)   RECORD NAMES
              1      19      421.29       500      610      700      900      950      970     1000      129      960     1100   
                                          VAR    BASINP    GEOM    SYMINP    ZMAT    AOBASIS   BASIS     P2S    ABASIS      S 
                                         1400     1410     1200     1210     1080     1600     1650     1300     1700   
                                           T        V       H0       H01     AOSYM     SMH    MOLCAS    ERIS     OPER   

              2       4        3.13       700     1000      520     2100   
                                         GEOM     BASIS   MCVARS     RHF  

 PROGRAMS   *        TOTAL        HF       INT
 CPU TIMES  *        10.57      6.12      4.37
 REAL TIME  *        13.38 SEC
 DISK USED  *         1.33 GB      
 **********************************************************************************************************************************


 PROGRAM * CCSD (Closed-shell coupled cluster)     Authors: C. Hampel, H.-J. Werner, 1991, M. Deegan, P.J. Knowles, 1992


 Convergence thresholds:  THRVAR = 1.00D-08  THRDEN = 1.00D-12

 CCSD(T)     terms to be evaluated (factor= 1.000)


 Number of closed-shell orbitals:   8 (   7   1 )
 Number of external orbitals:     163 ( 107  56 )

 Molecular orbitals read from record     2100.2  Type=RHF/CANONICAL (state 1.1)

 Number of N-1 electron functions:               8
 Number of N-2 electron functions:              36
 Number of singly external CSFs:               805
 Number of doubly external CSFs:            449165
 Total number of CSFs:                      449971

 Length of J-op  integral file:               0.00 MB
 Length of K-op  integral file:               1.15 MB
 Length of 3-ext integral record:             0.00 MB

 Memory could be reduced to 24.90 Mwords without degradation in triples

 Integral transformation finished. Total CPU:   0.85 sec, npass=  1  Memory used:   6.89 MW

 Reference energy:                   -129.83989898

 MP2 singlet pair energy:              -0.37892331
 MP2 triplet pair energy:              -0.18662277
 MP2 correlation energy:               -0.56554609
 MP2 total energy:                   -130.40544506

 SCS-MP2 correlation energy:           -0.57082881   (PS=  1.200000  PT=  0.333333)
 SCS-MP2 total energy:               -130.41072779

 ITER.      SQ.NORM     CORR.ENERGY   TOTAL ENERGY   ENERGY CHANGE        DEN1      VAR(S)    VAR(P)  DIIS     TIME  TIME/IT
   1      1.11975304    -0.57027849  -130.41017747    -0.00473240     0.01296848  0.34D-02  0.31D-02  1  1     1.83     1.01
   2      1.13062502    -0.56998122  -130.40988020     0.00029727    -0.01370696  0.90D-04  0.50D-03  2  2     2.75     1.01
   3      1.13587022    -0.57030691  -130.41020589    -0.00032569    -0.00235690  0.55D-04  0.68D-04  3  3     3.71     1.02
   4      1.13930350    -0.57029883  -130.41019781     0.00000808    -0.00138550  0.45D-05  0.97D-05  4  4     4.62     1.01
   5      1.14035372    -0.57032322  -130.41022220    -0.00002439    -0.00024729  0.16D-05  0.18D-05  5  5     5.56     1.02
   6      1.14076191    -0.57031723  -130.41021621     0.00000598    -0.00003936  0.14D-06  0.41D-06  6  6     6.49     1.02
   7      1.14084576    -0.57031751  -130.41021649    -0.00000028     0.00000050  0.20D-07  0.94D-07  6  1     7.41     1.02
   8      1.14087981    -0.57031579  -130.41021476     0.00000173    -0.00000476  0.41D-08  0.14D-07  6  2     8.34     1.02
   9      1.14088460    -0.57031587  -130.41021485    -0.00000008     0.00000111  0.17D-08  0.18D-08  6  3     9.24     1.02
  10      1.14088626    -0.57031618  -130.41021515    -0.00000030    -0.00000064  0.41D-09  0.25D-09  6  4    10.18     1.02
  11      1.14088529    -0.57031631  -130.41021529    -0.00000014     0.00000034  0.10D-09  0.25D-10  6  5    11.08     1.02
  12      1.14088442    -0.57031645  -130.41021542    -0.00000013     0.00000034  0.10D-10  0.65D-11  6  6    12.01     1.02
  13      1.14088390    -0.57031646  -130.41021543    -0.00000001     0.00000011  0.43D-11  0.11D-11  6  1    12.95     1.02
  14      1.14088347    -0.57031648  -130.41021546    -0.00000003     0.00000010  0.45D-12  0.39D-12  6  3    13.91     1.02
  15      1.14088330    -0.57031648  -130.41021546    -0.00000000     0.00000002  0.11D-12  0.27D-13  6  2    14.86     1.02
  16      1.14088325    -0.57031649  -130.41021546    -0.00000000     0.00000001  0.24D-13  0.59D-14  6  4    15.76     1.02
  17      1.14088323    -0.57031649  -130.41021546    -0.00000000     0.00000001  0.43D-14  0.11D-14  6  5    16.70     1.02
  18      1.14088322    -0.57031649  -130.41021546    -0.00000000     0.00000000  0.44D-15  0.28D-15  6  6    17.62     1.02
  19      1.14088323    -0.57031649  -130.41021546     0.00000000    -0.00000000  0.54D-16  0.38D-16  6  1    18.54     1.02
  20      1.14088323    -0.57031649  -130.41021546     0.00000000    -0.00000000  0.22D-17  0.83D-17  6  3    19.49     1.02
  21      1.14088323    -0.57031649  -130.41021546     0.00000000    -0.00000000  0.11D-17  0.21D-17  6  2    20.41     1.02
  22      1.14088323    -0.57031649  -130.41021546     0.00000000    -0.00000000  0.22D-18  0.74D-18  6  4    21.34     1.02
  23      1.14088323    -0.57031649  -130.41021546    -0.00000000     0.00000000  0.13D-18  0.11D-18  6  5    22.25     1.02
  24      1.14088323    -0.57031649  -130.41021546     0.00000000    -0.00000000  0.54D-20  0.14D-19  6  1    23.17     1.02
  25      1.14088323    -0.57031649  -130.41021546     0.00000000     0.00000000  0.31D-21  0.14D-20  6  6    24.08     1.02
  26      1.14088323    -0.57031649  -130.41021546    -0.00000000     0.00000000  0.11D-21  0.31D-21  6  3    24.99     1.02

 Norm of t1 vector:      0.07767624      S-energy:     0.00000000      T1 diagnostic:  0.01373135
                                                                       D1 diagnostic:  0.04404587

 Doubles amplitudes (print threshold =  0.500E-01):

         I         J         SYM. A    SYM. B    A         B      T(IJ, AB)

         8         8         2         2         1         1     -0.13456650


 Total CPU time for triples:     16.30 sec


 RESULTS
 =======

  Reference energy                   -129.839898977153

  Correlated core orbitals:             1.1       2.1
  Orbital energies:                   -20.6513  -15.7106
 
  CCSD core-core energy                -0.079232579230
  CCSD core-valence energy             -0.036076124282
  CCSD valence correlation energy      -0.455007783674
 
  CCSD singlet pair energy             -0.407856792284
  CCSD triplet pair energy             -0.162459694903
  CCSD correlation energy              -0.570316487186

  Triples (T) contribution             -0.022282030225
  Total correlation energy             -0.592598517412

  CCSD total energy                  -130.410215464339
  CCSD[T] energy                     -130.433668458898
  CCSD-T energy                      -130.432057211347
 !CCSD(T) total energy               -130.432497494565

 Timing summary (sec):

 STEP                 CPU(USER)    SYS     CPU(TOT)    WALL
 Transformation          0.87      0.17      1.04      1.08
 CCSD iterations        24.12      2.48     26.60     26.59
 Triples                16.30      0.54     16.84     16.84

 Program statistics:

 Available memory in ccsd:               994999644
 Min. memory needed in ccsd:               1368037
 Max. memory used in ccsd:                 1750502
 Max. memory used in cckext:               2014357 (26 integral passes)



 **********************************************************************************************************************************
 DATASETS  * FILE   NREC   LENGTH (MB)   RECORD NAMES
              1      20      500.21       500      610      700      900      950      970     1000      129      960     1100   
                                          VAR    BASINP    GEOM    SYMINP    ZMAT    AOBASIS   BASIS     P2S    ABASIS      S 
                                         1400     1410     1200     1210     1080     1600     1650     1300     1700     1380   
                                           T        V       H0       H01     AOSYM     SMH    MOLCAS    ERIS     OPER     JKOP   

              2       4        3.13       700     1000      520     2100   
                                         GEOM     BASIS   MCVARS     RHF  

 PROGRAMS   *        TOTAL   CCSD(T)        HF       INT
 CPU TIMES  *        51.88     41.31      6.12      4.37
 REAL TIME  *        57.93 SEC
 DISK USED  *         1.33 GB      
 **********************************************************************************************************************************

 CCSD(T)/USERDEF energy=   -130.432497494565

        CCSD(T)         HF-SCF  
   -130.43249749   -129.83989898
 **********************************************************************************************************************************
 Molpro calculation terminated
 Variable memory released
