
 Primary working directories    : /tmp/r2666/282456.maple
 Secondary working directories  : /tmp/r2666/282456.maple
 Wavefunction directory         : /ddn/home4/r2666/wfu/
 Main file repository           : /tmp/r2666/282456.maple/

 SHA1      : d5ffa45e93fdbca01ffc919aa182cfdae0147319
 NAME      : 2015.1.35
 ARCHNAME  : linux/x86_64
 FC        : /opt/intel/composer_xe_2015.1.133/bin/intel64/ifort
 BLASLIB   : -Wl,-_start-group /opt/intel/mkl/lib/intel64/libmkl_intel_ilp64.a /opt/intel/mkl/lib/intel64/libmkl_intel_thread.a /opt/intel/mkl/lib/intel64/libmkl_core.a -Wl,-_end-group
 id        : olemiss

 Nodes     nprocs
 cn049        1

 Using customized tuning parameters: mindgm=1; mindgv=20; mindgc=4; mindgr=1; noblas=0; minvec=7
 default implementation of scratch files=df  

 ***,hno CCSD(T)/TZ-F12 QFF
 memory, 995, m;
 gthresh,energy=1.d-12,zero=1.d-22,oneint=1.d-22,twoint=1.d-22;
 gthresh,optgrad=1.d-8,optstep=1.d-8;
 nocompress;
 geomtyp=xyz
 bohr
 geometry={
 3
         95        95
 H        0.0000000000        1.6707331804       -1.9220513773
 N        0.0000000000       -0.1717412768       -1.1504854450
 O        0.0000000000        0.0427758864        1.1219472313
 }
 
 basis={
 default=aug-cc-pvtz
 s,C,8236.0,1235.0,280.8, 79.27,25.59, 8.997,3.319
 s,C,0.9059,0.3643,0.1285000
 p,C,56.0,18.71,4.133,0.2827,0.3827,0.1209
 d,C,30.0,10.0,3.3,1.097,0.318
 f,C,7.0,2.3,0.7610
 s,N,11420.0,1712.0,389.3,110.0,35.57,12.54,4.644
 s,N,1.293,0.5118,0.1787
 p,N,79.89,26.63,5.948,1.742,0.555,0.1725
 d,N,45.0,15.0,5.0,1.654,0.469
 f,N,9.9,3.3,1.093
 s,O,15330.0,2299.0,522.4,147.3,47.55,16.76,6.207
 s,O,1.752,0.6882,0.2384
 p,O,103.5,34.46,7.749,2.28,0.7156,0.214
 d,O,63.0,21.0,7.0,2.314,0.645
 f,O,12.9,4.3,1.428
 s,mg,164900.0,24710.0,5628.0,1596.0,521.0;
 s,mg,188.0,73.01,29.90,12.54,4.306,1.826;
 s,mg,0.7417,0.0761,0.145,0.033,0.0129;
 p,mg,950.70,316.90,74.86,23.72,8.669,3.363;
 p,mg,1.310,0.4911,0.2364,0.08733,0.03237,0.00745;
 d,mg,1.601,0.686,0.126,0.294,0.0468;
 f,mg,1.372,0.588,0.094,0.252;
 }
   {hf,maxit=500;accu,20;}
 {ccsd(t),nocheck,maxit=250;orbital,IGNORE_ERROR;core}

 Variables initialized (889), CPU time= 0.01 sec
 Commands  initialized (702), CPU time= 0.00 sec, 572 directives.
 Default parameters read. Elapsed time= 0.05 sec

 Checking input...
 Passed
1


                                         ***  PROGRAM SYSTEM MOLPRO  ***
                                       Copyright, TTI GmbH Stuttgart, 2015
                                    Version 2015.1 linked Jul  9 2018 13:16:40


 **********************************************************************************************************************************
 LABEL *   hno CCSD(T)/TZ-F12 QFF                                                        
  64 bit serial version                                                                  DATE: 04-Mar-20          TIME: 13:50:00  
 **********************************************************************************************************************************

 SHA1:             d5ffa45e93fdbca01ffc919aa182cfdae0147319
 **********************************************************************************************************************************

 THRESHOLDS:

 ZERO    =  1.00D-22  ONEINT  =  1.00D-22  TWOINT  =  1.00D-22  PREFAC  =  1.00D-14  LOCALI  =  1.00D-09  EORDER  =  1.00D-04
 ENERGY  =  1.00D-12  ETEST   =  0.00D+00  EDENS   =  0.00D+00  THRDEDEF=  1.00D-06  GRADIENT=  1.00D-02  STEP    =  1.00D-03
 ORBITAL =  1.00D-05  CIVEC   =  1.00D-05  COEFF   =  1.00D-04  PRINTCI =  5.00D-02  PUNCHCI =  9.90D+01  OPTGRAD =  3.00D-04
 OPTENERG=  1.00D-06  OPTSTEP =  3.00D-04  THRGRAD =  1.00D-10  COMPRESS=  1.00D-11  VARMIN  =  1.00D-07  VARMAX  =  1.00D-03
 THRDOUB =  0.00D+00  THRDIV  =  1.00D-05  THRRED  =  1.00D-07  THRPSP  =  1.00D+00  THRDC   =  1.00D-10  THRCS   =  1.00D-10
 THRNRM  =  1.00D-08  THREQ   =  0.00D+00  THRDE   =  1.00D+00  THRREF  =  1.00D-05  SPARFAC =  1.00D+00  THRDLP  =  1.00D-07
 THRDIA  =  1.00D-10  THRDLS  =  1.00D-07  THRGPS  =  0.00D+00  THRKEX  =  0.00D+00  THRDIS  =  2.00D-01  THRVAR  =  1.00D-10
 THRLOC  =  1.00D-06  THRGAP  =  1.00D-06  THRLOCT = -1.00D+00  THRGAPT = -1.00D+00  THRORB  =  1.00D-06  THRMLTP =  0.00D+00
 THRCPQCI=  1.00D-10  KEXTA   =  0.00D+00  THRCOARS=  0.00D+00  SYMTOL  =  1.00D-06  GRADTOL =  1.00D-06  THROVL  =  1.00D-08
 THRORTH =  1.00D-08  GRID    =  1.00D-06  GRIDMAX =  1.00D-03  DTMAX   =  0.00D+00  THROCCDE=  1.00D-01  THROCCDE=  1.00D-01



 THRESHOLDS:

 ZERO    =  1.00D-22  ONEINT  =  1.00D-22  TWOINT  =  1.00D-22  PREFAC  =  1.00D-14  LOCALI  =  1.00D-09  EORDER  =  1.00D-04
 ENERGY  =  1.00D-12  ETEST   =  0.00D+00  EDENS   =  0.00D+00  THRDEDEF=  1.00D-06  GRADIENT=  1.00D-02  STEP    =  1.00D-03
 ORBITAL =  1.00D-05  CIVEC   =  1.00D-05  COEFF   =  1.00D-04  PRINTCI =  5.00D-02  PUNCHCI =  9.90D+01  OPTGRAD =  1.00D-08
 OPTENERG=  1.00D-06  OPTSTEP =  1.00D-08  THRGRAD =  1.00D-10  COMPRESS=  1.00D-11  VARMIN  =  1.00D-07  VARMAX  =  1.00D-03
 THRDOUB =  0.00D+00  THRDIV  =  1.00D-05  THRRED  =  1.00D-07  THRPSP  =  1.00D+00  THRDC   =  1.00D-10  THRCS   =  1.00D-10
 THRNRM  =  1.00D-08  THREQ   =  0.00D+00  THRDE   =  1.00D+00  THRREF  =  1.00D-05  SPARFAC =  1.00D+00  THRDLP  =  1.00D-07
 THRDIA  =  1.00D-10  THRDLS  =  1.00D-07  THRGPS  =  0.00D+00  THRKEX  =  0.00D+00  THRDIS  =  2.00D-01  THRVAR  =  1.00D-10
 THRLOC  =  1.00D-06  THRGAP  =  1.00D-06  THRLOCT = -1.00D+00  THRGAPT = -1.00D+00  THRORB  =  1.00D-06  THRMLTP =  0.00D+00
 THRCPQCI=  1.00D-10  KEXTA   =  0.00D+00  THRCOARS=  0.00D+00  SYMTOL  =  1.00D-06  GRADTOL =  1.00D-06  THROVL  =  1.00D-08
 THRORTH =  1.00D-08  GRID    =  1.00D-06  GRIDMAX =  1.00D-03  DTMAX   =  0.00D+00  THROCCDE=  1.00D-01  THROCCDE=  1.00D-01



 Input parameters for SORTINT:

 COMPRESS =    0.000000
 C_FINAL  =    1.000000
 DEBUG    =   -1.000000
 C_SORT1  =    0.000000
 C_SEWARD =    0.000000
 THRESH   =    0.000000
 IO       =  molpro                                                          
 SPRI     =    0.000000
 SETTING GEOMTYP        =    XYZ
 ZUNIT=BOHR
 

 Variable memory set to  995000000 words,  buffer space   230000 words

 SETTING BASIS          =    USERDEF


 Recomputing integrals since basis changed


 Using spherical harmonics

 Library entry H      S aug-cc-pVTZ          selected for orbital group  1
 Library entry H      P aug-cc-pVTZ          selected for orbital group  1
 Library entry H      D aug-cc-pVTZ          selected for orbital group  1


 PROGRAM * SEWARD (Integral evaluation for generally contracted gaussian basis sets)     Author: Roland Lindh, 1990

 Geometry written to block  1 of record 700


 Point group  Cs  



 ATOMIC COORDINATES

 NR  ATOM    CHARGE       X              Y              Z

   1  H       1.00    0.000000000    1.670733180   -1.922051377
   2  N       7.00    0.000000000   -0.171741277   -1.150485445
   3  O       8.00    0.000000000    0.042775886    1.121947231

 Bond lengths in Bohr (Angstrom)

 1-2  1.997504972  2-3  2.282535406
     ( 1.057034110)     ( 1.207865720)

 Bond angles

  1-2-3  107.32955680

 NUCLEAR CHARGE:                   16
 NUMBER OF PRIMITIVE AOS:         203
 NUMBER OF SYMMETRY AOS:          173
 NUMBER OF CONTRACTIONS:          171   ( 114A'  +  57A"  )
 NUMBER OF CORE ORBITALS:           2   (   2A'  +   0A"  )
 NUMBER OF VALENCE ORBITALS:        9   (   7A'  +   2A"  )


 NUCLEAR REPULSION ENERGY   30.35600271


 Eigenvalues of metric

         1 0.106E-02 0.250E-02 0.335E-02 0.639E-02 0.100E-01 0.137E-01 0.145E-01 0.232E-01
         2 0.370E-01 0.532E-01 0.705E-01 0.940E-01 0.131E+00 0.134E+00 0.141E+00 0.142E+00


 Contracted 2-electron integrals neglected if value below      1.0D-22

       46154748. INTEGRALS WRITTEN OUT IN   11272 BLOCKS ON RECORD 1290 OF FILE 1


 NUMBER OF SORTED TWO-ELECTRON INTEGRALS:   55360566.     BUFFER LENGTH:  32768
 NUMBER OF SEGMENTS:   4  SEGMENT LENGTH:   15997996      RECORD LENGTH: 524288

 Memory used in sort:      16.56 MW

 SORT1 READ    46154748. AND WROTE    46592270. INTEGRALS IN    136 RECORDS. CPU TIME:     1.50 SEC, REAL TIME:     1.82 SEC
 SORT2 READ    46592270. AND WROTE    55360566. INTEGRALS IN      4 RECORDS. CPU TIME:     0.82 SEC, REAL TIME:     1.09 SEC

 FILE SIZES:   FILE 1:   759.5 MBYTE,  FILE 4:   570.5 MBYTE,   TOTAL:   1329.9 MBYTE

 OPERATOR DM      FOR CENTER  0  COORDINATES:    0.000000    0.000000    0.000000


 **********************************************************************************************************************************
 DATASETS  * FILE   NREC   LENGTH (MB)   RECORD NAMES
              1      19      421.31       500      610      700      900      950      970     1000      129      960     1100   
                                          VAR    BASINP    GEOM    SYMINP    ZMAT    AOBASIS   BASIS     P2S    ABASIS      S 
                                         1400     1410     1200     1210     1080     1600     1650     1300     1700   
                                           T        V       H0       H01     AOSYM     SMH    MOLCAS    ERIS     OPER   

 PROGRAMS   *        TOTAL       INT
 CPU TIMES  *         6.44      6.34
 REAL TIME  *         8.11 SEC
 DISK USED  *         1.33 GB      
 **********************************************************************************************************************************


 PROGRAM * RHF-SCF (CLOSED SHELL)       Authors: W. Meyer, H.-J. Werner


 NUMBER OF ELECTRONS:       8+    8-
 CONVERGENCE THRESHOLDS:    1.00E-10 (Density)    1.00E-13 (Energy)
 MAX. NUMBER OF ITERATIONS:      500
 INTERPOLATION TYPE:            DIIS
 INTERPOLATION STEPS:              2 (START)      1 (STEP)
 LEVEL SHIFTS:                  0.00 (CLOSED)  0.00 (OPEN) 



 Orbital guess generated from atomic densities. Full valence occupancy:    9   2

 Molecular orbital dump at record        2100.2

 Initial occupancy:   7   1

 ITERATION    DDIFF          GRAD             ENERGY        2-EL.EN.            DIPOLE MOMENTS         DIIS   ORB.
    1      0.000D+00      0.000D+00      -129.78875406    154.037941    0.00000    0.55869   -1.01191    0    start
    2      0.000D+00      0.881D-02      -129.81568117    155.214326    0.00000    0.59742   -0.19063    1    diag
    3      0.363D-02      0.672D-02      -129.83874321    155.334360    0.00000    0.54117   -0.57956    2    diag
    4      0.142D-02      0.103D-02      -129.83952513    155.059580    0.00000    0.54967   -0.51746    3    diag
    5      0.329D-03      0.338D-03      -129.83964675    155.147784    0.00000    0.55569   -0.51984    4    diag
    6      0.153D-03      0.997D-04      -129.83966669    155.131600    0.00000    0.55624   -0.51569    5    diag
    7      0.609D-04      0.499D-04      -129.83967256    155.134170    0.00000    0.55759   -0.51317    6    diag
    8      0.413D-04      0.171D-04      -129.83967320    155.133333    0.00000    0.55764   -0.51226    7    diag
    9      0.143D-04      0.319D-05      -129.83967322    155.133219    0.00000    0.55759   -0.51208    8    diag
   10      0.291D-05      0.721D-06      -129.83967322    155.133205    0.00000    0.55756   -0.51205    9    orth
   11      0.858D-06      0.144D-06      -129.83967322    155.133201    0.00000    0.55755   -0.51205    9    diag
   12      0.205D-06      0.301D-07      -129.83967322    155.133200    0.00000    0.55755   -0.51205    9    diag
   13      0.506D-07      0.798D-08      -129.83967322    155.133200    0.00000    0.55755   -0.51205    9    diag
   14      0.117D-07      0.141D-08      -129.83967322    155.133200    0.00000    0.55755   -0.51205    9    diag
   15      0.150D-08      0.380D-09      -129.83967322    155.133200    0.00000    0.55755   -0.51205    9    diag
   16      0.333D-09      0.113D-09      -129.83967322    155.133200    0.00000    0.55755   -0.51205    9    diag
   17      0.807D-10      0.323D-10      -129.83967322    155.133200    0.00000    0.55755   -0.51205    9    diag
   18      0.257D-10      0.108D-10      -129.83967322    155.133200    0.00000    0.55755   -0.51205    9    diag
   19      0.104D-10      0.262D-11      -129.83967322    155.133200    0.00000    0.55755   -0.51205    9    fixocc
   20      0.259D-11      0.528D-12      -129.83967322    155.133200    0.00000    0.55755   -0.51205    9    orth
   21      0.349D-12      0.452D-12      -129.83967322    155.133200    0.00000    0.55755   -0.51205    9    diag
   22      0.677D-13      0.525D-12      -129.83967322    155.133200    0.00000    0.55755   -0.51205    9    diag
   23      0.820D-13      0.285D-12      -129.83967322    155.133200    0.00000    0.55755   -0.51205    0    orth

 Final occupancy:   7   1

 !RHF STATE 1.1 Energy               -129.839673223378
 Nuclear energy                        30.35600271
 One-electron energy                 -237.76227581
 Two-electron energy                   77.56659988
 Virial quotient                       -1.00166438
 !RHF STATE 1.1 Dipole moment           0.00000000     0.55754530    -0.51204573
 Dipole moment /Debye                   0.00000000     1.41704598    -1.30140519

 Orbital energies:

         1.1          2.1          3.1          4.1          5.1          6.1          7.1          8.1          9.1
    -20.651168   -15.711430    -1.528521    -0.991128    -0.744738    -0.664106    -0.428993     0.039768     0.192411

         1.2          2.2          3.2
     -0.594455     0.079335     0.239410

 HOMO      7.1    -0.428993 =     -11.6735eV
 LUMO      8.1     0.039768 =       1.0821eV
 LUMO-HOMO         0.468761 =      12.7556eV


 **********************************************************************************************************************************
 DATASETS  * FILE   NREC   LENGTH (MB)   RECORD NAMES
              1      19      421.31       500      610      700      900      950      970     1000      129      960     1100   
                                          VAR    BASINP    GEOM    SYMINP    ZMAT    AOBASIS   BASIS     P2S    ABASIS      S 
                                         1400     1410     1200     1210     1080     1600     1650     1300     1700   
                                           T        V       H0       H01     AOSYM     SMH    MOLCAS    ERIS     OPER   

              2       4        3.13       700     1000      520     2100   
                                         GEOM     BASIS   MCVARS     RHF  

 PROGRAMS   *        TOTAL        HF       INT
 CPU TIMES  *        14.03      7.59      6.34
 REAL TIME  *        17.60 SEC
 DISK USED  *         1.33 GB      
 **********************************************************************************************************************************


 PROGRAM * CCSD (Closed-shell coupled cluster)     Authors: C. Hampel, H.-J. Werner, 1991, M. Deegan, P.J. Knowles, 1992


 Convergence thresholds:  THRVAR = 1.00D-08  THRDEN = 1.00D-12

 CCSD(T)     terms to be evaluated (factor= 1.000)


 Number of closed-shell orbitals:   8 (   7   1 )
 Number of external orbitals:     163 ( 107  56 )

 Molecular orbitals read from record     2100.2  Type=RHF/CANONICAL (state 1.1)

 Number of N-1 electron functions:               8
 Number of N-2 electron functions:              36
 Number of singly external CSFs:               805
 Number of doubly external CSFs:            449165
 Total number of CSFs:                      449971

 Length of J-op  integral file:               0.00 MB
 Length of K-op  integral file:               1.15 MB
 Length of 3-ext integral record:             0.00 MB

 Memory could be reduced to 24.90 Mwords without degradation in triples

 Integral transformation finished. Total CPU:   1.23 sec, npass=  1  Memory used:   6.89 MW

 Reference energy:                   -129.83967322

 MP2 singlet pair energy:              -0.37903821
 MP2 triplet pair energy:              -0.18668196
 MP2 correlation energy:               -0.56572017
 MP2 total energy:                   -130.40539339

 SCS-MP2 correlation energy:           -0.57100351   (PS=  1.200000  PT=  0.333333)
 SCS-MP2 total energy:               -130.41067673

 ITER.      SQ.NORM     CORR.ENERGY   TOTAL ENERGY   ENERGY CHANGE        DEN1      VAR(S)    VAR(P)  DIIS     TIME  TIME/IT
   1      1.11990216    -0.57043931  -130.41011254    -0.00471915     0.01301021  0.34D-02  0.31D-02  1  1     2.59     1.43
   2      1.13079351    -0.57014173  -130.40981495     0.00029759    -0.01372671  0.90D-04  0.50D-03  2  2     3.97     1.46
   3      1.13604978    -0.57046868  -130.41014190    -0.00032695    -0.00236409  0.55D-04  0.68D-04  3  3     5.36     1.47
   4      1.13948439    -0.57046040  -130.41013362     0.00000828    -0.00138797  0.45D-05  0.97D-05  4  4     6.71     1.48
   5      1.14053190    -0.57048490  -130.41015813    -0.00002451    -0.00024737  0.16D-05  0.18D-05  5  5     8.09     1.48
   6      1.14093755    -0.57047896  -130.41015218     0.00000594    -0.00003917  0.14D-06  0.40D-06  6  6     9.45     1.47
   7      1.14102065    -0.57047918  -130.41015240    -0.00000022     0.00000052  0.21D-07  0.91D-07  6  1    10.82     1.47
   8      1.14105452    -0.57047743  -130.41015065     0.00000175    -0.00000475  0.40D-08  0.13D-07  6  2    12.15     1.47
   9      1.14105929    -0.57047751  -130.41015073    -0.00000008     0.00000112  0.17D-08  0.17D-08  6  3    13.56     1.48
  10      1.14106098    -0.57047781  -130.41015103    -0.00000030    -0.00000064  0.39D-09  0.24D-09  6  4    14.94     1.48
  11      1.14106004    -0.57047794  -130.41015116    -0.00000014     0.00000034  0.96D-10  0.25D-10  6  5    16.31     1.48
  12      1.14105917    -0.57047807  -130.41015129    -0.00000013     0.00000034  0.99D-11  0.62D-11  6  6    17.71     1.48
  13      1.14105866    -0.57047808  -130.41015130    -0.00000001     0.00000010  0.41D-11  0.11D-11  6  1    19.06     1.48
  14      1.14105824    -0.57047811  -130.41015133    -0.00000003     0.00000010  0.43D-12  0.38D-12  6  3    20.43     1.48
  15      1.14105808    -0.57047811  -130.41015133    -0.00000000     0.00000002  0.11D-12  0.26D-13  6  2    21.81     1.49
  16      1.14105803    -0.57047811  -130.41015133    -0.00000000     0.00000001  0.24D-13  0.57D-14  6  4    23.24     1.49
  17      1.14105801    -0.57047811  -130.41015133    -0.00000000     0.00000001  0.42D-14  0.11D-14  6  5    24.64     1.49
  18      1.14105801    -0.57047811  -130.41015133    -0.00000000     0.00000000  0.43D-15  0.28D-15  6  6    26.07     1.49
  19      1.14105801    -0.57047811  -130.41015133     0.00000000    -0.00000000  0.53D-16  0.38D-16  6  1    27.44     1.49
  20      1.14105801    -0.57047811  -130.41015133     0.00000000    -0.00000000  0.22D-17  0.82D-17  6  3    28.81     1.49
  21      1.14105801    -0.57047811  -130.41015133     0.00000000    -0.00000000  0.11D-17  0.20D-17  6  2    30.18     1.49
  22      1.14105801    -0.57047811  -130.41015133     0.00000000    -0.00000000  0.20D-18  0.74D-18  6  4    31.57     1.49
  23      1.14105801    -0.57047811  -130.41015133    -0.00000000     0.00000000  0.12D-18  0.11D-18  6  5    32.92     1.49
  24      1.14105801    -0.57047811  -130.41015133     0.00000000    -0.00000000  0.55D-20  0.13D-19  6  1    34.29     1.49
  25      1.14105801    -0.57047811  -130.41015133     0.00000000     0.00000000  0.30D-21  0.13D-20  6  6    35.64     1.49
  26      1.14105801    -0.57047811  -130.41015133    -0.00000000     0.00000000  0.10D-21  0.30D-21  6  3    36.97     1.48

 Norm of t1 vector:      0.07766504      S-energy:     0.00000000      T1 diagnostic:  0.01372937
                                                                       D1 diagnostic:  0.04398109

 Doubles amplitudes (print threshold =  0.500E-01):

         I         J         SYM. A    SYM. B    A         B      T(IJ, AB)

         8         8         2         2         1         1     -0.13464700


 Total CPU time for triples:     17.77 sec


 RESULTS
 =======

  Reference energy                   -129.839673223378

  Correlated core orbitals:             1.1       2.1
  Orbital energies:                   -20.6512  -15.7114
 
  CCSD core-core energy                -0.079232204164
  CCSD core-valence energy             -0.036066258774
  CCSD valence correlation energy      -0.455179647552
 
  CCSD singlet pair energy             -0.407999956413
  CCSD triplet pair energy             -0.162478154078
  CCSD correlation energy              -0.570478110490

  Triples (T) contribution             -0.022308432037
  Total correlation energy             -0.592786542527

  CCSD total energy                  -130.410151333867
  CCSD[T] energy                     -130.433631663470
  CCSD-T energy                      -130.432018580729
 !CCSD(T) total energy               -130.432459765905

 Timing summary (sec):

 STEP                 CPU(USER)    SYS     CPU(TOT)    WALL
 Transformation          1.26      0.17      1.43      1.44
 CCSD iterations        35.71      2.91     38.62     38.62
 Triples                17.77      0.59     18.36     18.36

 Program statistics:

 Available memory in ccsd:               994999644
 Min. memory needed in ccsd:               1368037
 Max. memory used in ccsd:                 1750502
 Max. memory used in cckext:               2014357 (26 integral passes)



 **********************************************************************************************************************************
 DATASETS  * FILE   NREC   LENGTH (MB)   RECORD NAMES
              1      20      500.23       500      610      700      900      950      970     1000      129      960     1100   
                                          VAR    BASINP    GEOM    SYMINP    ZMAT    AOBASIS   BASIS     P2S    ABASIS      S 
                                         1400     1410     1200     1210     1080     1600     1650     1300     1700     1380   
                                           T        V       H0       H01     AOSYM     SMH    MOLCAS    ERIS     OPER     JKOP   

              2       4        3.13       700     1000      520     2100   
                                         GEOM     BASIS   MCVARS     RHF  

 PROGRAMS   *        TOTAL   CCSD(T)        HF       INT
 CPU TIMES  *        68.80     54.77      7.59      6.34
 REAL TIME  *        76.06 SEC
 DISK USED  *         1.33 GB      
 **********************************************************************************************************************************

 CCSD(T)/USERDEF energy=   -130.432459765905

        CCSD(T)         HF-SCF  
   -130.43245977   -129.83967322
 **********************************************************************************************************************************
 Molpro calculation terminated
 Variable memory released
