
 Primary working directories    : /tmp/r2666/282462.maple
 Secondary working directories  : /tmp/r2666/282462.maple
 Wavefunction directory         : /ddn/home4/r2666/wfu/
 Main file repository           : /tmp/r2666/282462.maple/

 SHA1      : d5ffa45e93fdbca01ffc919aa182cfdae0147319
 NAME      : 2015.1.35
 ARCHNAME  : linux/x86_64
 FC        : /opt/intel/composer_xe_2015.1.133/bin/intel64/ifort
 BLASLIB   : -Wl,-_start-group /opt/intel/mkl/lib/intel64/libmkl_intel_ilp64.a /opt/intel/mkl/lib/intel64/libmkl_intel_thread.a /opt/intel/mkl/lib/intel64/libmkl_core.a -Wl,-_end-group
 id        : olemiss

 Nodes     nprocs
 cn080        1

 Using customized tuning parameters: mindgm=1; mindgv=20; mindgc=4; mindgr=1; noblas=0; minvec=7
 default implementation of scratch files=df  

 ***,hno CCSD(T)/TZ-F12 QFF
 memory, 995, m;
 gthresh,energy=1.d-12,zero=1.d-22,oneint=1.d-22,twoint=1.d-22;
 gthresh,optgrad=1.d-8,optstep=1.d-8;
 nocompress;
 geomtyp=xyz
 bohr
 geometry={
 3
        101       101
 H        0.0000000000        1.6719981722       -1.9434243970
 N        0.0000000000       -0.1573010005       -1.1411210566
 O        0.0000000000        0.0270706183        1.1339558626
 }
 
 basis={
 default=aug-cc-pvtz
 s,C,8236.0,1235.0,280.8, 79.27,25.59, 8.997,3.319
 s,C,0.9059,0.3643,0.1285000
 p,C,56.0,18.71,4.133,0.2827,0.3827,0.1209
 d,C,30.0,10.0,3.3,1.097,0.318
 f,C,7.0,2.3,0.7610
 s,N,11420.0,1712.0,389.3,110.0,35.57,12.54,4.644
 s,N,1.293,0.5118,0.1787
 p,N,79.89,26.63,5.948,1.742,0.555,0.1725
 d,N,45.0,15.0,5.0,1.654,0.469
 f,N,9.9,3.3,1.093
 s,O,15330.0,2299.0,522.4,147.3,47.55,16.76,6.207
 s,O,1.752,0.6882,0.2384
 p,O,103.5,34.46,7.749,2.28,0.7156,0.214
 d,O,63.0,21.0,7.0,2.314,0.645
 f,O,12.9,4.3,1.428
 s,mg,164900.0,24710.0,5628.0,1596.0,521.0;
 s,mg,188.0,73.01,29.90,12.54,4.306,1.826;
 s,mg,0.7417,0.0761,0.145,0.033,0.0129;
 p,mg,950.70,316.90,74.86,23.72,8.669,3.363;
 p,mg,1.310,0.4911,0.2364,0.08733,0.03237,0.00745;
 d,mg,1.601,0.686,0.126,0.294,0.0468;
 f,mg,1.372,0.588,0.094,0.252;
 }
   {hf,maxit=500;accu,20;}
 {ccsd(t),nocheck,maxit=250;orbital,IGNORE_ERROR;core}

 Variables initialized (889), CPU time= 0.01 sec
 Commands  initialized (702), CPU time= 0.01 sec, 572 directives.
 Default parameters read. Elapsed time= 0.04 sec

 Checking input...
 Passed
1


                                         ***  PROGRAM SYSTEM MOLPRO  ***
                                       Copyright, TTI GmbH Stuttgart, 2015
                                    Version 2015.1 linked Jul  9 2018 13:16:40


 **********************************************************************************************************************************
 LABEL *   hno CCSD(T)/TZ-F12 QFF                                                        
  64 bit serial version                                                                  DATE: 04-Mar-20          TIME: 13:50:04  
 **********************************************************************************************************************************

 SHA1:             d5ffa45e93fdbca01ffc919aa182cfdae0147319
 **********************************************************************************************************************************

 THRESHOLDS:

 ZERO    =  1.00D-22  ONEINT  =  1.00D-22  TWOINT  =  1.00D-22  PREFAC  =  1.00D-14  LOCALI  =  1.00D-09  EORDER  =  1.00D-04
 ENERGY  =  1.00D-12  ETEST   =  0.00D+00  EDENS   =  0.00D+00  THRDEDEF=  1.00D-06  GRADIENT=  1.00D-02  STEP    =  1.00D-03
 ORBITAL =  1.00D-05  CIVEC   =  1.00D-05  COEFF   =  1.00D-04  PRINTCI =  5.00D-02  PUNCHCI =  9.90D+01  OPTGRAD =  3.00D-04
 OPTENERG=  1.00D-06  OPTSTEP =  3.00D-04  THRGRAD =  1.00D-10  COMPRESS=  1.00D-11  VARMIN  =  1.00D-07  VARMAX  =  1.00D-03
 THRDOUB =  0.00D+00  THRDIV  =  1.00D-05  THRRED  =  1.00D-07  THRPSP  =  1.00D+00  THRDC   =  1.00D-10  THRCS   =  1.00D-10
 THRNRM  =  1.00D-08  THREQ   =  0.00D+00  THRDE   =  1.00D+00  THRREF  =  1.00D-05  SPARFAC =  1.00D+00  THRDLP  =  1.00D-07
 THRDIA  =  1.00D-10  THRDLS  =  1.00D-07  THRGPS  =  0.00D+00  THRKEX  =  0.00D+00  THRDIS  =  2.00D-01  THRVAR  =  1.00D-10
 THRLOC  =  1.00D-06  THRGAP  =  1.00D-06  THRLOCT = -1.00D+00  THRGAPT = -1.00D+00  THRORB  =  1.00D-06  THRMLTP =  0.00D+00
 THRCPQCI=  1.00D-10  KEXTA   =  0.00D+00  THRCOARS=  0.00D+00  SYMTOL  =  1.00D-06  GRADTOL =  1.00D-06  THROVL  =  1.00D-08
 THRORTH =  1.00D-08  GRID    =  1.00D-06  GRIDMAX =  1.00D-03  DTMAX   =  0.00D+00  THROCCDE=  1.00D-01  THROCCDE=  1.00D-01



 THRESHOLDS:

 ZERO    =  1.00D-22  ONEINT  =  1.00D-22  TWOINT  =  1.00D-22  PREFAC  =  1.00D-14  LOCALI  =  1.00D-09  EORDER  =  1.00D-04
 ENERGY  =  1.00D-12  ETEST   =  0.00D+00  EDENS   =  0.00D+00  THRDEDEF=  1.00D-06  GRADIENT=  1.00D-02  STEP    =  1.00D-03
 ORBITAL =  1.00D-05  CIVEC   =  1.00D-05  COEFF   =  1.00D-04  PRINTCI =  5.00D-02  PUNCHCI =  9.90D+01  OPTGRAD =  1.00D-08
 OPTENERG=  1.00D-06  OPTSTEP =  1.00D-08  THRGRAD =  1.00D-10  COMPRESS=  1.00D-11  VARMIN  =  1.00D-07  VARMAX  =  1.00D-03
 THRDOUB =  0.00D+00  THRDIV  =  1.00D-05  THRRED  =  1.00D-07  THRPSP  =  1.00D+00  THRDC   =  1.00D-10  THRCS   =  1.00D-10
 THRNRM  =  1.00D-08  THREQ   =  0.00D+00  THRDE   =  1.00D+00  THRREF  =  1.00D-05  SPARFAC =  1.00D+00  THRDLP  =  1.00D-07
 THRDIA  =  1.00D-10  THRDLS  =  1.00D-07  THRGPS  =  0.00D+00  THRKEX  =  0.00D+00  THRDIS  =  2.00D-01  THRVAR  =  1.00D-10
 THRLOC  =  1.00D-06  THRGAP  =  1.00D-06  THRLOCT = -1.00D+00  THRGAPT = -1.00D+00  THRORB  =  1.00D-06  THRMLTP =  0.00D+00
 THRCPQCI=  1.00D-10  KEXTA   =  0.00D+00  THRCOARS=  0.00D+00  SYMTOL  =  1.00D-06  GRADTOL =  1.00D-06  THROVL  =  1.00D-08
 THRORTH =  1.00D-08  GRID    =  1.00D-06  GRIDMAX =  1.00D-03  DTMAX   =  0.00D+00  THROCCDE=  1.00D-01  THROCCDE=  1.00D-01



 Input parameters for SORTINT:

 COMPRESS =    0.000000
 C_FINAL  =    1.000000
 DEBUG    =   -1.000000
 C_SORT1  =    0.000000
 C_SEWARD =    0.000000
 THRESH   =    0.000000
 IO       =  molpro                                                          
 SPRI     =    0.000000
 SETTING GEOMTYP        =    XYZ
 ZUNIT=BOHR
 

 Variable memory set to  995000000 words,  buffer space   230000 words

 SETTING BASIS          =    USERDEF


 Recomputing integrals since basis changed


 Using spherical harmonics

 Library entry H      S aug-cc-pVTZ          selected for orbital group  1
 Library entry H      P aug-cc-pVTZ          selected for orbital group  1
 Library entry H      D aug-cc-pVTZ          selected for orbital group  1


 PROGRAM * SEWARD (Integral evaluation for generally contracted gaussian basis sets)     Author: Roland Lindh, 1990

 Geometry written to block  1 of record 700


 Point group  Cs  



 ATOMIC COORDINATES

 NR  ATOM    CHARGE       X              Y              Z

   1  H       1.00    0.000000000    1.671998172   -1.943424397
   2  N       7.00    0.000000000   -0.157301001   -1.141121057
   3  O       8.00    0.000000000    0.027070618    1.133955863

 Bond lengths in Bohr (Angstrom)

 1-2  1.997504972  2-3  2.282535407
     ( 1.057034110)     ( 1.207865720)

 Bond angles

  1-2-3  109.04843018

 NUCLEAR CHARGE:                   16
 NUMBER OF PRIMITIVE AOS:         203
 NUMBER OF SYMMETRY AOS:          173
 NUMBER OF CONTRACTIONS:          171   ( 114A'  +  57A"  )
 NUMBER OF CORE ORBITALS:           2   (   2A'  +   0A"  )
 NUMBER OF VALENCE ORBITALS:        9   (   7A'  +   2A"  )


 NUCLEAR REPULSION ENERGY   30.33113707


 Eigenvalues of metric

         1 0.105E-02 0.249E-02 0.336E-02 0.639E-02 0.100E-01 0.137E-01 0.145E-01 0.233E-01
         2 0.369E-01 0.532E-01 0.699E-01 0.942E-01 0.131E+00 0.134E+00 0.141E+00 0.142E+00


 Contracted 2-electron integrals neglected if value below      1.0D-22

       46149498. INTEGRALS WRITTEN OUT IN   11270 BLOCKS ON RECORD 1290 OF FILE 1


 NUMBER OF SORTED TWO-ELECTRON INTEGRALS:   55360566.     BUFFER LENGTH:  32768
 NUMBER OF SEGMENTS:   4  SEGMENT LENGTH:   15997996      RECORD LENGTH: 524288

 Memory used in sort:      16.56 MW

 SORT1 READ    46149498. AND WROTE    46586953. INTEGRALS IN    136 RECORDS. CPU TIME:     0.76 SEC, REAL TIME:     1.00 SEC
 SORT2 READ    46586953. AND WROTE    55360566. INTEGRALS IN      4 RECORDS. CPU TIME:     0.69 SEC, REAL TIME:     0.86 SEC

 FILE SIZES:   FILE 1:   759.3 MBYTE,  FILE 4:   570.5 MBYTE,   TOTAL:   1329.8 MBYTE

 OPERATOR DM      FOR CENTER  0  COORDINATES:    0.000000    0.000000    0.000000


 **********************************************************************************************************************************
 DATASETS  * FILE   NREC   LENGTH (MB)   RECORD NAMES
              1      19      421.27       500      610      700      900      950      970     1000      129      960     1100   
                                          VAR    BASINP    GEOM    SYMINP    ZMAT    AOBASIS   BASIS     P2S    ABASIS      S 
                                         1400     1410     1200     1210     1080     1600     1650     1300     1700   
                                           T        V       H0       H01     AOSYM     SMH    MOLCAS    ERIS     OPER   

 PROGRAMS   *        TOTAL       INT
 CPU TIMES  *         4.09      4.00
 REAL TIME  *         5.40 SEC
 DISK USED  *         1.33 GB      
 **********************************************************************************************************************************


 PROGRAM * RHF-SCF (CLOSED SHELL)       Authors: W. Meyer, H.-J. Werner


 NUMBER OF ELECTRONS:       8+    8-
 CONVERGENCE THRESHOLDS:    1.00E-10 (Density)    1.00E-13 (Energy)
 MAX. NUMBER OF ITERATIONS:      500
 INTERPOLATION TYPE:            DIIS
 INTERPOLATION STEPS:              2 (START)      1 (STEP)
 LEVEL SHIFTS:                  0.00 (CLOSED)  0.00 (OPEN) 



 Orbital guess generated from atomic densities. Full valence occupancy:    9   2

 Molecular orbital dump at record        2100.2

 Initial occupancy:   7   1

 ITERATION    DDIFF          GRAD             ENERGY        2-EL.EN.            DIPOLE MOMENTS         DIIS   ORB.
    1      0.000D+00      0.000D+00      -129.78891760    153.986017    0.00000    0.57375   -1.01592    0    start
    2      0.000D+00      0.880D-02      -129.81580474    155.170254    0.00000    0.59658   -0.19782    1    diag
    3      0.364D-02      0.669D-02      -129.83870973    155.288644    0.00000    0.54809   -0.58634    2    diag
    4      0.142D-02      0.104D-02      -129.83949625    155.013082    0.00000    0.55574   -0.52373    3    diag
    5      0.331D-03      0.337D-03      -129.83961728    155.101780    0.00000    0.56191   -0.52624    4    diag
    6      0.153D-03      0.991D-04      -129.83963705    155.085639    0.00000    0.56250   -0.52210    5    diag
    7      0.609D-04      0.497D-04      -129.83964286    155.088204    0.00000    0.56385   -0.51960    6    diag
    8      0.413D-04      0.170D-04      -129.83964349    155.087381    0.00000    0.56391   -0.51869    7    diag
    9      0.143D-04      0.320D-05      -129.83964351    155.087265    0.00000    0.56385   -0.51851    8    diag
   10      0.290D-05      0.733D-06      -129.83964352    155.087250    0.00000    0.56382   -0.51848    9    orth
   11      0.867D-06      0.146D-06      -129.83964352    155.087246    0.00000    0.56381   -0.51848    9    diag
   12      0.205D-06      0.301D-07      -129.83964352    155.087245    0.00000    0.56381   -0.51848    9    diag
   13      0.501D-07      0.797D-08      -129.83964352    155.087245    0.00000    0.56381   -0.51848    9    diag
   14      0.117D-07      0.141D-08      -129.83964352    155.087245    0.00000    0.56381   -0.51848    9    diag
   15      0.150D-08      0.379D-09      -129.83964352    155.087245    0.00000    0.56381   -0.51848    9    diag
   16      0.332D-09      0.111D-09      -129.83964352    155.087245    0.00000    0.56381   -0.51848    9    diag
   17      0.760D-10      0.307D-10      -129.83964352    155.087245    0.00000    0.56381   -0.51848    9    diag
   18      0.243D-10      0.103D-10      -129.83964352    155.087245    0.00000    0.56381   -0.51848    9    diag
   19      0.993D-11      0.249D-11      -129.83964352    155.087245    0.00000    0.56381   -0.51848    9    fixocc
   20      0.254D-11      0.899D-12      -129.83964352    155.087245    0.00000    0.56381   -0.51848    9    orth
   21      0.294D-12      0.286D-12      -129.83964352    155.087245    0.00000    0.56381   -0.51848    0    orth

 Final occupancy:   7   1

 !RHF STATE 1.1 Energy               -129.839643515361
 Nuclear energy                        30.33113707
 One-electron energy                 -237.71440293
 Two-electron energy                   77.54362235
 Virial quotient                       -1.00171333
 !RHF STATE 1.1 Dipole moment           0.00000000     0.56380663    -0.51847624
 Dipole moment /Debye                   0.00000000     1.43295964    -1.31774883

 Orbital energies:

         1.1          2.1          3.1          4.1          5.1          6.1          7.1          8.1          9.1
    -20.651578   -15.711098    -1.527637    -0.992156    -0.744636    -0.664423    -0.427830     0.039590     0.192278

         1.2          2.2          3.2
     -0.594222     0.078927     0.239582

 HOMO      7.1    -0.427830 =     -11.6419eV
 LUMO      8.1     0.039590 =       1.0773eV
 LUMO-HOMO         0.467420 =      12.7191eV


 **********************************************************************************************************************************
 DATASETS  * FILE   NREC   LENGTH (MB)   RECORD NAMES
              1      19      421.27       500      610      700      900      950      970     1000      129      960     1100   
                                          VAR    BASINP    GEOM    SYMINP    ZMAT    AOBASIS   BASIS     P2S    ABASIS      S 
                                         1400     1410     1200     1210     1080     1600     1650     1300     1700   
                                           T        V       H0       H01     AOSYM     SMH    MOLCAS    ERIS     OPER   

              2       4        3.13       700     1000      520     2100   
                                         GEOM     BASIS   MCVARS     RHF  

 PROGRAMS   *        TOTAL        HF       INT
 CPU TIMES  *         9.23      5.14      4.00
 REAL TIME  *        11.61 SEC
 DISK USED  *         1.33 GB      
 **********************************************************************************************************************************


 PROGRAM * CCSD (Closed-shell coupled cluster)     Authors: C. Hampel, H.-J. Werner, 1991, M. Deegan, P.J. Knowles, 1992


 Convergence thresholds:  THRVAR = 1.00D-08  THRDEN = 1.00D-12

 CCSD(T)     terms to be evaluated (factor= 1.000)


 Number of closed-shell orbitals:   8 (   7   1 )
 Number of external orbitals:     163 ( 107  56 )

 Molecular orbitals read from record     2100.2  Type=RHF/CANONICAL (state 1.1)

 Number of N-1 electron functions:               8
 Number of N-2 electron functions:              36
 Number of singly external CSFs:               805
 Number of doubly external CSFs:            449165
 Total number of CSFs:                      449971

 Length of J-op  integral file:               0.00 MB
 Length of K-op  integral file:               1.15 MB
 Length of 3-ext integral record:             0.00 MB

 Memory could be reduced to 24.90 Mwords without degradation in triples

 Integral transformation finished. Total CPU:   0.86 sec, npass=  1  Memory used:   6.89 MW

 Reference energy:                   -129.83964352

 MP2 singlet pair energy:              -0.37903416
 MP2 triplet pair energy:              -0.18668374
 MP2 correlation energy:               -0.56571790
 MP2 total energy:                   -130.40536142

 SCS-MP2 correlation energy:           -0.57099976   (PS=  1.200000  PT=  0.333333)
 SCS-MP2 total energy:               -130.41064328

 ITER.      SQ.NORM     CORR.ENERGY   TOTAL ENERGY   ENERGY CHANGE        DEN1      VAR(S)    VAR(P)  DIIS     TIME  TIME/IT
   1      1.11994275    -0.57043927  -130.41008279    -0.00472137     0.01304457  0.34D-02  0.31D-02  1  1     1.73     0.93
   2      1.13086428    -0.57013523  -130.40977875     0.00030404    -0.01374729  0.91D-04  0.50D-03  2  2     2.63     0.96
   3      1.13614939    -0.57046592  -130.41010943    -0.00033068    -0.00236630  0.57D-04  0.69D-04  3  3     3.50     0.97
   4      1.13960906    -0.57045715  -130.41010067     0.00000877    -0.00139285  0.47D-05  0.99D-05  4  4     4.40     0.97
   5      1.14067826    -0.57048184  -130.41012535    -0.00002469    -0.00025176  0.17D-05  0.19D-05  5  5     5.29     0.98
   6      1.14109572    -0.57047573  -130.41011925     0.00000611    -0.00004031  0.15D-06  0.42D-06  6  6     6.19     0.98
   7      1.14118214    -0.57047596  -130.41011948    -0.00000023     0.00000040  0.21D-07  0.95D-07  6  1     7.12     0.98
   8      1.14121710    -0.57047423  -130.41011774     0.00000174    -0.00000485  0.42D-08  0.14D-07  6  2     8.01     0.98
   9      1.14122223    -0.57047428  -130.41011779    -0.00000005     0.00000109  0.18D-08  0.19D-08  6  3     8.93     0.99
  10      1.14122398    -0.57047459  -130.41011810    -0.00000031    -0.00000066  0.42D-09  0.26D-09  6  4     9.89     1.00
  11      1.14122300    -0.57047473  -130.41011825    -0.00000014     0.00000035  0.10D-09  0.27D-10  6  5    10.84     1.00
  12      1.14122207    -0.57047487  -130.41011838    -0.00000014     0.00000036  0.11D-10  0.69D-11  6  6    11.81     1.01
  13      1.14122153    -0.57047488  -130.41011840    -0.00000001     0.00000011  0.47D-11  0.12D-11  6  1    12.80     1.01
  14      1.14122108    -0.57047491  -130.41011842    -0.00000003     0.00000011  0.48D-12  0.42D-12  6  3    13.79     1.01
  15      1.14122090    -0.57047491  -130.41011842    -0.00000000     0.00000002  0.12D-12  0.29D-13  6  2    14.76     1.02
  16      1.14122085    -0.57047491  -130.41011843    -0.00000000     0.00000001  0.27D-13  0.63D-14  6  4    15.67     1.02
  17      1.14122083    -0.57047491  -130.41011843    -0.00000000     0.00000001  0.45D-14  0.11D-14  6  5    16.63     1.02
  18      1.14122082    -0.57047491  -130.41011843    -0.00000000     0.00000000  0.46D-15  0.30D-15  6  6    17.60     1.02
  19      1.14122083    -0.57047491  -130.41011843     0.00000000    -0.00000000  0.57D-16  0.39D-16  6  1    18.55     1.02
  20      1.14122083    -0.57047491  -130.41011843     0.00000000    -0.00000000  0.25D-17  0.83D-17  6  3    19.53     1.02
  21      1.14122083    -0.57047491  -130.41011843     0.00000000    -0.00000000  0.12D-17  0.21D-17  6  2    20.49     1.02
  22      1.14122083    -0.57047491  -130.41011843     0.00000000    -0.00000000  0.22D-18  0.75D-18  6  4    21.44     1.03
  23      1.14122083    -0.57047491  -130.41011843    -0.00000000     0.00000000  0.13D-18  0.11D-18  6  5    22.42     1.03
  24      1.14122083    -0.57047491  -130.41011843     0.00000000    -0.00000000  0.56D-20  0.14D-19  6  1    23.41     1.03
  25      1.14122083    -0.57047491  -130.41011843     0.00000000     0.00000000  0.31D-21  0.15D-20  6  6    24.37     1.03
  26      1.14122083    -0.57047491  -130.41011843    -0.00000000     0.00000000  0.13D-21  0.34D-21  6  3    25.34     1.03

 Norm of t1 vector:      0.07816065      S-energy:     0.00000000      T1 diagnostic:  0.01381698
                                                                       D1 diagnostic:  0.04413919

 Doubles amplitudes (print threshold =  0.500E-01):

         I         J         SYM. A    SYM. B    A         B      T(IJ, AB)

         8         8         2         2         1         1     -0.13439057


 Total CPU time for triples:     18.72 sec


 RESULTS
 =======

  Reference energy                   -129.839643515361

  Correlated core orbitals:             1.1       2.1
  Orbital energies:                   -20.6516  -15.7111
 
  CCSD core-core energy                -0.079234234378
  CCSD core-valence energy             -0.036065372187
  CCSD valence correlation energy      -0.455175304655
 
  CCSD singlet pair energy             -0.408000141136
  CCSD triplet pair energy             -0.162474770085
  CCSD correlation energy              -0.570474911220

  Triples (T) contribution             -0.022325475976
  Total correlation energy             -0.592800387196

  CCSD total energy                  -130.410118426581
  CCSD[T] energy                     -130.433624914200
  CCSD-T energy                      -130.432000433328
 !CCSD(T) total energy               -130.432443902557

 Timing summary (sec):

 STEP                 CPU(USER)    SYS     CPU(TOT)    WALL
 Transformation          0.87      0.14      1.01      1.00
 CCSD iterations        24.48      2.37     26.85     26.86
 Triples                18.72      0.60     19.32     19.32

 Program statistics:

 Available memory in ccsd:               994999644
 Min. memory needed in ccsd:               1368037
 Max. memory used in ccsd:                 1750502
 Max. memory used in cckext:               2014357 (26 integral passes)



 **********************************************************************************************************************************
 DATASETS  * FILE   NREC   LENGTH (MB)   RECORD NAMES
              1      20      500.19       500      610      700      900      950      970     1000      129      960     1100   
                                          VAR    BASINP    GEOM    SYMINP    ZMAT    AOBASIS   BASIS     P2S    ABASIS      S 
                                         1400     1410     1200     1210     1080     1600     1650     1300     1700     1380   
                                           T        V       H0       H01     AOSYM     SMH    MOLCAS    ERIS     OPER     JKOP   

              2       4        3.13       700     1000      520     2100   
                                         GEOM     BASIS   MCVARS     RHF  

 PROGRAMS   *        TOTAL   CCSD(T)        HF       INT
 CPU TIMES  *        53.32     44.09      5.14      4.00
 REAL TIME  *        58.82 SEC
 DISK USED  *         1.33 GB      
 **********************************************************************************************************************************

 CCSD(T)/USERDEF energy=   -130.432443902557

        CCSD(T)         HF-SCF  
   -130.43244390   -129.83964352
 **********************************************************************************************************************************
 Molpro calculation terminated
 Variable memory released
