
 Primary working directories    : /tmp/r2666/282438.maple
 Secondary working directories  : /tmp/r2666/282438.maple
 Wavefunction directory         : /ddn/home4/r2666/wfu/
 Main file repository           : /tmp/r2666/282438.maple/

 SHA1      : d5ffa45e93fdbca01ffc919aa182cfdae0147319
 NAME      : 2015.1.35
 ARCHNAME  : linux/x86_64
 FC        : /opt/intel/composer_xe_2015.1.133/bin/intel64/ifort
 BLASLIB   : -Wl,-_start-group /opt/intel/mkl/lib/intel64/libmkl_intel_ilp64.a /opt/intel/mkl/lib/intel64/libmkl_intel_thread.a /opt/intel/mkl/lib/intel64/libmkl_core.a -Wl,-_end-group
 id        : olemiss

 Nodes     nprocs
 cn084        1

 Using customized tuning parameters: mindgm=1; mindgv=20; mindgc=4; mindgr=1; noblas=0; minvec=7
 default implementation of scratch files=df  

 ***,hno CCSD(T)/TZ-F12 QFF
 memory, 995, m;
 gthresh,energy=1.d-12,zero=1.d-22,oneint=1.d-22,twoint=1.d-22;
 gthresh,optgrad=1.d-8,optstep=1.d-8;
 nocompress;
 geomtyp=xyz
 bohr
 geometry={
 3
         77        77
 H        0.0000000000        1.6680117044       -1.9263660374
 N        0.0000000000       -0.1656638527       -1.1582501799
 O        0.0000000000        0.0394199383        1.1340266263
 }
 
 basis={
 default=aug-cc-pvtz
 s,C,8236.0,1235.0,280.8, 79.27,25.59, 8.997,3.319
 s,C,0.9059,0.3643,0.1285000
 p,C,56.0,18.71,4.133,0.2827,0.3827,0.1209
 d,C,30.0,10.0,3.3,1.097,0.318
 f,C,7.0,2.3,0.7610
 s,N,11420.0,1712.0,389.3,110.0,35.57,12.54,4.644
 s,N,1.293,0.5118,0.1787
 p,N,79.89,26.63,5.948,1.742,0.555,0.1725
 d,N,45.0,15.0,5.0,1.654,0.469
 f,N,9.9,3.3,1.093
 s,O,15330.0,2299.0,522.4,147.3,47.55,16.76,6.207
 s,O,1.752,0.6882,0.2384
 p,O,103.5,34.46,7.749,2.28,0.7156,0.214
 d,O,63.0,21.0,7.0,2.314,0.645
 f,O,12.9,4.3,1.428
 s,mg,164900.0,24710.0,5628.0,1596.0,521.0;
 s,mg,188.0,73.01,29.90,12.54,4.306,1.826;
 s,mg,0.7417,0.0761,0.145,0.033,0.0129;
 p,mg,950.70,316.90,74.86,23.72,8.669,3.363;
 p,mg,1.310,0.4911,0.2364,0.08733,0.03237,0.00745;
 d,mg,1.601,0.686,0.126,0.294,0.0468;
 f,mg,1.372,0.588,0.094,0.252;
 }
   {hf,maxit=500;accu,20;}
 {ccsd(t),nocheck,maxit=250;orbital,IGNORE_ERROR;core}

 Variables initialized (889), CPU time= 0.01 sec
 Commands  initialized (702), CPU time= 0.00 sec, 572 directives.
 Default parameters read. Elapsed time= 0.05 sec

 Checking input...
 Passed
1


                                         ***  PROGRAM SYSTEM MOLPRO  ***
                                       Copyright, TTI GmbH Stuttgart, 2015
                                    Version 2015.1 linked Jul  9 2018 13:16:40


 **********************************************************************************************************************************
 LABEL *   hno CCSD(T)/TZ-F12 QFF                                                        
  64 bit serial version                                                                  DATE: 04-Mar-20          TIME: 13:49:49  
 **********************************************************************************************************************************

 SHA1:             d5ffa45e93fdbca01ffc919aa182cfdae0147319
 **********************************************************************************************************************************

 THRESHOLDS:

 ZERO    =  1.00D-22  ONEINT  =  1.00D-22  TWOINT  =  1.00D-22  PREFAC  =  1.00D-14  LOCALI  =  1.00D-09  EORDER  =  1.00D-04
 ENERGY  =  1.00D-12  ETEST   =  0.00D+00  EDENS   =  0.00D+00  THRDEDEF=  1.00D-06  GRADIENT=  1.00D-02  STEP    =  1.00D-03
 ORBITAL =  1.00D-05  CIVEC   =  1.00D-05  COEFF   =  1.00D-04  PRINTCI =  5.00D-02  PUNCHCI =  9.90D+01  OPTGRAD =  3.00D-04
 OPTENERG=  1.00D-06  OPTSTEP =  3.00D-04  THRGRAD =  1.00D-10  COMPRESS=  1.00D-11  VARMIN  =  1.00D-07  VARMAX  =  1.00D-03
 THRDOUB =  0.00D+00  THRDIV  =  1.00D-05  THRRED  =  1.00D-07  THRPSP  =  1.00D+00  THRDC   =  1.00D-10  THRCS   =  1.00D-10
 THRNRM  =  1.00D-08  THREQ   =  0.00D+00  THRDE   =  1.00D+00  THRREF  =  1.00D-05  SPARFAC =  1.00D+00  THRDLP  =  1.00D-07
 THRDIA  =  1.00D-10  THRDLS  =  1.00D-07  THRGPS  =  0.00D+00  THRKEX  =  0.00D+00  THRDIS  =  2.00D-01  THRVAR  =  1.00D-10
 THRLOC  =  1.00D-06  THRGAP  =  1.00D-06  THRLOCT = -1.00D+00  THRGAPT = -1.00D+00  THRORB  =  1.00D-06  THRMLTP =  0.00D+00
 THRCPQCI=  1.00D-10  KEXTA   =  0.00D+00  THRCOARS=  0.00D+00  SYMTOL  =  1.00D-06  GRADTOL =  1.00D-06  THROVL  =  1.00D-08
 THRORTH =  1.00D-08  GRID    =  1.00D-06  GRIDMAX =  1.00D-03  DTMAX   =  0.00D+00  THROCCDE=  1.00D-01  THROCCDE=  1.00D-01



 THRESHOLDS:

 ZERO    =  1.00D-22  ONEINT  =  1.00D-22  TWOINT  =  1.00D-22  PREFAC  =  1.00D-14  LOCALI  =  1.00D-09  EORDER  =  1.00D-04
 ENERGY  =  1.00D-12  ETEST   =  0.00D+00  EDENS   =  0.00D+00  THRDEDEF=  1.00D-06  GRADIENT=  1.00D-02  STEP    =  1.00D-03
 ORBITAL =  1.00D-05  CIVEC   =  1.00D-05  COEFF   =  1.00D-04  PRINTCI =  5.00D-02  PUNCHCI =  9.90D+01  OPTGRAD =  1.00D-08
 OPTENERG=  1.00D-06  OPTSTEP =  1.00D-08  THRGRAD =  1.00D-10  COMPRESS=  1.00D-11  VARMIN  =  1.00D-07  VARMAX  =  1.00D-03
 THRDOUB =  0.00D+00  THRDIV  =  1.00D-05  THRRED  =  1.00D-07  THRPSP  =  1.00D+00  THRDC   =  1.00D-10  THRCS   =  1.00D-10
 THRNRM  =  1.00D-08  THREQ   =  0.00D+00  THRDE   =  1.00D+00  THRREF  =  1.00D-05  SPARFAC =  1.00D+00  THRDLP  =  1.00D-07
 THRDIA  =  1.00D-10  THRDLS  =  1.00D-07  THRGPS  =  0.00D+00  THRKEX  =  0.00D+00  THRDIS  =  2.00D-01  THRVAR  =  1.00D-10
 THRLOC  =  1.00D-06  THRGAP  =  1.00D-06  THRLOCT = -1.00D+00  THRGAPT = -1.00D+00  THRORB  =  1.00D-06  THRMLTP =  0.00D+00
 THRCPQCI=  1.00D-10  KEXTA   =  0.00D+00  THRCOARS=  0.00D+00  SYMTOL  =  1.00D-06  GRADTOL =  1.00D-06  THROVL  =  1.00D-08
 THRORTH =  1.00D-08  GRID    =  1.00D-06  GRIDMAX =  1.00D-03  DTMAX   =  0.00D+00  THROCCDE=  1.00D-01  THROCCDE=  1.00D-01



 Input parameters for SORTINT:

 COMPRESS =    0.000000
 C_FINAL  =    1.000000
 DEBUG    =   -1.000000
 C_SORT1  =    0.000000
 C_SEWARD =    0.000000
 THRESH   =    0.000000
 IO       =  molpro                                                          
 SPRI     =    0.000000
 SETTING GEOMTYP        =    XYZ
 ZUNIT=BOHR
 

 Variable memory set to  995000000 words,  buffer space   230000 words

 SETTING BASIS          =    USERDEF


 Recomputing integrals since basis changed


 Using spherical harmonics

 Library entry H      S aug-cc-pVTZ          selected for orbital group  1
 Library entry H      P aug-cc-pVTZ          selected for orbital group  1
 Library entry H      D aug-cc-pVTZ          selected for orbital group  1


 PROGRAM * SEWARD (Integral evaluation for generally contracted gaussian basis sets)     Author: Roland Lindh, 1990

 Geometry written to block  1 of record 700


 Point group  Cs  



 ATOMIC COORDINATES

 NR  ATOM    CHARGE       X              Y              Z

   1  H       1.00    0.000000000    1.668011704   -1.926366037
   2  N       7.00    0.000000000   -0.165663853   -1.158250180
   3  O       8.00    0.000000000    0.039419938    1.134026626

 Bond lengths in Bohr (Angstrom)

 1-2  1.988056342  2-3  2.301432666
     ( 1.052034110)     ( 1.217865719)

 Bond angles

  1-2-3  107.61603570

 NUCLEAR CHARGE:                   16
 NUMBER OF PRIMITIVE AOS:         203
 NUMBER OF SYMMETRY AOS:          173
 NUMBER OF CONTRACTIONS:          171   ( 114A'  +  57A"  )
 NUMBER OF CORE ORBITALS:           2   (   2A'  +   0A"  )
 NUMBER OF VALENCE ORBITALS:        9   (   7A'  +   2A"  )


 NUCLEAR REPULSION ENERGY   30.16133706


 Eigenvalues of metric

         1 0.106E-02 0.258E-02 0.337E-02 0.641E-02 0.986E-02 0.137E-01 0.146E-01 0.232E-01
         2 0.365E-01 0.546E-01 0.707E-01 0.942E-01 0.132E+00 0.134E+00 0.140E+00 0.142E+00


 Contracted 2-electron integrals neglected if value below      1.0D-22

       46096848. INTEGRALS WRITTEN OUT IN   11257 BLOCKS ON RECORD 1290 OF FILE 1


 NUMBER OF SORTED TWO-ELECTRON INTEGRALS:   55360566.     BUFFER LENGTH:  32768
 NUMBER OF SEGMENTS:   4  SEGMENT LENGTH:   15997996      RECORD LENGTH: 524288

 Memory used in sort:      16.56 MW

 SORT1 READ    46096848. AND WROTE    46533767. INTEGRALS IN    135 RECORDS. CPU TIME:     0.72 SEC, REAL TIME:     1.00 SEC
 SORT2 READ    46533767. AND WROTE    55360566. INTEGRALS IN      4 RECORDS. CPU TIME:     0.63 SEC, REAL TIME:     0.84 SEC

 FILE SIZES:   FILE 1:   758.5 MBYTE,  FILE 4:   566.3 MBYTE,   TOTAL:   1324.7 MBYTE

 OPERATOR DM      FOR CENTER  0  COORDINATES:    0.000000    0.000000    0.000000


 **********************************************************************************************************************************
 DATASETS  * FILE   NREC   LENGTH (MB)   RECORD NAMES
              1      19      420.91       500      610      700      900      950      970     1000      129      960     1100   
                                          VAR    BASINP    GEOM    SYMINP    ZMAT    AOBASIS   BASIS     P2S    ABASIS      S 
                                         1400     1410     1200     1210     1080     1600     1650     1300     1700   
                                           T        V       H0       H01     AOSYM     SMH    MOLCAS    ERIS     OPER   

 PROGRAMS   *        TOTAL       INT
 CPU TIMES  *         4.02      3.93
 REAL TIME  *         5.43 SEC
 DISK USED  *         1.33 GB      
 **********************************************************************************************************************************


 PROGRAM * RHF-SCF (CLOSED SHELL)       Authors: W. Meyer, H.-J. Werner


 NUMBER OF ELECTRONS:       8+    8-
 CONVERGENCE THRESHOLDS:    1.00E-10 (Density)    1.00E-13 (Energy)
 MAX. NUMBER OF ITERATIONS:      500
 INTERPOLATION TYPE:            DIIS
 INTERPOLATION STEPS:              2 (START)      1 (STEP)
 LEVEL SHIFTS:                  0.00 (CLOSED)  0.00 (OPEN) 



 Orbital guess generated from atomic densities. Full valence occupancy:    9   2

 Molecular orbital dump at record        2100.2

 Initial occupancy:   7   1

 ITERATION    DDIFF          GRAD             ENERGY        2-EL.EN.            DIPOLE MOMENTS         DIIS   ORB.
    1      0.000D+00      0.000D+00      -129.78623007    153.692943    0.00000    0.56893   -1.04431    0    start
    2      0.000D+00      0.889D-02      -129.81279373    154.843901    0.00000    0.60413   -0.18789    1    diag
    3      0.370D-02      0.691D-02      -129.83734435    154.987240    0.00000    0.54884   -0.59568    2    diag
    4      0.146D-02      0.105D-02      -129.83814659    154.705798    0.00000    0.55699   -0.53176    3    diag
    5      0.334D-03      0.342D-03      -129.83827084    154.794561    0.00000    0.56296   -0.53395    4    diag
    6      0.155D-03      0.101D-03      -129.83829122    154.778318    0.00000    0.56347   -0.52965    5    diag
    7      0.611D-04      0.509D-04      -129.83829739    154.780756    0.00000    0.56478   -0.52699    6    diag
    8      0.418D-04      0.180D-04      -129.83829812    154.779877    0.00000    0.56482   -0.52600    7    diag
    9      0.153D-04      0.338D-05      -129.83829815    154.779755    0.00000    0.56477   -0.52580    8    diag
   10      0.317D-05      0.750D-06      -129.83829815    154.779742    0.00000    0.56473   -0.52578    9    orth
   11      0.894D-06      0.148D-06      -129.83829815    154.779738    0.00000    0.56473   -0.52577    9    diag
   12      0.209D-06      0.316D-07      -129.83829815    154.779737    0.00000    0.56473   -0.52577    9    diag
   13      0.516D-07      0.854D-08      -129.83829815    154.779737    0.00000    0.56472   -0.52577    9    diag
   14      0.120D-07      0.149D-08      -129.83829815    154.779737    0.00000    0.56472   -0.52577    9    diag
   15      0.142D-08      0.392D-09      -129.83829815    154.779737    0.00000    0.56472   -0.52577    9    diag
   16      0.333D-09      0.111D-09      -129.83829815    154.779737    0.00000    0.56472   -0.52577    9    diag
   17      0.655D-10      0.290D-10      -129.83829815    154.779737    0.00000    0.56472   -0.52577    0    orth

 Final occupancy:   7   1

 !RHF STATE 1.1 Energy               -129.838298148443
 Nuclear energy                        30.16133706
 One-electron energy                 -237.38950353
 Two-electron energy                   77.38986832
 Virial quotient                       -1.00190629
 !RHF STATE 1.1 Dipole moment           0.00000000     0.56472469    -0.52577153
 Dipole moment /Debye                   0.00000000     1.43529299    -1.33629041

 Orbital energies:

         1.1          2.1          3.1          4.1          5.1          6.1          7.1          8.1          9.1
    -20.652067   -15.712386    -1.520305    -0.994865    -0.742214    -0.661293    -0.432122     0.039612     0.192358

         1.2          2.2          3.2
     -0.589633     0.075769     0.239166

 HOMO      7.1    -0.432122 =     -11.7586eV
 LUMO      8.1     0.039612 =       1.0779eV
 LUMO-HOMO         0.471734 =      12.8365eV


 **********************************************************************************************************************************
 DATASETS  * FILE   NREC   LENGTH (MB)   RECORD NAMES
              1      19      420.91       500      610      700      900      950      970     1000      129      960     1100   
                                          VAR    BASINP    GEOM    SYMINP    ZMAT    AOBASIS   BASIS     P2S    ABASIS      S 
                                         1400     1410     1200     1210     1080     1600     1650     1300     1700   
                                           T        V       H0       H01     AOSYM     SMH    MOLCAS    ERIS     OPER   

              2       4        3.13       700     1000      520     2100   
                                         GEOM     BASIS   MCVARS     RHF  

 PROGRAMS   *        TOTAL        HF       INT
 CPU TIMES  *         8.39      4.37      3.93
 REAL TIME  *        10.59 SEC
 DISK USED  *         1.33 GB      
 **********************************************************************************************************************************


 PROGRAM * CCSD (Closed-shell coupled cluster)     Authors: C. Hampel, H.-J. Werner, 1991, M. Deegan, P.J. Knowles, 1992


 Convergence thresholds:  THRVAR = 1.00D-08  THRDEN = 1.00D-12

 CCSD(T)     terms to be evaluated (factor= 1.000)


 Number of closed-shell orbitals:   8 (   7   1 )
 Number of external orbitals:     163 ( 107  56 )

 Molecular orbitals read from record     2100.2  Type=RHF/CANONICAL (state 1.1)

 Number of N-1 electron functions:               8
 Number of N-2 electron functions:              36
 Number of singly external CSFs:               805
 Number of doubly external CSFs:            449165
 Total number of CSFs:                      449971

 Length of J-op  integral file:               0.00 MB
 Length of K-op  integral file:               1.15 MB
 Length of 3-ext integral record:             0.00 MB

 Memory could be reduced to 24.90 Mwords without degradation in triples

 Integral transformation finished. Total CPU:   0.83 sec, npass=  1  Memory used:   6.89 MW

 Reference energy:                   -129.83829815

 MP2 singlet pair energy:              -0.37993360
 MP2 triplet pair energy:              -0.18725587
 MP2 correlation energy:               -0.56718947
 MP2 total energy:                   -130.40548762

 SCS-MP2 correlation energy:           -0.57243508   (PS=  1.200000  PT=  0.333333)
 SCS-MP2 total energy:               -130.41073323

 ITER.      SQ.NORM     CORR.ENERGY   TOTAL ENERGY   ENERGY CHANGE        DEN1      VAR(S)    VAR(P)  DIIS     TIME  TIME/IT
   1      1.12081033    -0.57154349  -130.40984164    -0.00435402     0.01379141  0.35D-02  0.32D-02  1  1     1.74     0.94
   2      1.13194437    -0.57115561  -130.40945376     0.00038788    -0.01398296  0.95D-04  0.51D-03  2  2     2.65     0.96
   3      1.13734079    -0.57149216  -130.40979031    -0.00033654    -0.00239498  0.58D-04  0.71D-04  3  3     3.57     0.98
   4      1.14090139    -0.57148505  -130.40978320     0.00000710    -0.00142076  0.48D-05  0.10D-04  4  4     4.51     0.98
   5      1.14201129    -0.57151054  -130.40980869    -0.00002549    -0.00026249  0.17D-05  0.19D-05  5  5     5.41     0.99
   6      1.14243796    -0.57150401  -130.40980216     0.00000653    -0.00004157  0.14D-06  0.41D-06  6  6     6.33     0.99
   7      1.14252177    -0.57150437  -130.40980252    -0.00000036     0.00000103  0.20D-07  0.95D-07  6  1     7.25     0.99
   8      1.14255588    -0.57150249  -130.40980064     0.00000188    -0.00000491  0.39D-08  0.14D-07  6  2     8.17     0.99
   9      1.14256051    -0.57150257  -130.40980072    -0.00000008     0.00000130  0.17D-08  0.19D-08  6  3     9.07     0.99
  10      1.14256083    -0.57150290  -130.40980104    -0.00000033    -0.00000009  0.61D-09  0.35D-09  6  1    10.00     0.99
  11      1.14256003    -0.57150314  -130.40980129    -0.00000025     0.00000016  0.52D-10  0.38D-10  6  4    10.93     0.99
  12      1.14255962    -0.57150316  -130.40980131    -0.00000002     0.00000007  0.78D-11  0.39D-11  6  5    11.84     0.99
  13      1.14255948    -0.57150318  -130.40980133    -0.00000002     0.00000002  0.15D-11  0.63D-12  6  6    12.76     0.99
  14      1.14255939    -0.57150319  -130.40980134    -0.00000001     0.00000003  0.62D-12  0.13D-12  6  2    13.69     0.99
  15      1.14255931    -0.57150319  -130.40980134    -0.00000000     0.00000002  0.11D-12  0.28D-13  6  3    14.59     0.99
  16      1.14255927    -0.57150319  -130.40980134    -0.00000000     0.00000000  0.12D-13  0.84D-14  6  1    15.48     0.99
  17      1.14255925    -0.57150319  -130.40980134    -0.00000000     0.00000000  0.16D-14  0.28D-14  6  4    16.42     0.99
  18      1.14255924    -0.57150319  -130.40980134    -0.00000000     0.00000000  0.12D-15  0.84D-15  6  5    17.31     0.99
  19      1.14255924    -0.57150319  -130.40980134    -0.00000000     0.00000000  0.42D-16  0.17D-15  6  6    18.21     0.99
  20      1.14255924    -0.57150319  -130.40980134     0.00000000     0.00000000  0.31D-16  0.33D-16  6  2    19.11     0.99
  21      1.14255924    -0.57150319  -130.40980134     0.00000000    -0.00000000  0.41D-17  0.69D-17  6  3    20.05     1.00
  22      1.14255924    -0.57150319  -130.40980134     0.00000000     0.00000000  0.27D-17  0.12D-17  6  1    21.00     1.00
  23      1.14255924    -0.57150319  -130.40980134     0.00000000    -0.00000000  0.11D-18  0.12D-18  6  5    21.92     1.00
  24      1.14255924    -0.57150319  -130.40980134    -0.00000000     0.00000000  0.22D-19  0.14D-19  6  4    22.86     1.00
  25      1.14255924    -0.57150319  -130.40980134    -0.00000000     0.00000000  0.61D-20  0.35D-20  6  6    23.75     1.00
  26      1.14255924    -0.57150319  -130.40980134    -0.00000000     0.00000000  0.67D-21  0.61D-21  6  2    24.65     1.00

 Norm of t1 vector:      0.07913042      S-energy:     0.00000000      T1 diagnostic:  0.01398841
                                                                       D1 diagnostic:  0.04528931

 Doubles amplitudes (print threshold =  0.500E-01):

         I         J         SYM. A    SYM. B    A         B      T(IJ, AB)

         8         8         2         2         1         1     -0.13763950


 Total CPU time for triples:     17.31 sec


 RESULTS
 =======

  Reference energy                   -129.838298148443

  Correlated core orbitals:             1.1       2.1
  Orbital energies:                   -20.6521  -15.7124
 
  CCSD core-core energy                -0.079237254814
  CCSD core-valence energy             -0.036013544972
  CCSD valence correlation energy      -0.456252393565
 
  CCSD singlet pair energy             -0.408930164380
  CCSD triplet pair energy             -0.162573028980
  CCSD correlation energy              -0.571503193351

  Triples (T) contribution             -0.022596158084
  Total correlation energy             -0.594099351435

  CCSD total energy                  -130.409801341794
  CCSD[T] energy                     -130.433612069801
  CCSD-T energy                      -130.431945708757
 !CCSD(T) total energy               -130.432397499878

 Timing summary (sec):

 STEP                 CPU(USER)    SYS     CPU(TOT)    WALL
 Transformation          0.85      0.16      1.01      1.00
 CCSD iterations        23.80      2.19     25.99     26.01
 Triples                17.31      0.54     17.85     17.84

 Program statistics:

 Available memory in ccsd:               994999644
 Min. memory needed in ccsd:               1368037
 Max. memory used in ccsd:                 1750502
 Max. memory used in cckext:               2014357 (26 integral passes)



 **********************************************************************************************************************************
 DATASETS  * FILE   NREC   LENGTH (MB)   RECORD NAMES
              1      20      499.82       500      610      700      900      950      970     1000      129      960     1100   
                                          VAR    BASINP    GEOM    SYMINP    ZMAT    AOBASIS   BASIS     P2S    ABASIS      S 
                                         1400     1410     1200     1210     1080     1600     1650     1300     1700     1380   
                                           T        V       H0       H01     AOSYM     SMH    MOLCAS    ERIS     OPER     JKOP   

              2       4        3.13       700     1000      520     2100   
                                         GEOM     BASIS   MCVARS     RHF  

 PROGRAMS   *        TOTAL   CCSD(T)        HF       INT
 CPU TIMES  *        50.36     41.97      4.37      3.93
 REAL TIME  *        55.47 SEC
 DISK USED  *         1.33 GB      
 **********************************************************************************************************************************

 CCSD(T)/USERDEF energy=   -130.432397499878

        CCSD(T)         HF-SCF  
   -130.43239750   -129.83829815
 **********************************************************************************************************************************
 Molpro calculation terminated
 Variable memory released
