
 Primary working directories    : /tmp/r2666/282390.maple
 Secondary working directories  : /tmp/r2666/282390.maple
 Wavefunction directory         : /ddn/home4/r2666/wfu/
 Main file repository           : /tmp/r2666/282390.maple/

 SHA1      : d5ffa45e93fdbca01ffc919aa182cfdae0147319
 NAME      : 2015.1.35
 ARCHNAME  : linux/x86_64
 FC        : /opt/intel/composer_xe_2015.1.133/bin/intel64/ifort
 BLASLIB   : -Wl,-_start-group /opt/intel/mkl/lib/intel64/libmkl_intel_ilp64.a /opt/intel/mkl/lib/intel64/libmkl_intel_thread.a /opt/intel/mkl/lib/intel64/libmkl_core.a -Wl,-_end-group
 id        : olemiss

 Nodes     nprocs
 cn079        1

 Using customized tuning parameters: mindgm=1; mindgv=20; mindgc=4; mindgr=1; noblas=0; minvec=7
 default implementation of scratch files=df  

 ***,hno CCSD(T)/TZ-F12 QFF
 memory, 995, m;
 gthresh,energy=1.d-12,zero=1.d-22,oneint=1.d-22,twoint=1.d-22;
 gthresh,optgrad=1.d-8,optstep=1.d-8;
 nocompress;
 geomtyp=xyz
 bohr
 geometry={
 3
         29        29
 H        0.0000000000        1.6618972017       -1.9304819106
 N        0.0000000000       -0.1531542716       -1.1427785226
 O        0.0000000000        0.0330248599        1.1226708422
 }
 
 basis={
 default=aug-cc-pvtz
 s,C,8236.0,1235.0,280.8, 79.27,25.59, 8.997,3.319
 s,C,0.9059,0.3643,0.1285000
 p,C,56.0,18.71,4.133,0.2827,0.3827,0.1209
 d,C,30.0,10.0,3.3,1.097,0.318
 f,C,7.0,2.3,0.7610
 s,N,11420.0,1712.0,389.3,110.0,35.57,12.54,4.644
 s,N,1.293,0.5118,0.1787
 p,N,79.89,26.63,5.948,1.742,0.555,0.1725
 d,N,45.0,15.0,5.0,1.654,0.469
 f,N,9.9,3.3,1.093
 s,O,15330.0,2299.0,522.4,147.3,47.55,16.76,6.207
 s,O,1.752,0.6882,0.2384
 p,O,103.5,34.46,7.749,2.28,0.7156,0.214
 d,O,63.0,21.0,7.0,2.314,0.645
 f,O,12.9,4.3,1.428
 s,mg,164900.0,24710.0,5628.0,1596.0,521.0;
 s,mg,188.0,73.01,29.90,12.54,4.306,1.826;
 s,mg,0.7417,0.0761,0.145,0.033,0.0129;
 p,mg,950.70,316.90,74.86,23.72,8.669,3.363;
 p,mg,1.310,0.4911,0.2364,0.08733,0.03237,0.00745;
 d,mg,1.601,0.686,0.126,0.294,0.0468;
 f,mg,1.372,0.588,0.094,0.252;
 }
   {hf,maxit=500;accu,20;}
 {ccsd(t),nocheck,maxit=250;orbital,IGNORE_ERROR;core}

 Variables initialized (889), CPU time= 0.01 sec
 Commands  initialized (702), CPU time= 0.01 sec, 572 directives.
 Default parameters read. Elapsed time= 0.07 sec

 Checking input...
 Passed
1


                                         ***  PROGRAM SYSTEM MOLPRO  ***
                                       Copyright, TTI GmbH Stuttgart, 2015
                                    Version 2015.1 linked Jul  9 2018 13:16:40


 **********************************************************************************************************************************
 LABEL *   hno CCSD(T)/TZ-F12 QFF                                                        
  64 bit serial version                                                                  DATE: 04-Mar-20          TIME: 13:48:55  
 **********************************************************************************************************************************

 SHA1:             d5ffa45e93fdbca01ffc919aa182cfdae0147319
 **********************************************************************************************************************************

 THRESHOLDS:

 ZERO    =  1.00D-22  ONEINT  =  1.00D-22  TWOINT  =  1.00D-22  PREFAC  =  1.00D-14  LOCALI  =  1.00D-09  EORDER  =  1.00D-04
 ENERGY  =  1.00D-12  ETEST   =  0.00D+00  EDENS   =  0.00D+00  THRDEDEF=  1.00D-06  GRADIENT=  1.00D-02  STEP    =  1.00D-03
 ORBITAL =  1.00D-05  CIVEC   =  1.00D-05  COEFF   =  1.00D-04  PRINTCI =  5.00D-02  PUNCHCI =  9.90D+01  OPTGRAD =  3.00D-04
 OPTENERG=  1.00D-06  OPTSTEP =  3.00D-04  THRGRAD =  1.00D-10  COMPRESS=  1.00D-11  VARMIN  =  1.00D-07  VARMAX  =  1.00D-03
 THRDOUB =  0.00D+00  THRDIV  =  1.00D-05  THRRED  =  1.00D-07  THRPSP  =  1.00D+00  THRDC   =  1.00D-10  THRCS   =  1.00D-10
 THRNRM  =  1.00D-08  THREQ   =  0.00D+00  THRDE   =  1.00D+00  THRREF  =  1.00D-05  SPARFAC =  1.00D+00  THRDLP  =  1.00D-07
 THRDIA  =  1.00D-10  THRDLS  =  1.00D-07  THRGPS  =  0.00D+00  THRKEX  =  0.00D+00  THRDIS  =  2.00D-01  THRVAR  =  1.00D-10
 THRLOC  =  1.00D-06  THRGAP  =  1.00D-06  THRLOCT = -1.00D+00  THRGAPT = -1.00D+00  THRORB  =  1.00D-06  THRMLTP =  0.00D+00
 THRCPQCI=  1.00D-10  KEXTA   =  0.00D+00  THRCOARS=  0.00D+00  SYMTOL  =  1.00D-06  GRADTOL =  1.00D-06  THROVL  =  1.00D-08
 THRORTH =  1.00D-08  GRID    =  1.00D-06  GRIDMAX =  1.00D-03  DTMAX   =  0.00D+00  THROCCDE=  1.00D-01  THROCCDE=  1.00D-01



 THRESHOLDS:

 ZERO    =  1.00D-22  ONEINT  =  1.00D-22  TWOINT  =  1.00D-22  PREFAC  =  1.00D-14  LOCALI  =  1.00D-09  EORDER  =  1.00D-04
 ENERGY  =  1.00D-12  ETEST   =  0.00D+00  EDENS   =  0.00D+00  THRDEDEF=  1.00D-06  GRADIENT=  1.00D-02  STEP    =  1.00D-03
 ORBITAL =  1.00D-05  CIVEC   =  1.00D-05  COEFF   =  1.00D-04  PRINTCI =  5.00D-02  PUNCHCI =  9.90D+01  OPTGRAD =  1.00D-08
 OPTENERG=  1.00D-06  OPTSTEP =  1.00D-08  THRGRAD =  1.00D-10  COMPRESS=  1.00D-11  VARMIN  =  1.00D-07  VARMAX  =  1.00D-03
 THRDOUB =  0.00D+00  THRDIV  =  1.00D-05  THRRED  =  1.00D-07  THRPSP  =  1.00D+00  THRDC   =  1.00D-10  THRCS   =  1.00D-10
 THRNRM  =  1.00D-08  THREQ   =  0.00D+00  THRDE   =  1.00D+00  THRREF  =  1.00D-05  SPARFAC =  1.00D+00  THRDLP  =  1.00D-07
 THRDIA  =  1.00D-10  THRDLS  =  1.00D-07  THRGPS  =  0.00D+00  THRKEX  =  0.00D+00  THRDIS  =  2.00D-01  THRVAR  =  1.00D-10
 THRLOC  =  1.00D-06  THRGAP  =  1.00D-06  THRLOCT = -1.00D+00  THRGAPT = -1.00D+00  THRORB  =  1.00D-06  THRMLTP =  0.00D+00
 THRCPQCI=  1.00D-10  KEXTA   =  0.00D+00  THRCOARS=  0.00D+00  SYMTOL  =  1.00D-06  GRADTOL =  1.00D-06  THROVL  =  1.00D-08
 THRORTH =  1.00D-08  GRID    =  1.00D-06  GRIDMAX =  1.00D-03  DTMAX   =  0.00D+00  THROCCDE=  1.00D-01  THROCCDE=  1.00D-01



 Input parameters for SORTINT:

 COMPRESS =    0.000000
 C_FINAL  =    1.000000
 DEBUG    =   -1.000000
 C_SORT1  =    0.000000
 C_SEWARD =    0.000000
 THRESH   =    0.000000
 IO       =  molpro                                                          
 SPRI     =    0.000000
 SETTING GEOMTYP        =    XYZ
 ZUNIT=BOHR
 

 Variable memory set to  995000000 words,  buffer space   230000 words

 SETTING BASIS          =    USERDEF


 Recomputing integrals since basis changed


 Using spherical harmonics

 Library entry H      S aug-cc-pVTZ          selected for orbital group  1
 Library entry H      P aug-cc-pVTZ          selected for orbital group  1
 Library entry H      D aug-cc-pVTZ          selected for orbital group  1


 PROGRAM * SEWARD (Integral evaluation for generally contracted gaussian basis sets)     Author: Roland Lindh, 1990

 Geometry written to block  1 of record 700


 Point group  Cs  



 ATOMIC COORDINATES

 NR  ATOM    CHARGE       X              Y              Z

   1  H       1.00    0.000000000    1.661897202   -1.930481911
   2  N       7.00    0.000000000   -0.153154272   -1.142778523
   3  O       8.00    0.000000000    0.033024860    1.122670842

 Bond lengths in Bohr (Angstrom)

 1-2  1.978607712  2-3  2.273086776
     ( 1.047034111)     ( 1.202865721)

 Bond angles

  1-2-3  108.76195129

 NUCLEAR CHARGE:                   16
 NUMBER OF PRIMITIVE AOS:         203
 NUMBER OF SYMMETRY AOS:          173
 NUMBER OF CONTRACTIONS:          171   ( 114A'  +  57A"  )
 NUMBER OF CORE ORBITALS:           2   (   2A'  +   0A"  )
 NUMBER OF VALENCE ORBITALS:        9   (   7A'  +   2A"  )


 NUCLEAR REPULSION ENERGY   30.48575795


 Eigenvalues of metric

         1 0.102E-02 0.244E-02 0.329E-02 0.630E-02 0.968E-02 0.136E-01 0.144E-01 0.227E-01
         2 0.357E-01 0.523E-01 0.690E-01 0.941E-01 0.131E+00 0.134E+00 0.140E+00 0.142E+00


 Contracted 2-electron integrals neglected if value below      1.0D-22

       46184987. INTEGRALS WRITTEN OUT IN   11279 BLOCKS ON RECORD 1290 OF FILE 1


 NUMBER OF SORTED TWO-ELECTRON INTEGRALS:   55360566.     BUFFER LENGTH:  32768
 NUMBER OF SEGMENTS:   4  SEGMENT LENGTH:   15997996      RECORD LENGTH: 524288

 Memory used in sort:      16.56 MW

 SORT1 READ    46184987. AND WROTE    46622862. INTEGRALS IN    136 RECORDS. CPU TIME:     0.71 SEC, REAL TIME:     0.98 SEC
 SORT2 READ    46622862. AND WROTE    55360566. INTEGRALS IN      4 RECORDS. CPU TIME:     0.58 SEC, REAL TIME:     0.82 SEC

 FILE SIZES:   FILE 1:   759.9 MBYTE,  FILE 4:   570.5 MBYTE,   TOTAL:   1330.4 MBYTE

 OPERATOR DM      FOR CENTER  0  COORDINATES:    0.000000    0.000000    0.000000


 **********************************************************************************************************************************
 DATASETS  * FILE   NREC   LENGTH (MB)   RECORD NAMES
              1      19      421.51       500      610      700      900      950      970     1000      129      960     1100   
                                          VAR    BASINP    GEOM    SYMINP    ZMAT    AOBASIS   BASIS     P2S    ABASIS      S 
                                         1400     1410     1200     1210     1080     1600     1650     1300     1700   
                                           T        V       H0       H01     AOSYM     SMH    MOLCAS    ERIS     OPER   

 PROGRAMS   *        TOTAL       INT
 CPU TIMES  *         4.00      3.88
 REAL TIME  *         5.84 SEC
 DISK USED  *         1.33 GB      
 **********************************************************************************************************************************


 PROGRAM * RHF-SCF (CLOSED SHELL)       Authors: W. Meyer, H.-J. Werner


 NUMBER OF ELECTRONS:       8+    8-
 CONVERGENCE THRESHOLDS:    1.00E-10 (Density)    1.00E-13 (Energy)
 MAX. NUMBER OF ITERATIONS:      500
 INTERPOLATION TYPE:            DIIS
 INTERPOLATION STEPS:              2 (START)      1 (STEP)
 LEVEL SHIFTS:                  0.00 (CLOSED)  0.00 (OPEN) 



 Orbital guess generated from atomic densities. Full valence occupancy:    9   2

 Molecular orbital dump at record        2100.2

 Initial occupancy:   7   1

 ITERATION    DDIFF          GRAD             ENERGY        2-EL.EN.            DIPOLE MOMENTS         DIIS   ORB.
    1      0.000D+00      0.000D+00      -129.79110638    154.271391    0.00000    0.57549   -0.99809    0    start
    2      0.000D+00      0.871D-02      -129.81815672    155.452231    0.00000    0.59470   -0.20325    1    diag
    3      0.363D-02      0.652D-02      -129.83982971    155.562798    0.00000    0.54813   -0.57897    2    diag
    4      0.139D-02      0.103D-02      -129.84060286    155.292442    0.00000    0.55611   -0.51732    3    diag
    5      0.330D-03      0.333D-03      -129.84072026    155.379804    0.00000    0.56211   -0.51985    4    diag
    6      0.152D-03      0.974D-04      -129.84073929    155.363861    0.00000    0.56271   -0.51583    5    diag
    7      0.604D-04      0.487D-04      -129.84074483    155.366421    0.00000    0.56404   -0.51339    6    diag
    8      0.408D-04      0.164D-04      -129.84074540    155.365626    0.00000    0.56410   -0.51252    7    diag
    9      0.138D-04      0.304D-05      -129.84074542    155.365518    0.00000    0.56405   -0.51235    8    diag
   10      0.276D-05      0.704D-06      -129.84074542    155.365505    0.00000    0.56401   -0.51232    9    orth
   11      0.851D-06      0.140D-06      -129.84074542    155.365501    0.00000    0.56401   -0.51232    9    diag
   12      0.202D-06      0.287D-07      -129.84074542    155.365500    0.00000    0.56400   -0.51232    9    diag
   13      0.486D-07      0.750D-08      -129.84074542    155.365500    0.00000    0.56400   -0.51232    9    diag
   14      0.111D-07      0.133D-08      -129.84074542    155.365500    0.00000    0.56400   -0.51232    9    diag
   15      0.147D-08      0.363D-09      -129.84074542    155.365500    0.00000    0.56400   -0.51232    9    diag
   16      0.323D-09      0.109D-09      -129.84074542    155.365500    0.00000    0.56400   -0.51232    9    diag
   17      0.785D-10      0.306D-10      -129.84074542    155.365500    0.00000    0.56400   -0.51232    0    orth

 Final occupancy:   7   1

 !RHF STATE 1.1 Energy               -129.840745423858
 Nuclear energy                        30.48575795
 One-electron energy                 -238.00925327
 Two-electron energy                   77.68274989
 Virial quotient                       -1.00143536
 !RHF STATE 1.1 Dipole moment           0.00000000     0.56400394    -0.51231635
 Dipole moment /Debye                   0.00000000     1.43346114    -1.30209299

 Orbital energies:

         1.1          2.1          3.1          4.1          5.1          6.1          7.1          8.1          9.1
    -20.650843   -15.708961    -1.532010    -0.993362    -0.747283    -0.665827    -0.427093     0.039757     0.193470

         1.2          2.2          3.2
     -0.596498     0.080729     0.239808

 HOMO      7.1    -0.427093 =     -11.6218eV
 LUMO      8.1     0.039757 =       1.0818eV
 LUMO-HOMO         0.466850 =      12.7036eV


 **********************************************************************************************************************************
 DATASETS  * FILE   NREC   LENGTH (MB)   RECORD NAMES
              1      19      421.51       500      610      700      900      950      970     1000      129      960     1100   
                                          VAR    BASINP    GEOM    SYMINP    ZMAT    AOBASIS   BASIS     P2S    ABASIS      S 
                                         1400     1410     1200     1210     1080     1600     1650     1300     1700   
                                           T        V       H0       H01     AOSYM     SMH    MOLCAS    ERIS     OPER   

              2       4        3.13       700     1000      520     2100   
                                         GEOM     BASIS   MCVARS     RHF  

 PROGRAMS   *        TOTAL        HF       INT
 CPU TIMES  *         8.19      4.19      3.88
 REAL TIME  *        10.90 SEC
 DISK USED  *         1.33 GB      
 **********************************************************************************************************************************


 PROGRAM * CCSD (Closed-shell coupled cluster)     Authors: C. Hampel, H.-J. Werner, 1991, M. Deegan, P.J. Knowles, 1992


 Convergence thresholds:  THRVAR = 1.00D-08  THRDEN = 1.00D-12

 CCSD(T)     terms to be evaluated (factor= 1.000)


 Number of closed-shell orbitals:   8 (   7   1 )
 Number of external orbitals:     163 ( 107  56 )

 Molecular orbitals read from record     2100.2  Type=RHF/CANONICAL (state 1.1)

 Number of N-1 electron functions:               8
 Number of N-2 electron functions:              36
 Number of singly external CSFs:               805
 Number of doubly external CSFs:            449165
 Total number of CSFs:                      449971

 Length of J-op  integral file:               0.00 MB
 Length of K-op  integral file:               1.15 MB
 Length of 3-ext integral record:             0.00 MB

 Memory could be reduced to 24.90 Mwords without degradation in triples

 Integral transformation finished. Total CPU:   0.83 sec, npass=  1  Memory used:   6.89 MW

 Reference energy:                   -129.84074542

 MP2 singlet pair energy:              -0.37831443
 MP2 triplet pair energy:              -0.18625651
 MP2 correlation energy:               -0.56457094
 MP2 total energy:                   -130.40531636

 SCS-MP2 correlation energy:           -0.56987025   (PS=  1.200000  PT=  0.333333)
 SCS-MP2 total energy:               -130.41061568

 ITER.      SQ.NORM     CORR.ENERGY   TOTAL ENERGY   ENERGY CHANGE        DEN1      VAR(S)    VAR(P)  DIIS     TIME  TIME/IT
   1      1.11906973    -0.56949947  -130.41024489    -0.00492853     0.01251685  0.33D-02  0.30D-02  1  1     1.69     0.92
   2      1.12978547    -0.56924770  -130.40999312     0.00025177    -0.01354645  0.88D-04  0.49D-03  2  2     2.63     0.95
   3      1.13493724    -0.56956578  -130.41031120    -0.00031808    -0.00233031  0.53D-04  0.67D-04  3  3     3.49     0.95
   4      1.13829990    -0.56955767  -130.41030309     0.00000811    -0.00136422  0.43D-05  0.95D-05  4  4     4.37     0.96
   5      1.13931836    -0.56958139  -130.41032681    -0.00002372    -0.00023875  0.15D-05  0.18D-05  5  5     5.25     0.96
   6      1.13971697    -0.56957568  -130.41032110     0.00000571    -0.00003818  0.13D-06  0.42D-06  6  6     6.14     0.96
   7      1.13980072    -0.56957598  -130.41032141    -0.00000030     0.00000024  0.19D-07  0.94D-07  6  1     7.04     0.96
   8      1.13983460    -0.56957435  -130.41031977     0.00000164    -0.00000466  0.43D-08  0.13D-07  6  2     7.97     0.97
   9      1.13983938    -0.56957445  -130.41031987    -0.00000010     0.00000102  0.18D-08  0.17D-08  6  3     8.88     0.97
  10      1.13984092    -0.56957475  -130.41032018    -0.00000031    -0.00000059  0.40D-09  0.24D-09  6  4     9.79     0.97
  11      1.13983995    -0.56957489  -130.41032031    -0.00000014     0.00000034  0.98D-10  0.24D-10  6  5    10.66     0.97
  12      1.13983907    -0.56957502  -130.41032044    -0.00000013     0.00000034  0.10D-10  0.63D-11  6  6    11.55     0.97
  13      1.13983856    -0.56957503  -130.41032045    -0.00000001     0.00000011  0.43D-11  0.11D-11  6  1    12.44     0.97
  14      1.13983814    -0.56957506  -130.41032048    -0.00000003     0.00000010  0.45D-12  0.38D-12  6  3    13.36     0.97
  15      1.13983797    -0.56957506  -130.41032048    -0.00000000     0.00000002  0.11D-12  0.26D-13  6  2    14.25     0.97
  16      1.13983792    -0.56957506  -130.41032048    -0.00000000     0.00000001  0.24D-13  0.57D-14  6  4    15.13     0.97
  17      1.13983790    -0.56957506  -130.41032048    -0.00000000     0.00000001  0.41D-14  0.11D-14  6  5    16.02     0.97
  18      1.13983790    -0.56957506  -130.41032048    -0.00000000     0.00000000  0.41D-15  0.27D-15  6  6    16.88     0.98
  19      1.13983790    -0.56957506  -130.41032048     0.00000000    -0.00000000  0.49D-16  0.35D-16  6  1    17.77     0.98
  20      1.13983791    -0.56957506  -130.41032048     0.00000000    -0.00000000  0.21D-17  0.72D-17  6  3    18.68     0.98
  21      1.13983791    -0.56957506  -130.41032048     0.00000000    -0.00000000  0.11D-17  0.17D-17  6  2    19.59     0.98
  22      1.13983791    -0.56957506  -130.41032048     0.00000000    -0.00000000  0.20D-18  0.63D-18  6  4    20.51     0.98
  23      1.13983791    -0.56957506  -130.41032048    -0.00000000     0.00000000  0.11D-18  0.95D-19  6  5    21.46     0.98
  24      1.13983791    -0.56957506  -130.41032048     0.00000000    -0.00000000  0.48D-20  0.12D-19  6  1    22.41     0.98
  25      1.13983791    -0.56957506  -130.41032048     0.00000000     0.00000000  0.27D-21  0.13D-20  6  6    23.33     0.98
  26      1.13983791    -0.56957506  -130.41032048    -0.00000000     0.00000000  0.11D-21  0.30D-21  6  3    24.22     0.98

 Norm of t1 vector:      0.07682053      S-energy:     0.00000000      T1 diagnostic:  0.01358008
                                                                       D1 diagnostic:  0.04345080

 Doubles amplitudes (print threshold =  0.500E-01):

         I         J         SYM. A    SYM. B    A         B      T(IJ, AB)

         8         8         2         2         1         1     -0.13302875


 Total CPU time for triples:     17.00 sec


 RESULTS
 =======

  Reference energy                   -129.840745423858

  Correlated core orbitals:             1.1       2.1
  Orbital energies:                   -20.6508  -15.7090
 
  CCSD core-core energy                -0.079229717842
  CCSD core-valence energy             -0.036118793150
  CCSD valence correlation energy      -0.454226549453
 
  CCSD singlet pair energy             -0.407185891004
  CCSD triplet pair energy             -0.162389169448
  CCSD correlation energy              -0.569575060445

  Triples (T) contribution             -0.022096517810
  Total correlation energy             -0.591671578255

  CCSD total energy                  -130.410320484303
  CCSD[T] energy                     -130.433563048987
  CCSD-T energy                      -130.431984094374
 !CCSD(T) total energy               -130.432417002113

 Timing summary (sec):

 STEP                 CPU(USER)    SYS     CPU(TOT)    WALL
 Transformation          0.85      0.14      0.99      1.00
 CCSD iterations        23.37      2.21     25.58     25.59
 Triples                17.00      0.52     17.52     17.52

 Program statistics:

 Available memory in ccsd:               994999644
 Min. memory needed in ccsd:               1368037
 Max. memory used in ccsd:                 1750502
 Max. memory used in cckext:               2014357 (26 integral passes)



 **********************************************************************************************************************************
 DATASETS  * FILE   NREC   LENGTH (MB)   RECORD NAMES
              1      20      500.42       500      610      700      900      950      970     1000      129      960     1100   
                                          VAR    BASINP    GEOM    SYMINP    ZMAT    AOBASIS   BASIS     P2S    ABASIS      S 
                                         1400     1410     1200     1210     1080     1600     1650     1300     1700     1380   
                                           T        V       H0       H01     AOSYM     SMH    MOLCAS    ERIS     OPER     JKOP   

              2       4        3.13       700     1000      520     2100   
                                         GEOM     BASIS   MCVARS     RHF  

 PROGRAMS   *        TOTAL   CCSD(T)        HF       INT
 CPU TIMES  *        49.44     41.25      4.19      3.88
 REAL TIME  *        55.04 SEC
 DISK USED  *         1.33 GB      
 **********************************************************************************************************************************

 CCSD(T)/USERDEF energy=   -130.432417002113

        CCSD(T)         HF-SCF  
   -130.43241700   -129.84074542
 **********************************************************************************************************************************
 Molpro calculation terminated
 Variable memory released
