
 Primary working directories    : /tmp/r2666/282472.maple
 Secondary working directories  : /tmp/r2666/282472.maple
 Wavefunction directory         : /ddn/home4/r2666/wfu/
 Main file repository           : /tmp/r2666/282472.maple/

 SHA1      : d5ffa45e93fdbca01ffc919aa182cfdae0147319
 NAME      : 2015.1.35
 ARCHNAME  : linux/x86_64
 FC        : /opt/intel/composer_xe_2015.1.133/bin/intel64/ifort
 BLASLIB   : -Wl,-_start-group /opt/intel/mkl/lib/intel64/libmkl_intel_ilp64.a /opt/intel/mkl/lib/intel64/libmkl_intel_thread.a /opt/intel/mkl/lib/intel64/libmkl_core.a -Wl,-_end-group
 id        : olemiss

 Nodes     nprocs
 cn092        1

 Using customized tuning parameters: mindgm=1; mindgv=20; mindgc=4; mindgr=1; noblas=0; minvec=7
 default implementation of scratch files=df  

 ***,hno CCSD(T)/TZ-F12 QFF
 memory, 995, m;
 gthresh,energy=1.d-12,zero=1.d-22,oneint=1.d-22,twoint=1.d-22;
 gthresh,optgrad=1.d-8,optstep=1.d-8;
 nocompress;
 geomtyp=xyz
 bohr
 geometry={
 3
        111       111
 H        0.0000000000        1.6743395527       -1.9320725783
 N        0.0000000000       -0.1681850993       -1.1364811835
 O        0.0000000000        0.0356133366        1.1179641709
 }
 
 basis={
 default=aug-cc-pvtz
 s,C,8236.0,1235.0,280.8, 79.27,25.59, 8.997,3.319
 s,C,0.9059,0.3643,0.1285000
 p,C,56.0,18.71,4.133,0.2827,0.3827,0.1209
 d,C,30.0,10.0,3.3,1.097,0.318
 f,C,7.0,2.3,0.7610
 s,N,11420.0,1712.0,389.3,110.0,35.57,12.54,4.644
 s,N,1.293,0.5118,0.1787
 p,N,79.89,26.63,5.948,1.742,0.555,0.1725
 d,N,45.0,15.0,5.0,1.654,0.469
 f,N,9.9,3.3,1.093
 s,O,15330.0,2299.0,522.4,147.3,47.55,16.76,6.207
 s,O,1.752,0.6882,0.2384
 p,O,103.5,34.46,7.749,2.28,0.7156,0.214
 d,O,63.0,21.0,7.0,2.314,0.645
 f,O,12.9,4.3,1.428
 s,mg,164900.0,24710.0,5628.0,1596.0,521.0;
 s,mg,188.0,73.01,29.90,12.54,4.306,1.826;
 s,mg,0.7417,0.0761,0.145,0.033,0.0129;
 p,mg,950.70,316.90,74.86,23.72,8.669,3.363;
 p,mg,1.310,0.4911,0.2364,0.08733,0.03237,0.00745;
 d,mg,1.601,0.686,0.126,0.294,0.0468;
 f,mg,1.372,0.588,0.094,0.252;
 }
   {hf,maxit=500;accu,20;}
 {ccsd(t),nocheck,maxit=250;orbital,IGNORE_ERROR;core}

 Variables initialized (889), CPU time= 0.01 sec
 Commands  initialized (702), CPU time= 0.01 sec, 572 directives.
 Default parameters read. Elapsed time= 0.05 sec

 Checking input...
 Passed
1


                                         ***  PROGRAM SYSTEM MOLPRO  ***
                                       Copyright, TTI GmbH Stuttgart, 2015
                                    Version 2015.1 linked Jul  9 2018 13:16:40


 **********************************************************************************************************************************
 LABEL *   hno CCSD(T)/TZ-F12 QFF                                                        
  64 bit serial version                                                                  DATE: 04-Mar-20          TIME: 13:50:20  
 **********************************************************************************************************************************

 SHA1:             d5ffa45e93fdbca01ffc919aa182cfdae0147319
 **********************************************************************************************************************************

 THRESHOLDS:

 ZERO    =  1.00D-22  ONEINT  =  1.00D-22  TWOINT  =  1.00D-22  PREFAC  =  1.00D-14  LOCALI  =  1.00D-09  EORDER  =  1.00D-04
 ENERGY  =  1.00D-12  ETEST   =  0.00D+00  EDENS   =  0.00D+00  THRDEDEF=  1.00D-06  GRADIENT=  1.00D-02  STEP    =  1.00D-03
 ORBITAL =  1.00D-05  CIVEC   =  1.00D-05  COEFF   =  1.00D-04  PRINTCI =  5.00D-02  PUNCHCI =  9.90D+01  OPTGRAD =  3.00D-04
 OPTENERG=  1.00D-06  OPTSTEP =  3.00D-04  THRGRAD =  1.00D-10  COMPRESS=  1.00D-11  VARMIN  =  1.00D-07  VARMAX  =  1.00D-03
 THRDOUB =  0.00D+00  THRDIV  =  1.00D-05  THRRED  =  1.00D-07  THRPSP  =  1.00D+00  THRDC   =  1.00D-10  THRCS   =  1.00D-10
 THRNRM  =  1.00D-08  THREQ   =  0.00D+00  THRDE   =  1.00D+00  THRREF  =  1.00D-05  SPARFAC =  1.00D+00  THRDLP  =  1.00D-07
 THRDIA  =  1.00D-10  THRDLS  =  1.00D-07  THRGPS  =  0.00D+00  THRKEX  =  0.00D+00  THRDIS  =  2.00D-01  THRVAR  =  1.00D-10
 THRLOC  =  1.00D-06  THRGAP  =  1.00D-06  THRLOCT = -1.00D+00  THRGAPT = -1.00D+00  THRORB  =  1.00D-06  THRMLTP =  0.00D+00
 THRCPQCI=  1.00D-10  KEXTA   =  0.00D+00  THRCOARS=  0.00D+00  SYMTOL  =  1.00D-06  GRADTOL =  1.00D-06  THROVL  =  1.00D-08
 THRORTH =  1.00D-08  GRID    =  1.00D-06  GRIDMAX =  1.00D-03  DTMAX   =  0.00D+00  THROCCDE=  1.00D-01  THROCCDE=  1.00D-01



 THRESHOLDS:

 ZERO    =  1.00D-22  ONEINT  =  1.00D-22  TWOINT  =  1.00D-22  PREFAC  =  1.00D-14  LOCALI  =  1.00D-09  EORDER  =  1.00D-04
 ENERGY  =  1.00D-12  ETEST   =  0.00D+00  EDENS   =  0.00D+00  THRDEDEF=  1.00D-06  GRADIENT=  1.00D-02  STEP    =  1.00D-03
 ORBITAL =  1.00D-05  CIVEC   =  1.00D-05  COEFF   =  1.00D-04  PRINTCI =  5.00D-02  PUNCHCI =  9.90D+01  OPTGRAD =  1.00D-08
 OPTENERG=  1.00D-06  OPTSTEP =  1.00D-08  THRGRAD =  1.00D-10  COMPRESS=  1.00D-11  VARMIN  =  1.00D-07  VARMAX  =  1.00D-03
 THRDOUB =  0.00D+00  THRDIV  =  1.00D-05  THRRED  =  1.00D-07  THRPSP  =  1.00D+00  THRDC   =  1.00D-10  THRCS   =  1.00D-10
 THRNRM  =  1.00D-08  THREQ   =  0.00D+00  THRDE   =  1.00D+00  THRREF  =  1.00D-05  SPARFAC =  1.00D+00  THRDLP  =  1.00D-07
 THRDIA  =  1.00D-10  THRDLS  =  1.00D-07  THRGPS  =  0.00D+00  THRKEX  =  0.00D+00  THRDIS  =  2.00D-01  THRVAR  =  1.00D-10
 THRLOC  =  1.00D-06  THRGAP  =  1.00D-06  THRLOCT = -1.00D+00  THRGAPT = -1.00D+00  THRORB  =  1.00D-06  THRMLTP =  0.00D+00
 THRCPQCI=  1.00D-10  KEXTA   =  0.00D+00  THRCOARS=  0.00D+00  SYMTOL  =  1.00D-06  GRADTOL =  1.00D-06  THROVL  =  1.00D-08
 THRORTH =  1.00D-08  GRID    =  1.00D-06  GRIDMAX =  1.00D-03  DTMAX   =  0.00D+00  THROCCDE=  1.00D-01  THROCCDE=  1.00D-01



 Input parameters for SORTINT:

 COMPRESS =    0.000000
 C_FINAL  =    1.000000
 DEBUG    =   -1.000000
 C_SORT1  =    0.000000
 C_SEWARD =    0.000000
 THRESH   =    0.000000
 IO       =  molpro                                                          
 SPRI     =    0.000000
 SETTING GEOMTYP        =    XYZ
 ZUNIT=BOHR
 

 Variable memory set to  995000000 words,  buffer space   230000 words

 SETTING BASIS          =    USERDEF


 Recomputing integrals since basis changed


 Using spherical harmonics

 Library entry H      S aug-cc-pVTZ          selected for orbital group  1
 Library entry H      P aug-cc-pVTZ          selected for orbital group  1
 Library entry H      D aug-cc-pVTZ          selected for orbital group  1


 PROGRAM * SEWARD (Integral evaluation for generally contracted gaussian basis sets)     Author: Roland Lindh, 1990

 Geometry written to block  1 of record 700


 Point group  Cs  



 ATOMIC COORDINATES

 NR  ATOM    CHARGE       X              Y              Z

   1  H       1.00    0.000000000    1.674339553   -1.932072578
   2  N       7.00    0.000000000   -0.168185099   -1.136481183
   3  O       8.00    0.000000000    0.035613337    1.117964171

 Bond lengths in Bohr (Angstrom)

 1-2  2.006953602  2-3  2.263638147
     ( 1.062034110)     ( 1.197865721)

 Bond angles

  1-2-3  108.18899349

 NUCLEAR CHARGE:                   16
 NUMBER OF PRIMITIVE AOS:         203
 NUMBER OF SYMMETRY AOS:          173
 NUMBER OF CONTRACTIONS:          171   ( 114A'  +  57A"  )
 NUMBER OF CORE ORBITALS:           2   (   2A'  +   0A"  )
 NUMBER OF VALENCE ORBITALS:        9   (   7A'  +   2A"  )


 NUCLEAR REPULSION ENERGY   30.53735210


 Eigenvalues of metric

         1 0.105E-02 0.241E-02 0.333E-02 0.638E-02 0.102E-01 0.137E-01 0.144E-01 0.233E-01
         2 0.375E-01 0.517E-01 0.700E-01 0.940E-01 0.131E+00 0.134E+00 0.141E+00 0.142E+00


 Contracted 2-electron integrals neglected if value below      1.0D-22

       46228566. INTEGRALS WRITTEN OUT IN   11290 BLOCKS ON RECORD 1290 OF FILE 1


 NUMBER OF SORTED TWO-ELECTRON INTEGRALS:   55360566.     BUFFER LENGTH:  32768
 NUMBER OF SEGMENTS:   4  SEGMENT LENGTH:   15997996      RECORD LENGTH: 524288

 Memory used in sort:      16.56 MW

 SORT1 READ    46228566. AND WROTE    46666836. INTEGRALS IN    136 RECORDS. CPU TIME:     0.75 SEC, REAL TIME:     1.10 SEC
 SORT2 READ    46666836. AND WROTE    55360566. INTEGRALS IN      4 RECORDS. CPU TIME:     0.70 SEC, REAL TIME:     0.92 SEC

 FILE SIZES:   FILE 1:   760.6 MBYTE,  FILE 4:   570.5 MBYTE,   TOTAL:   1331.1 MBYTE

 OPERATOR DM      FOR CENTER  0  COORDINATES:    0.000000    0.000000    0.000000


 **********************************************************************************************************************************
 DATASETS  * FILE   NREC   LENGTH (MB)   RECORD NAMES
              1      19      421.80       500      610      700      900      950      970     1000      129      960     1100   
                                          VAR    BASINP    GEOM    SYMINP    ZMAT    AOBASIS   BASIS     P2S    ABASIS      S 
                                         1400     1410     1200     1210     1080     1600     1650     1300     1700   
                                           T        V       H0       H01     AOSYM     SMH    MOLCAS    ERIS     OPER   

 PROGRAMS   *        TOTAL       INT
 CPU TIMES  *         4.38      4.28
 REAL TIME  *         5.89 SEC
 DISK USED  *         1.33 GB      
 **********************************************************************************************************************************


 PROGRAM * RHF-SCF (CLOSED SHELL)       Authors: W. Meyer, H.-J. Werner


 NUMBER OF ELECTRONS:       8+    8-
 CONVERGENCE THRESHOLDS:    1.00E-10 (Density)    1.00E-13 (Energy)
 MAX. NUMBER OF ITERATIONS:      500
 INTERPOLATION TYPE:            DIIS
 INTERPOLATION STEPS:              2 (START)      1 (STEP)
 LEVEL SHIFTS:                  0.00 (CLOSED)  0.00 (OPEN) 



 Orbital guess generated from atomic densities. Full valence occupancy:    9   2

 Molecular orbital dump at record        2100.2

 Initial occupancy:   7   1

 ITERATION    DDIFF          GRAD             ENERGY        2-EL.EN.            DIPOLE MOMENTS         DIIS   ORB.
    1      0.000D+00      0.000D+00      -129.79114389    154.352727    0.00000    0.55786   -0.98187    0    start
    2      0.000D+00      0.872D-02      -129.81832756    155.558548    0.00000    0.58959   -0.19663    1    diag
    3      0.357D-02      0.651D-02      -129.83989414    155.654655    0.00000    0.53758   -0.56730    2    diag
    4      0.138D-02      0.102D-02      -129.84065826    155.386171    0.00000    0.54586   -0.50672    3    diag
    5      0.326D-03      0.333D-03      -129.84077678    155.474163    0.00000    0.55203   -0.50939    4    diag
    6      0.152D-03      0.983D-04      -129.84079618    155.458079    0.00000    0.55265   -0.50542    5    diag
    7      0.606D-04      0.487D-04      -129.84080171    155.460779    0.00000    0.55404   -0.50306    6    diag
    8      0.407D-04      0.162D-04      -129.84080226    155.459992    0.00000    0.55411   -0.50222    7    diag
    9      0.134D-04      0.301D-05      -129.84080229    155.459884    0.00000    0.55406   -0.50205    8    diag
   10      0.267D-05      0.700D-06      -129.84080229    155.459869    0.00000    0.55402   -0.50202    9    orth
   11      0.825D-06      0.142D-06      -129.84080229    155.459865    0.00000    0.55401   -0.50202    9    diag
   12      0.201D-06      0.290D-07      -129.84080229    155.459864    0.00000    0.55401   -0.50202    9    diag
   13      0.495D-07      0.760D-08      -129.84080229    155.459863    0.00000    0.55401   -0.50202    9    diag
   14      0.114D-07      0.138D-08      -129.84080229    155.459863    0.00000    0.55401   -0.50202    9    diag
   15      0.158D-08      0.388D-09      -129.84080229    155.459863    0.00000    0.55401   -0.50202    9    diag
   16      0.347D-09      0.121D-09      -129.84080229    155.459863    0.00000    0.55401   -0.50202    9    diag
   17      0.950D-10      0.360D-10      -129.84080229    155.459863    0.00000    0.55401   -0.50202    9    diag
   18      0.319D-10      0.115D-10      -129.84080229    155.459863    0.00000    0.55401   -0.50202    9    diag
   19      0.115D-10      0.285D-11      -129.84080229    155.459863    0.00000    0.55401   -0.50202    0    orth

 Final occupancy:   7   1

 !RHF STATE 1.1 Energy               -129.840802286675
 Nuclear energy                        30.53735210
 One-electron energy                 -238.10808607
 Two-electron energy                   77.72993168
 Virial quotient                       -1.00144097
 !RHF STATE 1.1 Dipole moment           0.00000000     0.55401091    -0.50201704
 Dipole moment /Debye                   0.00000000     1.40806304    -1.27591646

 Orbital energies:

         1.1          2.1          3.1          4.1          5.1          6.1          7.1          8.1          9.1
    -20.650578   -15.710283    -1.536350    -0.988118    -0.747259    -0.667204    -0.425064     0.039814     0.192426

         1.2          2.2          3.2
     -0.599256     0.082639     0.239797

 HOMO      7.1    -0.425064 =     -11.5666eV
 LUMO      8.1     0.039814 =       1.0834eV
 LUMO-HOMO         0.464878 =      12.6500eV


 **********************************************************************************************************************************
 DATASETS  * FILE   NREC   LENGTH (MB)   RECORD NAMES
              1      19      421.80       500      610      700      900      950      970     1000      129      960     1100   
                                          VAR    BASINP    GEOM    SYMINP    ZMAT    AOBASIS   BASIS     P2S    ABASIS      S 
                                         1400     1410     1200     1210     1080     1600     1650     1300     1700   
                                           T        V       H0       H01     AOSYM     SMH    MOLCAS    ERIS     OPER   

              2       4        3.13       700     1000      520     2100   
                                         GEOM     BASIS   MCVARS     RHF  

 PROGRAMS   *        TOTAL        HF       INT
 CPU TIMES  *         9.34      4.97      4.28
 REAL TIME  *        11.97 SEC
 DISK USED  *         1.33 GB      
 **********************************************************************************************************************************


 PROGRAM * CCSD (Closed-shell coupled cluster)     Authors: C. Hampel, H.-J. Werner, 1991, M. Deegan, P.J. Knowles, 1992


 Convergence thresholds:  THRVAR = 1.00D-08  THRDEN = 1.00D-12

 CCSD(T)     terms to be evaluated (factor= 1.000)


 Number of closed-shell orbitals:   8 (   7   1 )
 Number of external orbitals:     163 ( 107  56 )

 Molecular orbitals read from record     2100.2  Type=RHF/CANONICAL (state 1.1)

 Number of N-1 electron functions:               8
 Number of N-2 electron functions:              36
 Number of singly external CSFs:               805
 Number of doubly external CSFs:            449165
 Total number of CSFs:                      449971

 Length of J-op  integral file:               0.00 MB
 Length of K-op  integral file:               1.15 MB
 Length of 3-ext integral record:             0.00 MB

 Memory could be reduced to 24.90 Mwords without degradation in triples

 Integral transformation finished. Total CPU:   0.87 sec, npass=  1  Memory used:   6.89 MW

 Reference energy:                   -129.84080229

 MP2 singlet pair energy:              -0.37815985
 MP2 triplet pair energy:              -0.18612643
 MP2 correlation energy:               -0.56428628
 MP2 total energy:                   -130.40508857

 SCS-MP2 correlation energy:           -0.56960382   (PS=  1.200000  PT=  0.333333)
 SCS-MP2 total energy:               -130.41040611

 ITER.      SQ.NORM     CORR.ENERGY   TOTAL ENERGY   ENERGY CHANGE        DEN1      VAR(S)    VAR(P)  DIIS     TIME  TIME/IT
   1      1.11903965    -0.56936041  -130.41016270    -0.00507413     0.01228162  0.33D-02  0.30D-02  1  1     1.83     1.00
   2      1.12971942    -0.56914351  -130.40994580     0.00021690    -0.01349434  0.87D-04  0.49D-03  2  2     2.83     1.04
   3      1.13486157    -0.56946378  -130.41026607    -0.00032027    -0.00233541  0.54D-04  0.66D-04  3  3     3.80     1.05
   4      1.13819323    -0.56945409  -130.41025638     0.00000969    -0.00135937  0.44D-05  0.93D-05  4  4     4.77     1.06
   5      1.13919832    -0.56947783  -130.41028011    -0.00002373    -0.00023640  0.16D-05  0.18D-05  5  5     5.76     1.07
   6      1.13959306    -0.56947232  -130.41027460     0.00000551    -0.00003779  0.15D-06  0.40D-06  6  6     6.72     1.08
   7      1.13967804    -0.56947241  -130.41027469    -0.00000009    -0.00000006  0.23D-07  0.89D-07  6  1     7.71     1.08
   8      1.13971245    -0.56947078  -130.41027307     0.00000162    -0.00000467  0.42D-08  0.13D-07  6  2     8.71     1.08
   9      1.13971758    -0.56947084  -130.41027313    -0.00000006     0.00000094  0.17D-08  0.16D-08  6  3     9.71     1.08
  10      1.13971921    -0.56947114  -130.41027343    -0.00000030    -0.00000058  0.38D-09  0.23D-09  6  4    10.71     1.08
  11      1.13971827    -0.56947127  -130.41027356    -0.00000013     0.00000034  0.92D-10  0.23D-10  6  5    11.69     1.08
  12      1.13971738    -0.56947140  -130.41027369    -0.00000013     0.00000034  0.98D-11  0.60D-11  6  6    12.68     1.08
  13      1.13971687    -0.56947141  -130.41027370    -0.00000001     0.00000011  0.42D-11  0.11D-11  6  1    13.69     1.09
  14      1.13971645    -0.56947144  -130.41027372    -0.00000003     0.00000010  0.45D-12  0.36D-12  6  3    14.68     1.09
  15      1.13971629    -0.56947144  -130.41027372    -0.00000000     0.00000002  0.11D-12  0.24D-13  6  2    15.71     1.09
  16      1.13971624    -0.56947144  -130.41027373    -0.00000000     0.00000001  0.25D-13  0.55D-14  6  4    16.72     1.09
  17      1.13971622    -0.56947144  -130.41027373    -0.00000000     0.00000001  0.40D-14  0.10D-14  6  5    17.77     1.09
  18      1.13971622    -0.56947144  -130.41027373    -0.00000000     0.00000000  0.38D-15  0.26D-15  6  6    18.79     1.10
  19      1.13971622    -0.56947144  -130.41027373     0.00000000    -0.00000000  0.45D-16  0.31D-16  6  1    19.81     1.10
  20      1.13971623    -0.56947144  -130.41027373     0.00000000    -0.00000000  0.19D-17  0.63D-17  6  3    20.82     1.10
  21      1.13971623    -0.56947144  -130.41027373     0.00000000    -0.00000000  0.95D-18  0.15D-17  6  2    21.83     1.10
  22      1.13971623    -0.56947144  -130.41027373     0.00000000    -0.00000000  0.14D-18  0.53D-18  6  4    22.84     1.10
  23      1.13971623    -0.56947144  -130.41027373    -0.00000000     0.00000000  0.88D-19  0.83D-19  6  5    23.88     1.10
  24      1.13971623    -0.56947144  -130.41027373     0.00000000    -0.00000000  0.47D-20  0.11D-19  6  1    24.90     1.10
  25      1.13971623    -0.56947144  -130.41027373     0.00000000     0.00000000  0.23D-21  0.12D-20  6  6    25.91     1.10
  26      1.13971623    -0.56947144  -130.41027373    -0.00000000     0.00000000  0.11D-21  0.27D-21  6  3    26.95     1.10

 Norm of t1 vector:      0.07661096      S-energy:     0.00000000      T1 diagnostic:  0.01354303
                                                                       D1 diagnostic:  0.04280801

 Doubles amplitudes (print threshold =  0.500E-01):

         I         J         SYM. A    SYM. B    A         B      T(IJ, AB)

         8         8         2         2         1         1     -0.13148491


 Total CPU time for triples:     19.06 sec


 RESULTS
 =======

  Reference energy                   -129.840802286675

  Correlated core orbitals:             1.1       2.1
  Orbital energies:                   -20.6506  -15.7103
 
  CCSD core-core energy                -0.079227959357
  CCSD core-valence energy             -0.036120676578
  CCSD valence correlation energy      -0.454122803783
 
  CCSD singlet pair energy             -0.407086798041
  CCSD triplet pair energy             -0.162384641680
  CCSD correlation energy              -0.569471439719

  Triples (T) contribution             -0.022040483574
  Total correlation energy             -0.591511923292

  CCSD total energy                  -130.410273726394
  CCSD[T] energy                     -130.433451764043
  CCSD-T energy                      -130.431881867956
 !CCSD(T) total energy               -130.432314209967

 Timing summary (sec):

 STEP                 CPU(USER)    SYS     CPU(TOT)    WALL
 Transformation          0.90      0.18      1.08      1.08
 CCSD iterations        26.05      2.66     28.71     28.71
 Triples                19.06      0.60     19.66     19.66

 Program statistics:

 Available memory in ccsd:               994999644
 Min. memory needed in ccsd:               1368037
 Max. memory used in ccsd:                 1750502
 Max. memory used in cckext:               2014357 (26 integral passes)



 **********************************************************************************************************************************
 DATASETS  * FILE   NREC   LENGTH (MB)   RECORD NAMES
              1      20      500.71       500      610      700      900      950      970     1000      129      960     1100   
                                          VAR    BASINP    GEOM    SYMINP    ZMAT    AOBASIS   BASIS     P2S    ABASIS      S 
                                         1400     1410     1200     1210     1080     1600     1650     1300     1700     1380   
                                           T        V       H0       H01     AOSYM     SMH    MOLCAS    ERIS     OPER     JKOP   

              2       4        3.13       700     1000      520     2100   
                                         GEOM     BASIS   MCVARS     RHF  

 PROGRAMS   *        TOTAL   CCSD(T)        HF       INT
 CPU TIMES  *        55.37     46.03      4.97      4.28
 REAL TIME  *        61.47 SEC
 DISK USED  *         1.33 GB      
 **********************************************************************************************************************************

 CCSD(T)/USERDEF energy=   -130.432314209967

        CCSD(T)         HF-SCF  
   -130.43231421   -129.84080229
 **********************************************************************************************************************************
 Molpro calculation terminated
 Variable memory released
