
 Primary working directories    : /tmp/r2666/282399.maple
 Secondary working directories  : /tmp/r2666/282399.maple
 Wavefunction directory         : /ddn/home4/r2666/wfu/
 Main file repository           : /tmp/r2666/282399.maple/

 SHA1      : d5ffa45e93fdbca01ffc919aa182cfdae0147319
 NAME      : 2015.1.35
 ARCHNAME  : linux/x86_64
 FC        : /opt/intel/composer_xe_2015.1.133/bin/intel64/ifort
 BLASLIB   : -Wl,-_start-group /opt/intel/mkl/lib/intel64/libmkl_intel_ilp64.a /opt/intel/mkl/lib/intel64/libmkl_intel_thread.a /opt/intel/mkl/lib/intel64/libmkl_core.a -Wl,-_end-group
 id        : olemiss

 Nodes     nprocs
 cn074        1

 Using customized tuning parameters: mindgm=1; mindgv=20; mindgc=4; mindgr=1; noblas=0; minvec=7
 default implementation of scratch files=df  

 ***,hno CCSD(T)/TZ-F12 QFF
 memory, 995, m;
 gthresh,energy=1.d-12,zero=1.d-22,oneint=1.d-22,twoint=1.d-22;
 gthresh,optgrad=1.d-8,optstep=1.d-8;
 nocompress;
 geomtyp=xyz
 bohr
 geometry={
 3
         38        38
 H        0.0000000000        1.6628819028       -1.9242062493
 N        0.0000000000       -0.1600259007       -1.1548587216
 O        0.0000000000        0.0389117878        1.1284753799
 }
 
 basis={
 default=aug-cc-pvtz
 s,C,8236.0,1235.0,280.8, 79.27,25.59, 8.997,3.319
 s,C,0.9059,0.3643,0.1285000
 p,C,56.0,18.71,4.133,0.2827,0.3827,0.1209
 d,C,30.0,10.0,3.3,1.097,0.318
 f,C,7.0,2.3,0.7610
 s,N,11420.0,1712.0,389.3,110.0,35.57,12.54,4.644
 s,N,1.293,0.5118,0.1787
 p,N,79.89,26.63,5.948,1.742,0.555,0.1725
 d,N,45.0,15.0,5.0,1.654,0.469
 f,N,9.9,3.3,1.093
 s,O,15330.0,2299.0,522.4,147.3,47.55,16.76,6.207
 s,O,1.752,0.6882,0.2384
 p,O,103.5,34.46,7.749,2.28,0.7156,0.214
 d,O,63.0,21.0,7.0,2.314,0.645
 f,O,12.9,4.3,1.428
 s,mg,164900.0,24710.0,5628.0,1596.0,521.0;
 s,mg,188.0,73.01,29.90,12.54,4.306,1.826;
 s,mg,0.7417,0.0761,0.145,0.033,0.0129;
 p,mg,950.70,316.90,74.86,23.72,8.669,3.363;
 p,mg,1.310,0.4911,0.2364,0.08733,0.03237,0.00745;
 d,mg,1.601,0.686,0.126,0.294,0.0468;
 f,mg,1.372,0.588,0.094,0.252;
 }
   {hf,maxit=500;accu,20;}
 {ccsd(t),nocheck,maxit=250;orbital,IGNORE_ERROR;core}

 Variables initialized (889), CPU time= 0.01 sec
 Commands  initialized (702), CPU time= 0.01 sec, 572 directives.
 Default parameters read. Elapsed time= 0.05 sec

 Checking input...
 Passed
1


                                         ***  PROGRAM SYSTEM MOLPRO  ***
                                       Copyright, TTI GmbH Stuttgart, 2015
                                    Version 2015.1 linked Jul  9 2018 13:16:40


 **********************************************************************************************************************************
 LABEL *   hno CCSD(T)/TZ-F12 QFF                                                        
  64 bit serial version                                                                  DATE: 04-Mar-20          TIME: 13:48:57  
 **********************************************************************************************************************************

 SHA1:             d5ffa45e93fdbca01ffc919aa182cfdae0147319
 **********************************************************************************************************************************

 THRESHOLDS:

 ZERO    =  1.00D-22  ONEINT  =  1.00D-22  TWOINT  =  1.00D-22  PREFAC  =  1.00D-14  LOCALI  =  1.00D-09  EORDER  =  1.00D-04
 ENERGY  =  1.00D-12  ETEST   =  0.00D+00  EDENS   =  0.00D+00  THRDEDEF=  1.00D-06  GRADIENT=  1.00D-02  STEP    =  1.00D-03
 ORBITAL =  1.00D-05  CIVEC   =  1.00D-05  COEFF   =  1.00D-04  PRINTCI =  5.00D-02  PUNCHCI =  9.90D+01  OPTGRAD =  3.00D-04
 OPTENERG=  1.00D-06  OPTSTEP =  3.00D-04  THRGRAD =  1.00D-10  COMPRESS=  1.00D-11  VARMIN  =  1.00D-07  VARMAX  =  1.00D-03
 THRDOUB =  0.00D+00  THRDIV  =  1.00D-05  THRRED  =  1.00D-07  THRPSP  =  1.00D+00  THRDC   =  1.00D-10  THRCS   =  1.00D-10
 THRNRM  =  1.00D-08  THREQ   =  0.00D+00  THRDE   =  1.00D+00  THRREF  =  1.00D-05  SPARFAC =  1.00D+00  THRDLP  =  1.00D-07
 THRDIA  =  1.00D-10  THRDLS  =  1.00D-07  THRGPS  =  0.00D+00  THRKEX  =  0.00D+00  THRDIS  =  2.00D-01  THRVAR  =  1.00D-10
 THRLOC  =  1.00D-06  THRGAP  =  1.00D-06  THRLOCT = -1.00D+00  THRGAPT = -1.00D+00  THRORB  =  1.00D-06  THRMLTP =  0.00D+00
 THRCPQCI=  1.00D-10  KEXTA   =  0.00D+00  THRCOARS=  0.00D+00  SYMTOL  =  1.00D-06  GRADTOL =  1.00D-06  THROVL  =  1.00D-08
 THRORTH =  1.00D-08  GRID    =  1.00D-06  GRIDMAX =  1.00D-03  DTMAX   =  0.00D+00  THROCCDE=  1.00D-01  THROCCDE=  1.00D-01



 THRESHOLDS:

 ZERO    =  1.00D-22  ONEINT  =  1.00D-22  TWOINT  =  1.00D-22  PREFAC  =  1.00D-14  LOCALI  =  1.00D-09  EORDER  =  1.00D-04
 ENERGY  =  1.00D-12  ETEST   =  0.00D+00  EDENS   =  0.00D+00  THRDEDEF=  1.00D-06  GRADIENT=  1.00D-02  STEP    =  1.00D-03
 ORBITAL =  1.00D-05  CIVEC   =  1.00D-05  COEFF   =  1.00D-04  PRINTCI =  5.00D-02  PUNCHCI =  9.90D+01  OPTGRAD =  1.00D-08
 OPTENERG=  1.00D-06  OPTSTEP =  1.00D-08  THRGRAD =  1.00D-10  COMPRESS=  1.00D-11  VARMIN  =  1.00D-07  VARMAX  =  1.00D-03
 THRDOUB =  0.00D+00  THRDIV  =  1.00D-05  THRRED  =  1.00D-07  THRPSP  =  1.00D+00  THRDC   =  1.00D-10  THRCS   =  1.00D-10
 THRNRM  =  1.00D-08  THREQ   =  0.00D+00  THRDE   =  1.00D+00  THRREF  =  1.00D-05  SPARFAC =  1.00D+00  THRDLP  =  1.00D-07
 THRDIA  =  1.00D-10  THRDLS  =  1.00D-07  THRGPS  =  0.00D+00  THRKEX  =  0.00D+00  THRDIS  =  2.00D-01  THRVAR  =  1.00D-10
 THRLOC  =  1.00D-06  THRGAP  =  1.00D-06  THRLOCT = -1.00D+00  THRGAPT = -1.00D+00  THRORB  =  1.00D-06  THRMLTP =  0.00D+00
 THRCPQCI=  1.00D-10  KEXTA   =  0.00D+00  THRCOARS=  0.00D+00  SYMTOL  =  1.00D-06  GRADTOL =  1.00D-06  THROVL  =  1.00D-08
 THRORTH =  1.00D-08  GRID    =  1.00D-06  GRIDMAX =  1.00D-03  DTMAX   =  0.00D+00  THROCCDE=  1.00D-01  THROCCDE=  1.00D-01



 Input parameters for SORTINT:

 COMPRESS =    0.000000
 C_FINAL  =    1.000000
 DEBUG    =   -1.000000
 C_SORT1  =    0.000000
 C_SEWARD =    0.000000
 THRESH   =    0.000000
 IO       =  molpro                                                          
 SPRI     =    0.000000
 SETTING GEOMTYP        =    XYZ
 ZUNIT=BOHR
 

 Variable memory set to  995000000 words,  buffer space   230000 words

 SETTING BASIS          =    USERDEF


 Recomputing integrals since basis changed


 Using spherical harmonics

 Library entry H      S aug-cc-pVTZ          selected for orbital group  1
 Library entry H      P aug-cc-pVTZ          selected for orbital group  1
 Library entry H      D aug-cc-pVTZ          selected for orbital group  1


 PROGRAM * SEWARD (Integral evaluation for generally contracted gaussian basis sets)     Author: Roland Lindh, 1990

 Geometry written to block  1 of record 700


 Point group  Cs  



 ATOMIC COORDINATES

 NR  ATOM    CHARGE       X              Y              Z

   1  H       1.00    0.000000000    1.662881903   -1.924206249
   2  N       7.00    0.000000000   -0.160025901   -1.154858722
   3  O       8.00    0.000000000    0.038911788    1.128475380

 Bond lengths in Bohr (Angstrom)

 1-2  1.978607712  2-3  2.291984036
     ( 1.047034111)     ( 1.212865720)

 Bond angles

  1-2-3  107.90251459

 NUCLEAR CHARGE:                   16
 NUMBER OF PRIMITIVE AOS:         203
 NUMBER OF SYMMETRY AOS:          173
 NUMBER OF CONTRACTIONS:          171   ( 114A'  +  57A"  )
 NUMBER OF CORE ORBITALS:           2   (   2A'  +   0A"  )
 NUMBER OF VALENCE ORBITALS:        9   (   7A'  +   2A"  )


 NUCLEAR REPULSION ENERGY   30.28445393


 Eigenvalues of metric

         1 0.104E-02 0.253E-02 0.333E-02 0.635E-02 0.969E-02 0.137E-01 0.145E-01 0.229E-01
         2 0.358E-01 0.538E-01 0.699E-01 0.941E-01 0.131E+00 0.134E+00 0.140E+00 0.142E+00


 Contracted 2-electron integrals neglected if value below      1.0D-22

       46130130. INTEGRALS WRITTEN OUT IN   11265 BLOCKS ON RECORD 1290 OF FILE 1


 NUMBER OF SORTED TWO-ELECTRON INTEGRALS:   55360566.     BUFFER LENGTH:  32768
 NUMBER OF SEGMENTS:   4  SEGMENT LENGTH:   15997996      RECORD LENGTH: 524288

 Memory used in sort:      16.56 MW

 SORT1 READ    46130130. AND WROTE    46567453. INTEGRALS IN    136 RECORDS. CPU TIME:     0.74 SEC, REAL TIME:     1.02 SEC
 SORT2 READ    46567453. AND WROTE    55360566. INTEGRALS IN      4 RECORDS. CPU TIME:     0.67 SEC, REAL TIME:     0.85 SEC

 FILE SIZES:   FILE 1:   759.0 MBYTE,  FILE 4:   570.5 MBYTE,   TOTAL:   1329.5 MBYTE

 OPERATOR DM      FOR CENTER  0  COORDINATES:    0.000000    0.000000    0.000000


 **********************************************************************************************************************************
 DATASETS  * FILE   NREC   LENGTH (MB)   RECORD NAMES
              1      19      421.14       500      610      700      900      950      970     1000      129      960     1100   
                                          VAR    BASINP    GEOM    SYMINP    ZMAT    AOBASIS   BASIS     P2S    ABASIS      S 
                                         1400     1410     1200     1210     1080     1600     1650     1300     1700   
                                           T        V       H0       H01     AOSYM     SMH    MOLCAS    ERIS     OPER   

 PROGRAMS   *        TOTAL       INT
 CPU TIMES  *         4.16      4.06
 REAL TIME  *         5.45 SEC
 DISK USED  *         1.33 GB      
 **********************************************************************************************************************************


 PROGRAM * RHF-SCF (CLOSED SHELL)       Authors: W. Meyer, H.-J. Werner


 NUMBER OF ELECTRONS:       8+    8-
 CONVERGENCE THRESHOLDS:    1.00E-10 (Density)    1.00E-13 (Energy)
 MAX. NUMBER OF ITERATIONS:      500
 INTERPOLATION TYPE:            DIIS
 INTERPOLATION STEPS:              2 (START)      1 (STEP)
 LEVEL SHIFTS:                  0.00 (CLOSED)  0.00 (OPEN) 



 Orbital guess generated from atomic densities. Full valence occupancy:    9   2

 Molecular orbital dump at record        2100.2

 Initial occupancy:   7   1

 ITERATION    DDIFF          GRAD             ENERGY        2-EL.EN.            DIPOLE MOMENTS         DIIS   ORB.
    1      0.000D+00      0.000D+00      -129.78820860    153.914917    0.00000    0.57254   -1.02805    0    start
    2      0.000D+00      0.882D-02      -129.81496924    155.072465    0.00000    0.60126   -0.19435    1    diag
    3      0.368D-02      0.676D-02      -129.83837044    155.205649    0.00000    0.54940   -0.59013    2    diag
    4      0.143D-02      0.104D-02      -129.83916246    154.928321    0.00000    0.55755   -0.52697    3    diag
    5      0.333D-03      0.339D-03      -129.83928382    155.016323    0.00000    0.56348   -0.52925    4    diag
    6      0.154D-03      0.992D-04      -129.83930361    155.000229    0.00000    0.56402   -0.52505    5    diag
    7      0.608D-04      0.501D-04      -129.83930953    155.002690    0.00000    0.56532   -0.52246    6    diag
    8      0.414D-04      0.174D-04      -129.83931020    155.001842    0.00000    0.56537   -0.52151    7    diag
    9      0.147D-04      0.325D-05      -129.83931023    155.001727    0.00000    0.56532   -0.52132    8    diag
   10      0.302D-05      0.730D-06      -129.83931023    155.001714    0.00000    0.56529   -0.52130    9    orth
   11      0.880D-06      0.144D-06      -129.83931023    155.001710    0.00000    0.56528   -0.52130    9    diag
   12      0.206D-06      0.303D-07      -129.83931023    155.001709    0.00000    0.56528   -0.52129    9    diag
   13      0.503D-07      0.809D-08      -129.83931023    155.001709    0.00000    0.56528   -0.52129    9    diag
   14      0.116D-07      0.141D-08      -129.83931023    155.001709    0.00000    0.56528   -0.52129    9    diag
   15      0.142D-08      0.374D-09      -129.83931023    155.001709    0.00000    0.56528   -0.52129    9    diag
   16      0.324D-09      0.107D-09      -129.83931023    155.001709    0.00000    0.56528   -0.52129    9    diag
   17      0.674D-10      0.282D-10      -129.83931023    155.001709    0.00000    0.56528   -0.52129    0    orth

 Final occupancy:   7   1

 !RHF STATE 1.1 Energy               -129.839310226437
 Nuclear energy                        30.28445393
 One-electron energy                 -237.62461864
 Two-electron energy                   77.50085449
 Virial quotient                       -1.00171034
 !RHF STATE 1.1 Dipole moment           0.00000000     0.56527518    -0.52129406
 Dipole moment /Debye                   0.00000000     1.43669208    -1.32491056

 Orbital energies:

         1.1          2.1          3.1          4.1          5.1          6.1          7.1          8.1          9.1
    -20.651581   -15.710818    -1.524264    -0.995147    -0.744272    -0.662776    -0.430734     0.039690     0.193038

         1.2          2.2          3.2
     -0.591864     0.077430     0.239392

 HOMO      7.1    -0.430734 =     -11.7209eV
 LUMO      8.1     0.039690 =       1.0800eV
 LUMO-HOMO         0.470424 =      12.8009eV


 **********************************************************************************************************************************
 DATASETS  * FILE   NREC   LENGTH (MB)   RECORD NAMES
              1      19      421.14       500      610      700      900      950      970     1000      129      960     1100   
                                          VAR    BASINP    GEOM    SYMINP    ZMAT    AOBASIS   BASIS     P2S    ABASIS      S 
                                         1400     1410     1200     1210     1080     1600     1650     1300     1700   
                                           T        V       H0       H01     AOSYM     SMH    MOLCAS    ERIS     OPER   

              2       4        3.13       700     1000      520     2100   
                                         GEOM     BASIS   MCVARS     RHF  

 PROGRAMS   *        TOTAL        HF       INT
 CPU TIMES  *         8.35      4.19      4.06
 REAL TIME  *        10.67 SEC
 DISK USED  *         1.33 GB      
 **********************************************************************************************************************************


 PROGRAM * CCSD (Closed-shell coupled cluster)     Authors: C. Hampel, H.-J. Werner, 1991, M. Deegan, P.J. Knowles, 1992


 Convergence thresholds:  THRVAR = 1.00D-08  THRDEN = 1.00D-12

 CCSD(T)     terms to be evaluated (factor= 1.000)


 Number of closed-shell orbitals:   8 (   7   1 )
 Number of external orbitals:     163 ( 107  56 )

 Molecular orbitals read from record     2100.2  Type=RHF/CANONICAL (state 1.1)

 Number of N-1 electron functions:               8
 Number of N-2 electron functions:              36
 Number of singly external CSFs:               805
 Number of doubly external CSFs:            449165
 Total number of CSFs:                      449971

 Length of J-op  integral file:               0.00 MB
 Length of K-op  integral file:               1.15 MB
 Length of 3-ext integral record:             0.00 MB

 Memory could be reduced to 24.90 Mwords without degradation in triples

 Integral transformation finished. Total CPU:   0.85 sec, npass=  1  Memory used:   6.89 MW

 Reference energy:                   -129.83931023

 MP2 singlet pair energy:              -0.37931566
 MP2 triplet pair energy:              -0.18687922
 MP2 correlation energy:               -0.56619487
 MP2 total energy:                   -130.40550510

 SCS-MP2 correlation energy:           -0.57145919   (PS=  1.200000  PT=  0.333333)
 SCS-MP2 total energy:               -130.41076942

 ITER.      SQ.NORM     CORR.ENERGY   TOTAL ENERGY   ENERGY CHANGE        DEN1      VAR(S)    VAR(P)  DIIS     TIME  TIME/IT
   1      1.12011385    -0.57075144  -130.41006166    -0.00455656     0.01331838  0.34D-02  0.32D-02  1  1     1.74     0.95
   2      1.13108223    -0.57041325  -130.40972348     0.00033819    -0.01381426  0.92D-04  0.50D-03  2  2     2.66     0.98
   3      1.13637766    -0.57074128  -130.41005150    -0.00032803    -0.00236774  0.56D-04  0.69D-04  3  3     3.57     0.99
   4      1.13986072    -0.57073411  -130.41004434     0.00000716    -0.00139830  0.46D-05  0.99D-05  4  4     4.48     0.99
   5      1.14093228    -0.57075882  -130.41006905    -0.00002471    -0.00025253  0.16D-05  0.19D-05  5  5     5.39     0.99
   6      1.14134624    -0.57075261  -130.41006284     0.00000621    -0.00004006  0.13D-06  0.42D-06  6  6     6.33     1.00
   7      1.14142921    -0.57075299  -130.41006321    -0.00000037     0.00000079  0.18D-07  0.95D-07  6  1     7.25     1.00
   8      1.14146296    -0.57075120  -130.41006143     0.00000178    -0.00000479  0.40D-08  0.14D-07  6  2     8.19     1.00
   9      1.14146752    -0.57075130  -130.41006153    -0.00000010     0.00000121  0.17D-08  0.18D-08  6  3     9.10     1.00
  10      1.14146775    -0.57075163  -130.41006186    -0.00000033    -0.00000004  0.60D-09  0.33D-09  6  1    10.02     1.00
  11      1.14146695    -0.57075187  -130.41006210    -0.00000024     0.00000015  0.50D-10  0.36D-10  6  4    10.95     1.00
  12      1.14146655    -0.57075189  -130.41006212    -0.00000002     0.00000006  0.75D-11  0.37D-11  6  5    11.87     1.00
  13      1.14146641    -0.57075191  -130.41006214    -0.00000002     0.00000002  0.15D-11  0.60D-12  6  6    12.79     1.00
  14      1.14146632    -0.57075192  -130.41006214    -0.00000000     0.00000003  0.61D-12  0.12D-12  6  2    13.70     1.00
  15      1.14146625    -0.57075192  -130.41006215    -0.00000000     0.00000001  0.11D-12  0.27D-13  6  3    14.61     1.00
  16      1.14146621    -0.57075192  -130.41006215    -0.00000000     0.00000000  0.11D-13  0.81D-14  6  1    15.53     1.01
  17      1.14146619    -0.57075192  -130.41006215    -0.00000000     0.00000000  0.14D-14  0.27D-14  6  4    16.45     1.01
  18      1.14146618    -0.57075192  -130.41006215    -0.00000000     0.00000000  0.11D-15  0.81D-15  6  5    17.37     1.01
  19      1.14146618    -0.57075192  -130.41006215    -0.00000000     0.00000000  0.41D-16  0.17D-15  6  6    18.28     1.01
  20      1.14146618    -0.57075192  -130.41006215     0.00000000     0.00000000  0.14D-16  0.21D-16  6  3    19.22     1.01
  21      1.14146618    -0.57075192  -130.41006215     0.00000000    -0.00000000  0.11D-17  0.24D-17  6  2    20.14     1.01
  22      1.14146618    -0.57075192  -130.41006215    -0.00000000     0.00000000  0.69D-18  0.48D-18  6  1    21.08     1.01
  23      1.14146618    -0.57075192  -130.41006215    -0.00000000     0.00000000  0.17D-18  0.51D-19  6  4    22.00     1.01
  24      1.14146618    -0.57075192  -130.41006215    -0.00000000     0.00000000  0.51D-19  0.12D-19  6  5    22.91     1.01
  25      1.14146618    -0.57075192  -130.41006215    -0.00000000    -0.00000000  0.82D-20  0.28D-20  6  3    23.87     1.01
  26      1.14146618    -0.57075192  -130.41006215     0.00000000    -0.00000000  0.36D-21  0.38D-21  6  6    24.82     1.01

 Norm of t1 vector:      0.07816825      S-energy:     0.00000000      T1 diagnostic:  0.01381832
                                                                       D1 diagnostic:  0.04464944

 Doubles amplitudes (print threshold =  0.500E-01):

         I         J         SYM. A    SYM. B    A         B      T(IJ, AB)

         8         8         2         2         1         1     -0.13615110


 Total CPU time for triples:     16.49 sec


 RESULTS
 =======

  Reference energy                   -129.839310226437

  Correlated core orbitals:             1.1       2.1
  Orbital energies:                   -20.6516  -15.7108
 
  CCSD core-core energy                -0.079234304216
  CCSD core-valence energy             -0.036055041488
  CCSD valence correlation energy      -0.455462574597
 
  CCSD singlet pair energy             -0.408251156449
  CCSD triplet pair energy             -0.162500763860
  CCSD correlation energy              -0.570751920302

  Triples (T) contribution             -0.022404161035
  Total correlation energy             -0.593156081337

  CCSD total energy                  -130.410062146739
  CCSD[T] energy                     -130.433653422948
  CCSD-T energy                      -130.432022290902
 !CCSD(T) total energy               -130.432466307774

 Timing summary (sec):

 STEP                 CPU(USER)    SYS     CPU(TOT)    WALL
 Transformation          0.86      0.15      1.01      1.02
 CCSD iterations        23.96      2.42     26.38     26.38
 Triples                16.49      0.55     17.04     17.04

 Program statistics:

 Available memory in ccsd:               994999644
 Min. memory needed in ccsd:               1368037
 Max. memory used in ccsd:                 1750502
 Max. memory used in cckext:               2014357 (26 integral passes)



 **********************************************************************************************************************************
 DATASETS  * FILE   NREC   LENGTH (MB)   RECORD NAMES
              1      20      500.05       500      610      700      900      950      970     1000      129      960     1100   
                                          VAR    BASINP    GEOM    SYMINP    ZMAT    AOBASIS   BASIS     P2S    ABASIS      S 
                                         1400     1410     1200     1210     1080     1600     1650     1300     1700     1380   
                                           T        V       H0       H01     AOSYM     SMH    MOLCAS    ERIS     OPER     JKOP   

              2       4        3.13       700     1000      520     2100   
                                         GEOM     BASIS   MCVARS     RHF  

 PROGRAMS   *        TOTAL   CCSD(T)        HF       INT
 CPU TIMES  *        49.69     41.34      4.19      4.06
 REAL TIME  *        55.15 SEC
 DISK USED  *         1.33 GB      
 **********************************************************************************************************************************

 CCSD(T)/USERDEF energy=   -130.432466307774

        CCSD(T)         HF-SCF  
   -130.43246631   -129.83931023
 **********************************************************************************************************************************
 Molpro calculation terminated
 Variable memory released
