
 Primary working directories    : /tmp/r2666/282450.maple
 Secondary working directories  : /tmp/r2666/282450.maple
 Wavefunction directory         : /ddn/home4/r2666/wfu/
 Main file repository           : /tmp/r2666/282450.maple/

 SHA1      : d5ffa45e93fdbca01ffc919aa182cfdae0147319
 NAME      : 2015.1.35
 ARCHNAME  : linux/x86_64
 FC        : /opt/intel/composer_xe_2015.1.133/bin/intel64/ifort
 BLASLIB   : -Wl,-_start-group /opt/intel/mkl/lib/intel64/libmkl_intel_ilp64.a /opt/intel/mkl/lib/intel64/libmkl_intel_thread.a /opt/intel/mkl/lib/intel64/libmkl_core.a -Wl,-_end-group
 id        : olemiss

 Nodes     nprocs
 cn089        1

 Using customized tuning parameters: mindgm=1; mindgv=20; mindgc=4; mindgr=1; noblas=0; minvec=7
 default implementation of scratch files=df  

 ***,hno CCSD(T)/TZ-F12 QFF
 memory, 995, m;
 gthresh,energy=1.d-12,zero=1.d-22,oneint=1.d-22,twoint=1.d-22;
 gthresh,optgrad=1.d-8,optstep=1.d-8;
 nocompress;
 geomtyp=xyz
 bohr
 geometry={
 3
         89        89
 H        0.0000000000        1.6699902840       -1.9320060870
 N        0.0000000000       -0.1624196859       -1.1368332659
 O        0.0000000000        0.0341971920        1.1182497618
 }
 
 basis={
 default=aug-cc-pvtz
 s,C,8236.0,1235.0,280.8, 79.27,25.59, 8.997,3.319
 s,C,0.9059,0.3643,0.1285000
 p,C,56.0,18.71,4.133,0.2827,0.3827,0.1209
 d,C,30.0,10.0,3.3,1.097,0.318
 f,C,7.0,2.3,0.7610
 s,N,11420.0,1712.0,389.3,110.0,35.57,12.54,4.644
 s,N,1.293,0.5118,0.1787
 p,N,79.89,26.63,5.948,1.742,0.555,0.1725
 d,N,45.0,15.0,5.0,1.654,0.469
 f,N,9.9,3.3,1.093
 s,O,15330.0,2299.0,522.4,147.3,47.55,16.76,6.207
 s,O,1.752,0.6882,0.2384
 p,O,103.5,34.46,7.749,2.28,0.7156,0.214
 d,O,63.0,21.0,7.0,2.314,0.645
 f,O,12.9,4.3,1.428
 s,mg,164900.0,24710.0,5628.0,1596.0,521.0;
 s,mg,188.0,73.01,29.90,12.54,4.306,1.826;
 s,mg,0.7417,0.0761,0.145,0.033,0.0129;
 p,mg,950.70,316.90,74.86,23.72,8.669,3.363;
 p,mg,1.310,0.4911,0.2364,0.08733,0.03237,0.00745;
 d,mg,1.601,0.686,0.126,0.294,0.0468;
 f,mg,1.372,0.588,0.094,0.252;
 }
   {hf,maxit=500;accu,20;}
 {ccsd(t),nocheck,maxit=250;orbital,IGNORE_ERROR;core}

 Variables initialized (889), CPU time= 0.01 sec
 Commands  initialized (702), CPU time= 0.01 sec, 572 directives.
 Default parameters read. Elapsed time= 0.06 sec

 Checking input...
 Passed
1


                                         ***  PROGRAM SYSTEM MOLPRO  ***
                                       Copyright, TTI GmbH Stuttgart, 2015
                                    Version 2015.1 linked Jul  9 2018 13:16:40


 **********************************************************************************************************************************
 LABEL *   hno CCSD(T)/TZ-F12 QFF                                                        
  64 bit serial version                                                                  DATE: 04-Mar-20          TIME: 13:49:54  
 **********************************************************************************************************************************

 SHA1:             d5ffa45e93fdbca01ffc919aa182cfdae0147319
 **********************************************************************************************************************************

 THRESHOLDS:

 ZERO    =  1.00D-22  ONEINT  =  1.00D-22  TWOINT  =  1.00D-22  PREFAC  =  1.00D-14  LOCALI  =  1.00D-09  EORDER  =  1.00D-04
 ENERGY  =  1.00D-12  ETEST   =  0.00D+00  EDENS   =  0.00D+00  THRDEDEF=  1.00D-06  GRADIENT=  1.00D-02  STEP    =  1.00D-03
 ORBITAL =  1.00D-05  CIVEC   =  1.00D-05  COEFF   =  1.00D-04  PRINTCI =  5.00D-02  PUNCHCI =  9.90D+01  OPTGRAD =  3.00D-04
 OPTENERG=  1.00D-06  OPTSTEP =  3.00D-04  THRGRAD =  1.00D-10  COMPRESS=  1.00D-11  VARMIN  =  1.00D-07  VARMAX  =  1.00D-03
 THRDOUB =  0.00D+00  THRDIV  =  1.00D-05  THRRED  =  1.00D-07  THRPSP  =  1.00D+00  THRDC   =  1.00D-10  THRCS   =  1.00D-10
 THRNRM  =  1.00D-08  THREQ   =  0.00D+00  THRDE   =  1.00D+00  THRREF  =  1.00D-05  SPARFAC =  1.00D+00  THRDLP  =  1.00D-07
 THRDIA  =  1.00D-10  THRDLS  =  1.00D-07  THRGPS  =  0.00D+00  THRKEX  =  0.00D+00  THRDIS  =  2.00D-01  THRVAR  =  1.00D-10
 THRLOC  =  1.00D-06  THRGAP  =  1.00D-06  THRLOCT = -1.00D+00  THRGAPT = -1.00D+00  THRORB  =  1.00D-06  THRMLTP =  0.00D+00
 THRCPQCI=  1.00D-10  KEXTA   =  0.00D+00  THRCOARS=  0.00D+00  SYMTOL  =  1.00D-06  GRADTOL =  1.00D-06  THROVL  =  1.00D-08
 THRORTH =  1.00D-08  GRID    =  1.00D-06  GRIDMAX =  1.00D-03  DTMAX   =  0.00D+00  THROCCDE=  1.00D-01  THROCCDE=  1.00D-01



 THRESHOLDS:

 ZERO    =  1.00D-22  ONEINT  =  1.00D-22  TWOINT  =  1.00D-22  PREFAC  =  1.00D-14  LOCALI  =  1.00D-09  EORDER  =  1.00D-04
 ENERGY  =  1.00D-12  ETEST   =  0.00D+00  EDENS   =  0.00D+00  THRDEDEF=  1.00D-06  GRADIENT=  1.00D-02  STEP    =  1.00D-03
 ORBITAL =  1.00D-05  CIVEC   =  1.00D-05  COEFF   =  1.00D-04  PRINTCI =  5.00D-02  PUNCHCI =  9.90D+01  OPTGRAD =  1.00D-08
 OPTENERG=  1.00D-06  OPTSTEP =  1.00D-08  THRGRAD =  1.00D-10  COMPRESS=  1.00D-11  VARMIN  =  1.00D-07  VARMAX  =  1.00D-03
 THRDOUB =  0.00D+00  THRDIV  =  1.00D-05  THRRED  =  1.00D-07  THRPSP  =  1.00D+00  THRDC   =  1.00D-10  THRCS   =  1.00D-10
 THRNRM  =  1.00D-08  THREQ   =  0.00D+00  THRDE   =  1.00D+00  THRREF  =  1.00D-05  SPARFAC =  1.00D+00  THRDLP  =  1.00D-07
 THRDIA  =  1.00D-10  THRDLS  =  1.00D-07  THRGPS  =  0.00D+00  THRKEX  =  0.00D+00  THRDIS  =  2.00D-01  THRVAR  =  1.00D-10
 THRLOC  =  1.00D-06  THRGAP  =  1.00D-06  THRLOCT = -1.00D+00  THRGAPT = -1.00D+00  THRORB  =  1.00D-06  THRMLTP =  0.00D+00
 THRCPQCI=  1.00D-10  KEXTA   =  0.00D+00  THRCOARS=  0.00D+00  SYMTOL  =  1.00D-06  GRADTOL =  1.00D-06  THROVL  =  1.00D-08
 THRORTH =  1.00D-08  GRID    =  1.00D-06  GRIDMAX =  1.00D-03  DTMAX   =  0.00D+00  THROCCDE=  1.00D-01  THROCCDE=  1.00D-01



 Input parameters for SORTINT:

 COMPRESS =    0.000000
 C_FINAL  =    1.000000
 DEBUG    =   -1.000000
 C_SORT1  =    0.000000
 C_SEWARD =    0.000000
 THRESH   =    0.000000
 IO       =  molpro                                                          
 SPRI     =    0.000000
 SETTING GEOMTYP        =    XYZ
 ZUNIT=BOHR
 

 Variable memory set to  995000000 words,  buffer space   230000 words

 SETTING BASIS          =    USERDEF


 Recomputing integrals since basis changed


 Using spherical harmonics

 Library entry H      S aug-cc-pVTZ          selected for orbital group  1
 Library entry H      P aug-cc-pVTZ          selected for orbital group  1
 Library entry H      D aug-cc-pVTZ          selected for orbital group  1


 PROGRAM * SEWARD (Integral evaluation for generally contracted gaussian basis sets)     Author: Roland Lindh, 1990

 Geometry written to block  1 of record 700


 Point group  Cs  



 ATOMIC COORDINATES

 NR  ATOM    CHARGE       X              Y              Z

   1  H       1.00    0.000000000    1.669990284   -1.932006087
   2  N       7.00    0.000000000   -0.162419686   -1.136833266
   3  O       8.00    0.000000000    0.034197192    1.118249762

 Bond lengths in Bohr (Angstrom)

 1-2  1.997504972  2-3  2.263638147
     ( 1.057034110)     ( 1.197865721)

 Bond angles

  1-2-3  108.47547239

 NUCLEAR CHARGE:                   16
 NUMBER OF PRIMITIVE AOS:         203
 NUMBER OF SYMMETRY AOS:          173
 NUMBER OF CONTRACTIONS:          171   ( 114A'  +  57A"  )
 NUMBER OF CORE ORBITALS:           2   (   2A'  +   0A"  )
 NUMBER OF VALENCE ORBITALS:        9   (   7A'  +   2A"  )


 NUCLEAR REPULSION ENERGY   30.55464767


 Eigenvalues of metric

         1 0.103E-02 0.241E-02 0.331E-02 0.634E-02 0.100E-01 0.137E-01 0.144E-01 0.231E-01
         2 0.368E-01 0.517E-01 0.696E-01 0.940E-01 0.131E+00 0.134E+00 0.141E+00 0.142E+00


 Contracted 2-electron integrals neglected if value below      1.0D-22

       46227306. INTEGRALS WRITTEN OUT IN   11289 BLOCKS ON RECORD 1290 OF FILE 1


 NUMBER OF SORTED TWO-ELECTRON INTEGRALS:   55360566.     BUFFER LENGTH:  32768
 NUMBER OF SEGMENTS:   4  SEGMENT LENGTH:   15997996      RECORD LENGTH: 524288

 Memory used in sort:      16.56 MW

 SORT1 READ    46227306. AND WROTE    46665568. INTEGRALS IN    136 RECORDS. CPU TIME:     0.70 SEC, REAL TIME:     0.98 SEC
 SORT2 READ    46665568. AND WROTE    55360566. INTEGRALS IN      4 RECORDS. CPU TIME:     0.63 SEC, REAL TIME:     0.84 SEC

 FILE SIZES:   FILE 1:   760.6 MBYTE,  FILE 4:   570.5 MBYTE,   TOTAL:   1331.0 MBYTE

 OPERATOR DM      FOR CENTER  0  COORDINATES:    0.000000    0.000000    0.000000


 **********************************************************************************************************************************
 DATASETS  * FILE   NREC   LENGTH (MB)   RECORD NAMES
              1      19      421.79       500      610      700      900      950      970     1000      129      960     1100   
                                          VAR    BASINP    GEOM    SYMINP    ZMAT    AOBASIS   BASIS     P2S    ABASIS      S 
                                         1400     1410     1200     1210     1080     1600     1650     1300     1700   
                                           T        V       H0       H01     AOSYM     SMH    MOLCAS    ERIS     OPER   

 PROGRAMS   *        TOTAL       INT
 CPU TIMES  *         3.95      3.84
 REAL TIME  *         5.32 SEC
 DISK USED  *         1.33 GB      
 **********************************************************************************************************************************


 PROGRAM * RHF-SCF (CLOSED SHELL)       Authors: W. Meyer, H.-J. Werner


 NUMBER OF ELECTRONS:       8+    8-
 CONVERGENCE THRESHOLDS:    1.00E-10 (Density)    1.00E-13 (Energy)
 MAX. NUMBER OF ITERATIONS:      500
 INTERPOLATION TYPE:            DIIS
 INTERPOLATION STEPS:              2 (START)      1 (STEP)
 LEVEL SHIFTS:                  0.00 (CLOSED)  0.00 (OPEN) 



 Orbital guess generated from atomic densities. Full valence occupancy:    9   2

 Molecular orbital dump at record        2100.2

 Initial occupancy:   7   1

 ITERATION    DDIFF          GRAD             ENERGY        2-EL.EN.            DIPOLE MOMENTS         DIIS   ORB.
    1      0.000D+00      0.000D+00      -129.79160376    154.387169    0.00000    0.56383   -0.98230    0    start
    2      0.000D+00      0.870D-02      -129.81878276    155.587872    0.00000    0.59021   -0.19998    1    diag
    3      0.358D-02      0.648D-02      -129.84011794    155.685266    0.00000    0.54068   -0.56915    2    diag
    4      0.138D-02      0.103D-02      -129.84088164    155.417365    0.00000    0.54886   -0.50849    3    diag
    5      0.327D-03      0.333D-03      -129.84099914    155.505025    0.00000    0.55497   -0.51115    4    diag
    6      0.152D-03      0.977D-04      -129.84101829    155.489014    0.00000    0.55560   -0.50719    5    diag
    7      0.605D-04      0.485D-04      -129.84102376    155.491684    0.00000    0.55698   -0.50483    6    diag
    8      0.407D-04      0.161D-04      -129.84102431    155.490902    0.00000    0.55704   -0.50399    7    diag
    9      0.134D-04      0.298D-05      -129.84102433    155.490795    0.00000    0.55699   -0.50382    8    diag
   10      0.266D-05      0.697D-06      -129.84102433    155.490781    0.00000    0.55696   -0.50379    9    orth
   11      0.828D-06      0.141D-06      -129.84102433    155.490777    0.00000    0.55695   -0.50379    9    diag
   12      0.200D-06      0.287D-07      -129.84102433    155.490776    0.00000    0.55695   -0.50379    9    diag
   13      0.490D-07      0.749D-08      -129.84102433    155.490776    0.00000    0.55695   -0.50379    9    diag
   14      0.112D-07      0.136D-08      -129.84102433    155.490775    0.00000    0.55695   -0.50379    9    diag
   15      0.155D-08      0.379D-09      -129.84102433    155.490775    0.00000    0.55695   -0.50379    9    diag
   16      0.340D-09      0.118D-09      -129.84102433    155.490775    0.00000    0.55695   -0.50379    9    diag
   17      0.914D-10      0.347D-10      -129.84102433    155.490775    0.00000    0.55695   -0.50379    9    diag
   18      0.307D-10      0.112D-10      -129.84102433    155.490775    0.00000    0.55695   -0.50379    0    orth

 Final occupancy:   7   1

 !RHF STATE 1.1 Energy               -129.841024331384
 Nuclear energy                        30.55464767
 One-electron energy                 -238.14105974
 Two-electron energy                   77.74538773
 Virial quotient                       -1.00139121
 !RHF STATE 1.1 Dipole moment           0.00000000     0.55694635    -0.50378843
 Dipole moment /Debye                   0.00000000     1.41552370    -1.28041860

 Orbital energies:

         1.1          2.1          3.1          4.1          5.1          6.1          7.1          8.1          9.1
    -20.650528   -15.709543    -1.536238    -0.989514    -0.747776    -0.667250    -0.425165     0.039812     0.192867

         1.2          2.2          3.2
     -0.599127     0.082569     0.239872

 HOMO      7.1    -0.425165 =     -11.5693eV
 LUMO      8.1     0.039812 =       1.0833eV
 LUMO-HOMO         0.464977 =      12.6527eV


 **********************************************************************************************************************************
 DATASETS  * FILE   NREC   LENGTH (MB)   RECORD NAMES
              1      19      421.79       500      610      700      900      950      970     1000      129      960     1100   
                                          VAR    BASINP    GEOM    SYMINP    ZMAT    AOBASIS   BASIS     P2S    ABASIS      S 
                                         1400     1410     1200     1210     1080     1600     1650     1300     1700   
                                           T        V       H0       H01     AOSYM     SMH    MOLCAS    ERIS     OPER   

              2       4        3.13       700     1000      520     2100   
                                         GEOM     BASIS   MCVARS     RHF  

 PROGRAMS   *        TOTAL        HF       INT
 CPU TIMES  *         8.43      4.48      3.84
 REAL TIME  *        10.67 SEC
 DISK USED  *         1.33 GB      
 **********************************************************************************************************************************


 PROGRAM * CCSD (Closed-shell coupled cluster)     Authors: C. Hampel, H.-J. Werner, 1991, M. Deegan, P.J. Knowles, 1992


 Convergence thresholds:  THRVAR = 1.00D-08  THRDEN = 1.00D-12

 CCSD(T)     terms to be evaluated (factor= 1.000)


 Number of closed-shell orbitals:   8 (   7   1 )
 Number of external orbitals:     163 ( 107  56 )

 Molecular orbitals read from record     2100.2  Type=RHF/CANONICAL (state 1.1)

 Number of N-1 electron functions:               8
 Number of N-2 electron functions:              36
 Number of singly external CSFs:               805
 Number of doubly external CSFs:            449165
 Total number of CSFs:                      449971

 Length of J-op  integral file:               0.00 MB
 Length of K-op  integral file:               1.15 MB
 Length of 3-ext integral record:             0.00 MB

 Memory could be reduced to 24.90 Mwords without degradation in triples

 Integral transformation finished. Total CPU:   0.82 sec, npass=  1  Memory used:   6.89 MW

 Reference energy:                   -129.84102433

 MP2 singlet pair energy:              -0.37804578
 MP2 triplet pair energy:              -0.18606788
 MP2 correlation energy:               -0.56411366
 MP2 total energy:                   -130.40513799

 SCS-MP2 correlation energy:           -0.56943050   (PS=  1.200000  PT=  0.333333)
 SCS-MP2 total energy:               -130.41045484

 ITER.      SQ.NORM     CORR.ENERGY   TOTAL ENERGY   ENERGY CHANGE        DEN1      VAR(S)    VAR(P)  DIIS     TIME  TIME/IT
   1      1.11887434    -0.56919940  -130.41022373    -0.00508574     0.01222905  0.33D-02  0.30D-02  1  1     1.69     0.92
   2      1.12952369    -0.56898463  -130.41000896     0.00021477    -0.01346742  0.87D-04  0.49D-03  2  2     2.58     0.94
   3      1.13464439    -0.56930238  -130.41032671    -0.00031775    -0.00232731  0.53D-04  0.66D-04  3  3     3.47     0.95
   4      1.13796578    -0.56929307  -130.41031740     0.00000931    -0.00135512  0.43D-05  0.93D-05  4  4     4.36     0.95
   5      1.13896638    -0.56931663  -130.41034097    -0.00002356    -0.00023490  0.16D-05  0.18D-05  5  5     5.24     0.96
   6      1.13935972    -0.56931114  -130.41033547     0.00000549    -0.00003760  0.14D-06  0.41D-06  6  6     6.12     0.96
   7      1.13944433    -0.56931129  -130.41033562    -0.00000015    -0.00000005  0.21D-07  0.90D-07  6  1     7.03     0.96
   8      1.13947854    -0.56930969  -130.41033402     0.00000160    -0.00000464  0.42D-08  0.13D-07  6  2     7.92     0.96
   9      1.13948356    -0.56930976  -130.41033409    -0.00000007     0.00000094  0.17D-08  0.16D-08  6  3     8.80     0.96
  10      1.13948514    -0.56931006  -130.41033439    -0.00000030    -0.00000057  0.38D-09  0.23D-09  6  4     9.71     0.97
  11      1.13948418    -0.56931019  -130.41033452    -0.00000013     0.00000034  0.93D-10  0.23D-10  6  5    10.62     0.97
  12      1.13948329    -0.56931032  -130.41033465    -0.00000013     0.00000034  0.98D-11  0.61D-11  6  6    11.49     0.97
  13      1.13948278    -0.56931033  -130.41033466    -0.00000001     0.00000011  0.42D-11  0.11D-11  6  1    12.38     0.97
  14      1.13948237    -0.56931036  -130.41033469    -0.00000003     0.00000010  0.45D-12  0.37D-12  6  3    13.28     0.97
  15      1.13948221    -0.56931036  -130.41033469    -0.00000000     0.00000002  0.11D-12  0.24D-13  6  2    14.18     0.97
  16      1.13948216    -0.56931036  -130.41033469    -0.00000000     0.00000001  0.25D-13  0.55D-14  6  4    15.07     0.97
  17      1.13948214    -0.56931036  -130.41033469    -0.00000000     0.00000001  0.39D-14  0.10D-14  6  5    15.97     0.97
  18      1.13948214    -0.56931036  -130.41033469    -0.00000000     0.00000000  0.38D-15  0.26D-15  6  6    16.85     0.97
  19      1.13948214    -0.56931036  -130.41033469     0.00000000    -0.00000000  0.45D-16  0.31D-16  6  1    17.74     0.97
  20      1.13948214    -0.56931036  -130.41033469     0.00000000    -0.00000000  0.19D-17  0.63D-17  6  3    18.61     0.97
  21      1.13948214    -0.56931036  -130.41033469     0.00000000    -0.00000000  0.96D-18  0.15D-17  6  2    19.49     0.97
  22      1.13948214    -0.56931036  -130.41033469     0.00000000    -0.00000000  0.15D-18  0.53D-18  6  4    20.38     0.97
  23      1.13948214    -0.56931036  -130.41033469    -0.00000000     0.00000000  0.42D-19  0.82D-19  6  2    21.26     0.97
  24      1.13948214    -0.56931036  -130.41033469     0.00000000    -0.00000000  0.24D-20  0.15D-19  6  1    22.15     0.97
  25      1.13948214    -0.56931036  -130.41033469    -0.00000000     0.00000000  0.77D-21  0.11D-20  6  5    23.04     0.97
  26      1.13948214    -0.56931036  -130.41033469     0.00000000     0.00000000  0.41D-21  0.17D-21  6  6    23.93     0.97

 Norm of t1 vector:      0.07644816      S-energy:     0.00000000      T1 diagnostic:  0.01351425
                                                                       D1 diagnostic:  0.04282202

 Doubles amplitudes (print threshold =  0.500E-01):

         I         J         SYM. A    SYM. B    A         B      T(IJ, AB)

         8         8         2         2         1         1     -0.13148306


 Total CPU time for triples:     14.72 sec


 RESULTS
 =======

  Reference energy                   -129.841024331384

  Correlated core orbitals:             1.1       2.1
  Orbital energies:                   -20.6505  -15.7095
 
  CCSD core-core energy                -0.079227684464
  CCSD core-valence energy             -0.036130845612
  CCSD valence correlation energy      -0.453951829604
 
  CCSD singlet pair energy             -0.406942277282
  CCSD triplet pair energy             -0.162368082400
  CCSD correlation energy              -0.569310359680

  Triples (T) contribution             -0.022007972487
  Total correlation energy             -0.591318332166

  CCSD total energy                  -130.410334691063
  CCSD[T] energy                     -130.433476188519
  CCSD-T energy                      -130.431912039889
 !CCSD(T) total energy               -130.432342663550

 Timing summary (sec):

 STEP                 CPU(USER)    SYS     CPU(TOT)    WALL
 Transformation          0.83      0.14      0.97      0.97
 CCSD iterations        23.10      2.15     25.25     25.26
 Triples                14.72      0.51     15.23     15.23

 Program statistics:

 Available memory in ccsd:               994999644
 Min. memory needed in ccsd:               1368037
 Max. memory used in ccsd:                 1750502
 Max. memory used in cckext:               2014357 (26 integral passes)



 **********************************************************************************************************************************
 DATASETS  * FILE   NREC   LENGTH (MB)   RECORD NAMES
              1      20      500.70       500      610      700      900      950      970     1000      129      960     1100   
                                          VAR    BASINP    GEOM    SYMINP    ZMAT    AOBASIS   BASIS     P2S    ABASIS      S 
                                         1400     1410     1200     1210     1080     1600     1650     1300     1700     1380   
                                           T        V       H0       H01     AOSYM     SMH    MOLCAS    ERIS     OPER     JKOP   

              2       4        3.13       700     1000      520     2100   
                                         GEOM     BASIS   MCVARS     RHF  

 PROGRAMS   *        TOTAL   CCSD(T)        HF       INT
 CPU TIMES  *        47.10     38.67      4.48      3.84
 REAL TIME  *        52.16 SEC
 DISK USED  *         1.33 GB      
 **********************************************************************************************************************************

 CCSD(T)/USERDEF energy=   -130.432342663550

        CCSD(T)         HF-SCF  
   -130.43234266   -129.84102433
 **********************************************************************************************************************************
 Molpro calculation terminated
 Variable memory released
