
 Primary working directories    : /tmp/r2666/282417.maple
 Secondary working directories  : /tmp/r2666/282417.maple
 Wavefunction directory         : /ddn/home4/r2666/wfu/
 Main file repository           : /tmp/r2666/282417.maple/

 SHA1      : d5ffa45e93fdbca01ffc919aa182cfdae0147319
 NAME      : 2015.1.35
 ARCHNAME  : linux/x86_64
 FC        : /opt/intel/composer_xe_2015.1.133/bin/intel64/ifort
 BLASLIB   : -Wl,-_start-group /opt/intel/mkl/lib/intel64/libmkl_intel_ilp64.a /opt/intel/mkl/lib/intel64/libmkl_intel_thread.a /opt/intel/mkl/lib/intel64/libmkl_core.a -Wl,-_end-group
 id        : olemiss

 Nodes     nprocs
 cn038        1

 Using customized tuning parameters: mindgm=1; mindgv=20; mindgc=4; mindgr=1; noblas=0; minvec=7
 default implementation of scratch files=df  

 ***,hno CCSD(T)/TZ-F12 QFF
 memory, 995, m;
 gthresh,energy=1.d-12,zero=1.d-22,oneint=1.d-22,twoint=1.d-22;
 gthresh,optgrad=1.d-8,optstep=1.d-8;
 nocompress;
 geomtyp=xyz
 bohr
 geometry={
 3
         56        56
 H        0.0000000000        1.6656066092       -1.9199078229
 N        0.0000000000       -0.1660963258       -1.1470997115
 O        0.0000000000        0.0422575066        1.1164179434
 }
 
 basis={
 default=aug-cc-pvtz
 s,C,8236.0,1235.0,280.8, 79.27,25.59, 8.997,3.319
 s,C,0.9059,0.3643,0.1285000
 p,C,56.0,18.71,4.133,0.2827,0.3827,0.1209
 d,C,30.0,10.0,3.3,1.097,0.318
 f,C,7.0,2.3,0.7610
 s,N,11420.0,1712.0,389.3,110.0,35.57,12.54,4.644
 s,N,1.293,0.5118,0.1787
 p,N,79.89,26.63,5.948,1.742,0.555,0.1725
 d,N,45.0,15.0,5.0,1.654,0.469
 f,N,9.9,3.3,1.093
 s,O,15330.0,2299.0,522.4,147.3,47.55,16.76,6.207
 s,O,1.752,0.6882,0.2384
 p,O,103.5,34.46,7.749,2.28,0.7156,0.214
 d,O,63.0,21.0,7.0,2.314,0.645
 f,O,12.9,4.3,1.428
 s,mg,164900.0,24710.0,5628.0,1596.0,521.0;
 s,mg,188.0,73.01,29.90,12.54,4.306,1.826;
 s,mg,0.7417,0.0761,0.145,0.033,0.0129;
 p,mg,950.70,316.90,74.86,23.72,8.669,3.363;
 p,mg,1.310,0.4911,0.2364,0.08733,0.03237,0.00745;
 d,mg,1.601,0.686,0.126,0.294,0.0468;
 f,mg,1.372,0.588,0.094,0.252;
 }
   {hf,maxit=500;accu,20;}
 {ccsd(t),nocheck,maxit=250;orbital,IGNORE_ERROR;core}

 Variables initialized (889), CPU time= 0.00 sec
 Commands  initialized (702), CPU time= 0.01 sec, 572 directives.
 Default parameters read. Elapsed time= 0.05 sec

 Checking input...
 Passed
1


                                         ***  PROGRAM SYSTEM MOLPRO  ***
                                       Copyright, TTI GmbH Stuttgart, 2015
                                    Version 2015.1 linked Jul  9 2018 13:16:40


 **********************************************************************************************************************************
 LABEL *   hno CCSD(T)/TZ-F12 QFF                                                        
  64 bit serial version                                                                  DATE: 04-Mar-20          TIME: 13:49:20  
 **********************************************************************************************************************************

 SHA1:             d5ffa45e93fdbca01ffc919aa182cfdae0147319
 **********************************************************************************************************************************

 THRESHOLDS:

 ZERO    =  1.00D-22  ONEINT  =  1.00D-22  TWOINT  =  1.00D-22  PREFAC  =  1.00D-14  LOCALI  =  1.00D-09  EORDER  =  1.00D-04
 ENERGY  =  1.00D-12  ETEST   =  0.00D+00  EDENS   =  0.00D+00  THRDEDEF=  1.00D-06  GRADIENT=  1.00D-02  STEP    =  1.00D-03
 ORBITAL =  1.00D-05  CIVEC   =  1.00D-05  COEFF   =  1.00D-04  PRINTCI =  5.00D-02  PUNCHCI =  9.90D+01  OPTGRAD =  3.00D-04
 OPTENERG=  1.00D-06  OPTSTEP =  3.00D-04  THRGRAD =  1.00D-10  COMPRESS=  1.00D-11  VARMIN  =  1.00D-07  VARMAX  =  1.00D-03
 THRDOUB =  0.00D+00  THRDIV  =  1.00D-05  THRRED  =  1.00D-07  THRPSP  =  1.00D+00  THRDC   =  1.00D-10  THRCS   =  1.00D-10
 THRNRM  =  1.00D-08  THREQ   =  0.00D+00  THRDE   =  1.00D+00  THRREF  =  1.00D-05  SPARFAC =  1.00D+00  THRDLP  =  1.00D-07
 THRDIA  =  1.00D-10  THRDLS  =  1.00D-07  THRGPS  =  0.00D+00  THRKEX  =  0.00D+00  THRDIS  =  2.00D-01  THRVAR  =  1.00D-10
 THRLOC  =  1.00D-06  THRGAP  =  1.00D-06  THRLOCT = -1.00D+00  THRGAPT = -1.00D+00  THRORB  =  1.00D-06  THRMLTP =  0.00D+00
 THRCPQCI=  1.00D-10  KEXTA   =  0.00D+00  THRCOARS=  0.00D+00  SYMTOL  =  1.00D-06  GRADTOL =  1.00D-06  THROVL  =  1.00D-08
 THRORTH =  1.00D-08  GRID    =  1.00D-06  GRIDMAX =  1.00D-03  DTMAX   =  0.00D+00  THROCCDE=  1.00D-01  THROCCDE=  1.00D-01



 THRESHOLDS:

 ZERO    =  1.00D-22  ONEINT  =  1.00D-22  TWOINT  =  1.00D-22  PREFAC  =  1.00D-14  LOCALI  =  1.00D-09  EORDER  =  1.00D-04
 ENERGY  =  1.00D-12  ETEST   =  0.00D+00  EDENS   =  0.00D+00  THRDEDEF=  1.00D-06  GRADIENT=  1.00D-02  STEP    =  1.00D-03
 ORBITAL =  1.00D-05  CIVEC   =  1.00D-05  COEFF   =  1.00D-04  PRINTCI =  5.00D-02  PUNCHCI =  9.90D+01  OPTGRAD =  1.00D-08
 OPTENERG=  1.00D-06  OPTSTEP =  1.00D-08  THRGRAD =  1.00D-10  COMPRESS=  1.00D-11  VARMIN  =  1.00D-07  VARMAX  =  1.00D-03
 THRDOUB =  0.00D+00  THRDIV  =  1.00D-05  THRRED  =  1.00D-07  THRPSP  =  1.00D+00  THRDC   =  1.00D-10  THRCS   =  1.00D-10
 THRNRM  =  1.00D-08  THREQ   =  0.00D+00  THRDE   =  1.00D+00  THRREF  =  1.00D-05  SPARFAC =  1.00D+00  THRDLP  =  1.00D-07
 THRDIA  =  1.00D-10  THRDLS  =  1.00D-07  THRGPS  =  0.00D+00  THRKEX  =  0.00D+00  THRDIS  =  2.00D-01  THRVAR  =  1.00D-10
 THRLOC  =  1.00D-06  THRGAP  =  1.00D-06  THRLOCT = -1.00D+00  THRGAPT = -1.00D+00  THRORB  =  1.00D-06  THRMLTP =  0.00D+00
 THRCPQCI=  1.00D-10  KEXTA   =  0.00D+00  THRCOARS=  0.00D+00  SYMTOL  =  1.00D-06  GRADTOL =  1.00D-06  THROVL  =  1.00D-08
 THRORTH =  1.00D-08  GRID    =  1.00D-06  GRIDMAX =  1.00D-03  DTMAX   =  0.00D+00  THROCCDE=  1.00D-01  THROCCDE=  1.00D-01



 Input parameters for SORTINT:

 COMPRESS =    0.000000
 C_FINAL  =    1.000000
 DEBUG    =   -1.000000
 C_SORT1  =    0.000000
 C_SEWARD =    0.000000
 THRESH   =    0.000000
 IO       =  molpro                                                          
 SPRI     =    0.000000
 SETTING GEOMTYP        =    XYZ
 ZUNIT=BOHR
 

 Variable memory set to  995000000 words,  buffer space   230000 words

 SETTING BASIS          =    USERDEF


 Recomputing integrals since basis changed


 Using spherical harmonics

 Library entry H      S aug-cc-pVTZ          selected for orbital group  1
 Library entry H      P aug-cc-pVTZ          selected for orbital group  1
 Library entry H      D aug-cc-pVTZ          selected for orbital group  1


 PROGRAM * SEWARD (Integral evaluation for generally contracted gaussian basis sets)     Author: Roland Lindh, 1990

 Geometry written to block  1 of record 700


 Point group  Cs  



 ATOMIC COORDINATES

 NR  ATOM    CHARGE       X              Y              Z

   1  H       1.00    0.000000000    1.665606609   -1.919907823
   2  N       7.00    0.000000000   -0.166096326   -1.147099711
   3  O       8.00    0.000000000    0.042257507    1.116417943

 Bond lengths in Bohr (Angstrom)

 1-2  1.988056342  2-3  2.273086777
     ( 1.052034110)     ( 1.202865721)

 Bond angles

  1-2-3  107.61603569

 NUCLEAR CHARGE:                   16
 NUMBER OF PRIMITIVE AOS:         203
 NUMBER OF SYMMETRY AOS:          173
 NUMBER OF CONTRACTIONS:          171   ( 114A'  +  57A"  )
 NUMBER OF CORE ORBITALS:           2   (   2A'  +   0A"  )
 NUMBER OF VALENCE ORBITALS:        9   (   7A'  +   2A"  )


 NUCLEAR REPULSION ENERGY   30.48065686


 Eigenvalues of metric

         1 0.104E-02 0.245E-02 0.331E-02 0.633E-02 0.985E-02 0.137E-01 0.144E-01 0.229E-01
         2 0.364E-01 0.524E-01 0.698E-01 0.940E-01 0.131E+00 0.134E+00 0.140E+00 0.142E+00


 Contracted 2-electron integrals neglected if value below      1.0D-22

       46188799. INTEGRALS WRITTEN OUT IN   11280 BLOCKS ON RECORD 1290 OF FILE 1


 NUMBER OF SORTED TWO-ELECTRON INTEGRALS:   55360566.     BUFFER LENGTH:  32768
 NUMBER OF SEGMENTS:   4  SEGMENT LENGTH:   15997996      RECORD LENGTH: 524288

 Memory used in sort:      16.56 MW

 SORT1 READ    46188799. AND WROTE    46626725. INTEGRALS IN    136 RECORDS. CPU TIME:     1.29 SEC, REAL TIME:     1.65 SEC
 SORT2 READ    46626725. AND WROTE    55360566. INTEGRALS IN      4 RECORDS. CPU TIME:     0.78 SEC, REAL TIME:     1.04 SEC

 FILE SIZES:   FILE 1:   760.0 MBYTE,  FILE 4:   570.5 MBYTE,   TOTAL:   1330.4 MBYTE

 OPERATOR DM      FOR CENTER  0  COORDINATES:    0.000000    0.000000    0.000000


 **********************************************************************************************************************************
 DATASETS  * FILE   NREC   LENGTH (MB)   RECORD NAMES
              1      19      421.54       500      610      700      900      950      970     1000      129      960     1100   
                                          VAR    BASINP    GEOM    SYMINP    ZMAT    AOBASIS   BASIS     P2S    ABASIS      S 
                                         1400     1410     1200     1210     1080     1600     1650     1300     1700   
                                           T        V       H0       H01     AOSYM     SMH    MOLCAS    ERIS     OPER   

 PROGRAMS   *        TOTAL       INT
 CPU TIMES  *         5.62      5.53
 REAL TIME  *         7.34 SEC
 DISK USED  *         1.33 GB      
 **********************************************************************************************************************************


 PROGRAM * RHF-SCF (CLOSED SHELL)       Authors: W. Meyer, H.-J. Werner


 NUMBER OF ELECTRONS:       8+    8-
 CONVERGENCE THRESHOLDS:    1.00E-10 (Density)    1.00E-13 (Energy)
 MAX. NUMBER OF ITERATIONS:      500
 INTERPOLATION TYPE:            DIIS
 INTERPOLATION STEPS:              2 (START)      1 (STEP)
 LEVEL SHIFTS:                  0.00 (CLOSED)  0.00 (OPEN) 



 Orbital guess generated from atomic densities. Full valence occupancy:    9   2

 Molecular orbital dump at record        2100.2

 Initial occupancy:   7   1

 ITERATION    DDIFF          GRAD             ENERGY        2-EL.EN.            DIPOLE MOMENTS         DIIS   ORB.
    1      0.000D+00      0.000D+00      -129.79059964    154.263268    0.00000    0.56229   -0.99597    0    start
    2      0.000D+00      0.874D-02      -129.81767527    155.444742    0.00000    0.59452   -0.19643    1    diag
    3      0.362D-02      0.657D-02      -129.83966449    155.555119    0.00000    0.54170   -0.57393    2    diag
    4      0.140D-02      0.103D-02      -129.84043564    155.284562    0.00000    0.55020   -0.51263    3    diag
    5      0.328D-03      0.335D-03      -129.84055434    155.372009    0.00000    0.55617   -0.51509    4    diag
    6      0.153D-03      0.983D-04      -129.84057370    155.355974    0.00000    0.55676   -0.51106    5    diag
    7      0.605D-04      0.491D-04      -129.84057932    155.358566    0.00000    0.55810   -0.50861    6    diag
    8      0.409D-04      0.165D-04      -129.84057990    155.357758    0.00000    0.55816   -0.50774    7    diag
    9      0.138D-04      0.306D-05      -129.84057993    155.357650    0.00000    0.55811   -0.50756    8    diag
   10      0.277D-05      0.702D-06      -129.84057993    155.357637    0.00000    0.55807   -0.50754    9    orth
   11      0.843D-06      0.141D-06      -129.84057993    155.357633    0.00000    0.55807   -0.50753    9    diag
   12      0.202D-06      0.290D-07      -129.84057993    155.357632    0.00000    0.55806   -0.50753    9    diag
   13      0.494D-07      0.762D-08      -129.84057993    155.357632    0.00000    0.55806   -0.50753    9    diag
   14      0.113D-07      0.136D-08      -129.84057993    155.357632    0.00000    0.55806   -0.50753    9    diag
   15      0.150D-08      0.373D-09      -129.84057993    155.357632    0.00000    0.55806   -0.50753    9    diag
   16      0.331D-09      0.113D-09      -129.84057993    155.357632    0.00000    0.55806   -0.50753    9    diag
   17      0.845D-10      0.329D-10      -129.84057993    155.357632    0.00000    0.55806   -0.50753    9    diag
   18      0.276D-10      0.108D-10      -129.84057993    155.357632    0.00000    0.55806   -0.50753    9    diag
   19      0.107D-10      0.267D-11      -129.84057993    155.357632    0.00000    0.55806   -0.50753    9    fixocc
   20      0.259D-11      0.613D-12      -129.84057993    155.357632    0.00000    0.55806   -0.50753    9    orth
   21      0.349D-12      0.640D-12      -129.84057993    155.357632    0.00000    0.55806   -0.50753    0    orth

 Final occupancy:   7   1

 !RHF STATE 1.1 Energy               -129.840579926688
 Nuclear energy                        30.48065686
 One-electron energy                 -238.00005283
 Two-electron energy                   77.67881605
 Virial quotient                       -1.00146223
 !RHF STATE 1.1 Dipole moment           0.00000000     0.55806270    -0.50753046
 Dipole moment /Debye                   0.00000000     1.41836100    -1.28992927

 Orbital energies:

         1.1          2.1          3.1          4.1          5.1          6.1          7.1          8.1          9.1
    -20.650670   -15.709860    -1.532556    -0.991387    -0.746818    -0.665603    -0.427581     0.039847     0.193108

         1.2          2.2          3.2
     -0.596734     0.081014     0.239647

 HOMO      7.1    -0.427581 =     -11.6351eV
 LUMO      8.1     0.039847 =       1.0843eV
 LUMO-HOMO         0.467428 =      12.7194eV


 **********************************************************************************************************************************
 DATASETS  * FILE   NREC   LENGTH (MB)   RECORD NAMES
              1      19      421.54       500      610      700      900      950      970     1000      129      960     1100   
                                          VAR    BASINP    GEOM    SYMINP    ZMAT    AOBASIS   BASIS     P2S    ABASIS      S 
                                         1400     1410     1200     1210     1080     1600     1650     1300     1700   
                                           T        V       H0       H01     AOSYM     SMH    MOLCAS    ERIS     OPER   

              2       4        3.13       700     1000      520     2100   
                                         GEOM     BASIS   MCVARS     RHF  

 PROGRAMS   *        TOTAL        HF       INT
 CPU TIMES  *        11.84      6.22      5.53
 REAL TIME  *        15.32 SEC
 DISK USED  *         1.33 GB      
 **********************************************************************************************************************************


 PROGRAM * CCSD (Closed-shell coupled cluster)     Authors: C. Hampel, H.-J. Werner, 1991, M. Deegan, P.J. Knowles, 1992


 Convergence thresholds:  THRVAR = 1.00D-08  THRDEN = 1.00D-12

 CCSD(T)     terms to be evaluated (factor= 1.000)


 Number of closed-shell orbitals:   8 (   7   1 )
 Number of external orbitals:     163 ( 107  56 )

 Molecular orbitals read from record     2100.2  Type=RHF/CANONICAL (state 1.1)

 Number of N-1 electron functions:               8
 Number of N-2 electron functions:              36
 Number of singly external CSFs:               805
 Number of doubly external CSFs:            449165
 Total number of CSFs:                      449971

 Length of J-op  integral file:               0.00 MB
 Length of K-op  integral file:               1.15 MB
 Length of 3-ext integral record:             0.00 MB

 Memory could be reduced to 24.90 Mwords without degradation in triples

 Integral transformation finished. Total CPU:   1.07 sec, npass=  1  Memory used:   6.89 MW

 Reference energy:                   -129.84057993

 MP2 singlet pair energy:              -0.37842793
 MP2 triplet pair energy:              -0.18631319
 MP2 correlation energy:               -0.56474112
 MP2 total energy:                   -130.40532105

 SCS-MP2 correlation energy:           -0.57004172   (PS=  1.200000  PT=  0.333333)
 SCS-MP2 total energy:               -130.41062165

 ITER.      SQ.NORM     CORR.ENERGY   TOTAL ENERGY   ENERGY CHANGE        DEN1      VAR(S)    VAR(P)  DIIS     TIME  TIME/IT
   1      1.11921027    -0.56965693  -130.41023686    -0.00491581     0.01255168  0.33D-02  0.30D-02  1  1     2.28     1.28
   2      1.12994005    -0.56940588  -130.40998581     0.00025105    -0.01356256  0.88D-04  0.49D-03  2  2     3.50     1.32
   3      1.13509785    -0.56972453  -130.41030446    -0.00031865    -0.00233699  0.53D-04  0.67D-04  3  3     4.73     1.33
   4      1.13845737    -0.56971625  -130.41029617     0.00000828    -0.00136576  0.43D-05  0.94D-05  4  4     5.99     1.34
   5      1.13946957    -0.56974004  -130.41031996    -0.00002379    -0.00023810  0.15D-05  0.18D-05  5  5     7.21     1.34
   6      1.13986366    -0.56973439  -130.41031432     0.00000565    -0.00003780  0.14D-06  0.41D-06  6  6     8.47     1.35
   7      1.13994604    -0.56973462  -130.41031455    -0.00000024     0.00000029  0.20D-07  0.91D-07  6  1     9.74     1.35
   8      1.13997953    -0.56973296  -130.41031289     0.00000166    -0.00000464  0.41D-08  0.13D-07  6  2    10.99     1.35
   9      1.13998422    -0.56973306  -130.41031299    -0.00000010     0.00000104  0.17D-08  0.16D-08  6  3    12.28     1.36
  10      1.13998579    -0.56973336  -130.41031329    -0.00000030    -0.00000059  0.38D-09  0.23D-09  6  4    13.52     1.37
  11      1.13998485    -0.56973349  -130.41031342    -0.00000013     0.00000033  0.93D-10  0.23D-10  6  5    14.78     1.37
  12      1.13998399    -0.56973362  -130.41031355    -0.00000013     0.00000033  0.96D-11  0.60D-11  6  6    16.04     1.37
  13      1.13998350    -0.56973363  -130.41031356    -0.00000001     0.00000010  0.40D-11  0.11D-11  6  1    17.27     1.37
  14      1.13998309    -0.56973365  -130.41031358    -0.00000002     0.00000010  0.43D-12  0.36D-12  6  3    18.51     1.37
  15      1.13998293    -0.56973365  -130.41031358    -0.00000000     0.00000002  0.10D-12  0.24D-13  6  2    19.80     1.37
  16      1.13998288    -0.56973366  -130.41031358    -0.00000000     0.00000001  0.23D-13  0.54D-14  6  4    21.06     1.37
  17      1.13998286    -0.56973366  -130.41031358    -0.00000000     0.00000001  0.40D-14  0.10D-14  6  5    22.33     1.37
  18      1.13998286    -0.56973366  -130.41031358    -0.00000000     0.00000000  0.40D-15  0.26D-15  6  6    23.60     1.37
  19      1.13998286    -0.56973366  -130.41031358     0.00000000    -0.00000000  0.47D-16  0.34D-16  6  1    24.86     1.37
  20      1.13998287    -0.56973366  -130.41031358     0.00000000    -0.00000000  0.19D-17  0.71D-17  6  3    26.11     1.37
  21      1.13998287    -0.56973366  -130.41031358     0.00000000    -0.00000000  0.97D-18  0.17D-17  6  2    27.35     1.37
  22      1.13998287    -0.56973366  -130.41031358     0.00000000    -0.00000000  0.18D-18  0.63D-18  6  4    28.62     1.37
  23      1.13998287    -0.56973366  -130.41031358    -0.00000000     0.00000000  0.10D-18  0.93D-19  6  5    29.88     1.37
  24      1.13998287    -0.56973366  -130.41031358     0.00000000    -0.00000000  0.49D-20  0.12D-19  6  1    31.10     1.37
  25      1.13998287    -0.56973366  -130.41031358     0.00000000     0.00000000  0.26D-21  0.12D-20  6  6    32.35     1.37
  26      1.13998287    -0.56973366  -130.41031358    -0.00000000     0.00000000  0.97D-22  0.27D-21  6  3    33.57     1.37

 Norm of t1 vector:      0.07673252      S-energy:     0.00000000      T1 diagnostic:  0.01356452
                                                                       D1 diagnostic:  0.04336105

 Doubles amplitudes (print threshold =  0.500E-01):

         I         J         SYM. A    SYM. B    A         B      T(IJ, AB)

         8         8         2         2         1         1     -0.13315481


 Total CPU time for triples:     15.57 sec


 RESULTS
 =======

  Reference energy                   -129.840579926688

  Correlated core orbitals:             1.1       2.1
  Orbital energies:                   -20.6507  -15.7099
 
  CCSD core-core energy                -0.079229025175
  CCSD core-valence energy             -0.036108824245
  CCSD valence correlation energy      -0.454395807938
 
  CCSD singlet pair energy             -0.407326517827
  CCSD triplet pair energy             -0.162407139532
  CCSD correlation energy              -0.569733657359

  Triples (T) contribution             -0.022119656673
  Total correlation energy             -0.591853314032

  CCSD total energy                  -130.410313584046
  CCSD[T] energy                     -130.433578822751
  CCSD-T energy                      -130.431999781713
 !CCSD(T) total energy               -130.432433240720

 Timing summary (sec):

 STEP                 CPU(USER)    SYS     CPU(TOT)    WALL
 Transformation          1.08      0.21      1.29      1.30
 CCSD iterations        32.50      3.06     35.56     35.61
 Triples                15.57      0.57     16.14     16.14

 Program statistics:

 Available memory in ccsd:               994999644
 Min. memory needed in ccsd:               1368037
 Max. memory used in ccsd:                 1750502
 Max. memory used in cckext:               2014357 (26 integral passes)



 **********************************************************************************************************************************
 DATASETS  * FILE   NREC   LENGTH (MB)   RECORD NAMES
              1      20      500.45       500      610      700      900      950      970     1000      129      960     1100   
                                          VAR    BASINP    GEOM    SYMINP    ZMAT    AOBASIS   BASIS     P2S    ABASIS      S 
                                         1400     1410     1200     1210     1080     1600     1650     1300     1700     1380   
                                           T        V       H0       H01     AOSYM     SMH    MOLCAS    ERIS     OPER     JKOP   

              2       4        3.13       700     1000      520     2100   
                                         GEOM     BASIS   MCVARS     RHF  

 PROGRAMS   *        TOTAL   CCSD(T)        HF       INT
 CPU TIMES  *        61.00     49.16      6.22      5.53
 REAL TIME  *        68.41 SEC
 DISK USED  *         1.33 GB      
 **********************************************************************************************************************************

 CCSD(T)/USERDEF energy=   -130.432433240720

        CCSD(T)         HF-SCF  
   -130.43243324   -129.84057993
 **********************************************************************************************************************************
 Molpro calculation terminated
 Variable memory released
