
 Primary working directories    : /tmp/r2666/282463.maple
 Secondary working directories  : /tmp/r2666/282463.maple
 Wavefunction directory         : /ddn/home4/r2666/wfu/
 Main file repository           : /tmp/r2666/282463.maple/

 SHA1      : d5ffa45e93fdbca01ffc919aa182cfdae0147319
 NAME      : 2015.1.35
 ARCHNAME  : linux/x86_64
 FC        : /opt/intel/composer_xe_2015.1.133/bin/intel64/ifort
 BLASLIB   : -Wl,-_start-group /opt/intel/mkl/lib/intel64/libmkl_intel_ilp64.a /opt/intel/mkl/lib/intel64/libmkl_intel_thread.a /opt/intel/mkl/lib/intel64/libmkl_core.a -Wl,-_end-group
 id        : olemiss

 Nodes     nprocs
 cn076        1

 Using customized tuning parameters: mindgm=1; mindgv=20; mindgc=4; mindgr=1; noblas=0; minvec=7
 default implementation of scratch files=df  

 ***,hno CCSD(T)/TZ-F12 QFF
 memory, 995, m;
 gthresh,energy=1.d-12,zero=1.d-22,oneint=1.d-22,twoint=1.d-22;
 gthresh,optgrad=1.d-8,optstep=1.d-8;
 nocompress;
 geomtyp=xyz
 bohr
 geometry={
 3
        102       102
 H        0.0000000000        1.6717674218       -1.9277827079
 N        0.0000000000       -0.1692083303       -1.1526476272
 O        0.0000000000        0.0392086985        1.1298407441
 }
 
 basis={
 default=aug-cc-pvtz
 s,C,8236.0,1235.0,280.8, 79.27,25.59, 8.997,3.319
 s,C,0.9059,0.3643,0.1285000
 p,C,56.0,18.71,4.133,0.2827,0.3827,0.1209
 d,C,30.0,10.0,3.3,1.097,0.318
 f,C,7.0,2.3,0.7610
 s,N,11420.0,1712.0,389.3,110.0,35.57,12.54,4.644
 s,N,1.293,0.5118,0.1787
 p,N,79.89,26.63,5.948,1.742,0.555,0.1725
 d,N,45.0,15.0,5.0,1.654,0.469
 f,N,9.9,3.3,1.093
 s,O,15330.0,2299.0,522.4,147.3,47.55,16.76,6.207
 s,O,1.752,0.6882,0.2384
 p,O,103.5,34.46,7.749,2.28,0.7156,0.214
 d,O,63.0,21.0,7.0,2.314,0.645
 f,O,12.9,4.3,1.428
 s,mg,164900.0,24710.0,5628.0,1596.0,521.0;
 s,mg,188.0,73.01,29.90,12.54,4.306,1.826;
 s,mg,0.7417,0.0761,0.145,0.033,0.0129;
 p,mg,950.70,316.90,74.86,23.72,8.669,3.363;
 p,mg,1.310,0.4911,0.2364,0.08733,0.03237,0.00745;
 d,mg,1.601,0.686,0.126,0.294,0.0468;
 f,mg,1.372,0.588,0.094,0.252;
 }
   {hf,maxit=500;accu,20;}
 {ccsd(t),nocheck,maxit=250;orbital,IGNORE_ERROR;core}

 Variables initialized (889), CPU time= 0.01 sec
 Commands  initialized (702), CPU time= 0.01 sec, 572 directives.
 Default parameters read. Elapsed time= 0.05 sec

 Checking input...
 Passed
1


                                         ***  PROGRAM SYSTEM MOLPRO  ***
                                       Copyright, TTI GmbH Stuttgart, 2015
                                    Version 2015.1 linked Jul  9 2018 13:16:40


 **********************************************************************************************************************************
 LABEL *   hno CCSD(T)/TZ-F12 QFF                                                        
  64 bit serial version                                                                  DATE: 04-Mar-20          TIME: 13:50:04  
 **********************************************************************************************************************************

 SHA1:             d5ffa45e93fdbca01ffc919aa182cfdae0147319
 **********************************************************************************************************************************

 THRESHOLDS:

 ZERO    =  1.00D-22  ONEINT  =  1.00D-22  TWOINT  =  1.00D-22  PREFAC  =  1.00D-14  LOCALI  =  1.00D-09  EORDER  =  1.00D-04
 ENERGY  =  1.00D-12  ETEST   =  0.00D+00  EDENS   =  0.00D+00  THRDEDEF=  1.00D-06  GRADIENT=  1.00D-02  STEP    =  1.00D-03
 ORBITAL =  1.00D-05  CIVEC   =  1.00D-05  COEFF   =  1.00D-04  PRINTCI =  5.00D-02  PUNCHCI =  9.90D+01  OPTGRAD =  3.00D-04
 OPTENERG=  1.00D-06  OPTSTEP =  3.00D-04  THRGRAD =  1.00D-10  COMPRESS=  1.00D-11  VARMIN  =  1.00D-07  VARMAX  =  1.00D-03
 THRDOUB =  0.00D+00  THRDIV  =  1.00D-05  THRRED  =  1.00D-07  THRPSP  =  1.00D+00  THRDC   =  1.00D-10  THRCS   =  1.00D-10
 THRNRM  =  1.00D-08  THREQ   =  0.00D+00  THRDE   =  1.00D+00  THRREF  =  1.00D-05  SPARFAC =  1.00D+00  THRDLP  =  1.00D-07
 THRDIA  =  1.00D-10  THRDLS  =  1.00D-07  THRGPS  =  0.00D+00  THRKEX  =  0.00D+00  THRDIS  =  2.00D-01  THRVAR  =  1.00D-10
 THRLOC  =  1.00D-06  THRGAP  =  1.00D-06  THRLOCT = -1.00D+00  THRGAPT = -1.00D+00  THRORB  =  1.00D-06  THRMLTP =  0.00D+00
 THRCPQCI=  1.00D-10  KEXTA   =  0.00D+00  THRCOARS=  0.00D+00  SYMTOL  =  1.00D-06  GRADTOL =  1.00D-06  THROVL  =  1.00D-08
 THRORTH =  1.00D-08  GRID    =  1.00D-06  GRIDMAX =  1.00D-03  DTMAX   =  0.00D+00  THROCCDE=  1.00D-01  THROCCDE=  1.00D-01



 THRESHOLDS:

 ZERO    =  1.00D-22  ONEINT  =  1.00D-22  TWOINT  =  1.00D-22  PREFAC  =  1.00D-14  LOCALI  =  1.00D-09  EORDER  =  1.00D-04
 ENERGY  =  1.00D-12  ETEST   =  0.00D+00  EDENS   =  0.00D+00  THRDEDEF=  1.00D-06  GRADIENT=  1.00D-02  STEP    =  1.00D-03
 ORBITAL =  1.00D-05  CIVEC   =  1.00D-05  COEFF   =  1.00D-04  PRINTCI =  5.00D-02  PUNCHCI =  9.90D+01  OPTGRAD =  1.00D-08
 OPTENERG=  1.00D-06  OPTSTEP =  1.00D-08  THRGRAD =  1.00D-10  COMPRESS=  1.00D-11  VARMIN  =  1.00D-07  VARMAX  =  1.00D-03
 THRDOUB =  0.00D+00  THRDIV  =  1.00D-05  THRRED  =  1.00D-07  THRPSP  =  1.00D+00  THRDC   =  1.00D-10  THRCS   =  1.00D-10
 THRNRM  =  1.00D-08  THREQ   =  0.00D+00  THRDE   =  1.00D+00  THRREF  =  1.00D-05  SPARFAC =  1.00D+00  THRDLP  =  1.00D-07
 THRDIA  =  1.00D-10  THRDLS  =  1.00D-07  THRGPS  =  0.00D+00  THRKEX  =  0.00D+00  THRDIS  =  2.00D-01  THRVAR  =  1.00D-10
 THRLOC  =  1.00D-06  THRGAP  =  1.00D-06  THRLOCT = -1.00D+00  THRGAPT = -1.00D+00  THRORB  =  1.00D-06  THRMLTP =  0.00D+00
 THRCPQCI=  1.00D-10  KEXTA   =  0.00D+00  THRCOARS=  0.00D+00  SYMTOL  =  1.00D-06  GRADTOL =  1.00D-06  THROVL  =  1.00D-08
 THRORTH =  1.00D-08  GRID    =  1.00D-06  GRIDMAX =  1.00D-03  DTMAX   =  0.00D+00  THROCCDE=  1.00D-01  THROCCDE=  1.00D-01



 Input parameters for SORTINT:

 COMPRESS =    0.000000
 C_FINAL  =    1.000000
 DEBUG    =   -1.000000
 C_SORT1  =    0.000000
 C_SEWARD =    0.000000
 THRESH   =    0.000000
 IO       =  molpro                                                          
 SPRI     =    0.000000
 SETTING GEOMTYP        =    XYZ
 ZUNIT=BOHR
 

 Variable memory set to  995000000 words,  buffer space   230000 words

 SETTING BASIS          =    USERDEF


 Recomputing integrals since basis changed


 Using spherical harmonics

 Library entry H      S aug-cc-pVTZ          selected for orbital group  1
 Library entry H      P aug-cc-pVTZ          selected for orbital group  1
 Library entry H      D aug-cc-pVTZ          selected for orbital group  1


 PROGRAM * SEWARD (Integral evaluation for generally contracted gaussian basis sets)     Author: Roland Lindh, 1990

 Geometry written to block  1 of record 700


 Point group  Cs  



 ATOMIC COORDINATES

 NR  ATOM    CHARGE       X              Y              Z

   1  H       1.00    0.000000000    1.671767422   -1.927782708
   2  N       7.00    0.000000000   -0.169208330   -1.152647627
   3  O       8.00    0.000000000    0.039208698    1.129840744

 Bond lengths in Bohr (Angstrom)

 1-2  1.997504972  2-3  2.291984036
     ( 1.057034110)     ( 1.212865720)

 Bond angles

  1-2-3  107.61603570

 NUCLEAR CHARGE:                   16
 NUMBER OF PRIMITIVE AOS:         203
 NUMBER OF SYMMETRY AOS:          173
 NUMBER OF CONTRACTIONS:          171   ( 114A'  +  57A"  )
 NUMBER OF CORE ORBITALS:           2   (   2A'  +   0A"  )
 NUMBER OF VALENCE ORBITALS:        9   (   7A'  +   2A"  )


 NUCLEAR REPULSION ENERGY   30.24537711


 Eigenvalues of metric

         1 0.106E-02 0.254E-02 0.337E-02 0.642E-02 0.100E-01 0.137E-01 0.145E-01 0.233E-01
         2 0.371E-01 0.540E-01 0.707E-01 0.941E-01 0.131E+00 0.134E+00 0.141E+00 0.142E+00


 Contracted 2-electron integrals neglected if value below      1.0D-22

       46131587. INTEGRALS WRITTEN OUT IN   11266 BLOCKS ON RECORD 1290 OF FILE 1


 NUMBER OF SORTED TWO-ELECTRON INTEGRALS:   55360566.     BUFFER LENGTH:  32768
 NUMBER OF SEGMENTS:   4  SEGMENT LENGTH:   15997996      RECORD LENGTH: 524288

 Memory used in sort:      16.56 MW

 SORT1 READ    46131587. AND WROTE    46568932. INTEGRALS IN    136 RECORDS. CPU TIME:     0.73 SEC, REAL TIME:     1.01 SEC
 SORT2 READ    46568932. AND WROTE    55360566. INTEGRALS IN      4 RECORDS. CPU TIME:     0.63 SEC, REAL TIME:     0.85 SEC

 FILE SIZES:   FILE 1:   759.1 MBYTE,  FILE 4:   570.5 MBYTE,   TOTAL:   1329.5 MBYTE

 OPERATOR DM      FOR CENTER  0  COORDINATES:    0.000000    0.000000    0.000000


 **********************************************************************************************************************************
 DATASETS  * FILE   NREC   LENGTH (MB)   RECORD NAMES
              1      19      421.15       500      610      700      900      950      970     1000      129      960     1100   
                                          VAR    BASINP    GEOM    SYMINP    ZMAT    AOBASIS   BASIS     P2S    ABASIS      S 
                                         1400     1410     1200     1210     1080     1600     1650     1300     1700   
                                           T        V       H0       H01     AOSYM     SMH    MOLCAS    ERIS     OPER   

 PROGRAMS   *        TOTAL       INT
 CPU TIMES  *         4.07      3.98
 REAL TIME  *         5.51 SEC
 DISK USED  *         1.33 GB      
 **********************************************************************************************************************************


 PROGRAM * RHF-SCF (CLOSED SHELL)       Authors: W. Meyer, H.-J. Werner


 NUMBER OF ELECTRONS:       8+    8-
 CONVERGENCE THRESHOLDS:    1.00E-10 (Density)    1.00E-13 (Energy)
 MAX. NUMBER OF ITERATIONS:      500
 INTERPOLATION TYPE:            DIIS
 INTERPOLATION STEPS:              2 (START)      1 (STEP)
 LEVEL SHIFTS:                  0.00 (CLOSED)  0.00 (OPEN) 



 Orbital guess generated from atomic densities. Full valence occupancy:    9   2

 Molecular orbital dump at record        2100.2

 Initial occupancy:   7   1

 ITERATION    DDIFF          GRAD             ENERGY        2-EL.EN.            DIPOLE MOMENTS         DIIS   ORB.
    1      0.000D+00      0.000D+00      -129.78733532    153.839325    0.00000    0.56346   -1.02881    0    start
    2      0.000D+00      0.886D-02      -129.81408178    155.006675    0.00000    0.60056   -0.18899    1    diag
    3      0.366D-02      0.683D-02      -129.83798014    155.137474    0.00000    0.54476   -0.58800    2    diag
    4      0.144D-02      0.104D-02      -129.83877315    154.858937    0.00000    0.55300   -0.52494    3    diag
    5      0.332D-03      0.341D-03      -129.83889653    154.947661    0.00000    0.55905   -0.52725    4    diag
    6      0.154D-03      0.100D-03      -129.83891680    154.931415    0.00000    0.55958   -0.52302    5    diag
    7      0.611D-04      0.505D-04      -129.83892284    154.933931    0.00000    0.56091   -0.52043    6    diag
    8      0.416D-04      0.176D-04      -129.83892352    154.933073    0.00000    0.56096   -0.51948    7    diag
    9      0.148D-04      0.329D-05      -129.83892355    154.932954    0.00000    0.56091   -0.51929    8    diag
   10      0.304D-05      0.739D-06      -129.83892355    154.932940    0.00000    0.56087   -0.51926    9    orth
   11      0.876D-06      0.147D-06      -129.83892355    154.932935    0.00000    0.56087   -0.51926    9    diag
   12      0.207D-06      0.309D-07      -129.83892355    154.932935    0.00000    0.56086   -0.51926    9    diag
   13      0.513D-07      0.827D-08      -129.83892355    154.932934    0.00000    0.56086   -0.51926    9    diag
   14      0.119D-07      0.145D-08      -129.83892355    154.932934    0.00000    0.56086   -0.51926    9    diag
   15      0.147D-08      0.384D-09      -129.83892355    154.932934    0.00000    0.56086   -0.51926    9    diag
   16      0.332D-09      0.111D-09      -129.83892355    154.932934    0.00000    0.56086   -0.51926    9    diag
   17      0.727D-10      0.301D-10      -129.83892355    154.932934    0.00000    0.56086   -0.51926    0    orth

 Final occupancy:   7   1

 !RHF STATE 1.1 Energy               -129.838923551628
 Nuclear energy                        30.24537711
 One-electron energy                 -237.55076783
 Two-electron energy                   77.46646718
 Virial quotient                       -1.00182077
 !RHF STATE 1.1 Dipole moment           0.00000000     0.56086452    -0.51925638
 Dipole moment /Debye                   0.00000000     1.42548205    -1.31973164

 Orbital energies:

         1.1          2.1          3.1          4.1          5.1          6.1          7.1          8.1          9.1
    -20.651696   -15.712215    -1.524281    -0.992460    -0.743177    -0.662721    -0.430322     0.039659     0.192142

         1.2          2.2          3.2
     -0.592044     0.077520     0.239276

 HOMO      7.1    -0.430322 =     -11.7096eV
 LUMO      8.1     0.039659 =       1.0792eV
 LUMO-HOMO         0.469981 =      12.7888eV


 **********************************************************************************************************************************
 DATASETS  * FILE   NREC   LENGTH (MB)   RECORD NAMES
              1      19      421.15       500      610      700      900      950      970     1000      129      960     1100   
                                          VAR    BASINP    GEOM    SYMINP    ZMAT    AOBASIS   BASIS     P2S    ABASIS      S 
                                         1400     1410     1200     1210     1080     1600     1650     1300     1700   
                                           T        V       H0       H01     AOSYM     SMH    MOLCAS    ERIS     OPER   

              2       4        3.13       700     1000      520     2100   
                                         GEOM     BASIS   MCVARS     RHF  

 PROGRAMS   *        TOTAL        HF       INT
 CPU TIMES  *         8.21      4.14      3.98
 REAL TIME  *        10.63 SEC
 DISK USED  *         1.33 GB      
 **********************************************************************************************************************************


 PROGRAM * CCSD (Closed-shell coupled cluster)     Authors: C. Hampel, H.-J. Werner, 1991, M. Deegan, P.J. Knowles, 1992


 Convergence thresholds:  THRVAR = 1.00D-08  THRDEN = 1.00D-12

 CCSD(T)     terms to be evaluated (factor= 1.000)


 Number of closed-shell orbitals:   8 (   7   1 )
 Number of external orbitals:     163 ( 107  56 )

 Molecular orbitals read from record     2100.2  Type=RHF/CANONICAL (state 1.1)

 Number of N-1 electron functions:               8
 Number of N-2 electron functions:              36
 Number of singly external CSFs:               805
 Number of doubly external CSFs:            449165
 Total number of CSFs:                      449971

 Length of J-op  integral file:               0.00 MB
 Length of K-op  integral file:               1.15 MB
 Length of 3-ext integral record:             0.00 MB

 Memory could be reduced to 24.90 Mwords without degradation in triples

 Integral transformation finished. Total CPU:   0.82 sec, npass=  1  Memory used:   6.89 MW

 Reference energy:                   -129.83892355

 MP2 singlet pair energy:              -0.37953865
 MP2 triplet pair energy:              -0.18699559
 MP2 correlation energy:               -0.56653425
 MP2 total energy:                   -130.40545780

 SCS-MP2 correlation energy:           -0.57179920   (PS=  1.200000  PT=  0.333333)
 SCS-MP2 total energy:               -130.41072275

 ITER.      SQ.NORM     CORR.ENERGY   TOTAL ENERGY   ENERGY CHANGE        DEN1      VAR(S)    VAR(P)  DIIS     TIME  TIME/IT
   1      1.12044121    -0.57106670  -130.40999026    -0.00453246     0.01342899  0.34D-02  0.32D-02  1  1     1.68     0.93
   2      1.13147208    -0.57072229  -130.40964584     0.00034441    -0.01387020  0.93D-04  0.51D-03  2  2     2.59     0.96
   3      1.13681255    -0.57105583  -130.40997938    -0.00033354    -0.00238376  0.57D-04  0.70D-04  3  3     3.49     0.97
   4      1.14031819    -0.57104786  -130.40997141     0.00000798    -0.00140708  0.47D-05  0.99D-05  4  4     4.38     0.97
   5      1.14140188    -0.57107296  -130.40999651    -0.00002510    -0.00025624  0.16D-05  0.19D-05  5  5     5.28     0.98
   6      1.14182030    -0.57106670  -130.40999025     0.00000626    -0.00004061  0.15D-06  0.41D-06  6  6     6.18     0.98
   7      1.14190440    -0.57106696  -130.40999051    -0.00000026     0.00000075  0.21D-07  0.93D-07  6  1     7.06     0.98
   8      1.14193863    -0.57106514  -130.40998869     0.00000182    -0.00000485  0.40D-08  0.14D-07  6  2     7.98     0.98
   9      1.14194344    -0.57106520  -130.40998875    -0.00000007     0.00000120  0.17D-08  0.18D-08  6  3     8.89     0.98
  10      1.14194521    -0.57106551  -130.40998906    -0.00000030    -0.00000069  0.41D-09  0.26D-09  6  4     9.82     0.98
  11      1.14194426    -0.57106564  -130.40998920    -0.00000014     0.00000034  0.10D-09  0.27D-10  6  5    10.75     0.98
  12      1.14194338    -0.57106578  -130.40998933    -0.00000014     0.00000034  0.11D-10  0.66D-11  6  6    11.67     0.99
  13      1.14194285    -0.57106579  -130.40998934    -0.00000001     0.00000011  0.43D-11  0.12D-11  6  1    12.58     0.99
  14      1.14194242    -0.57106582  -130.40998937    -0.00000003     0.00000010  0.44D-12  0.40D-12  6  3    13.48     0.99
  15      1.14194225    -0.57106582  -130.40998937    -0.00000000     0.00000002  0.11D-12  0.28D-13  6  2    14.41     0.99
  16      1.14194219    -0.57106582  -130.40998937    -0.00000000     0.00000001  0.25D-13  0.60D-14  6  4    15.30     0.99
  17      1.14194217    -0.57106582  -130.40998937    -0.00000000     0.00000001  0.45D-14  0.11D-14  6  5    16.19     0.99
  18      1.14194217    -0.57106582  -130.40998937    -0.00000000     0.00000000  0.47D-15  0.30D-15  6  6    17.08     0.99
  19      1.14194217    -0.57106582  -130.40998937     0.00000000    -0.00000000  0.59D-16  0.42D-16  6  1    17.98     0.99
  20      1.14194217    -0.57106582  -130.40998937     0.00000000    -0.00000000  0.24D-17  0.94D-17  6  3    18.92     0.99
  21      1.14194217    -0.57106582  -130.40998937     0.00000000    -0.00000000  0.12D-17  0.24D-17  6  2    19.83     0.99
  22      1.14194217    -0.57106582  -130.40998937     0.00000000    -0.00000000  0.24D-18  0.86D-18  6  4    20.73     0.99
  23      1.14194217    -0.57106582  -130.40998937    -0.00000000     0.00000000  0.14D-18  0.12D-18  6  5    21.64     0.99
  24      1.14194217    -0.57106582  -130.40998937     0.00000000    -0.00000000  0.60D-20  0.15D-19  6  1    22.55     0.99
  25      1.14194217    -0.57106582  -130.40998937     0.00000000     0.00000000  0.35D-21  0.15D-20  6  6    23.47     1.00
  26      1.14194217    -0.57106582  -130.40998937    -0.00000000     0.00000000  0.11D-21  0.33D-21  6  3    24.38     1.00

 Norm of t1 vector:      0.07854360      S-energy:     0.00000000      T1 diagnostic:  0.01388468
                                                                       D1 diagnostic:  0.04465024

 Doubles amplitudes (print threshold =  0.500E-01):

         I         J         SYM. A    SYM. B    A         B      T(IJ, AB)

         8         8         2         2         1         1     -0.13609927


 Total CPU time for triples:     16.43 sec


 RESULTS
 =======

  Reference energy                   -129.838923551628

  Correlated core orbitals:             1.1       2.1
  Orbital energies:                   -20.6517  -15.7122
 
  CCSD core-core energy                -0.079235286540
  CCSD core-valence energy             -0.036034327337
  CCSD valence correlation energy      -0.455796207483
 
  CCSD singlet pair energy             -0.408533740409
  CCSD triplet pair energy             -0.162532080960
  CCSD correlation energy              -0.571065821361

  Triples (T) contribution             -0.022469802593
  Total correlation energy             -0.593535623954

  CCSD total energy                  -130.409989372989
  CCSD[T] energy                     -130.433655596623
  CCSD-T energy                      -130.432011498519
 !CCSD(T) total energy               -130.432459175582

 Timing summary (sec):

 STEP                 CPU(USER)    SYS     CPU(TOT)    WALL
 Transformation          0.83      0.15      0.98      1.00
 CCSD iterations        23.56      2.36     25.92     25.91
 Triples                16.43      0.55     16.98     16.97

 Program statistics:

 Available memory in ccsd:               994999644
 Min. memory needed in ccsd:               1368037
 Max. memory used in ccsd:                 1750502
 Max. memory used in cckext:               2014357 (26 integral passes)



 **********************************************************************************************************************************
 DATASETS  * FILE   NREC   LENGTH (MB)   RECORD NAMES
              1      20      500.06       500      610      700      900      950      970     1000      129      960     1100   
                                          VAR    BASINP    GEOM    SYMINP    ZMAT    AOBASIS   BASIS     P2S    ABASIS      S 
                                         1400     1410     1200     1210     1080     1600     1650     1300     1700     1380   
                                           T        V       H0       H01     AOSYM     SMH    MOLCAS    ERIS     OPER     JKOP   

              2       4        3.13       700     1000      520     2100   
                                         GEOM     BASIS   MCVARS     RHF  

 PROGRAMS   *        TOTAL   CCSD(T)        HF       INT
 CPU TIMES  *        49.04     40.83      4.14      3.98
 REAL TIME  *        54.54 SEC
 DISK USED  *         1.33 GB      
 **********************************************************************************************************************************

 CCSD(T)/USERDEF energy=   -130.432459175582

        CCSD(T)         HF-SCF  
   -130.43245918   -129.83892355
 **********************************************************************************************************************************
 Molpro calculation terminated
 Variable memory released
