
 Primary working directories    : /tmp/r2666/282470.maple
 Secondary working directories  : /tmp/r2666/282470.maple
 Wavefunction directory         : /ddn/home4/r2666/wfu/
 Main file repository           : /tmp/r2666/282470.maple/

 SHA1      : d5ffa45e93fdbca01ffc919aa182cfdae0147319
 NAME      : 2015.1.35
 ARCHNAME  : linux/x86_64
 FC        : /opt/intel/composer_xe_2015.1.133/bin/intel64/ifort
 BLASLIB   : -Wl,-_start-group /opt/intel/mkl/lib/intel64/libmkl_intel_ilp64.a /opt/intel/mkl/lib/intel64/libmkl_intel_thread.a /opt/intel/mkl/lib/intel64/libmkl_core.a -Wl,-_end-group
 id        : olemiss

 Nodes     nprocs
 cn050        1

 Using customized tuning parameters: mindgm=1; mindgv=20; mindgc=4; mindgr=1; noblas=0; minvec=7
 default implementation of scratch files=df  

 ***,hno CCSD(T)/TZ-F12 QFF
 memory, 995, m;
 gthresh,energy=1.d-12,zero=1.d-22,oneint=1.d-22,twoint=1.d-22;
 gthresh,optgrad=1.d-8,optstep=1.d-8;
 nocompress;
 geomtyp=xyz
 bohr
 geometry={
 3
        109       109
 H        0.0000000000        1.6732280939       -1.9406780253
 N        0.0000000000       -0.1618369187       -1.1516517185
 O        0.0000000000        0.0303766148        1.1417401528
 }
 
 basis={
 default=aug-cc-pvtz
 s,C,8236.0,1235.0,280.8, 79.27,25.59, 8.997,3.319
 s,C,0.9059,0.3643,0.1285000
 p,C,56.0,18.71,4.133,0.2827,0.3827,0.1209
 d,C,30.0,10.0,3.3,1.097,0.318
 f,C,7.0,2.3,0.7610
 s,N,11420.0,1712.0,389.3,110.0,35.57,12.54,4.644
 s,N,1.293,0.5118,0.1787
 p,N,79.89,26.63,5.948,1.742,0.555,0.1725
 d,N,45.0,15.0,5.0,1.654,0.469
 f,N,9.9,3.3,1.093
 s,O,15330.0,2299.0,522.4,147.3,47.55,16.76,6.207
 s,O,1.752,0.6882,0.2384
 p,O,103.5,34.46,7.749,2.28,0.7156,0.214
 d,O,63.0,21.0,7.0,2.314,0.645
 f,O,12.9,4.3,1.428
 s,mg,164900.0,24710.0,5628.0,1596.0,521.0;
 s,mg,188.0,73.01,29.90,12.54,4.306,1.826;
 s,mg,0.7417,0.0761,0.145,0.033,0.0129;
 p,mg,950.70,316.90,74.86,23.72,8.669,3.363;
 p,mg,1.310,0.4911,0.2364,0.08733,0.03237,0.00745;
 d,mg,1.601,0.686,0.126,0.294,0.0468;
 f,mg,1.372,0.588,0.094,0.252;
 }
   {hf,maxit=500;accu,20;}
 {ccsd(t),nocheck,maxit=250;orbital,IGNORE_ERROR;core}

 Variables initialized (889), CPU time= 0.00 sec
 Commands  initialized (702), CPU time= 0.01 sec, 572 directives.
 Default parameters read. Elapsed time= 0.05 sec

 Checking input...
 Passed
1


                                         ***  PROGRAM SYSTEM MOLPRO  ***
                                       Copyright, TTI GmbH Stuttgart, 2015
                                    Version 2015.1 linked Jul  9 2018 13:16:40


 **********************************************************************************************************************************
 LABEL *   hno CCSD(T)/TZ-F12 QFF                                                        
  64 bit serial version                                                                  DATE: 04-Mar-20          TIME: 13:50:17  
 **********************************************************************************************************************************

 SHA1:             d5ffa45e93fdbca01ffc919aa182cfdae0147319
 **********************************************************************************************************************************

 THRESHOLDS:

 ZERO    =  1.00D-22  ONEINT  =  1.00D-22  TWOINT  =  1.00D-22  PREFAC  =  1.00D-14  LOCALI  =  1.00D-09  EORDER  =  1.00D-04
 ENERGY  =  1.00D-12  ETEST   =  0.00D+00  EDENS   =  0.00D+00  THRDEDEF=  1.00D-06  GRADIENT=  1.00D-02  STEP    =  1.00D-03
 ORBITAL =  1.00D-05  CIVEC   =  1.00D-05  COEFF   =  1.00D-04  PRINTCI =  5.00D-02  PUNCHCI =  9.90D+01  OPTGRAD =  3.00D-04
 OPTENERG=  1.00D-06  OPTSTEP =  3.00D-04  THRGRAD =  1.00D-10  COMPRESS=  1.00D-11  VARMIN  =  1.00D-07  VARMAX  =  1.00D-03
 THRDOUB =  0.00D+00  THRDIV  =  1.00D-05  THRRED  =  1.00D-07  THRPSP  =  1.00D+00  THRDC   =  1.00D-10  THRCS   =  1.00D-10
 THRNRM  =  1.00D-08  THREQ   =  0.00D+00  THRDE   =  1.00D+00  THRREF  =  1.00D-05  SPARFAC =  1.00D+00  THRDLP  =  1.00D-07
 THRDIA  =  1.00D-10  THRDLS  =  1.00D-07  THRGPS  =  0.00D+00  THRKEX  =  0.00D+00  THRDIS  =  2.00D-01  THRVAR  =  1.00D-10
 THRLOC  =  1.00D-06  THRGAP  =  1.00D-06  THRLOCT = -1.00D+00  THRGAPT = -1.00D+00  THRORB  =  1.00D-06  THRMLTP =  0.00D+00
 THRCPQCI=  1.00D-10  KEXTA   =  0.00D+00  THRCOARS=  0.00D+00  SYMTOL  =  1.00D-06  GRADTOL =  1.00D-06  THROVL  =  1.00D-08
 THRORTH =  1.00D-08  GRID    =  1.00D-06  GRIDMAX =  1.00D-03  DTMAX   =  0.00D+00  THROCCDE=  1.00D-01  THROCCDE=  1.00D-01



 THRESHOLDS:

 ZERO    =  1.00D-22  ONEINT  =  1.00D-22  TWOINT  =  1.00D-22  PREFAC  =  1.00D-14  LOCALI  =  1.00D-09  EORDER  =  1.00D-04
 ENERGY  =  1.00D-12  ETEST   =  0.00D+00  EDENS   =  0.00D+00  THRDEDEF=  1.00D-06  GRADIENT=  1.00D-02  STEP    =  1.00D-03
 ORBITAL =  1.00D-05  CIVEC   =  1.00D-05  COEFF   =  1.00D-04  PRINTCI =  5.00D-02  PUNCHCI =  9.90D+01  OPTGRAD =  1.00D-08
 OPTENERG=  1.00D-06  OPTSTEP =  1.00D-08  THRGRAD =  1.00D-10  COMPRESS=  1.00D-11  VARMIN  =  1.00D-07  VARMAX  =  1.00D-03
 THRDOUB =  0.00D+00  THRDIV  =  1.00D-05  THRRED  =  1.00D-07  THRPSP  =  1.00D+00  THRDC   =  1.00D-10  THRCS   =  1.00D-10
 THRNRM  =  1.00D-08  THREQ   =  0.00D+00  THRDE   =  1.00D+00  THRREF  =  1.00D-05  SPARFAC =  1.00D+00  THRDLP  =  1.00D-07
 THRDIA  =  1.00D-10  THRDLS  =  1.00D-07  THRGPS  =  0.00D+00  THRKEX  =  0.00D+00  THRDIS  =  2.00D-01  THRVAR  =  1.00D-10
 THRLOC  =  1.00D-06  THRGAP  =  1.00D-06  THRLOCT = -1.00D+00  THRGAPT = -1.00D+00  THRORB  =  1.00D-06  THRMLTP =  0.00D+00
 THRCPQCI=  1.00D-10  KEXTA   =  0.00D+00  THRCOARS=  0.00D+00  SYMTOL  =  1.00D-06  GRADTOL =  1.00D-06  THROVL  =  1.00D-08
 THRORTH =  1.00D-08  GRID    =  1.00D-06  GRIDMAX =  1.00D-03  DTMAX   =  0.00D+00  THROCCDE=  1.00D-01  THROCCDE=  1.00D-01



 Input parameters for SORTINT:

 COMPRESS =    0.000000
 C_FINAL  =    1.000000
 DEBUG    =   -1.000000
 C_SORT1  =    0.000000
 C_SEWARD =    0.000000
 THRESH   =    0.000000
 IO       =  molpro                                                          
 SPRI     =    0.000000
 SETTING GEOMTYP        =    XYZ
 ZUNIT=BOHR
 

 Variable memory set to  995000000 words,  buffer space   230000 words

 SETTING BASIS          =    USERDEF


 Recomputing integrals since basis changed


 Using spherical harmonics

 Library entry H      S aug-cc-pVTZ          selected for orbital group  1
 Library entry H      P aug-cc-pVTZ          selected for orbital group  1
 Library entry H      D aug-cc-pVTZ          selected for orbital group  1


 PROGRAM * SEWARD (Integral evaluation for generally contracted gaussian basis sets)     Author: Roland Lindh, 1990

 Geometry written to block  1 of record 700


 Point group  Cs  



 ATOMIC COORDINATES

 NR  ATOM    CHARGE       X              Y              Z

   1  H       1.00    0.000000000    1.673228094   -1.940678025
   2  N       7.00    0.000000000   -0.161836919   -1.151651718
   3  O       8.00    0.000000000    0.030376615    1.141740153

 Bond lengths in Bohr (Angstrom)

 1-2  1.997504972  2-3  2.301432666
     ( 1.057034110)     ( 1.217865720)

 Bond angles

  1-2-3  108.47547239

 NUCLEAR CHARGE:                   16
 NUMBER OF PRIMITIVE AOS:         203
 NUMBER OF SYMMETRY AOS:          173
 NUMBER OF CONTRACTIONS:          171   ( 114A'  +  57A"  )
 NUMBER OF CORE ORBITALS:           2   (   2A'  +   0A"  )
 NUMBER OF VALENCE ORBITALS:        9   (   7A'  +   2A"  )


 NUCLEAR REPULSION ENERGY   30.12740973


 Eigenvalues of metric

         1 0.107E-02 0.258E-02 0.340E-02 0.644E-02 0.100E-01 0.138E-01 0.146E-01 0.234E-01
         2 0.370E-01 0.546E-01 0.707E-01 0.943E-01 0.132E+00 0.135E+00 0.141E+00 0.142E+00


 Contracted 2-electron integrals neglected if value below      1.0D-22

       46095702. INTEGRALS WRITTEN OUT IN   11257 BLOCKS ON RECORD 1290 OF FILE 1


 NUMBER OF SORTED TWO-ELECTRON INTEGRALS:   55360566.     BUFFER LENGTH:  32768
 NUMBER OF SEGMENTS:   4  SEGMENT LENGTH:   15997996      RECORD LENGTH: 524288

 Memory used in sort:      16.56 MW

 SORT1 READ    46095702. AND WROTE    46532631. INTEGRALS IN    135 RECORDS. CPU TIME:     1.62 SEC, REAL TIME:     2.02 SEC
 SORT2 READ    46532631. AND WROTE    55360566. INTEGRALS IN      4 RECORDS. CPU TIME:     0.95 SEC, REAL TIME:     1.20 SEC

 FILE SIZES:   FILE 1:   758.5 MBYTE,  FILE 4:   566.3 MBYTE,   TOTAL:   1324.7 MBYTE

 OPERATOR DM      FOR CENTER  0  COORDINATES:    0.000000    0.000000    0.000000


 **********************************************************************************************************************************
 DATASETS  * FILE   NREC   LENGTH (MB)   RECORD NAMES
              1      19      420.90       500      610      700      900      950      970     1000      129      960     1100   
                                          VAR    BASINP    GEOM    SYMINP    ZMAT    AOBASIS   BASIS     P2S    ABASIS      S 
                                         1400     1410     1200     1210     1080     1600     1650     1300     1700   
                                           T        V       H0       H01     AOSYM     SMH    MOLCAS    ERIS     OPER   

 PROGRAMS   *        TOTAL       INT
 CPU TIMES  *         7.00      6.89
 REAL TIME  *         8.84 SEC
 DISK USED  *         1.33 GB      
 **********************************************************************************************************************************


 PROGRAM * RHF-SCF (CLOSED SHELL)       Authors: W. Meyer, H.-J. Werner


 NUMBER OF ELECTRONS:       8+    8-
 CONVERGENCE THRESHOLDS:    1.00E-10 (Density)    1.00E-13 (Energy)
 MAX. NUMBER OF ITERATIONS:      500
 INTERPOLATION TYPE:            DIIS
 INTERPOLATION STEPS:              2 (START)      1 (STEP)
 LEVEL SHIFTS:                  0.00 (CLOSED)  0.00 (OPEN) 



 Orbital guess generated from atomic densities. Full valence occupancy:    9   2

 Molecular orbital dump at record        2100.2

 Initial occupancy:   7   1

 ITERATION    DDIFF          GRAD             ENERGY        2-EL.EN.            DIPOLE MOMENTS         DIIS   ORB.
    1      0.000D+00      0.000D+00      -129.78585681    153.625230    0.00000    0.57338   -1.04713    0    start
    2      0.000D+00      0.890D-02      -129.81238811    154.785561    0.00000    0.60328   -0.18946    1    diag
    3      0.369D-02      0.693D-02      -129.83709975    154.926782    0.00000    0.55067   -0.59865    2    diag
    4      0.146D-02      0.105D-02      -129.83790522    154.644268    0.00000    0.55836   -0.53448    3    diag
    5      0.334D-03      0.342D-03      -129.83803012    154.733686    0.00000    0.56448   -0.53677    4    diag
    6      0.154D-03      0.101D-03      -129.83805062    154.717394    0.00000    0.56500   -0.53245    5    diag
    7      0.613D-04      0.510D-04      -129.83805681    154.719857    0.00000    0.56632   -0.52980    6    diag
    8      0.419D-04      0.180D-04      -129.83805754    154.718981    0.00000    0.56638   -0.52882    7    diag
    9      0.153D-04      0.341D-05      -129.83805757    154.718856    0.00000    0.56632   -0.52861    8    diag
   10      0.318D-05      0.762D-06      -129.83805757    154.718841    0.00000    0.56629   -0.52859    9    orth
   11      0.898D-06      0.150D-06      -129.83805757    154.718836    0.00000    0.56628   -0.52858    9    diag
   12      0.210D-06      0.319D-07      -129.83805757    154.718836    0.00000    0.56628   -0.52858    9    diag
   13      0.519D-07      0.865D-08      -129.83805757    154.718835    0.00000    0.56628   -0.52858    9    diag
   14      0.122D-07      0.151D-08      -129.83805757    154.718835    0.00000    0.56628   -0.52858    9    diag
   15      0.146D-08      0.399D-09      -129.83805757    154.718835    0.00000    0.56628   -0.52858    9    diag
   16      0.340D-09      0.114D-09      -129.83805757    154.718835    0.00000    0.56628   -0.52858    9    diag
   17      0.663D-10      0.296D-10      -129.83805757    154.718835    0.00000    0.56628   -0.52858    0    orth

 Final occupancy:   7   1

 !RHF STATE 1.1 Energy               -129.838057570025
 Nuclear energy                        30.12740973
 One-electron energy                 -237.32488500
 Two-electron energy                   77.35941770
 Virial quotient                       -1.00198904
 !RHF STATE 1.1 Dipole moment           0.00000000     0.56627515    -0.52858227
 Dipole moment /Debye                   0.00000000     1.43923360    -1.34343412

 Orbital energies:

         1.1          2.1          3.1          4.1          5.1          6.1          7.1          8.1          9.1
    -20.652353   -15.712887    -1.519791    -0.994128    -0.741615    -0.661427    -0.431240     0.039490     0.191809

         1.2          2.2          3.2
     -0.589583     0.075585     0.239193

 HOMO      7.1    -0.431240 =     -11.7346eV
 LUMO      8.1     0.039490 =       1.0746eV
 LUMO-HOMO         0.470730 =      12.8092eV


 **********************************************************************************************************************************
 DATASETS  * FILE   NREC   LENGTH (MB)   RECORD NAMES
              1      19      420.90       500      610      700      900      950      970     1000      129      960     1100   
                                          VAR    BASINP    GEOM    SYMINP    ZMAT    AOBASIS   BASIS     P2S    ABASIS      S 
                                         1400     1410     1200     1210     1080     1600     1650     1300     1700   
                                           T        V       H0       H01     AOSYM     SMH    MOLCAS    ERIS     OPER   

              2       4        3.13       700     1000      520     2100   
                                         GEOM     BASIS   MCVARS     RHF  

 PROGRAMS   *        TOTAL        HF       INT
 CPU TIMES  *        13.62      6.62      6.89
 REAL TIME  *        16.81 SEC
 DISK USED  *         1.33 GB      
 **********************************************************************************************************************************


 PROGRAM * CCSD (Closed-shell coupled cluster)     Authors: C. Hampel, H.-J. Werner, 1991, M. Deegan, P.J. Knowles, 1992


 Convergence thresholds:  THRVAR = 1.00D-08  THRDEN = 1.00D-12

 CCSD(T)     terms to be evaluated (factor= 1.000)


 Number of closed-shell orbitals:   8 (   7   1 )
 Number of external orbitals:     163 ( 107  56 )

 Molecular orbitals read from record     2100.2  Type=RHF/CANONICAL (state 1.1)

 Number of N-1 electron functions:               8
 Number of N-2 electron functions:              36
 Number of singly external CSFs:               805
 Number of doubly external CSFs:            449165
 Total number of CSFs:                      449971

 Length of J-op  integral file:               0.00 MB
 Length of K-op  integral file:               1.15 MB
 Length of 3-ext integral record:             0.00 MB

 Memory could be reduced to 24.90 Mwords without degradation in triples

 Integral transformation finished. Total CPU:   1.44 sec, npass=  1  Memory used:   6.89 MW

 Reference energy:                   -129.83805757

 MP2 singlet pair energy:              -0.38004195
 MP2 triplet pair energy:              -0.18731275
 MP2 correlation energy:               -0.56735470
 MP2 total energy:                   -130.40541227

 SCS-MP2 correlation energy:           -0.57260050   (PS=  1.200000  PT=  0.333333)
 SCS-MP2 total energy:               -130.41065807

 ITER.      SQ.NORM     CORR.ENERGY   TOTAL ENERGY   ENERGY CHANGE        DEN1      VAR(S)    VAR(P)  DIIS     TIME  TIME/IT
   1      1.12099772    -0.57169973  -130.40975730    -0.00434503     0.01386519  0.35D-02  0.32D-02  1  1     3.01     1.61
   2      1.13218095    -0.57130504  -130.40936261     0.00039470    -0.01402291  0.96D-04  0.52D-03  2  2     4.57     1.66
   3      1.13761755    -0.57164667  -130.40970424    -0.00034163    -0.00240448  0.59D-04  0.72D-04  3  3     6.17     1.68
   4      1.14120470    -0.57163889  -130.40969646     0.00000778    -0.00142812  0.50D-05  0.10D-04  4  4     7.78     1.68
   5      1.14233401    -0.57166469  -130.40972226    -0.00002580    -0.00026704  0.17D-05  0.19D-05  5  5     9.36     1.69
   6      1.14276997    -0.57165803  -130.40971560     0.00000666    -0.00004253  0.15D-06  0.42D-06  6  6    10.96     1.70
   7      1.14285625    -0.57165834  -130.40971591    -0.00000031     0.00000094  0.21D-07  0.97D-07  6  1    12.55     1.70
   8      1.14289125    -0.57165645  -130.40971402     0.00000189    -0.00000500  0.40D-08  0.15D-07  6  2    14.17     1.70
   9      1.14289622    -0.57165650  -130.40971407    -0.00000004     0.00000127  0.18D-08  0.20D-08  6  3    15.73     1.70
  10      1.14289810    -0.57165681  -130.40971438    -0.00000031    -0.00000074  0.44D-09  0.28D-09  6  4    17.31     1.70
  11      1.14289712    -0.57165695  -130.40971452    -0.00000014     0.00000035  0.11D-09  0.29D-10  6  5    18.88     1.70
  12      1.14289620    -0.57165710  -130.40971467    -0.00000014     0.00000036  0.12D-10  0.73D-11  6  6    20.48     1.70
  13      1.14289565    -0.57165711  -130.40971468    -0.00000001     0.00000011  0.47D-11  0.13D-11  6  1    22.06     1.70
  14      1.14289518    -0.57165714  -130.40971471    -0.00000003     0.00000011  0.47D-12  0.45D-12  6  3    23.66     1.70
  15      1.14289500    -0.57165714  -130.40971471    -0.00000000     0.00000002  0.12D-12  0.31D-13  6  2    25.21     1.70
  16      1.14289494    -0.57165714  -130.40971471    -0.00000000     0.00000001  0.26D-13  0.67D-14  6  4    26.82     1.70
  17      1.14289492    -0.57165714  -130.40971471    -0.00000000     0.00000001  0.49D-14  0.12D-14  6  5    28.42     1.70
  18      1.14289491    -0.57165714  -130.40971471    -0.00000000     0.00000000  0.53D-15  0.32D-15  6  6    30.02     1.71
  19      1.14289492    -0.57165714  -130.40971471     0.00000000    -0.00000000  0.68D-16  0.48D-16  6  1    31.66     1.71
  20      1.14289492    -0.57165714  -130.40971471     0.00000000    -0.00000000  0.29D-17  0.11D-16  6  3    33.26     1.71
  21      1.14289492    -0.57165714  -130.40971471     0.00000000    -0.00000000  0.15D-17  0.28D-17  6  2    34.83     1.71
  22      1.14289492    -0.57165714  -130.40971471     0.00000000    -0.00000000  0.31D-18  0.10D-17  6  4    36.41     1.71
  23      1.14289492    -0.57165714  -130.40971471    -0.00000000     0.00000000  0.17D-18  0.14D-18  6  5    38.00     1.71
  24      1.14289492    -0.57165714  -130.40971471     0.00000000    -0.00000000  0.67D-20  0.18D-19  6  1    39.61     1.71
  25      1.14289492    -0.57165714  -130.40971471     0.00000000     0.00000000  0.42D-21  0.17D-20  6  6    41.19     1.71
  26      1.14289492    -0.57165714  -130.40971471    -0.00000000     0.00000000  0.13D-21  0.39D-21  6  3    42.77     1.71

 Norm of t1 vector:      0.07961020      S-energy:     0.00000000      T1 diagnostic:  0.01407323
                                                                       D1 diagnostic:  0.04538821

 Doubles amplitudes (print threshold =  0.500E-01):

         I         J         SYM. A    SYM. B    A         B      T(IJ, AB)

         8         8         2         2         1         1     -0.13747120


 Total CPU time for triples:     24.57 sec


 RESULTS
 =======

  Reference energy                   -129.838057570025

  Correlated core orbitals:             1.1       2.1
  Orbital energies:                   -20.6524  -15.7129
 
  CCSD core-core energy                -0.079238916972
  CCSD core-valence energy             -0.036002776277
  CCSD valence correlation energy      -0.456415448445
 
  CCSD singlet pair energy             -0.409072041738
  CCSD triplet pair energy             -0.162585099966
  CCSD correlation energy              -0.571657141694

  Triples (T) contribution             -0.022638668554
  Total correlation energy             -0.594295810248

  CCSD total energy                  -130.409714711720
  CCSD[T] energy                     -130.433578082976
  CCSD-T energy                      -130.431898435877
 !CCSD(T) total energy               -130.432353380273

 Timing summary (sec):

 STEP                 CPU(USER)    SYS     CPU(TOT)    WALL
 Transformation          1.47      0.18      1.65      1.65
 CCSD iterations        41.31      3.09     44.40     44.41
 Triples                24.57      0.68     25.25     25.26

 Program statistics:

 Available memory in ccsd:               994999644
 Min. memory needed in ccsd:               1368037
 Max. memory used in ccsd:                 1750502
 Max. memory used in cckext:               2014357 (26 integral passes)



 **********************************************************************************************************************************
 DATASETS  * FILE   NREC   LENGTH (MB)   RECORD NAMES
              1      20      499.81       500      610      700      900      950      970     1000      129      960     1100   
                                          VAR    BASINP    GEOM    SYMINP    ZMAT    AOBASIS   BASIS     P2S    ABASIS      S 
                                         1400     1410     1200     1210     1080     1600     1650     1300     1700     1380   
                                           T        V       H0       H01     AOSYM     SMH    MOLCAS    ERIS     OPER     JKOP   

              2       4        3.13       700     1000      520     2100   
                                         GEOM     BASIS   MCVARS     RHF  

 PROGRAMS   *        TOTAL   CCSD(T)        HF       INT
 CPU TIMES  *        81.01     67.38      6.62      6.89
 REAL TIME  *        88.17 SEC
 DISK USED  *         1.33 GB      
 **********************************************************************************************************************************

 CCSD(T)/USERDEF energy=   -130.432353380273

        CCSD(T)         HF-SCF  
   -130.43235338   -129.83805757
 **********************************************************************************************************************************
 Molpro calculation terminated
 Variable memory released
