
 Primary working directories    : /tmp/r2666/232446.maple
 Secondary working directories  : /tmp/r2666/232446.maple
 Wavefunction directory         : /ddn/home4/r2666/wfu/
 Main file repository           : /tmp/r2666/232446.maple/

 SHA1      : d5ffa45e93fdbca01ffc919aa182cfdae0147319
 NAME      : 2015.1.35
 ARCHNAME  : linux/x86_64
 FC        : /opt/intel/composer_xe_2015.1.133/bin/intel64/ifort
 BLASLIB   : -Wl,-_start-group /opt/intel/mkl/lib/intel64/libmkl_intel_ilp64.a /opt/intel/mkl/lib/intel64/libmkl_intel_thread.a /opt/intel/mkl/lib/intel64/libmkl_core.a -Wl,-_end-group
 id        : olemiss

 Nodes     nprocs
 cn078        1

 Using customized tuning parameters: mindgm=1; mindgv=20; mindgc=4; mindgr=1; noblas=0; minvec=7
 default implementation of scratch files=df  

 ***,hcn CCSD(T)/TZ-F12 QFF
 memory, 995, m;
 gthresh,energy=1.d-12,zero=1.d-22,oneint=1.d-22,twoint=1.d-22;
 gthresh,optgrad=1.d-8,optstep=1.d-8;
 nocompress;
 geomtyp=xyz
 bohr
 geometry={
 3
         55        55
 N        0.0000000000        0.0000000000        1.1498977375
 C        0.0000000000        0.0000000000       -1.0667464493
 H        0.0000000000        0.0000000000       -3.0802212703
 }
 
 basis=av5z
   {hf,maxit=500;accu,20;}
 {ccsd(t),nocheck,maxit=250;orbital,IGNORE_ERROR;}

 Variables initialized (889), CPU time= 0.01 sec
 Commands  initialized (702), CPU time= 0.01 sec, 572 directives.
 Default parameters read. Elapsed time= 0.04 sec

 Checking input...
 Passed
1


                                         ***  PROGRAM SYSTEM MOLPRO  ***
                                       Copyright, TTI GmbH Stuttgart, 2015
                                    Version 2015.1 linked Jul  9 2018 13:16:40


 **********************************************************************************************************************************
 LABEL *   hcn CCSD(T)/TZ-F12 QFF                                                        
  64 bit serial version                                                                  DATE: 06-Feb-20          TIME: 09:49:40  
 **********************************************************************************************************************************

 SHA1:             d5ffa45e93fdbca01ffc919aa182cfdae0147319
 **********************************************************************************************************************************

 THRESHOLDS:

 ZERO    =  1.00D-22  ONEINT  =  1.00D-22  TWOINT  =  1.00D-22  PREFAC  =  1.00D-14  LOCALI  =  1.00D-09  EORDER  =  1.00D-04
 ENERGY  =  1.00D-12  ETEST   =  0.00D+00  EDENS   =  0.00D+00  THRDEDEF=  1.00D-06  GRADIENT=  1.00D-02  STEP    =  1.00D-03
 ORBITAL =  1.00D-05  CIVEC   =  1.00D-05  COEFF   =  1.00D-04  PRINTCI =  5.00D-02  PUNCHCI =  9.90D+01  OPTGRAD =  3.00D-04
 OPTENERG=  1.00D-06  OPTSTEP =  3.00D-04  THRGRAD =  1.00D-10  COMPRESS=  1.00D-11  VARMIN  =  1.00D-07  VARMAX  =  1.00D-03
 THRDOUB =  0.00D+00  THRDIV  =  1.00D-05  THRRED  =  1.00D-07  THRPSP  =  1.00D+00  THRDC   =  1.00D-10  THRCS   =  1.00D-10
 THRNRM  =  1.00D-08  THREQ   =  0.00D+00  THRDE   =  1.00D+00  THRREF  =  1.00D-05  SPARFAC =  1.00D+00  THRDLP  =  1.00D-07
 THRDIA  =  1.00D-10  THRDLS  =  1.00D-07  THRGPS  =  0.00D+00  THRKEX  =  0.00D+00  THRDIS  =  2.00D-01  THRVAR  =  1.00D-10
 THRLOC  =  1.00D-06  THRGAP  =  1.00D-06  THRLOCT = -1.00D+00  THRGAPT = -1.00D+00  THRORB  =  1.00D-06  THRMLTP =  0.00D+00
 THRCPQCI=  1.00D-10  KEXTA   =  0.00D+00  THRCOARS=  0.00D+00  SYMTOL  =  1.00D-06  GRADTOL =  1.00D-06  THROVL  =  1.00D-08
 THRORTH =  1.00D-08  GRID    =  1.00D-06  GRIDMAX =  1.00D-03  DTMAX   =  0.00D+00  THROCCDE=  1.00D-01  THROCCDE=  1.00D-01



 THRESHOLDS:

 ZERO    =  1.00D-22  ONEINT  =  1.00D-22  TWOINT  =  1.00D-22  PREFAC  =  1.00D-14  LOCALI  =  1.00D-09  EORDER  =  1.00D-04
 ENERGY  =  1.00D-12  ETEST   =  0.00D+00  EDENS   =  0.00D+00  THRDEDEF=  1.00D-06  GRADIENT=  1.00D-02  STEP    =  1.00D-03
 ORBITAL =  1.00D-05  CIVEC   =  1.00D-05  COEFF   =  1.00D-04  PRINTCI =  5.00D-02  PUNCHCI =  9.90D+01  OPTGRAD =  1.00D-08
 OPTENERG=  1.00D-06  OPTSTEP =  1.00D-08  THRGRAD =  1.00D-10  COMPRESS=  1.00D-11  VARMIN  =  1.00D-07  VARMAX  =  1.00D-03
 THRDOUB =  0.00D+00  THRDIV  =  1.00D-05  THRRED  =  1.00D-07  THRPSP  =  1.00D+00  THRDC   =  1.00D-10  THRCS   =  1.00D-10
 THRNRM  =  1.00D-08  THREQ   =  0.00D+00  THRDE   =  1.00D+00  THRREF  =  1.00D-05  SPARFAC =  1.00D+00  THRDLP  =  1.00D-07
 THRDIA  =  1.00D-10  THRDLS  =  1.00D-07  THRGPS  =  0.00D+00  THRKEX  =  0.00D+00  THRDIS  =  2.00D-01  THRVAR  =  1.00D-10
 THRLOC  =  1.00D-06  THRGAP  =  1.00D-06  THRLOCT = -1.00D+00  THRGAPT = -1.00D+00  THRORB  =  1.00D-06  THRMLTP =  0.00D+00
 THRCPQCI=  1.00D-10  KEXTA   =  0.00D+00  THRCOARS=  0.00D+00  SYMTOL  =  1.00D-06  GRADTOL =  1.00D-06  THROVL  =  1.00D-08
 THRORTH =  1.00D-08  GRID    =  1.00D-06  GRIDMAX =  1.00D-03  DTMAX   =  0.00D+00  THROCCDE=  1.00D-01  THROCCDE=  1.00D-01



 Input parameters for SORTINT:

 COMPRESS =    0.000000
 C_FINAL  =    1.000000
 DEBUG    =   -1.000000
 C_SORT1  =    0.000000
 C_SEWARD =    0.000000
 THRESH   =    0.000000
 IO       =  molpro                                                          
 SPRI     =    0.000000
 SETTING GEOMTYP        =    XYZ
 ZUNIT=BOHR
 

 Variable memory set to  995000000 words,  buffer space   230000 words

 SETTING BASIS          =    AV5Z


 Recomputing integrals since basis changed


 Using spherical harmonics

 Library entry N      S aug-cc-pV5Z          selected for orbital group  1
 Library entry N      P aug-cc-pV5Z          selected for orbital group  1
 Library entry N      D aug-cc-pV5Z          selected for orbital group  1
 Library entry N      F aug-cc-pV5Z          selected for orbital group  1
 Library entry N      G aug-cc-pV5Z          selected for orbital group  1
 Library entry N      H aug-cc-pV5Z          selected for orbital group  1
 Library entry C      S aug-cc-pV5Z          selected for orbital group  2
 Library entry C      P aug-cc-pV5Z          selected for orbital group  2
 Library entry C      D aug-cc-pV5Z          selected for orbital group  2
 Library entry C      F aug-cc-pV5Z          selected for orbital group  2
 Library entry C      G aug-cc-pV5Z          selected for orbital group  2
 Library entry C      H aug-cc-pV5Z          selected for orbital group  2
 Library entry H      S aug-cc-pV5Z          selected for orbital group  3
 Library entry H      P aug-cc-pV5Z          selected for orbital group  3
 Library entry H      D aug-cc-pV5Z          selected for orbital group  3
 Library entry H      F aug-cc-pV5Z          selected for orbital group  3
 Library entry H      G aug-cc-pV5Z          selected for orbital group  3


 PROGRAM * SEWARD (Integral evaluation for generally contracted gaussian basis sets)     Author: Roland Lindh, 1990

 Geometry written to block  1 of record 700


 Point group  C2v 



 ATOMIC COORDINATES

 NR  ATOM    CHARGE       X              Y              Z

   1  N       7.00    0.000000000    0.000000000    1.149897737
   2  C       6.00    0.000000000    0.000000000   -1.066746449
   3  H       1.00    0.000000000    0.000000000   -3.080221270

 Bond lengths in Bohr (Angstrom)

 1-2  2.216644187  2-3  2.013474821
     ( 1.172997588)     ( 1.065484990)

 Bond angles

  1-2-3  180.00000000

 NUCLEAR CHARGE:                   14
 NUMBER OF PRIMITIVE AOS:         506
 NUMBER OF SYMMETRY AOS:          371
 NUMBER OF CONTRACTIONS:          334   ( 123A1  +  81B1  +  81B2  +  49A2  )
 NUMBER OF CORE ORBITALS:           2   (   2A1  +   0B1  +   0B2  +   0A2  )
 NUMBER OF VALENCE ORBITALS:        9   (   5A1  +   2B1  +   2B2  +   0A2  )


 NUCLEAR REPULSION ENERGY   23.58228339

 EXTRA SYMMETRY OF AOS IN SYMMETRY 1:   1 1 1 1 1 1 1 1 1 1   1 1 1 1 2 1 2 1 2 1   2 1 2 1 2 1 2 1 2 1   2 1 3 2 1 3 2 1 3 2
                                        2 3 1 2 3 1 1 1 1 1   1 1 1 1 1 1 1 1 1 1   2 1 2 1 2 1 2 1 2 1   2 1 2 1 2 1 2 1 3 2
                                        1 3 2 1 3 2 2 3 1 2   3 1 1 1 1 1 1 1 1 1   1 1 1 1 2 1 2 1 2 1   2 1 2 1 2 1 2 1 3 2
                                        1 3 2
 EXTRA SYMMETRY OF AOS IN SYMMETRY 2:   1 1 1 1 1 1 1 1 1 1   1 1 2 1 2 1 2 1 2 1   2 1 2 1 2 1 2 3 1 2   3 1 1 1 1 1 1 1 1 1
                                        1 1 1 2 1 2 1 2 1 2   1 2 1 2 1 2 1 2 3 1   2 3 1 1 1 1 1 1 1 1   1 1 2 1 2 1 2 1 2 1
                                        2
 EXTRA SYMMETRY OF AOS IN SYMMETRY 3:   1 1 1 1 1 1 1 1 1 1   1 1 2 1 2 1 2 1 2 1   2 1 2 1 2 1 2 3 1 2   3 1 1 1 1 1 1 1 1 1
                                        1 1 1 2 1 2 1 2 1 2   1 2 1 2 1 2 1 2 3 1   2 3 1 1 1 1 1 1 1 1   1 1 2 1 2 1 2 1 2 1
                                        2
 EXTRA SYMMETRY OF AOS IN SYMMETRY 4:   1 1 1 1 1 1 1 1 1 1   2 1 2 1 2 2 1 2 1 1   1 1 1 1 1 1 1 1 1 2   1 2 1 2 2 1 2 1 1 1
                                        1 1 1 1 1 1 2 1 2

 Eigenvalues of metric

         1 0.268E-05 0.574E-05 0.150E-04 0.361E-04 0.604E-04 0.710E-04 0.184E-03 0.229E-03
         2 0.604E-04 0.187E-03 0.387E-03 0.723E-03 0.954E-03 0.155E-02 0.192E-02 0.378E-02
         3 0.604E-04 0.187E-03 0.387E-03 0.723E-03 0.954E-03 0.155E-02 0.192E-02 0.378E-02
         4 0.818E-03 0.221E-02 0.515E-02 0.713E-02 0.178E-01 0.242E-01 0.266E-01 0.645E-01


 Contracted 2-electron integrals neglected if value below      1.0D-22

      355067105. INTEGRALS WRITTEN OUT IN   86708 BLOCKS ON RECORD 1290 OF FILE 1


 NUMBER OF SORTED TWO-ELECTRON INTEGRALS:  396972178.     BUFFER LENGTH:  32768
 NUMBER OF SEGMENTS:  13  SEGMENT LENGTH:   31999071      RECORD LENGTH: 524288

 Memory used in sort:      32.56 MW

 SORT1 READ   355067105. AND WROTE   358239842. INTEGRALS IN   1031 RECORDS. CPU TIME:     9.46 SEC, REAL TIME:    11.95 SEC
 SORT2 READ   358239842. AND WROTE   396972178. INTEGRALS IN     13 RECORDS. CPU TIME:     5.05 SEC, REAL TIME:     6.79 SEC

 FILE SIZES:   FILE 1:  5704.8 MBYTE,  FILE 4:  4324.4 MBYTE,   TOTAL:  10029.2 MBYTE

 OPERATOR DM      FOR CENTER  0  COORDINATES:    0.000000    0.000000    0.000000


 **********************************************************************************************************************************
 DATASETS  * FILE   NREC   LENGTH (MB)   RECORD NAMES
              1      19     3078.64       500      610      700      900      950      970     1000      129      960     1100   
                                          VAR    BASINP    GEOM    SYMINP    ZMAT    AOBASIS   BASIS     P2S    ABASIS      S 
                                         1400     1410     1200     1210     1080     1600     1650     1300     1700   
                                           T        V       H0       H01     AOSYM     SMH    MOLCAS    ERIS     OPER   

 PROGRAMS   *        TOTAL       INT
 CPU TIMES  *        85.54     85.45
 REAL TIME  *        93.28 SEC
 DISK USED  *        10.03 GB      
 **********************************************************************************************************************************


 PROGRAM * RHF-SCF (CLOSED SHELL)       Authors: W. Meyer, H.-J. Werner


 NUMBER OF ELECTRONS:       7+    7-
 CONVERGENCE THRESHOLDS:    1.00E-10 (Density)    1.00E-13 (Energy)
 MAX. NUMBER OF ITERATIONS:      500
 INTERPOLATION TYPE:            DIIS
 INTERPOLATION STEPS:              2 (START)      1 (STEP)
 LEVEL SHIFTS:                  0.00 (CLOSED)  0.00 (OPEN) 



 Orbital guess generated from atomic densities. Full valence occupancy:    7   2   2   0

 Molecular orbital dump at record        2100.2

 Initial occupancy:   5   1   1   0

 ITERATION    DDIFF          GRAD             ENERGY        2-EL.EN.            DIPOLE MOMENTS         DIIS   ORB.
    1      0.000D+00      0.000D+00       -92.88723926    111.210112    0.00000    0.00000   -1.79890    0    start
    2      0.000D+00      0.560D-02       -92.89537566    110.449399    0.00000    0.00000   -0.87899    1    diag
    3      0.437D-02      0.513D-02       -92.91158754    110.980458    0.00000    0.00000   -1.31386    2    diag
    4      0.228D-02      0.433D-03       -92.91183052    110.929215    0.00000    0.00000   -1.30160    3    diag
    5      0.430D-03      0.989D-04       -92.91184522    110.944385    0.00000    0.00000   -1.30027    4    diag
    6      0.106D-03      0.272D-04       -92.91184635    110.938270    0.00000    0.00000   -1.30007    5    diag
    7      0.254D-04      0.982D-05       -92.91184645    110.939350    0.00000    0.00000   -1.30016    6    diag
    8      0.792D-05      0.210D-05       -92.91184645    110.939312    0.00000    0.00000   -1.30013    7    diag
    9      0.171D-05      0.243D-06       -92.91184645    110.939322    0.00000    0.00000   -1.30012    8    diag
   10      0.258D-06      0.293D-07       -92.91184645    110.939323    0.00000    0.00000   -1.30012    9    orth
   11      0.285D-07      0.406D-08       -92.91184645    110.939323    0.00000    0.00000   -1.30012    9    diag
   12      0.535D-08      0.389D-09       -92.91184645    110.939323    0.00000    0.00000   -1.30012    9    diag
   13      0.118D-08      0.332D-10       -92.91184645    110.939323    0.00000    0.00000   -1.30012    9    diag
   14      0.114D-09      0.872D-11       -92.91184645    110.939323    0.00000    0.00000   -1.30012    9    diag
   15      0.771D-10      0.162D-11       -92.91184645    110.939323    0.00000    0.00000   -1.30012    9    diag
   16      0.376D-10      0.687D-12       -92.91184645    110.939323    0.00000    0.00000   -1.30012    9    diag
   17      0.345D-10      0.583D-12       -92.91184645    110.939323    0.00000    0.00000   -1.30012    9    diag
   18      0.287D-10      0.332D-12       -92.91184645    110.939323    0.00000    0.00000   -1.30012    9    diag
   19      0.139D-10      0.430D-12       -92.91184645    110.939323    0.00000    0.00000   -1.30012    9    fixocc
   20      0.816D-11      0.552D-12       -92.91184645    110.939323    0.00000    0.00000   -1.30012    9    orth
   21      0.851D-12      0.518D-12       -92.91184645    110.939323    0.00000    0.00000   -1.30012    9    diag
   22      0.330D-11      0.415D-12       -92.91184645    110.939323    0.00000    0.00000   -1.30012    9    diag
   23      0.232D-11      0.397D-12       -92.91184645    110.939323    0.00000    0.00000   -1.30012    9    diag
   24      0.672D-11      0.457D-12       -92.91184645    110.939323    0.00000    0.00000   -1.30012    9    diag
   25      0.443D-11      0.304D-12       -92.91184645    110.939323    0.00000    0.00000   -1.30012    9    diag
   26      0.339D-11      0.424D-12       -92.91184645    110.939323    0.00000    0.00000   -1.30012    9    diag
   27      0.163D-11      0.388D-12       -92.91184645    110.939323    0.00000    0.00000   -1.30012    9    diag
   28      0.549D-11      0.286D-12       -92.91184645    110.939323    0.00000    0.00000   -1.30012    9    diag
   29      0.617D-12      0.349D-12       -92.91184645    110.939323    0.00000    0.00000   -1.30012    9    diag
   30      0.209D-11      0.522D-12       -92.91184645    110.939323    0.00000    0.00000   -1.30012    9    orth
   31      0.266D-11      0.465D-12       -92.91184645    110.939323    0.00000    0.00000   -1.30012    9    diag
   32      0.200D-11      0.397D-12       -92.91184645    110.939323    0.00000    0.00000   -1.30012    0    orth

 Final occupancy:   5   1   1   0

 !RHF STATE 1.1 Energy                -92.911846452537
 Nuclear energy                        23.58228339
 One-electron energy                 -171.96379129
 Two-electron energy                   55.46966145
 Virial quotient                       -1.00313624
 !RHF STATE 1.1 Dipole moment           0.00000000     0.00000000    -1.30012125
 Dipole moment /Debye                   0.00000000     0.00000000    -3.30436218

 Orbital energies:

         1.1          2.1          3.1          4.1          5.1          6.1          7.1
    -15.605094   -11.298218    -1.227143    -0.816227    -0.583299     0.017498     0.053172

         1.2          2.2          3.2
     -0.491126     0.052480     0.100989

         1.3          2.3          3.3
     -0.491126     0.052480     0.100989

         1.4          2.4
      0.202995     0.327433

 HOMO      1.2    -0.491126 =     -13.3642eV
 LUMO      6.1     0.017498 =       0.4761eV
 LUMO-HOMO         0.508624 =      13.8404eV


 **********************************************************************************************************************************
 DATASETS  * FILE   NREC   LENGTH (MB)   RECORD NAMES
              1      19     3078.64       500      610      700      900      950      970     1000      129      960     1100   
                                          VAR    BASINP    GEOM    SYMINP    ZMAT    AOBASIS   BASIS     P2S    ABASIS      S 
                                         1400     1410     1200     1210     1080     1600     1650     1300     1700   
                                           T        V       H0       H01     AOSYM     SMH    MOLCAS    ERIS     OPER   

              2       4        3.46       700     1000      520     2100   
                                         GEOM     BASIS   MCVARS     RHF  

 PROGRAMS   *        TOTAL        HF       INT
 CPU TIMES  *       121.53     35.99     85.45
 REAL TIME  *       137.56 SEC
 DISK USED  *        10.03 GB      
 **********************************************************************************************************************************


 PROGRAM * CCSD (Closed-shell coupled cluster)     Authors: C. Hampel, H.-J. Werner, 1991, M. Deegan, P.J. Knowles, 1992


 Convergence thresholds:  THRVAR = 1.00D-08  THRDEN = 1.00D-12

 CCSD(T)     terms to be evaluated (factor= 1.000)


 Number of core orbitals:           2 (   2   0   0   0 )
 Number of closed-shell orbitals:   5 (   3   1   1   0 )
 Number of external orbitals:     327 ( 118  80  80  49 )

 Molecular orbitals read from record     2100.2  Type=RHF/CANONICAL (state 1.1)

 Number of N-1 electron functions:               5
 Number of N-2 electron functions:              15
 Number of singly external CSFs:               514
 Number of doubly external CSFs:            345689
 Total number of CSFs:                      346204

 Length of J-op  integral file:               0.00 MB
 Length of K-op  integral file:               2.14 MB
 Length of 3-ext integral record:             0.00 MB

 Memory could be reduced to 68.09 Mwords without degradation in triples

 Integral transformation finished. Total CPU:   3.29 sec, npass=  1  Memory used:   7.20 MW

 Reference energy:                    -92.91184645

 MP2 singlet pair energy:              -0.24693971
 MP2 triplet pair energy:              -0.13466897
 MP2 correlation energy:               -0.38160868
 MP2 total energy:                    -93.29345513

 SCS-MP2 correlation energy:           -0.38012168   (PS=  1.200000  PT=  0.333333)
 SCS-MP2 total energy:                -93.29196813

 ITER.      SQ.NORM     CORR.ENERGY   TOTAL ENERGY   ENERGY CHANGE        DEN1      VAR(S)    VAR(P)  DIIS     TIME  TIME/IT
   1      1.11763243    -0.37684135   -93.28868780     0.00476733     0.01910265  0.29D-02  0.35D-02  1  1     6.10     3.25
   2      1.12736036    -0.37680358   -93.28865004     0.00003776    -0.01085012  0.75D-04  0.43D-03  2  2     9.03     3.31
   3      1.13268449    -0.37705542   -93.28890187    -0.00025184    -0.00272565  0.16D-04  0.53D-04  3  3    12.10     3.36
   4      1.13505233    -0.37712486   -93.28897132    -0.00006944    -0.00083773  0.72D-06  0.63D-05  4  4    15.06     3.39
   5      1.13570927    -0.37713703   -93.28898348    -0.00001217    -0.00018171  0.77D-07  0.58D-06  5  5    18.13     3.40
   6      1.13584672    -0.37713505   -93.28898151     0.00000198    -0.00003368  0.13D-07  0.48D-07  6  6    21.09     3.41
   7      1.13585772    -0.37713654   -93.28898300    -0.00000149    -0.00000108  0.99D-09  0.42D-08  6  1    24.14     3.41
   8      1.13586120    -0.37713706   -93.28898351    -0.00000051    -0.00000149  0.15D-09  0.38D-09  6  2    27.13     3.42
   9      1.13586121    -0.37713715   -93.28898360    -0.00000009     0.00000005  0.17D-10  0.25D-10  6  3    30.14     3.42
  10      1.13586106    -0.37713721   -93.28898366    -0.00000006     0.00000011  0.17D-11  0.24D-11  6  4    33.20     3.43
  11      1.13586098    -0.37713723   -93.28898368    -0.00000002     0.00000003  0.36D-12  0.20D-12  6  5    36.24     3.43
  12      1.13586090    -0.37713723   -93.28898369    -0.00000001     0.00000003  0.60D-13  0.34D-13  6  6    39.03     3.43
  13      1.13586086    -0.37713724   -93.28898369    -0.00000000     0.00000001  0.65D-14  0.80D-14  6  1    42.07     3.44
  14      1.13586084    -0.37713724   -93.28898369    -0.00000000     0.00000001  0.82D-15  0.11D-14  6  2    45.11     3.44
  15      1.13586083    -0.37713724   -93.28898369    -0.00000000     0.00000000  0.46D-16  0.17D-15  6  3    48.16     3.44
  16      1.13586083    -0.37713724   -93.28898369     0.00000000     0.00000000  0.67D-17  0.24D-16  6  4    51.15     3.45
  17      1.13586083    -0.37713724   -93.28898369     0.00000000     0.00000000  0.13D-17  0.37D-17  6  5    54.20     3.45
  18      1.13586083    -0.37713724   -93.28898369     0.00000000     0.00000000  0.22D-18  0.59D-18  6  6    57.32     3.46
  19      1.13586083    -0.37713724   -93.28898369     0.00000000     0.00000000  0.54D-19  0.17D-18  6  3    60.46     3.47
  20      1.13586083    -0.37713724   -93.28898369     0.00000000    -0.00000000  0.30D-19  0.11D-18  6  1    63.64     3.47
  21      1.13586083    -0.37713724   -93.28898369    -0.00000000     0.00000000  0.46D-19  0.84D-19  6  2    66.76     3.48
  22      1.13586083    -0.37713724   -93.28898369     0.00000000    -0.00000000  0.37D-19  0.68D-19  6  5    69.78     3.48

 Norm of t1 vector:      0.06741745      S-energy:    -0.00000000      T1 diagnostic:  0.01507500
                                                                       D1 diagnostic:  0.03053068

 Doubles amplitudes (print threshold =  0.500E-01):

         I         J         SYM. A    SYM. B    A         B      T(IJ, AB)

         4         4         2         2         3         3     -0.05053009
         5         5         3         3         3         3     -0.05053009


 Total CPU time for triples:     19.38 sec


 RESULTS
 =======

  Reference energy                    -92.911846452537
  CCSD singlet pair energy             -0.265373547106
  CCSD triplet pair energy             -0.111763688911
  CCSD correlation energy              -0.377137236023

  Triples (T) contribution             -0.020652811220
  Total correlation energy             -0.397790047243

  CCSD total energy                   -93.288983688560
  CCSD[T] energy                      -93.310563845652
  CCSD-T energy                       -93.309230853591
 !CCSD(T) total energy                -93.309636499780

 Timing summary (sec):

 STEP                 CPU(USER)    SYS     CPU(TOT)    WALL
 Transformation          3.30      0.60      3.90      5.57
 CCSD iterations        66.49     10.04     76.53     76.55
 Triples                19.38      0.56     19.94     19.95

 Program statistics:

 Available memory in ccsd:               994999800
 Min. memory needed in ccsd:               1363289
 Max. memory used in ccsd:                 1637718
 Max. memory used in cckext:               2695008 (22 integral passes)



 **********************************************************************************************************************************
 DATASETS  * FILE   NREC   LENGTH (MB)   RECORD NAMES
              1      20     3262.86       500      610      700      900      950      970     1000      129      960     1100   
                                          VAR    BASINP    GEOM    SYMINP    ZMAT    AOBASIS   BASIS     P2S    ABASIS      S 
                                         1400     1410     1200     1210     1080     1600     1650     1300     1700     1380   
                                           T        V       H0       H01     AOSYM     SMH    MOLCAS    ERIS     OPER     JKOP   

              2       4        3.46       700     1000      520     2100   
                                         GEOM     BASIS   MCVARS     RHF  

 PROGRAMS   *        TOTAL   CCSD(T)        HF       INT
 CPU TIMES  *       210.73     89.20     35.99     85.45
 REAL TIME  *       239.71 SEC
 DISK USED  *        10.03 GB      
 **********************************************************************************************************************************

 CCSD(T)/aug-cc-pV5Z energy=    -93.309636499780

        CCSD(T)         HF-SCF  
    -93.30963650    -92.91184645
 **********************************************************************************************************************************
 Molpro calculation terminated
 Variable memory released
