
 Primary working directories    : /tmp/r2666/232443.maple
 Secondary working directories  : /tmp/r2666/232443.maple
 Wavefunction directory         : /ddn/home4/r2666/wfu/
 Main file repository           : /tmp/r2666/232443.maple/

 SHA1      : d5ffa45e93fdbca01ffc919aa182cfdae0147319
 NAME      : 2015.1.35
 ARCHNAME  : linux/x86_64
 FC        : /opt/intel/composer_xe_2015.1.133/bin/intel64/ifort
 BLASLIB   : -Wl,-_start-group /opt/intel/mkl/lib/intel64/libmkl_intel_ilp64.a /opt/intel/mkl/lib/intel64/libmkl_intel_thread.a /opt/intel/mkl/lib/intel64/libmkl_core.a -Wl,-_end-group
 id        : olemiss

 Nodes     nprocs
 cn079        1

 Using customized tuning parameters: mindgm=1; mindgv=20; mindgc=4; mindgr=1; noblas=0; minvec=7
 default implementation of scratch files=df  

 ***,hcn CCSD(T)/TZ-F12 QFF
 memory, 995, m;
 gthresh,energy=1.d-12,zero=1.d-22,oneint=1.d-22,twoint=1.d-22;
 gthresh,optgrad=1.d-8,optstep=1.d-8;
 nocompress;
 geomtyp=xyz
 bohr
 geometry={
 3
         52        52
 N        0.0000000000        0.0000000000        1.1404491076
 C        0.0000000000        0.0000000000       -1.0667464493
 H        0.0000000000        0.0000000000       -3.0707726403
 }
 
 basis=av5z
   {hf,maxit=500;accu,20;}
 {ccsd(t),nocheck,maxit=250;orbital,IGNORE_ERROR;}

 Variables initialized (889), CPU time= 0.00 sec
 Commands  initialized (702), CPU time= 0.01 sec, 572 directives.
 Default parameters read. Elapsed time= 0.04 sec

 Checking input...
 Passed
1


                                         ***  PROGRAM SYSTEM MOLPRO  ***
                                       Copyright, TTI GmbH Stuttgart, 2015
                                    Version 2015.1 linked Jul  9 2018 13:16:40


 **********************************************************************************************************************************
 LABEL *   hcn CCSD(T)/TZ-F12 QFF                                                        
  64 bit serial version                                                                  DATE: 06-Feb-20          TIME: 09:49:40  
 **********************************************************************************************************************************

 SHA1:             d5ffa45e93fdbca01ffc919aa182cfdae0147319
 **********************************************************************************************************************************

 THRESHOLDS:

 ZERO    =  1.00D-22  ONEINT  =  1.00D-22  TWOINT  =  1.00D-22  PREFAC  =  1.00D-14  LOCALI  =  1.00D-09  EORDER  =  1.00D-04
 ENERGY  =  1.00D-12  ETEST   =  0.00D+00  EDENS   =  0.00D+00  THRDEDEF=  1.00D-06  GRADIENT=  1.00D-02  STEP    =  1.00D-03
 ORBITAL =  1.00D-05  CIVEC   =  1.00D-05  COEFF   =  1.00D-04  PRINTCI =  5.00D-02  PUNCHCI =  9.90D+01  OPTGRAD =  3.00D-04
 OPTENERG=  1.00D-06  OPTSTEP =  3.00D-04  THRGRAD =  1.00D-10  COMPRESS=  1.00D-11  VARMIN  =  1.00D-07  VARMAX  =  1.00D-03
 THRDOUB =  0.00D+00  THRDIV  =  1.00D-05  THRRED  =  1.00D-07  THRPSP  =  1.00D+00  THRDC   =  1.00D-10  THRCS   =  1.00D-10
 THRNRM  =  1.00D-08  THREQ   =  0.00D+00  THRDE   =  1.00D+00  THRREF  =  1.00D-05  SPARFAC =  1.00D+00  THRDLP  =  1.00D-07
 THRDIA  =  1.00D-10  THRDLS  =  1.00D-07  THRGPS  =  0.00D+00  THRKEX  =  0.00D+00  THRDIS  =  2.00D-01  THRVAR  =  1.00D-10
 THRLOC  =  1.00D-06  THRGAP  =  1.00D-06  THRLOCT = -1.00D+00  THRGAPT = -1.00D+00  THRORB  =  1.00D-06  THRMLTP =  0.00D+00
 THRCPQCI=  1.00D-10  KEXTA   =  0.00D+00  THRCOARS=  0.00D+00  SYMTOL  =  1.00D-06  GRADTOL =  1.00D-06  THROVL  =  1.00D-08
 THRORTH =  1.00D-08  GRID    =  1.00D-06  GRIDMAX =  1.00D-03  DTMAX   =  0.00D+00  THROCCDE=  1.00D-01  THROCCDE=  1.00D-01



 THRESHOLDS:

 ZERO    =  1.00D-22  ONEINT  =  1.00D-22  TWOINT  =  1.00D-22  PREFAC  =  1.00D-14  LOCALI  =  1.00D-09  EORDER  =  1.00D-04
 ENERGY  =  1.00D-12  ETEST   =  0.00D+00  EDENS   =  0.00D+00  THRDEDEF=  1.00D-06  GRADIENT=  1.00D-02  STEP    =  1.00D-03
 ORBITAL =  1.00D-05  CIVEC   =  1.00D-05  COEFF   =  1.00D-04  PRINTCI =  5.00D-02  PUNCHCI =  9.90D+01  OPTGRAD =  1.00D-08
 OPTENERG=  1.00D-06  OPTSTEP =  1.00D-08  THRGRAD =  1.00D-10  COMPRESS=  1.00D-11  VARMIN  =  1.00D-07  VARMAX  =  1.00D-03
 THRDOUB =  0.00D+00  THRDIV  =  1.00D-05  THRRED  =  1.00D-07  THRPSP  =  1.00D+00  THRDC   =  1.00D-10  THRCS   =  1.00D-10
 THRNRM  =  1.00D-08  THREQ   =  0.00D+00  THRDE   =  1.00D+00  THRREF  =  1.00D-05  SPARFAC =  1.00D+00  THRDLP  =  1.00D-07
 THRDIA  =  1.00D-10  THRDLS  =  1.00D-07  THRGPS  =  0.00D+00  THRKEX  =  0.00D+00  THRDIS  =  2.00D-01  THRVAR  =  1.00D-10
 THRLOC  =  1.00D-06  THRGAP  =  1.00D-06  THRLOCT = -1.00D+00  THRGAPT = -1.00D+00  THRORB  =  1.00D-06  THRMLTP =  0.00D+00
 THRCPQCI=  1.00D-10  KEXTA   =  0.00D+00  THRCOARS=  0.00D+00  SYMTOL  =  1.00D-06  GRADTOL =  1.00D-06  THROVL  =  1.00D-08
 THRORTH =  1.00D-08  GRID    =  1.00D-06  GRIDMAX =  1.00D-03  DTMAX   =  0.00D+00  THROCCDE=  1.00D-01  THROCCDE=  1.00D-01



 Input parameters for SORTINT:

 COMPRESS =    0.000000
 C_FINAL  =    1.000000
 DEBUG    =   -1.000000
 C_SORT1  =    0.000000
 C_SEWARD =    0.000000
 THRESH   =    0.000000
 IO       =  molpro                                                          
 SPRI     =    0.000000
 SETTING GEOMTYP        =    XYZ
 ZUNIT=BOHR
 

 Variable memory set to  995000000 words,  buffer space   230000 words

 SETTING BASIS          =    AV5Z


 Recomputing integrals since basis changed


 Using spherical harmonics

 Library entry N      S aug-cc-pV5Z          selected for orbital group  1
 Library entry N      P aug-cc-pV5Z          selected for orbital group  1
 Library entry N      D aug-cc-pV5Z          selected for orbital group  1
 Library entry N      F aug-cc-pV5Z          selected for orbital group  1
 Library entry N      G aug-cc-pV5Z          selected for orbital group  1
 Library entry N      H aug-cc-pV5Z          selected for orbital group  1
 Library entry C      S aug-cc-pV5Z          selected for orbital group  2
 Library entry C      P aug-cc-pV5Z          selected for orbital group  2
 Library entry C      D aug-cc-pV5Z          selected for orbital group  2
 Library entry C      F aug-cc-pV5Z          selected for orbital group  2
 Library entry C      G aug-cc-pV5Z          selected for orbital group  2
 Library entry C      H aug-cc-pV5Z          selected for orbital group  2
 Library entry H      S aug-cc-pV5Z          selected for orbital group  3
 Library entry H      P aug-cc-pV5Z          selected for orbital group  3
 Library entry H      D aug-cc-pV5Z          selected for orbital group  3
 Library entry H      F aug-cc-pV5Z          selected for orbital group  3
 Library entry H      G aug-cc-pV5Z          selected for orbital group  3


 PROGRAM * SEWARD (Integral evaluation for generally contracted gaussian basis sets)     Author: Roland Lindh, 1990

 Geometry written to block  1 of record 700


 Point group  C2v 



 ATOMIC COORDINATES

 NR  ATOM    CHARGE       X              Y              Z

   1  N       7.00    0.000000000    0.000000000    1.140449108
   2  C       6.00    0.000000000    0.000000000   -1.066746449
   3  H       1.00    0.000000000    0.000000000   -3.070772640

 Bond lengths in Bohr (Angstrom)

 1-2  2.207195557  2-3  2.004026191
     ( 1.167997589)     ( 1.060484990)

 Bond angles

  1-2-3  179.99999879

 NUCLEAR CHARGE:                   14
 NUMBER OF PRIMITIVE AOS:         506
 NUMBER OF SYMMETRY AOS:          371
 NUMBER OF CONTRACTIONS:          334   ( 123A1  +  81B1  +  81B2  +  49A2  )
 NUMBER OF CORE ORBITALS:           2   (   2A1  +   0B1  +   0B2  +   0A2  )
 NUMBER OF VALENCE ORBITALS:        9   (   5A1  +   2B1  +   2B2  +   0A2  )


 NUCLEAR REPULSION ENERGY   23.68487017

 EXTRA SYMMETRY OF AOS IN SYMMETRY 1:   1 1 1 1 1 1 1 1 1 1   1 1 1 1 2 1 2 1 2 1   2 1 2 1 2 1 2 1 2 1   2 1 3 2 1 3 2 1 3 2
                                        2 3 1 2 3 1 1 1 1 1   1 1 1 1 1 1 1 1 1 1   2 1 2 1 2 1 2 1 2 1   2 1 2 1 2 1 2 1 3 2
                                        1 3 2 1 3 2 2 3 1 2   3 1 1 1 1 1 1 1 1 1   1 1 1 1 2 1 2 1 2 1   2 1 2 1 2 1 2 1 3 2
                                        1 3 2
 EXTRA SYMMETRY OF AOS IN SYMMETRY 2:   1 1 1 1 1 1 1 1 1 1   1 1 2 1 2 1 2 1 2 1   2 1 2 1 2 1 2 3 1 2   3 1 1 1 1 1 1 1 1 1
                                        1 1 1 2 1 2 1 2 1 2   1 2 1 2 1 2 1 2 3 1   2 3 1 1 1 1 1 1 1 1   1 1 2 1 2 1 2 1 2 1
                                        2
 EXTRA SYMMETRY OF AOS IN SYMMETRY 3:   1 1 1 1 1 1 1 1 1 1   1 1 2 1 2 1 2 1 2 1   2 1 2 1 2 1 2 3 1 2   3 1 1 1 1 1 1 1 1 1
                                        1 1 1 2 1 2 1 2 1 2   1 2 1 2 1 2 1 2 3 1   2 3 1 1 1 1 1 1 1 1   1 1 2 1 2 1 2 1 2 1
                                        2
 EXTRA SYMMETRY OF AOS IN SYMMETRY 4:   1 1 1 1 1 1 1 1 1 1   2 1 2 1 2 2 1 2 1 1   1 1 1 1 1 1 1 1 1 2   1 2 1 2 2 1 2 1 1 1
                                        1 1 1 1 1 1 2 1 2

 Eigenvalues of metric

         1 0.258E-05 0.566E-05 0.148E-04 0.356E-04 0.596E-04 0.701E-04 0.182E-03 0.226E-03
         2 0.590E-04 0.181E-03 0.381E-03 0.711E-03 0.944E-03 0.152E-02 0.190E-02 0.376E-02
         3 0.590E-04 0.181E-03 0.381E-03 0.711E-03 0.944E-03 0.152E-02 0.190E-02 0.376E-02
         4 0.805E-03 0.217E-02 0.508E-02 0.701E-02 0.171E-01 0.239E-01 0.261E-01 0.637E-01


 Contracted 2-electron integrals neglected if value below      1.0D-22

      355156578. INTEGRALS WRITTEN OUT IN   86730 BLOCKS ON RECORD 1290 OF FILE 1


 NUMBER OF SORTED TWO-ELECTRON INTEGRALS:  396972178.     BUFFER LENGTH:  32768
 NUMBER OF SEGMENTS:  13  SEGMENT LENGTH:   31999071      RECORD LENGTH: 524288

 Memory used in sort:      32.56 MW

 SORT1 READ   355156578. AND WROTE   358329787. INTEGRALS IN   1031 RECORDS. CPU TIME:    13.11 SEC, REAL TIME:    46.17 SEC
 SORT2 READ   358329787. AND WROTE   396972178. INTEGRALS IN     13 RECORDS. CPU TIME:     8.02 SEC, REAL TIME:    33.01 SEC

 FILE SIZES:   FILE 1:  5706.3 MBYTE,  FILE 4:  4324.4 MBYTE,   TOTAL:  10030.6 MBYTE

 OPERATOR DM      FOR CENTER  0  COORDINATES:    0.000000    0.000000    0.000000


 **********************************************************************************************************************************
 DATASETS  * FILE   NREC   LENGTH (MB)   RECORD NAMES
              1      19     3079.15       500      610      700      900      950      970     1000      129      960     1100   
                                          VAR    BASINP    GEOM    SYMINP    ZMAT    AOBASIS   BASIS     P2S    ABASIS      S 
                                         1400     1410     1200     1210     1080     1600     1650     1300     1700   
                                           T        V       H0       H01     AOSYM     SMH    MOLCAS    ERIS     OPER   

 PROGRAMS   *        TOTAL       INT
 CPU TIMES  *        89.45     89.36
 REAL TIME  *       150.81 SEC
 DISK USED  *        10.03 GB      
 **********************************************************************************************************************************


 PROGRAM * RHF-SCF (CLOSED SHELL)       Authors: W. Meyer, H.-J. Werner


 NUMBER OF ELECTRONS:       7+    7-
 CONVERGENCE THRESHOLDS:    1.00E-10 (Density)    1.00E-13 (Energy)
 MAX. NUMBER OF ITERATIONS:      500
 INTERPOLATION TYPE:            DIIS
 INTERPOLATION STEPS:              2 (START)      1 (STEP)
 LEVEL SHIFTS:                  0.00 (CLOSED)  0.00 (OPEN) 



 Orbital guess generated from atomic densities. Full valence occupancy:    7   2   2   0

 Molecular orbital dump at record        2100.2

 Initial occupancy:   5   1   1   0

 ITERATION    DDIFF          GRAD             ENERGY        2-EL.EN.            DIPOLE MOMENTS         DIIS   ORB.
    1      0.000D+00      0.000D+00       -92.88864183    111.427554    0.00000    0.00000   -1.78831    0    start
    2      0.000D+00      0.558D-02       -92.89699572    110.643777    0.00000    0.00000   -0.88356    1    diag
    3      0.435D-02      0.507D-02       -92.91275912    111.175192    0.00000    0.00000   -1.30980    2    diag
    4      0.225D-02      0.432D-03       -92.91299985    111.126989    0.00000    0.00000   -1.29760    3    diag
    5      0.429D-03      0.964D-04       -92.91301410    111.140697    0.00000    0.00000   -1.29621    4    diag
    6      0.105D-03      0.264D-04       -92.91301513    111.134835    0.00000    0.00000   -1.29609    5    diag
    7      0.240D-04      0.951D-05       -92.91301523    111.135932    0.00000    0.00000   -1.29616    6    diag
    8      0.766D-05      0.203D-05       -92.91301523    111.135891    0.00000    0.00000   -1.29613    7    diag
    9      0.164D-05      0.235D-06       -92.91301523    111.135901    0.00000    0.00000   -1.29613    8    diag
   10      0.250D-06      0.289D-07       -92.91301523    111.135902    0.00000    0.00000   -1.29613    9    orth
   11      0.282D-07      0.407D-08       -92.91301523    111.135902    0.00000    0.00000   -1.29613    9    diag
   12      0.523D-08      0.386D-09       -92.91301523    111.135902    0.00000    0.00000   -1.29613    9    diag
   13      0.119D-08      0.325D-10       -92.91301523    111.135902    0.00000    0.00000   -1.29613    9    diag
   14      0.169D-09      0.762D-11       -92.91301523    111.135902    0.00000    0.00000   -1.29613    9    diag
   15      0.670D-10      0.150D-11       -92.91301523    111.135902    0.00000    0.00000   -1.29613    9    diag
   16      0.403D-10      0.687D-12       -92.91301523    111.135902    0.00000    0.00000   -1.29613    0    orth

 Final occupancy:   5   1   1   0

 !RHF STATE 1.1 Energy                -92.913015231794
 Nuclear energy                        23.68487017
 One-electron energy                 -172.16583629
 Two-electron energy                   55.56795088
 Virial quotient                       -1.00278099
 !RHF STATE 1.1 Dipole moment           0.00000000     0.00000000    -1.29612663
 Dipole moment /Debye                   0.00000000     0.00000000    -3.29420952

 Orbital energies:

         1.1          2.1          3.1          4.1          5.1          6.1          7.1
    -15.603418   -11.296023    -1.229538    -0.817430    -0.583242     0.017536     0.053188

         1.2          2.2          3.2
     -0.492658     0.052470     0.101168

         1.3          2.3          3.3
     -0.492658     0.052470     0.101168

         1.4          2.4
      0.202864     0.327234

 HOMO      1.2    -0.492658 =     -13.4059eV
 LUMO      6.1     0.017536 =       0.4772eV
 LUMO-HOMO         0.510194 =      13.8831eV


 **********************************************************************************************************************************
 DATASETS  * FILE   NREC   LENGTH (MB)   RECORD NAMES
              1      19     3079.15       500      610      700      900      950      970     1000      129      960     1100   
                                          VAR    BASINP    GEOM    SYMINP    ZMAT    AOBASIS   BASIS     P2S    ABASIS      S 
                                         1400     1410     1200     1210     1080     1600     1650     1300     1700   
                                           T        V       H0       H01     AOSYM     SMH    MOLCAS    ERIS     OPER   

              2       4        3.46       700     1000      520     2100   
                                         GEOM     BASIS   MCVARS     RHF  

 PROGRAMS   *        TOTAL        HF       INT
 CPU TIMES  *       107.17     17.72     89.36
 REAL TIME  *       173.18 SEC
 DISK USED  *        10.03 GB      
 **********************************************************************************************************************************


 PROGRAM * CCSD (Closed-shell coupled cluster)     Authors: C. Hampel, H.-J. Werner, 1991, M. Deegan, P.J. Knowles, 1992


 Convergence thresholds:  THRVAR = 1.00D-08  THRDEN = 1.00D-12

 CCSD(T)     terms to be evaluated (factor= 1.000)


 Number of core orbitals:           2 (   2   0   0   0 )
 Number of closed-shell orbitals:   5 (   3   1   1   0 )
 Number of external orbitals:     327 ( 118  80  80  49 )

 Molecular orbitals read from record     2100.2  Type=RHF/CANONICAL (state 1.1)

 Number of N-1 electron functions:               5
 Number of N-2 electron functions:              15
 Number of singly external CSFs:               514
 Number of doubly external CSFs:            345689
 Total number of CSFs:                      346204

 Length of J-op  integral file:               0.00 MB
 Length of K-op  integral file:               2.14 MB
 Length of 3-ext integral record:             0.00 MB

 Memory could be reduced to 68.09 Mwords without degradation in triples

 Integral transformation finished. Total CPU:   3.01 sec, npass=  1  Memory used:   7.20 MW

 Reference energy:                    -92.91301523

 MP2 singlet pair energy:              -0.24636383
 MP2 triplet pair energy:              -0.13420894
 MP2 correlation energy:               -0.38057277
 MP2 total energy:                    -93.29358800

 SCS-MP2 correlation energy:           -0.37914438   (PS=  1.200000  PT=  0.333333)
 SCS-MP2 total energy:                -93.29215961

 ITER.      SQ.NORM     CORR.ENERGY   TOTAL ENERGY   ENERGY CHANGE        DEN1      VAR(S)    VAR(P)  DIIS     TIME  TIME/IT
   1      1.11692166    -0.37609071   -93.28910594     0.00448206     0.01857325  0.28D-02  0.34D-02  1  1     5.86     3.33
   2      1.12649776    -0.37609861   -93.28911384    -0.00000790    -0.01070426  0.73D-04  0.42D-03  2  2     8.76     3.36
   3      1.13171466    -0.37634385   -93.28935908    -0.00024524    -0.00268740  0.15D-04  0.52D-04  3  3    11.67     3.37
   4      1.13401846    -0.37641042   -93.28942565    -0.00006657    -0.00082049  0.70D-06  0.61D-05  4  4    14.59     3.37
   5      1.13465255    -0.37642191   -93.28943714    -0.00001149    -0.00017630  0.74D-07  0.54D-06  5  5    17.50     3.38
   6      1.13478273    -0.37642005   -93.28943528     0.00000185    -0.00003194  0.12D-07  0.45D-07  6  6    20.36     3.38
   7      1.13479314    -0.37642145   -93.28943669    -0.00000140    -0.00000107  0.95D-09  0.39D-08  6  1    23.36     3.38
   8      1.13479638    -0.37642195   -93.28943718    -0.00000050    -0.00000139  0.14D-09  0.36D-09  6  2    26.22     3.38
   9      1.13479640    -0.37642204   -93.28943727    -0.00000009     0.00000004  0.16D-10  0.23D-10  6  3    29.19     3.38
  10      1.13479626    -0.37642209   -93.28943733    -0.00000006     0.00000011  0.15D-11  0.22D-11  6  4    32.04     3.39
  11      1.13479618    -0.37642211   -93.28943734    -0.00000002     0.00000003  0.31D-12  0.19D-12  6  5    34.93     3.39
  12      1.13479611    -0.37642212   -93.28943735    -0.00000001     0.00000003  0.51D-13  0.31D-13  6  6    37.81     3.39
  13      1.13479607    -0.37642212   -93.28943735    -0.00000000     0.00000001  0.55D-14  0.72D-14  6  1    40.75     3.39
  14      1.13479605    -0.37642212   -93.28943735    -0.00000000     0.00000001  0.70D-15  0.98D-15  6  2    43.62     3.39
  15      1.13479604    -0.37642212   -93.28943735    -0.00000000     0.00000000  0.41D-16  0.15D-15  6  3    46.48     3.39
  16      1.13479604    -0.37642212   -93.28943735     0.00000000     0.00000000  0.62D-17  0.21D-16  6  4    49.35     3.39
  17      1.13479604    -0.37642212   -93.28943735     0.00000000     0.00000000  0.12D-17  0.34D-17  6  5    52.32     3.39
  18      1.13479604    -0.37642212   -93.28943735     0.00000000     0.00000000  0.35D-18  0.75D-18  6  6    55.23     3.39
  19      1.13479604    -0.37642212   -93.28943735     0.00000000    -0.00000000  0.61D-19  0.22D-18  6  1    58.16     3.39
  20      1.13479604    -0.37642212   -93.28943735     0.00000000     0.00000000  0.16D-19  0.64D-19  6  2    61.02     3.39
  21      1.13479604    -0.37642212   -93.28943735    -0.00000000     0.00000000  0.18D-19  0.46D-19  6  3    63.96     3.39

 Norm of t1 vector:      0.06668336      S-energy:    -0.00000000      T1 diagnostic:  0.01491085
                                                                       D1 diagnostic:  0.03018882


 Total CPU time for triples:     19.54 sec


 RESULTS
 =======

  Reference energy                    -92.913015231794
  CCSD singlet pair energy             -0.264764481765
  CCSD triplet pair energy             -0.111657639265
  CCSD correlation energy              -0.376422121034

  Triples (T) contribution             -0.020470134884
  Total correlation energy             -0.396892255918

  CCSD total energy                   -93.289437352828
  CCSD[T] energy                      -93.310813042622
  CCSD-T energy                       -93.309510257728
 !CCSD(T) total energy                -93.309907487712

 Timing summary (sec):

 STEP                 CPU(USER)    SYS     CPU(TOT)    WALL
 Transformation          3.02      0.68      3.70      3.84
 CCSD iterations        60.94     10.29     71.23     71.22
 Triples                19.54      0.52     20.06     20.07

 Program statistics:

 Available memory in ccsd:               994999800
 Min. memory needed in ccsd:               1363289
 Max. memory used in ccsd:                 1637718
 Max. memory used in cckext:               2695008 (21 integral passes)



 **********************************************************************************************************************************
 DATASETS  * FILE   NREC   LENGTH (MB)   RECORD NAMES
              1      20     3263.37       500      610      700      900      950      970     1000      129      960     1100   
                                          VAR    BASINP    GEOM    SYMINP    ZMAT    AOBASIS   BASIS     P2S    ABASIS      S 
                                         1400     1410     1200     1210     1080     1600     1650     1300     1700     1380   
                                           T        V       H0       H01     AOSYM     SMH    MOLCAS    ERIS     OPER     JKOP   

              2       4        3.46       700     1000      520     2100   
                                         GEOM     BASIS   MCVARS     RHF  

 PROGRAMS   *        TOTAL   CCSD(T)        HF       INT
 CPU TIMES  *       190.70     83.53     17.72     89.36
 REAL TIME  *       268.56 SEC
 DISK USED  *        10.03 GB      
 **********************************************************************************************************************************

 CCSD(T)/aug-cc-pV5Z energy=    -93.309907487712

        CCSD(T)         HF-SCF  
    -93.30990749    -92.91301523
 **********************************************************************************************************************************
 Molpro calculation terminated
 Variable memory released
