
 Primary working directories    : /tmp/r2666/232401.maple
 Secondary working directories  : /tmp/r2666/232401.maple
 Wavefunction directory         : /ddn/home4/r2666/wfu/
 Main file repository           : /tmp/r2666/232401.maple/

 SHA1      : d5ffa45e93fdbca01ffc919aa182cfdae0147319
 NAME      : 2015.1.35
 ARCHNAME  : linux/x86_64
 FC        : /opt/intel/composer_xe_2015.1.133/bin/intel64/ifort
 BLASLIB   : -Wl,-_start-group /opt/intel/mkl/lib/intel64/libmkl_intel_ilp64.a /opt/intel/mkl/lib/intel64/libmkl_intel_thread.a /opt/intel/mkl/lib/intel64/libmkl_core.a -Wl,-_end-group
 id        : olemiss

 Nodes     nprocs
 cn095        1

 Using customized tuning parameters: mindgm=1; mindgv=20; mindgc=4; mindgr=1; noblas=0; minvec=7
 default implementation of scratch files=df  

 ***,hcn CCSD(T)/TZ-F12 QFF
 memory, 995, m;
 gthresh,energy=1.d-12,zero=1.d-22,oneint=1.d-22,twoint=1.d-22;
 gthresh,optgrad=1.d-8,optstep=1.d-8;
 nocompress;
 geomtyp=xyz
 bohr
 geometry={
 3
         10        10
 N        0.0000000000        0.0000000000        1.1184023044
 C        0.0000000000        0.0000000000       -1.0415501027
 H        0.0000000000        0.0000000000       -3.0739221836
 }
 
 basis=av5z
   {hf,maxit=500;accu,20;}
 {ccsd(t),nocheck,maxit=250;orbital,IGNORE_ERROR;}

 Variables initialized (889), CPU time= 0.01 sec
 Commands  initialized (702), CPU time= 0.00 sec, 572 directives.
 Default parameters read. Elapsed time= 0.03 sec

 Checking input...
 Passed
1


                                         ***  PROGRAM SYSTEM MOLPRO  ***
                                       Copyright, TTI GmbH Stuttgart, 2015
                                    Version 2015.1 linked Jul  9 2018 13:16:40


 **********************************************************************************************************************************
 LABEL *   hcn CCSD(T)/TZ-F12 QFF                                                        
  64 bit serial version                                                                  DATE: 06-Feb-20          TIME: 09:49:38  
 **********************************************************************************************************************************

 SHA1:             d5ffa45e93fdbca01ffc919aa182cfdae0147319
 **********************************************************************************************************************************

 THRESHOLDS:

 ZERO    =  1.00D-22  ONEINT  =  1.00D-22  TWOINT  =  1.00D-22  PREFAC  =  1.00D-14  LOCALI  =  1.00D-09  EORDER  =  1.00D-04
 ENERGY  =  1.00D-12  ETEST   =  0.00D+00  EDENS   =  0.00D+00  THRDEDEF=  1.00D-06  GRADIENT=  1.00D-02  STEP    =  1.00D-03
 ORBITAL =  1.00D-05  CIVEC   =  1.00D-05  COEFF   =  1.00D-04  PRINTCI =  5.00D-02  PUNCHCI =  9.90D+01  OPTGRAD =  3.00D-04
 OPTENERG=  1.00D-06  OPTSTEP =  3.00D-04  THRGRAD =  1.00D-10  COMPRESS=  1.00D-11  VARMIN  =  1.00D-07  VARMAX  =  1.00D-03
 THRDOUB =  0.00D+00  THRDIV  =  1.00D-05  THRRED  =  1.00D-07  THRPSP  =  1.00D+00  THRDC   =  1.00D-10  THRCS   =  1.00D-10
 THRNRM  =  1.00D-08  THREQ   =  0.00D+00  THRDE   =  1.00D+00  THRREF  =  1.00D-05  SPARFAC =  1.00D+00  THRDLP  =  1.00D-07
 THRDIA  =  1.00D-10  THRDLS  =  1.00D-07  THRGPS  =  0.00D+00  THRKEX  =  0.00D+00  THRDIS  =  2.00D-01  THRVAR  =  1.00D-10
 THRLOC  =  1.00D-06  THRGAP  =  1.00D-06  THRLOCT = -1.00D+00  THRGAPT = -1.00D+00  THRORB  =  1.00D-06  THRMLTP =  0.00D+00
 THRCPQCI=  1.00D-10  KEXTA   =  0.00D+00  THRCOARS=  0.00D+00  SYMTOL  =  1.00D-06  GRADTOL =  1.00D-06  THROVL  =  1.00D-08
 THRORTH =  1.00D-08  GRID    =  1.00D-06  GRIDMAX =  1.00D-03  DTMAX   =  0.00D+00  THROCCDE=  1.00D-01  THROCCDE=  1.00D-01



 THRESHOLDS:

 ZERO    =  1.00D-22  ONEINT  =  1.00D-22  TWOINT  =  1.00D-22  PREFAC  =  1.00D-14  LOCALI  =  1.00D-09  EORDER  =  1.00D-04
 ENERGY  =  1.00D-12  ETEST   =  0.00D+00  EDENS   =  0.00D+00  THRDEDEF=  1.00D-06  GRADIENT=  1.00D-02  STEP    =  1.00D-03
 ORBITAL =  1.00D-05  CIVEC   =  1.00D-05  COEFF   =  1.00D-04  PRINTCI =  5.00D-02  PUNCHCI =  9.90D+01  OPTGRAD =  1.00D-08
 OPTENERG=  1.00D-06  OPTSTEP =  1.00D-08  THRGRAD =  1.00D-10  COMPRESS=  1.00D-11  VARMIN  =  1.00D-07  VARMAX  =  1.00D-03
 THRDOUB =  0.00D+00  THRDIV  =  1.00D-05  THRRED  =  1.00D-07  THRPSP  =  1.00D+00  THRDC   =  1.00D-10  THRCS   =  1.00D-10
 THRNRM  =  1.00D-08  THREQ   =  0.00D+00  THRDE   =  1.00D+00  THRREF  =  1.00D-05  SPARFAC =  1.00D+00  THRDLP  =  1.00D-07
 THRDIA  =  1.00D-10  THRDLS  =  1.00D-07  THRGPS  =  0.00D+00  THRKEX  =  0.00D+00  THRDIS  =  2.00D-01  THRVAR  =  1.00D-10
 THRLOC  =  1.00D-06  THRGAP  =  1.00D-06  THRLOCT = -1.00D+00  THRGAPT = -1.00D+00  THRORB  =  1.00D-06  THRMLTP =  0.00D+00
 THRCPQCI=  1.00D-10  KEXTA   =  0.00D+00  THRCOARS=  0.00D+00  SYMTOL  =  1.00D-06  GRADTOL =  1.00D-06  THROVL  =  1.00D-08
 THRORTH =  1.00D-08  GRID    =  1.00D-06  GRIDMAX =  1.00D-03  DTMAX   =  0.00D+00  THROCCDE=  1.00D-01  THROCCDE=  1.00D-01



 Input parameters for SORTINT:

 COMPRESS =    0.000000
 C_FINAL  =    1.000000
 DEBUG    =   -1.000000
 C_SORT1  =    0.000000
 C_SEWARD =    0.000000
 THRESH   =    0.000000
 IO       =  molpro                                                          
 SPRI     =    0.000000
 SETTING GEOMTYP        =    XYZ
 ZUNIT=BOHR
 

 Variable memory set to  995000000 words,  buffer space   230000 words

 SETTING BASIS          =    AV5Z


 Recomputing integrals since basis changed


 Using spherical harmonics

 Library entry N      S aug-cc-pV5Z          selected for orbital group  1
 Library entry N      P aug-cc-pV5Z          selected for orbital group  1
 Library entry N      D aug-cc-pV5Z          selected for orbital group  1
 Library entry N      F aug-cc-pV5Z          selected for orbital group  1
 Library entry N      G aug-cc-pV5Z          selected for orbital group  1
 Library entry N      H aug-cc-pV5Z          selected for orbital group  1
 Library entry C      S aug-cc-pV5Z          selected for orbital group  2
 Library entry C      P aug-cc-pV5Z          selected for orbital group  2
 Library entry C      D aug-cc-pV5Z          selected for orbital group  2
 Library entry C      F aug-cc-pV5Z          selected for orbital group  2
 Library entry C      G aug-cc-pV5Z          selected for orbital group  2
 Library entry C      H aug-cc-pV5Z          selected for orbital group  2
 Library entry H      S aug-cc-pV5Z          selected for orbital group  3
 Library entry H      P aug-cc-pV5Z          selected for orbital group  3
 Library entry H      D aug-cc-pV5Z          selected for orbital group  3
 Library entry H      F aug-cc-pV5Z          selected for orbital group  3
 Library entry H      G aug-cc-pV5Z          selected for orbital group  3


 PROGRAM * SEWARD (Integral evaluation for generally contracted gaussian basis sets)     Author: Roland Lindh, 1990

 Geometry written to block  1 of record 700


 Point group  C2v 



 ATOMIC COORDINATES

 NR  ATOM    CHARGE       X              Y              Z

   1  N       7.00    0.000000000    0.000000000    1.118402304
   2  C       6.00    0.000000000    0.000000000   -1.041550103
   3  H       1.00    0.000000000    0.000000000   -3.073922184

 Bond lengths in Bohr (Angstrom)

 1-2  2.159952407  2-3  2.032372081
     ( 1.142997591)     ( 1.075484989)

 Bond angles

  1-2-3  180.00000000

 NUCLEAR CHARGE:                   14
 NUMBER OF PRIMITIVE AOS:         506
 NUMBER OF SYMMETRY AOS:          371
 NUMBER OF CONTRACTIONS:          334   ( 123A1  +  81B1  +  81B2  +  49A2  )
 NUMBER OF CORE ORBITALS:           2   (   2A1  +   0B1  +   0B2  +   0A2  )
 NUMBER OF VALENCE ORBITALS:        9   (   5A1  +   2B1  +   2B2  +   0A2  )


 NUCLEAR REPULSION ENERGY   24.06680629

 EXTRA SYMMETRY OF AOS IN SYMMETRY 1:   1 1 1 1 1 1 1 1 1 1   1 1 1 1 2 1 2 1 2 1   2 1 2 1 2 1 2 1 2 1   2 1 3 2 1 3 2 1 3 2
                                        2 3 1 2 3 1 1 1 1 1   1 1 1 1 1 1 1 1 1 1   2 1 2 1 2 1 2 1 2 1   2 1 2 1 2 1 2 1 3 2
                                        1 3 2 1 3 2 2 3 1 2   3 1 1 1 1 1 1 1 1 1   1 1 1 1 2 1 2 1 2 1   2 1 2 1 2 1 2 1 3 2
                                        1 3 2
 EXTRA SYMMETRY OF AOS IN SYMMETRY 2:   1 1 1 1 1 1 1 1 1 1   1 1 2 1 2 1 2 1 2 1   2 1 2 1 2 1 2 3 1 2   3 1 1 1 1 1 1 1 1 1
                                        1 1 1 2 1 2 1 2 1 2   1 2 1 2 1 2 1 2 3 1   2 3 1 1 1 1 1 1 1 1   1 1 2 1 2 1 2 1 2 1
                                        2
 EXTRA SYMMETRY OF AOS IN SYMMETRY 3:   1 1 1 1 1 1 1 1 1 1   1 1 2 1 2 1 2 1 2 1   2 1 2 1 2 1 2 3 1 2   3 1 1 1 1 1 1 1 1 1
                                        1 1 1 2 1 2 1 2 1 2   1 2 1 2 1 2 1 2 3 1   2 3 1 1 1 1 1 1 1 1   1 1 2 1 2 1 2 1 2 1
                                        2
 EXTRA SYMMETRY OF AOS IN SYMMETRY 4:   1 1 1 1 1 1 1 1 1 1   2 1 2 1 2 2 1 2 1 1   1 1 1 1 1 1 1 1 1 2   1 2 1 2 2 1 2 1 1 1
                                        1 1 1 1 1 1 2 1 2

 Eigenvalues of metric

         1 0.245E-05 0.551E-05 0.147E-04 0.356E-04 0.571E-04 0.694E-04 0.170E-03 0.219E-03
         2 0.549E-04 0.188E-03 0.368E-03 0.699E-03 0.924E-03 0.156E-02 0.184E-02 0.365E-02
         3 0.549E-04 0.188E-03 0.368E-03 0.699E-03 0.924E-03 0.156E-02 0.184E-02 0.365E-02
         4 0.744E-03 0.224E-02 0.472E-02 0.708E-02 0.169E-01 0.233E-01 0.250E-01 0.644E-01


 Contracted 2-electron integrals neglected if value below      1.0D-22

      355255592. INTEGRALS WRITTEN OUT IN   86754 BLOCKS ON RECORD 1290 OF FILE 1


 NUMBER OF SORTED TWO-ELECTRON INTEGRALS:  396972178.     BUFFER LENGTH:  32768
 NUMBER OF SEGMENTS:  13  SEGMENT LENGTH:   31999071      RECORD LENGTH: 524288

 Memory used in sort:      32.56 MW

 SORT1 READ   355255592. AND WROTE   358430275. INTEGRALS IN   1032 RECORDS. CPU TIME:     9.35 SEC, REAL TIME:    11.88 SEC
 SORT2 READ   358430275. AND WROTE   396972178. INTEGRALS IN     13 RECORDS. CPU TIME:     4.85 SEC, REAL TIME:     6.60 SEC

 FILE SIZES:   FILE 1:  5707.9 MBYTE,  FILE 4:  4328.6 MBYTE,   TOTAL:  10036.4 MBYTE

 OPERATOR DM      FOR CENTER  0  COORDINATES:    0.000000    0.000000    0.000000


 **********************************************************************************************************************************
 DATASETS  * FILE   NREC   LENGTH (MB)   RECORD NAMES
              1      19     3079.73       500      610      700      900      950      970     1000      129      960     1100   
                                          VAR    BASINP    GEOM    SYMINP    ZMAT    AOBASIS   BASIS     P2S    ABASIS      S 
                                         1400     1410     1200     1210     1080     1600     1650     1300     1700   
                                           T        V       H0       H01     AOSYM     SMH    MOLCAS    ERIS     OPER   

 PROGRAMS   *        TOTAL       INT
 CPU TIMES  *        84.46     84.38
 REAL TIME  *        92.69 SEC
 DISK USED  *        10.04 GB      
 **********************************************************************************************************************************


 PROGRAM * RHF-SCF (CLOSED SHELL)       Authors: W. Meyer, H.-J. Werner


 NUMBER OF ELECTRONS:       7+    7-
 CONVERGENCE THRESHOLDS:    1.00E-10 (Density)    1.00E-13 (Energy)
 MAX. NUMBER OF ITERATIONS:      500
 INTERPOLATION TYPE:            DIIS
 INTERPOLATION STEPS:              2 (START)      1 (STEP)
 LEVEL SHIFTS:                  0.00 (CLOSED)  0.00 (OPEN) 



 Orbital guess generated from atomic densities. Full valence occupancy:    7   2   2   0

 Molecular orbital dump at record        2100.2

 Initial occupancy:   5   1   1   0

 ITERATION    DDIFF          GRAD             ENERGY        2-EL.EN.            DIPOLE MOMENTS         DIIS   ORB.
    1      0.000D+00      0.000D+00       -92.89193080    112.347465    0.00000    0.00000   -1.78859    0    start
    2      0.000D+00      0.572D-02       -92.90142873    111.387585    0.00000    0.00000   -0.91050    1    diag
    3      0.438D-02      0.500D-02       -92.91656384    111.946086    0.00000    0.00000   -1.31171    2    diag
    4      0.223D-02      0.414D-03       -92.91678729    111.915449    0.00000    0.00000   -1.29955    3    diag
    5      0.414D-03      0.863D-04       -92.91680031    111.921304    0.00000    0.00000   -1.29803    4    diag
    6      0.103D-03      0.227D-04       -92.91680097    111.917544    0.00000    0.00000   -1.29820    5    diag
    7      0.189D-04      0.768D-05       -92.91680103    111.918787    0.00000    0.00000   -1.29822    6    diag
    8      0.608D-05      0.172D-05       -92.91680104    111.918710    0.00000    0.00000   -1.29819    7    diag
    9      0.133D-05      0.202D-06       -92.91680104    111.918719    0.00000    0.00000   -1.29819    8    diag
   10      0.210D-06      0.261D-07       -92.91680104    111.918720    0.00000    0.00000   -1.29819    9    orth
   11      0.257D-07      0.387D-08       -92.91680104    111.918720    0.00000    0.00000   -1.29819    9    diag
   12      0.464D-08      0.374D-09       -92.91680104    111.918720    0.00000    0.00000   -1.29819    9    diag
   13      0.123D-08      0.331D-10       -92.91680104    111.918720    0.00000    0.00000   -1.29819    9    diag
   14      0.139D-09      0.556D-11       -92.91680104    111.918720    0.00000    0.00000   -1.29819    9    diag
   15      0.722D-10      0.131D-11       -92.91680104    111.918720    0.00000    0.00000   -1.29819    9    diag
   16      0.112D-09      0.755D-12       -92.91680104    111.918720    0.00000    0.00000   -1.29819    9    diag
   17      0.872D-10      0.101D-11       -92.91680104    111.918720    0.00000    0.00000   -1.29819    9    diag
   18      0.488D-10      0.885D-12       -92.91680104    111.918720    0.00000    0.00000   -1.29819    9    diag
   19      0.216D-10      0.744D-12       -92.91680104    111.918720    0.00000    0.00000   -1.29819    9    fixocc
   20      0.204D-11      0.796D-12       -92.91680104    111.918720    0.00000    0.00000   -1.29819    0    orth

 Final occupancy:   5   1   1   0

 !RHF STATE 1.1 Energy                -92.916801036585
 Nuclear energy                        24.06680629
 One-electron energy                 -172.94296722
 Two-electron energy                   55.95935989
 Virial quotient                       -1.00158564
 !RHF STATE 1.1 Dipole moment           0.00000000     0.00000000    -1.29818726
 Dipole moment /Debye                   0.00000000     0.00000000    -3.29944677

 Orbital energies:

         1.1          2.1          3.1          4.1          5.1          6.1          7.1
    -15.594094   -11.287940    -1.241026    -0.807803    -0.581416     0.017575     0.053239

         1.2          2.2          3.2
     -0.499923     0.052436     0.102069

         1.3          2.3          3.3
     -0.499923     0.052436     0.102069

         1.4          2.4
      0.202636     0.326992

 HOMO      1.2    -0.499923 =     -13.6036eV
 LUMO      6.1     0.017575 =       0.4782eV
 LUMO-HOMO         0.517497 =      14.0818eV


 **********************************************************************************************************************************
 DATASETS  * FILE   NREC   LENGTH (MB)   RECORD NAMES
              1      19     3079.73       500      610      700      900      950      970     1000      129      960     1100   
                                          VAR    BASINP    GEOM    SYMINP    ZMAT    AOBASIS   BASIS     P2S    ABASIS      S 
                                         1400     1410     1200     1210     1080     1600     1650     1300     1700   
                                           T        V       H0       H01     AOSYM     SMH    MOLCAS    ERIS     OPER   

              2       4        3.46       700     1000      520     2100   
                                         GEOM     BASIS   MCVARS     RHF  

 PROGRAMS   *        TOTAL        HF       INT
 CPU TIMES  *       107.15     22.69     84.38
 REAL TIME  *       120.86 SEC
 DISK USED  *        10.04 GB      
 **********************************************************************************************************************************


 PROGRAM * CCSD (Closed-shell coupled cluster)     Authors: C. Hampel, H.-J. Werner, 1991, M. Deegan, P.J. Knowles, 1992


 Convergence thresholds:  THRVAR = 1.00D-08  THRDEN = 1.00D-12

 CCSD(T)     terms to be evaluated (factor= 1.000)


 Number of core orbitals:           2 (   2   0   0   0 )
 Number of closed-shell orbitals:   5 (   3   1   1   0 )
 Number of external orbitals:     327 ( 118  80  80  49 )

 Molecular orbitals read from record     2100.2  Type=RHF/CANONICAL (state 1.1)

 Number of N-1 electron functions:               5
 Number of N-2 electron functions:              15
 Number of singly external CSFs:               514
 Number of doubly external CSFs:            345689
 Total number of CSFs:                      346204

 Length of J-op  integral file:               0.00 MB
 Length of K-op  integral file:               2.14 MB
 Length of 3-ext integral record:             0.00 MB

 Memory could be reduced to 68.09 Mwords without degradation in triples

 Integral transformation finished. Total CPU:   3.20 sec, npass=  1  Memory used:   7.20 MW

 Reference energy:                    -92.91680104

 MP2 singlet pair energy:              -0.24382952
 MP2 triplet pair energy:              -0.13209444
 MP2 correlation energy:               -0.37592396
 MP2 total energy:                    -93.29272500

 SCS-MP2 correlation energy:           -0.37478752   (PS=  1.200000  PT=  0.333333)
 SCS-MP2 total energy:                -93.29158856

 ITER.      SQ.NORM     CORR.ENERGY   TOTAL ENERGY   ENERGY CHANGE        DEN1      VAR(S)    VAR(P)  DIIS     TIME  TIME/IT
   1      1.11413478    -0.37281758   -93.28961861     0.00310638     0.01615773  0.25D-02  0.30D-02  1  1     6.08     3.39
   2      1.12311827    -0.37305518   -93.28985621    -0.00023760    -0.01009140  0.64D-04  0.39D-03  2  2     9.06     3.43
   3      1.12794774    -0.37328192   -93.29008296    -0.00022675    -0.00255670  0.14D-04  0.45D-04  3  3    12.03     3.44
   4      1.12998867    -0.37333729   -93.29013833    -0.00005537    -0.00075144  0.67D-06  0.50D-05  4  4    15.03     3.45
   5      1.13052784    -0.37334733   -93.29014837    -0.00001004    -0.00015251  0.80D-07  0.43D-06  5  5    18.04     3.46
   6      1.13063558    -0.37334583   -93.29014687     0.00000150    -0.00002684  0.87D-08  0.35D-07  6  6    21.07     3.46
   7      1.13064480    -0.37334676   -93.29014779    -0.00000093    -0.00000124  0.87D-09  0.29D-08  6  1    24.06     3.47
   8      1.13064740    -0.37334714   -93.29014818    -0.00000039    -0.00000109  0.13D-09  0.26D-09  6  2    27.06     3.47
   9      1.13064753    -0.37334721   -93.29014824    -0.00000006    -0.00000001  0.12D-10  0.18D-10  6  3    30.18     3.48
  10      1.13064742    -0.37334725   -93.29014829    -0.00000005     0.00000010  0.14D-11  0.17D-11  6  4    33.20     3.48
  11      1.13064737    -0.37334727   -93.29014831    -0.00000001     0.00000003  0.18D-12  0.17D-12  6  5    36.23     3.48
  12      1.13064731    -0.37334727   -93.29014831    -0.00000000     0.00000003  0.19D-13  0.29D-13  6  6    39.29     3.48
  13      1.13064728    -0.37334728   -93.29014831    -0.00000000     0.00000001  0.26D-14  0.55D-14  6  1    42.33     3.49
  14      1.13064726    -0.37334728   -93.29014831    -0.00000000     0.00000001  0.66D-16  0.88D-15  6  2    45.40     3.49
  15      1.13064726    -0.37334728   -93.29014831    -0.00000000     0.00000000  0.24D-16  0.11D-15  6  3    48.47     3.49
  16      1.13064726    -0.37334728   -93.29014831     0.00000000     0.00000000  0.28D-17  0.16D-16  6  4    51.48     3.49
  17      1.13064726    -0.37334728   -93.29014831     0.00000000     0.00000000  0.91D-18  0.21D-17  6  5    54.48     3.49
  18      1.13064726    -0.37334728   -93.29014831     0.00000000     0.00000000  0.26D-18  0.52D-18  6  6    57.44     3.49
  19      1.13064726    -0.37334728   -93.29014831     0.00000000     0.00000000  0.11D-18  0.26D-18  6  1    60.43     3.49
  20      1.13064726    -0.37334728   -93.29014831     0.00000000     0.00000000  0.57D-19  0.10D-18  6  2    63.57     3.50
  21      1.13064726    -0.37334728   -93.29014831     0.00000000     0.00000000  0.31D-19  0.36D-19  6  3    66.67     3.50

 Norm of t1 vector:      0.06333979      S-energy:    -0.00000000      T1 diagnostic:  0.01416321
                                                                       D1 diagnostic:  0.02844784


 Total CPU time for triples:     19.60 sec


 RESULTS
 =======

  Reference energy                    -92.916801036585
  CCSD singlet pair energy             -0.262249335779
  CCSD triplet pair energy             -0.111097939949
  CCSD correlation energy              -0.373347275729

  Triples (T) contribution             -0.019687602504
  Total correlation energy             -0.393034878233

  CCSD total energy                   -93.290148312314
  CCSD[T] energy                      -93.310644911059
  CCSD-T energy                       -93.309477597074
 !CCSD(T) total energy                -93.309835914818

 Timing summary (sec):

 STEP                 CPU(USER)    SYS     CPU(TOT)    WALL
 Transformation          3.22      0.55      3.77      3.78
 CCSD iterations        63.45     10.00     73.45     73.47
 Triples                19.60      0.58     20.18     20.18

 Program statistics:

 Available memory in ccsd:               994999800
 Min. memory needed in ccsd:               1363289
 Max. memory used in ccsd:                 1637718
 Max. memory used in cckext:               2695008 (21 integral passes)



 **********************************************************************************************************************************
 DATASETS  * FILE   NREC   LENGTH (MB)   RECORD NAMES
              1      20     3263.95       500      610      700      900      950      970     1000      129      960     1100   
                                          VAR    BASINP    GEOM    SYMINP    ZMAT    AOBASIS   BASIS     P2S    ABASIS      S 
                                         1400     1410     1200     1210     1080     1600     1650     1300     1700     1380   
                                           T        V       H0       H01     AOSYM     SMH    MOLCAS    ERIS     OPER     JKOP   

              2       4        3.46       700     1000      520     2100   
                                         GEOM     BASIS   MCVARS     RHF  

 PROGRAMS   *        TOTAL   CCSD(T)        HF       INT
 CPU TIMES  *       193.45     86.30     22.69     84.38
 REAL TIME  *       218.45 SEC
 DISK USED  *        10.04 GB      
 **********************************************************************************************************************************

 CCSD(T)/aug-cc-pV5Z energy=    -93.309835914818

        CCSD(T)         HF-SCF  
    -93.30983591    -92.91680104
 **********************************************************************************************************************************
 Molpro calculation terminated
 Variable memory released
