
 Primary working directories    : /tmp/r2666/232407.maple
 Secondary working directories  : /tmp/r2666/232407.maple
 Wavefunction directory         : /ddn/home4/r2666/wfu/
 Main file repository           : /tmp/r2666/232407.maple/

 SHA1      : d5ffa45e93fdbca01ffc919aa182cfdae0147319
 NAME      : 2015.1.35
 ARCHNAME  : linux/x86_64
 FC        : /opt/intel/composer_xe_2015.1.133/bin/intel64/ifort
 BLASLIB   : -Wl,-_start-group /opt/intel/mkl/lib/intel64/libmkl_intel_ilp64.a /opt/intel/mkl/lib/intel64/libmkl_intel_thread.a /opt/intel/mkl/lib/intel64/libmkl_core.a -Wl,-_end-group
 id        : olemiss

 Nodes     nprocs
 cn093        1

 Using customized tuning parameters: mindgm=1; mindgv=20; mindgc=4; mindgr=1; noblas=0; minvec=7
 default implementation of scratch files=df  

 ***,hcn CCSD(T)/TZ-F12 QFF
 memory, 995, m;
 gthresh,energy=1.d-12,zero=1.d-22,oneint=1.d-22,twoint=1.d-22;
 gthresh,optgrad=1.d-8,optstep=1.d-8;
 nocompress;
 geomtyp=xyz
 bohr
 geometry={
 3
         16        16
 N       -0.0046066808       -0.0000000631        1.1183537398
 C        0.0095917471        0.0000000016       -1.0510008334
 H       -0.0049850663        0.0000000614       -3.0644228884
 }
 
 basis=av5z
   {hf,maxit=500;accu,20;}
 {ccsd(t),nocheck,maxit=250;orbital,IGNORE_ERROR;}

 Variables initialized (889), CPU time= 0.01 sec
 Commands  initialized (702), CPU time= 0.01 sec, 572 directives.
 Default parameters read. Elapsed time= 0.05 sec

 Checking input...
 Passed
1


                                         ***  PROGRAM SYSTEM MOLPRO  ***
                                       Copyright, TTI GmbH Stuttgart, 2015
                                    Version 2015.1 linked Jul  9 2018 13:16:40


 **********************************************************************************************************************************
 LABEL *   hcn CCSD(T)/TZ-F12 QFF                                                        
  64 bit serial version                                                                  DATE: 06-Feb-20          TIME: 09:49:39  
 **********************************************************************************************************************************

 SHA1:             d5ffa45e93fdbca01ffc919aa182cfdae0147319
 **********************************************************************************************************************************

 THRESHOLDS:

 ZERO    =  1.00D-22  ONEINT  =  1.00D-22  TWOINT  =  1.00D-22  PREFAC  =  1.00D-14  LOCALI  =  1.00D-09  EORDER  =  1.00D-04
 ENERGY  =  1.00D-12  ETEST   =  0.00D+00  EDENS   =  0.00D+00  THRDEDEF=  1.00D-06  GRADIENT=  1.00D-02  STEP    =  1.00D-03
 ORBITAL =  1.00D-05  CIVEC   =  1.00D-05  COEFF   =  1.00D-04  PRINTCI =  5.00D-02  PUNCHCI =  9.90D+01  OPTGRAD =  3.00D-04
 OPTENERG=  1.00D-06  OPTSTEP =  3.00D-04  THRGRAD =  1.00D-10  COMPRESS=  1.00D-11  VARMIN  =  1.00D-07  VARMAX  =  1.00D-03
 THRDOUB =  0.00D+00  THRDIV  =  1.00D-05  THRRED  =  1.00D-07  THRPSP  =  1.00D+00  THRDC   =  1.00D-10  THRCS   =  1.00D-10
 THRNRM  =  1.00D-08  THREQ   =  0.00D+00  THRDE   =  1.00D+00  THRREF  =  1.00D-05  SPARFAC =  1.00D+00  THRDLP  =  1.00D-07
 THRDIA  =  1.00D-10  THRDLS  =  1.00D-07  THRGPS  =  0.00D+00  THRKEX  =  0.00D+00  THRDIS  =  2.00D-01  THRVAR  =  1.00D-10
 THRLOC  =  1.00D-06  THRGAP  =  1.00D-06  THRLOCT = -1.00D+00  THRGAPT = -1.00D+00  THRORB  =  1.00D-06  THRMLTP =  0.00D+00
 THRCPQCI=  1.00D-10  KEXTA   =  0.00D+00  THRCOARS=  0.00D+00  SYMTOL  =  1.00D-06  GRADTOL =  1.00D-06  THROVL  =  1.00D-08
 THRORTH =  1.00D-08  GRID    =  1.00D-06  GRIDMAX =  1.00D-03  DTMAX   =  0.00D+00  THROCCDE=  1.00D-01  THROCCDE=  1.00D-01



 THRESHOLDS:

 ZERO    =  1.00D-22  ONEINT  =  1.00D-22  TWOINT  =  1.00D-22  PREFAC  =  1.00D-14  LOCALI  =  1.00D-09  EORDER  =  1.00D-04
 ENERGY  =  1.00D-12  ETEST   =  0.00D+00  EDENS   =  0.00D+00  THRDEDEF=  1.00D-06  GRADIENT=  1.00D-02  STEP    =  1.00D-03
 ORBITAL =  1.00D-05  CIVEC   =  1.00D-05  COEFF   =  1.00D-04  PRINTCI =  5.00D-02  PUNCHCI =  9.90D+01  OPTGRAD =  1.00D-08
 OPTENERG=  1.00D-06  OPTSTEP =  1.00D-08  THRGRAD =  1.00D-10  COMPRESS=  1.00D-11  VARMIN  =  1.00D-07  VARMAX  =  1.00D-03
 THRDOUB =  0.00D+00  THRDIV  =  1.00D-05  THRRED  =  1.00D-07  THRPSP  =  1.00D+00  THRDC   =  1.00D-10  THRCS   =  1.00D-10
 THRNRM  =  1.00D-08  THREQ   =  0.00D+00  THRDE   =  1.00D+00  THRREF  =  1.00D-05  SPARFAC =  1.00D+00  THRDLP  =  1.00D-07
 THRDIA  =  1.00D-10  THRDLS  =  1.00D-07  THRGPS  =  0.00D+00  THRKEX  =  0.00D+00  THRDIS  =  2.00D-01  THRVAR  =  1.00D-10
 THRLOC  =  1.00D-06  THRGAP  =  1.00D-06  THRLOCT = -1.00D+00  THRGAPT = -1.00D+00  THRORB  =  1.00D-06  THRMLTP =  0.00D+00
 THRCPQCI=  1.00D-10  KEXTA   =  0.00D+00  THRCOARS=  0.00D+00  SYMTOL  =  1.00D-06  GRADTOL =  1.00D-06  THROVL  =  1.00D-08
 THRORTH =  1.00D-08  GRID    =  1.00D-06  GRIDMAX =  1.00D-03  DTMAX   =  0.00D+00  THROCCDE=  1.00D-01  THROCCDE=  1.00D-01



 Input parameters for SORTINT:

 COMPRESS =    0.000000
 C_FINAL  =    1.000000
 DEBUG    =   -1.000000
 C_SORT1  =    0.000000
 C_SEWARD =    0.000000
 THRESH   =    0.000000
 IO       =  molpro                                                          
 SPRI     =    0.000000
 SETTING GEOMTYP        =    XYZ
 ZUNIT=BOHR
 

 Variable memory set to  995000000 words,  buffer space   230000 words

 SETTING BASIS          =    AV5Z


 Recomputing integrals since basis changed


 Using spherical harmonics

 Library entry N      S aug-cc-pV5Z          selected for orbital group  1
 Library entry N      P aug-cc-pV5Z          selected for orbital group  1
 Library entry N      D aug-cc-pV5Z          selected for orbital group  1
 Library entry N      F aug-cc-pV5Z          selected for orbital group  1
 Library entry N      G aug-cc-pV5Z          selected for orbital group  1
 Library entry N      H aug-cc-pV5Z          selected for orbital group  1
 Library entry C      S aug-cc-pV5Z          selected for orbital group  2
 Library entry C      P aug-cc-pV5Z          selected for orbital group  2
 Library entry C      D aug-cc-pV5Z          selected for orbital group  2
 Library entry C      F aug-cc-pV5Z          selected for orbital group  2
 Library entry C      G aug-cc-pV5Z          selected for orbital group  2
 Library entry C      H aug-cc-pV5Z          selected for orbital group  2
 Library entry H      S aug-cc-pV5Z          selected for orbital group  3
 Library entry H      P aug-cc-pV5Z          selected for orbital group  3
 Library entry H      D aug-cc-pV5Z          selected for orbital group  3
 Library entry H      F aug-cc-pV5Z          selected for orbital group  3
 Library entry H      G aug-cc-pV5Z          selected for orbital group  3


 PROGRAM * SEWARD (Integral evaluation for generally contracted gaussian basis sets)     Author: Roland Lindh, 1990

 Geometry written to block  1 of record 700


 Point group  Cs  



 ATOMIC COORDINATES

 NR  ATOM    CHARGE       X              Y              Z

   1  N       7.00   -0.004606681    0.000000000    1.118353740
   2  C       6.00    0.009591747    0.000000000   -1.051000833
   3  H       1.00   -0.004985066    0.000000000   -3.064422888

 Bond lengths in Bohr (Angstrom)

 1-2  2.169401037  2-3  2.013474821
     ( 1.147997590)     ( 1.065484990)

 Bond angles

  1-2-3  179.21020053

 NUCLEAR CHARGE:                   14
 NUMBER OF PRIMITIVE AOS:         506
 NUMBER OF SYMMETRY AOS:          371
 NUMBER OF CONTRACTIONS:          334   ( 204A'  + 130A"  )
 NUMBER OF CORE ORBITALS:           2   (   2A'  +   0A"  )
 NUMBER OF VALENCE ORBITALS:        9   (   7A'  +   2A"  )


 NUCLEAR REPULSION ENERGY   24.01363501


 Eigenvalues of metric

         1 0.241E-05 0.550E-05 0.145E-04 0.352E-04 0.553E-04 0.574E-04 0.688E-04 0.171E-03
         2 0.553E-04 0.180E-03 0.368E-03 0.693E-03 0.756E-03 0.922E-03 0.152E-02 0.185E-02


 Contracted 2-electron integrals neglected if value below      1.0D-22

      755703791. INTEGRALS WRITTEN OUT IN  184544 BLOCKS ON RECORD 1290 OF FILE 1


 NUMBER OF SORTED TWO-ELECTRON INTEGRALS:  789027325.     BUFFER LENGTH:  32768
 NUMBER OF SEGMENTS:  25  SEGMENT LENGTH:   31997130      RECORD LENGTH: 524288

 Memory used in sort:      32.55 MW

 SORT1 READ   755703791. AND WROTE   759710789. INTEGRALS IN   2188 RECORDS. CPU TIME:    22.23 SEC, REAL TIME:    62.37 SEC
 SORT2 READ   759710789. AND WROTE   789027325. INTEGRALS IN     25 RECORDS. CPU TIME:     9.02 SEC, REAL TIME:    13.89 SEC

 FILE SIZES:   FILE 1: 12117.1 MBYTE,  FILE 4:  9177.2 MBYTE,   TOTAL:  21294.3 MBYTE

 OPERATOR DM      FOR CENTER  0  COORDINATES:    0.000000    0.000000    0.000000


 **********************************************************************************************************************************
 DATASETS  * FILE   NREC   LENGTH (MB)   RECORD NAMES
              1      19     6368.18       500      610      700      900      950      970     1000      129      960     1100   
                                          VAR    BASINP    GEOM    SYMINP    ZMAT    AOBASIS   BASIS     P2S    ABASIS      S 
                                         1400     1410     1200     1210     1080     1600     1650     1300     1700   
                                           T        V       H0       H01     AOSYM     SMH    MOLCAS    ERIS     OPER   

 PROGRAMS   *        TOTAL       INT
 CPU TIMES  *       140.54    140.44
 REAL TIME  *       193.88 SEC
 DISK USED  *        21.29 GB      
 **********************************************************************************************************************************


 PROGRAM * RHF-SCF (CLOSED SHELL)       Authors: W. Meyer, H.-J. Werner


 NUMBER OF ELECTRONS:       7+    7-
 CONVERGENCE THRESHOLDS:    1.00E-10 (Density)    1.00E-13 (Energy)
 MAX. NUMBER OF ITERATIONS:      500
 INTERPOLATION TYPE:            DIIS
 INTERPOLATION STEPS:              2 (START)      1 (STEP)
 LEVEL SHIFTS:                  0.00 (CLOSED)  0.00 (OPEN) 



 Orbital guess generated from atomic densities. Full valence occupancy:    9   2

 Molecular orbital dump at record        2100.2

 Initial occupancy:   6   1

 ITERATION    DDIFF          GRAD             ENERGY        2-EL.EN.            DIPOLE MOMENTS         DIIS   ORB.
    1      0.000D+00      0.000D+00       -92.89191888    112.193721    0.00692    0.00000   -1.77949    0    start
    2      0.000D+00      0.427D-02       -92.90115724    111.279128   -0.00238    0.00000   -0.90383    1    diag
    3      0.316D-02      0.376D-02       -92.91617398    111.828144    0.00151    0.00000   -1.30737    2    diag
    4      0.161D-02      0.316D-03       -92.91640176    111.793563    0.00117    0.00000   -1.29528    3    diag
    5      0.304D-03      0.663D-04       -92.91641487    111.801076    0.00107    0.00000   -1.29378    4    diag
    6      0.750D-04      0.176D-04       -92.91641559    111.796755    0.00106    0.00000   -1.29390    5    diag
    7      0.141D-04      0.616D-05       -92.91641566    111.797972    0.00105    0.00000   -1.29394    6    diag
    8      0.472D-05      0.134D-05       -92.91641566    111.797908    0.00105    0.00000   -1.29391    7    diag
    9      0.101D-05      0.157D-06       -92.91641566    111.797916    0.00105    0.00000   -1.29390    8    diag
   10      0.159D-06      0.207D-07       -92.91641566    111.797918    0.00105    0.00000   -1.29390    9    orth
   11      0.196D-07      0.379D-08       -92.91641566    111.797918    0.00105    0.00000   -1.29390    9    diag
   12      0.432D-08      0.130D-08       -92.91641566    111.797918    0.00105    0.00000   -1.29390    9    diag
   13      0.192D-08      0.647D-09       -92.91641566    111.797918    0.00105    0.00000   -1.29390    9    diag
   14      0.135D-08      0.147D-09       -92.91641566    111.797918    0.00105    0.00000   -1.29390    9    diag
   15      0.356D-09      0.549D-10       -92.91641566    111.797918    0.00105    0.00000   -1.29390    9    diag
   16      0.251D-09      0.771D-11       -92.91641566    111.797918    0.00105    0.00000   -1.29390    9    diag
   17      0.680D-10      0.194D-11       -92.91641566    111.797918    0.00105    0.00000   -1.29390    9    diag
   18      0.102D-09      0.694D-12       -92.91641566    111.797918    0.00105    0.00000   -1.29390    9    diag
   19      0.458D-10      0.409D-12       -92.91641566    111.797918    0.00105    0.00000   -1.29390    9    fixocc
   20      0.108D-10      0.439D-12       -92.91641566    111.797918    0.00105    0.00000   -1.29390    9    orth
   21      0.205D-10      0.404D-12       -92.91641566    111.797918    0.00105    0.00000   -1.29390    0    orth

 Final occupancy:   6   1

 !RHF STATE 1.1 Energy                -92.916415660625
 Nuclear energy                        24.01363501
 One-electron energy                 -172.82900950
 Two-electron energy                   55.89895883
 Virial quotient                       -1.00172238
 !RHF STATE 1.1 Dipole moment           0.00105272     0.00000000    -1.29390089
 Dipole moment /Debye                   0.00267558     0.00000000    -3.28855263

 Orbital energies:

         1.1          2.1          3.1          4.1          5.1          6.1          7.1          8.1
    -15.596115   -11.289044    -1.238813    -0.812450    -0.582034    -0.498544     0.017594     0.052435

         1.2          2.2          3.2
     -0.498546     0.052438     0.101887

 HOMO      6.1    -0.498544 =     -13.5661eV
 LUMO      7.1     0.017594 =       0.4788eV
 LUMO-HOMO         0.516138 =      14.0448eV


 **********************************************************************************************************************************
 DATASETS  * FILE   NREC   LENGTH (MB)   RECORD NAMES
              1      19     6368.18       500      610      700      900      950      970     1000      129      960     1100   
                                          VAR    BASINP    GEOM    SYMINP    ZMAT    AOBASIS   BASIS     P2S    ABASIS      S 
                                         1400     1410     1200     1210     1080     1600     1650     1300     1700   
                                           T        V       H0       H01     AOSYM     SMH    MOLCAS    ERIS     OPER   

              2       4        4.02       700     1000      520     2100   
                                         GEOM     BASIS   MCVARS     RHF  

 PROGRAMS   *        TOTAL        HF       INT
 CPU TIMES  *       220.26     79.72    140.44
 REAL TIME  *       298.58 SEC
 DISK USED  *        21.29 GB      
 **********************************************************************************************************************************


 PROGRAM * CCSD (Closed-shell coupled cluster)     Authors: C. Hampel, H.-J. Werner, 1991, M. Deegan, P.J. Knowles, 1992


 Convergence thresholds:  THRVAR = 1.00D-08  THRDEN = 1.00D-12

 CCSD(T)     terms to be evaluated (factor= 1.000)


 Number of core orbitals:           2 (   2   0 )
 Number of closed-shell orbitals:   5 (   4   1 )
 Number of external orbitals:     327 ( 198 129 )

 Molecular orbitals read from record     2100.2  Type=RHF/CANONICAL (state 1.1)

 Number of N-1 electron functions:               5
 Number of N-2 electron functions:              15
 Number of singly external CSFs:               921
 Number of doubly external CSFs:            679836
 Total number of CSFs:                      680758

 Length of J-op  integral file:               0.00 MB
 Length of K-op  integral file:               4.07 MB
 Length of 3-ext integral record:             0.00 MB

 Memory could be reduced to 134.37 Mwords without degradation in triples

 Integral transformation finished. Total CPU:  11.29 sec, npass=  1  Memory used:  35.82 MW

 Reference energy:                    -92.91641566

 MP2 singlet pair energy:              -0.24427917
 MP2 triplet pair energy:              -0.13248972
 MP2 correlation energy:               -0.37676889
 MP2 total energy:                    -93.29318455

 SCS-MP2 correlation energy:           -0.37557305   (PS=  1.200000  PT=  0.333333)
 SCS-MP2 total energy:                -93.29198871

 ITER.      SQ.NORM     CORR.ENERGY   TOTAL ENERGY   ENERGY CHANGE        DEN1      VAR(S)    VAR(P)  DIIS     TIME  TIME/IT
   1      1.11455931    -0.37339246   -93.28980812     0.00337643     0.01660807  0.26D-02  0.31D-02  1  1    19.96     9.82
   2      1.12363371    -0.37358217   -93.28999783    -0.00018971    -0.01019550  0.65D-04  0.40D-03  2  2    29.20    10.09
   3      1.12851567    -0.37381010   -93.29022576    -0.00022793    -0.00257237  0.14D-04  0.46D-04  3  3    38.28    10.16
   4      1.13060004    -0.37386722   -93.29028288    -0.00005711    -0.00076240  0.67D-06  0.52D-05  4  4    47.49    10.21
   5      1.13115536    -0.37387725   -93.29029291    -0.00001003    -0.00015678  0.75D-07  0.44D-06  5  5    56.70    10.29
   6      1.13126559    -0.37387571   -93.29029137     0.00000154    -0.00002733  0.91D-08  0.37D-07  6  6    66.06    10.38
   7      1.13127477    -0.37387674   -93.29029240    -0.00000103    -0.00000116  0.86D-09  0.31D-08  6  1    75.47    10.43
   8      1.13127742    -0.37387715   -93.29029281    -0.00000041    -0.00000112  0.13D-09  0.28D-09  6  2    84.42    10.42
   9      1.13127751    -0.37387722   -93.29029288    -0.00000007     0.00000001  0.12D-10  0.19D-10  6  3    93.27    10.37
  10      1.13127739    -0.37387727   -93.29029293    -0.00000005     0.00000010  0.12D-11  0.17D-11  6  4   102.00    10.33
  11      1.13127733    -0.37387728   -93.29029295    -0.00000002     0.00000003  0.18D-12  0.16D-12  6  5   110.75    10.30
  12      1.13127727    -0.37387729   -93.29029295    -0.00000000     0.00000003  0.23D-13  0.26D-13  6  6   119.50    10.27
  13      1.13127724    -0.37387729   -93.29029295    -0.00000000     0.00000001  0.29D-14  0.52D-14  6  1   128.30    10.25
  14      1.13127722    -0.37387729   -93.29029295    -0.00000000     0.00000001  0.33D-15  0.80D-15  6  2   137.14    10.23
  15      1.13127722    -0.37387729   -93.29029295    -0.00000000     0.00000000  0.62D-16  0.11D-15  6  3   145.90    10.22
  16      1.13127722    -0.37387729   -93.29029295     0.00000000     0.00000000  0.15D-16  0.17D-16  6  4   154.79    10.21
  17      1.13127722    -0.37387729   -93.29029295     0.00000000     0.00000000  0.47D-17  0.33D-17  6  5   163.68    10.20
  18      1.13127722    -0.37387729   -93.29029295     0.00000000     0.00000000  0.18D-17  0.90D-18  6  6   172.63    10.21
  19      1.13127722    -0.37387729   -93.29029295     0.00000000    -0.00000000  0.66D-18  0.31D-18  6  1   181.90    10.22
  20      1.13127722    -0.37387729   -93.29029295     0.00000000     0.00000000  0.34D-18  0.16D-18  6  2   191.08    10.24
  21      1.13127722    -0.37387729   -93.29029295    -0.00000000     0.00000000  0.30D-18  0.16D-18  6  3   200.26    10.26

 Norm of t1 vector:      0.06395275      S-energy:    -0.00000000      T1 diagnostic:  0.01430027
                                                                       D1 diagnostic:  0.02880391


 Total CPU time for triples:     57.94 sec


 RESULTS
 =======

  Reference energy                    -92.916415660624
  CCSD singlet pair energy             -0.262661714554
  CCSD triplet pair energy             -0.111215577214
  CCSD correlation energy              -0.373877291772

  Triples (T) contribution             -0.019822816795
  Total correlation energy             -0.393700108567

  CCSD total energy                   -93.290292952397
  CCSD[T] energy                      -93.310942253929
  CCSD-T energy                       -93.309750149117
 !CCSD(T) total energy                -93.310115769192

 Timing summary (sec):

 STEP                 CPU(USER)    SYS     CPU(TOT)    WALL
 Transformation         11.33      1.63     12.96     12.95
 CCSD iterations       188.95     26.50    215.45    215.47
 Triples                57.94      1.16     59.10     59.11

 Program statistics:

 Available memory in ccsd:               994999800
 Min. memory needed in ccsd:               2642580
 Max. memory used in ccsd:                 3176052
 Max. memory used in cckext:               7643882 (21 integral passes)



 **********************************************************************************************************************************
 DATASETS  * FILE   NREC   LENGTH (MB)   RECORD NAMES
              1      20     6732.31       500      610      700      900      950      970     1000      129      960     1100   
                                          VAR    BASINP    GEOM    SYMINP    ZMAT    AOBASIS   BASIS     P2S    ABASIS      S 
                                         1400     1410     1200     1210     1080     1600     1650     1300     1700     1380   
                                           T        V       H0       H01     AOSYM     SMH    MOLCAS    ERIS     OPER     JKOP   

              2       4        4.02       700     1000      520     2100   
                                         GEOM     BASIS   MCVARS     RHF  

 PROGRAMS   *        TOTAL   CCSD(T)        HF       INT
 CPU TIMES  *       478.49    258.23     79.72    140.44
 REAL TIME  *       586.14 SEC
 DISK USED  *        21.29 GB      
 **********************************************************************************************************************************

 CCSD(T)/aug-cc-pV5Z energy=    -93.310115769192

        CCSD(T)         HF-SCF  
    -93.31011577    -92.91641566
 **********************************************************************************************************************************
 Molpro calculation terminated
 Variable memory released
