
 Primary working directories    : /tmp/r2666/232412.maple
 Secondary working directories  : /tmp/r2666/232412.maple
 Wavefunction directory         : /ddn/home4/r2666/wfu/
 Main file repository           : /tmp/r2666/232412.maple/

 SHA1      : d5ffa45e93fdbca01ffc919aa182cfdae0147319
 NAME      : 2015.1.35
 ARCHNAME  : linux/x86_64
 FC        : /opt/intel/composer_xe_2015.1.133/bin/intel64/ifort
 BLASLIB   : -Wl,-_start-group /opt/intel/mkl/lib/intel64/libmkl_intel_ilp64.a /opt/intel/mkl/lib/intel64/libmkl_intel_thread.a /opt/intel/mkl/lib/intel64/libmkl_core.a -Wl,-_end-group
 id        : olemiss

 Nodes     nprocs
 cn090        1

 Using customized tuning parameters: mindgm=1; mindgv=20; mindgc=4; mindgr=1; noblas=0; minvec=7
 default implementation of scratch files=df  

 ***,hcn CCSD(T)/TZ-F12 QFF
 memory, 995, m;
 gthresh,energy=1.d-12,zero=1.d-22,oneint=1.d-22,twoint=1.d-22;
 gthresh,optgrad=1.d-8,optstep=1.d-8;
 nocompress;
 geomtyp=xyz
 bohr
 geometry={
 3
         21        21
 N        0.0000000000        0.0000000000        1.1121032177
 C        0.0000000000        0.0000000000       -1.0667464493
 H        0.0000000000        0.0000000000       -3.0424267505
 }
 
 basis=av5z
   {hf,maxit=500;accu,20;}
 {ccsd(t),nocheck,maxit=250;orbital,IGNORE_ERROR;}

 Variables initialized (889), CPU time= 0.00 sec
 Commands  initialized (702), CPU time= 0.01 sec, 572 directives.
 Default parameters read. Elapsed time= 0.05 sec

 Checking input...
 Passed
1


                                         ***  PROGRAM SYSTEM MOLPRO  ***
                                       Copyright, TTI GmbH Stuttgart, 2015
                                    Version 2015.1 linked Jul  9 2018 13:16:40


 **********************************************************************************************************************************
 LABEL *   hcn CCSD(T)/TZ-F12 QFF                                                        
  64 bit serial version                                                                  DATE: 06-Feb-20          TIME: 09:49:39  
 **********************************************************************************************************************************

 SHA1:             d5ffa45e93fdbca01ffc919aa182cfdae0147319
 **********************************************************************************************************************************

 THRESHOLDS:

 ZERO    =  1.00D-22  ONEINT  =  1.00D-22  TWOINT  =  1.00D-22  PREFAC  =  1.00D-14  LOCALI  =  1.00D-09  EORDER  =  1.00D-04
 ENERGY  =  1.00D-12  ETEST   =  0.00D+00  EDENS   =  0.00D+00  THRDEDEF=  1.00D-06  GRADIENT=  1.00D-02  STEP    =  1.00D-03
 ORBITAL =  1.00D-05  CIVEC   =  1.00D-05  COEFF   =  1.00D-04  PRINTCI =  5.00D-02  PUNCHCI =  9.90D+01  OPTGRAD =  3.00D-04
 OPTENERG=  1.00D-06  OPTSTEP =  3.00D-04  THRGRAD =  1.00D-10  COMPRESS=  1.00D-11  VARMIN  =  1.00D-07  VARMAX  =  1.00D-03
 THRDOUB =  0.00D+00  THRDIV  =  1.00D-05  THRRED  =  1.00D-07  THRPSP  =  1.00D+00  THRDC   =  1.00D-10  THRCS   =  1.00D-10
 THRNRM  =  1.00D-08  THREQ   =  0.00D+00  THRDE   =  1.00D+00  THRREF  =  1.00D-05  SPARFAC =  1.00D+00  THRDLP  =  1.00D-07
 THRDIA  =  1.00D-10  THRDLS  =  1.00D-07  THRGPS  =  0.00D+00  THRKEX  =  0.00D+00  THRDIS  =  2.00D-01  THRVAR  =  1.00D-10
 THRLOC  =  1.00D-06  THRGAP  =  1.00D-06  THRLOCT = -1.00D+00  THRGAPT = -1.00D+00  THRORB  =  1.00D-06  THRMLTP =  0.00D+00
 THRCPQCI=  1.00D-10  KEXTA   =  0.00D+00  THRCOARS=  0.00D+00  SYMTOL  =  1.00D-06  GRADTOL =  1.00D-06  THROVL  =  1.00D-08
 THRORTH =  1.00D-08  GRID    =  1.00D-06  GRIDMAX =  1.00D-03  DTMAX   =  0.00D+00  THROCCDE=  1.00D-01  THROCCDE=  1.00D-01



 THRESHOLDS:

 ZERO    =  1.00D-22  ONEINT  =  1.00D-22  TWOINT  =  1.00D-22  PREFAC  =  1.00D-14  LOCALI  =  1.00D-09  EORDER  =  1.00D-04
 ENERGY  =  1.00D-12  ETEST   =  0.00D+00  EDENS   =  0.00D+00  THRDEDEF=  1.00D-06  GRADIENT=  1.00D-02  STEP    =  1.00D-03
 ORBITAL =  1.00D-05  CIVEC   =  1.00D-05  COEFF   =  1.00D-04  PRINTCI =  5.00D-02  PUNCHCI =  9.90D+01  OPTGRAD =  1.00D-08
 OPTENERG=  1.00D-06  OPTSTEP =  1.00D-08  THRGRAD =  1.00D-10  COMPRESS=  1.00D-11  VARMIN  =  1.00D-07  VARMAX  =  1.00D-03
 THRDOUB =  0.00D+00  THRDIV  =  1.00D-05  THRRED  =  1.00D-07  THRPSP  =  1.00D+00  THRDC   =  1.00D-10  THRCS   =  1.00D-10
 THRNRM  =  1.00D-08  THREQ   =  0.00D+00  THRDE   =  1.00D+00  THRREF  =  1.00D-05  SPARFAC =  1.00D+00  THRDLP  =  1.00D-07
 THRDIA  =  1.00D-10  THRDLS  =  1.00D-07  THRGPS  =  0.00D+00  THRKEX  =  0.00D+00  THRDIS  =  2.00D-01  THRVAR  =  1.00D-10
 THRLOC  =  1.00D-06  THRGAP  =  1.00D-06  THRLOCT = -1.00D+00  THRGAPT = -1.00D+00  THRORB  =  1.00D-06  THRMLTP =  0.00D+00
 THRCPQCI=  1.00D-10  KEXTA   =  0.00D+00  THRCOARS=  0.00D+00  SYMTOL  =  1.00D-06  GRADTOL =  1.00D-06  THROVL  =  1.00D-08
 THRORTH =  1.00D-08  GRID    =  1.00D-06  GRIDMAX =  1.00D-03  DTMAX   =  0.00D+00  THROCCDE=  1.00D-01  THROCCDE=  1.00D-01



 Input parameters for SORTINT:

 COMPRESS =    0.000000
 C_FINAL  =    1.000000
 DEBUG    =   -1.000000
 C_SORT1  =    0.000000
 C_SEWARD =    0.000000
 THRESH   =    0.000000
 IO       =  molpro                                                          
 SPRI     =    0.000000
 SETTING GEOMTYP        =    XYZ
 ZUNIT=BOHR
 

 Variable memory set to  995000000 words,  buffer space   230000 words

 SETTING BASIS          =    AV5Z


 Recomputing integrals since basis changed


 Using spherical harmonics

 Library entry N      S aug-cc-pV5Z          selected for orbital group  1
 Library entry N      P aug-cc-pV5Z          selected for orbital group  1
 Library entry N      D aug-cc-pV5Z          selected for orbital group  1
 Library entry N      F aug-cc-pV5Z          selected for orbital group  1
 Library entry N      G aug-cc-pV5Z          selected for orbital group  1
 Library entry N      H aug-cc-pV5Z          selected for orbital group  1
 Library entry C      S aug-cc-pV5Z          selected for orbital group  2
 Library entry C      P aug-cc-pV5Z          selected for orbital group  2
 Library entry C      D aug-cc-pV5Z          selected for orbital group  2
 Library entry C      F aug-cc-pV5Z          selected for orbital group  2
 Library entry C      G aug-cc-pV5Z          selected for orbital group  2
 Library entry C      H aug-cc-pV5Z          selected for orbital group  2
 Library entry H      S aug-cc-pV5Z          selected for orbital group  3
 Library entry H      P aug-cc-pV5Z          selected for orbital group  3
 Library entry H      D aug-cc-pV5Z          selected for orbital group  3
 Library entry H      F aug-cc-pV5Z          selected for orbital group  3
 Library entry H      G aug-cc-pV5Z          selected for orbital group  3


 PROGRAM * SEWARD (Integral evaluation for generally contracted gaussian basis sets)     Author: Roland Lindh, 1990

 Geometry written to block  1 of record 700


 Point group  C2v 



 ATOMIC COORDINATES

 NR  ATOM    CHARGE       X              Y              Z

   1  N       7.00    0.000000000    0.000000000    1.112103218
   2  C       6.00    0.000000000    0.000000000   -1.066746449
   3  H       1.00    0.000000000    0.000000000   -3.042426751

 Bond lengths in Bohr (Angstrom)

 1-2  2.178849667  2-3  1.975680301
     ( 1.152997590)     ( 1.045484991)

 Bond angles

  1-2-3  180.00000000

 NUCLEAR CHARGE:                   14
 NUMBER OF PRIMITIVE AOS:         506
 NUMBER OF SYMMETRY AOS:          371
 NUMBER OF CONTRACTIONS:          334   ( 123A1  +  81B1  +  81B2  +  49A2  )
 NUMBER OF CORE ORBITALS:           2   (   2A1  +   0B1  +   0B2  +   0A2  )
 NUMBER OF VALENCE ORBITALS:        9   (   5A1  +   2B1  +   2B2  +   0A2  )


 NUCLEAR REPULSION ENERGY   23.99806305

 EXTRA SYMMETRY OF AOS IN SYMMETRY 1:   1 1 1 1 1 1 1 1 1 1   1 1 1 1 2 1 2 1 2 1   2 1 2 1 2 1 2 1 2 1   2 1 3 2 1 3 2 1 3 2
                                        2 3 1 2 3 1 1 1 1 1   1 1 1 1 1 1 1 1 1 1   2 1 2 1 2 1 2 1 2 1   2 1 2 1 2 1 2 1 3 2
                                        1 3 2 1 3 2 2 3 1 2   3 1 1 1 1 1 1 1 1 1   1 1 1 1 2 1 2 1 2 1   2 1 2 1 2 1 2 1 3 2
                                        1 3 2
 EXTRA SYMMETRY OF AOS IN SYMMETRY 2:   1 1 1 1 1 1 1 1 1 1   1 1 2 1 2 1 2 1 2 1   2 1 2 1 2 1 2 3 1 2   3 1 1 1 1 1 1 1 1 1
                                        1 1 1 2 1 2 1 2 1 2   1 2 1 2 1 2 1 2 3 1   2 3 1 1 1 1 1 1 1 1   1 1 2 1 2 1 2 1 2 1
                                        2
 EXTRA SYMMETRY OF AOS IN SYMMETRY 3:   1 1 1 1 1 1 1 1 1 1   1 1 2 1 2 1 2 1 2 1   2 1 2 1 2 1 2 3 1 2   3 1 1 1 1 1 1 1 1 1
                                        1 1 1 2 1 2 1 2 1 2   1 2 1 2 1 2 1 2 3 1   2 3 1 1 1 1 1 1 1 1   1 1 2 1 2 1 2 1 2 1
                                        2
 EXTRA SYMMETRY OF AOS IN SYMMETRY 4:   1 1 1 1 1 1 1 1 1 1   2 1 2 1 2 2 1 2 1 1   1 1 1 1 1 1 1 1 1 2   1 2 1 2 2 1 2 1 1 1
                                        1 1 1 1 1 1 2 1 2

 Eigenvalues of metric

         1 0.230E-05 0.543E-05 0.140E-04 0.343E-04 0.572E-04 0.674E-04 0.172E-03 0.219E-03
         2 0.551E-04 0.163E-03 0.365E-03 0.676E-03 0.915E-03 0.145E-02 0.185E-02 0.368E-02
         3 0.551E-04 0.163E-03 0.365E-03 0.676E-03 0.915E-03 0.145E-02 0.185E-02 0.368E-02
         4 0.767E-03 0.205E-02 0.488E-02 0.665E-02 0.152E-01 0.227E-01 0.248E-01 0.610E-01


 Contracted 2-electron integrals neglected if value below      1.0D-22

      355431052. INTEGRALS WRITTEN OUT IN   86797 BLOCKS ON RECORD 1290 OF FILE 1


 NUMBER OF SORTED TWO-ELECTRON INTEGRALS:  396972178.     BUFFER LENGTH:  32768
 NUMBER OF SEGMENTS:  13  SEGMENT LENGTH:   31999071      RECORD LENGTH: 524288

 Memory used in sort:      32.56 MW

 SORT1 READ   355431052. AND WROTE   358606784. INTEGRALS IN   1032 RECORDS. CPU TIME:    16.04 SEC, REAL TIME:    48.11 SEC
 SORT2 READ   358606784. AND WROTE   396972178. INTEGRALS IN     13 RECORDS. CPU TIME:     5.11 SEC, REAL TIME:     7.42 SEC

 FILE SIZES:   FILE 1:  5710.7 MBYTE,  FILE 4:  4328.6 MBYTE,   TOTAL:  10039.2 MBYTE

 OPERATOR DM      FOR CENTER  0  COORDINATES:    0.000000    0.000000    0.000000


 **********************************************************************************************************************************
 DATASETS  * FILE   NREC   LENGTH (MB)   RECORD NAMES
              1      19     3080.81       500      610      700      900      950      970     1000      129      960     1100   
                                          VAR    BASINP    GEOM    SYMINP    ZMAT    AOBASIS   BASIS     P2S    ABASIS      S 
                                         1400     1410     1200     1210     1080     1600     1650     1300     1700   
                                           T        V       H0       H01     AOSYM     SMH    MOLCAS    ERIS     OPER   

 PROGRAMS   *        TOTAL       INT
 CPU TIMES  *        93.24     93.17
 REAL TIME  *       131.11 SEC
 DISK USED  *        10.04 GB      
 **********************************************************************************************************************************


 PROGRAM * RHF-SCF (CLOSED SHELL)       Authors: W. Meyer, H.-J. Werner


 NUMBER OF ELECTRONS:       7+    7-
 CONVERGENCE THRESHOLDS:    1.00E-10 (Density)    1.00E-13 (Energy)
 MAX. NUMBER OF ITERATIONS:      500
 INTERPOLATION TYPE:            DIIS
 INTERPOLATION STEPS:              2 (START)      1 (STEP)
 LEVEL SHIFTS:                  0.00 (CLOSED)  0.00 (OPEN) 



 Orbital guess generated from atomic densities. Full valence occupancy:    7   2   2   0

 Molecular orbital dump at record        2100.2

 Initial occupancy:   5   1   1   0

 ITERATION    DDIFF          GRAD             ENERGY        2-EL.EN.            DIPOLE MOMENTS         DIIS   ORB.
    1      0.000D+00      0.000D+00       -92.89193313    112.091597    0.00000    0.00000   -1.75686    0    start
    2      0.000D+00      0.554D-02       -92.90090192    111.234773    0.00000    0.00000   -0.89617    1    diag
    3      0.429D-02      0.488D-02       -92.91541064    111.768778    0.00000    0.00000   -1.29786    2    diag
    4      0.218D-02      0.429D-03       -92.91564504    111.729371    0.00000    0.00000   -1.28564    3    diag
    5      0.425D-03      0.894D-04       -92.91565811    111.738346    0.00000    0.00000   -1.28419    4    diag
    6      0.104D-03      0.236D-04       -92.91565886    111.733586    0.00000    0.00000   -1.28428    5    diag
    7      0.199D-04      0.840D-05       -92.91565893    111.734737    0.00000    0.00000   -1.28431    6    diag
    8      0.672D-05      0.181D-05       -92.91565893    111.734683    0.00000    0.00000   -1.28428    7    diag
    9      0.145D-05      0.214D-06       -92.91565893    111.734692    0.00000    0.00000   -1.28428    8    diag
   10      0.226D-06      0.277D-07       -92.91565893    111.734694    0.00000    0.00000   -1.28428    9    orth
   11      0.272D-07      0.407D-08       -92.91565893    111.734694    0.00000    0.00000   -1.28428    9    diag
   12      0.482D-08      0.374D-09       -92.91565893    111.734694    0.00000    0.00000   -1.28428    9    diag
   13      0.118D-08      0.310D-10       -92.91565893    111.734694    0.00000    0.00000   -1.28428    9    diag
   14      0.185D-09      0.491D-11       -92.91565893    111.734694    0.00000    0.00000   -1.28428    9    diag
   15      0.819D-10      0.109D-11       -92.91565893    111.734694    0.00000    0.00000   -1.28428    9    diag
   16      0.750D-10      0.444D-12       -92.91565893    111.734694    0.00000    0.00000   -1.28428    9    diag
   17      0.279D-10      0.561D-12       -92.91565893    111.734694    0.00000    0.00000   -1.28428    9    diag
   18      0.144D-10      0.476D-12       -92.91565893    111.734694    0.00000    0.00000   -1.28428    9    diag
   19      0.142D-10      0.431D-12       -92.91565893    111.734694    0.00000    0.00000   -1.28428    9    fixocc
   20      0.681D-11      0.458D-12       -92.91565893    111.734694    0.00000    0.00000   -1.28428    9    orth
   21      0.829D-11      0.324D-12       -92.91565893    111.734694    0.00000    0.00000   -1.28428    9    diag
   22      0.340D-11      0.230D-12       -92.91565893    111.734694    0.00000    0.00000   -1.28428    9    diag
   23      0.609D-11      0.423D-12       -92.91565893    111.734694    0.00000    0.00000   -1.28428    0    orth

 Final occupancy:   5   1   1   0

 !RHF STATE 1.1 Energy                -92.915658932538
 Nuclear energy                        23.99806305
 One-electron energy                 -172.78106874
 Two-electron energy                   55.86734676
 Virial quotient                       -1.00166945
 !RHF STATE 1.1 Dipole moment           0.00000000     0.00000000    -1.28427577
 Dipole moment /Debye                   0.00000000     0.00000000    -3.26408960

 Orbital energies:

         1.1          2.1          3.1          4.1          5.1          6.1          7.1
    -15.598317   -11.289378    -1.236733    -0.821121    -0.582973     0.017644     0.053224

         1.2          2.2          3.2
     -0.497333     0.052426     0.101673

         1.3          2.3          3.3
     -0.497333     0.052426     0.101673

         1.4          2.4
      0.202460     0.326666

 HOMO      1.2    -0.497333 =     -13.5331eV
 LUMO      6.1     0.017644 =       0.4801eV
 LUMO-HOMO         0.514977 =      14.0132eV


 **********************************************************************************************************************************
 DATASETS  * FILE   NREC   LENGTH (MB)   RECORD NAMES
              1      19     3080.81       500      610      700      900      950      970     1000      129      960     1100   
                                          VAR    BASINP    GEOM    SYMINP    ZMAT    AOBASIS   BASIS     P2S    ABASIS      S 
                                         1400     1410     1200     1210     1080     1600     1650     1300     1700   
                                           T        V       H0       H01     AOSYM     SMH    MOLCAS    ERIS     OPER   

              2       4        3.46       700     1000      520     2100   
                                         GEOM     BASIS   MCVARS     RHF  

 PROGRAMS   *        TOTAL        HF       INT
 CPU TIMES  *       119.22     25.98     93.17
 REAL TIME  *       163.90 SEC
 DISK USED  *        10.04 GB      
 **********************************************************************************************************************************


 PROGRAM * CCSD (Closed-shell coupled cluster)     Authors: C. Hampel, H.-J. Werner, 1991, M. Deegan, P.J. Knowles, 1992


 Convergence thresholds:  THRVAR = 1.00D-08  THRDEN = 1.00D-12

 CCSD(T)     terms to be evaluated (factor= 1.000)


 Number of core orbitals:           2 (   2   0   0   0 )
 Number of closed-shell orbitals:   5 (   3   1   1   0 )
 Number of external orbitals:     327 ( 118  80  80  49 )

 Molecular orbitals read from record     2100.2  Type=RHF/CANONICAL (state 1.1)

 Number of N-1 electron functions:               5
 Number of N-2 electron functions:              15
 Number of singly external CSFs:               514
 Number of doubly external CSFs:            345689
 Total number of CSFs:                      346204

 Length of J-op  integral file:               0.00 MB
 Length of K-op  integral file:               2.14 MB
 Length of 3-ext integral record:             0.00 MB

 Memory could be reduced to 68.09 Mwords without degradation in triples

 Integral transformation finished. Total CPU:   3.27 sec, npass=  1  Memory used:   7.20 MW

 Reference energy:                    -92.91565893

 MP2 singlet pair energy:              -0.24467102
 MP2 triplet pair energy:              -0.13286469
 MP2 correlation energy:               -0.37753571
 MP2 total energy:                    -93.29319464

 SCS-MP2 correlation energy:           -0.37627659   (PS=  1.200000  PT=  0.333333)
 SCS-MP2 total energy:                -93.29193552

 ITER.      SQ.NORM     CORR.ENERGY   TOTAL ENERGY   ENERGY CHANGE        DEN1      VAR(S)    VAR(P)  DIIS     TIME  TIME/IT
   1      1.11480908    -0.37388427   -93.28954321     0.00365144     0.01704260  0.26D-02  0.31D-02  1  1     6.31     3.45
   2      1.12394617    -0.37401817   -93.28967710    -0.00013390    -0.01028355  0.67D-04  0.40D-03  2  2     9.27     3.43
   3      1.12885234    -0.37424410   -93.28990303    -0.00022593    -0.00257516  0.14D-04  0.47D-04  3  3    12.16     3.41
   4      1.13097335    -0.37430262   -93.28996155    -0.00005852    -0.00077064  0.66D-06  0.53D-05  4  4    15.16     3.44
   5      1.13154326    -0.37431229   -93.28997122    -0.00000967    -0.00016088  0.66D-07  0.45D-06  5  5    18.25     3.46
   6      1.13165396    -0.37431077   -93.28996970     0.00000153    -0.00002724  0.95D-08  0.37D-07  6  6    21.30     3.47
   7      1.13166283    -0.37431193   -93.28997086    -0.00000116    -0.00000103  0.84D-09  0.32D-08  6  1    24.36     3.48
   8      1.13166546    -0.37431237   -93.28997131    -0.00000044    -0.00000112  0.12D-09  0.29D-09  6  2    27.38     3.49
   9      1.13166550    -0.37431245   -93.28997139    -0.00000008     0.00000002  0.13D-10  0.19D-10  6  3    30.45     3.49
  10      1.13166537    -0.37431250   -93.28997144    -0.00000005     0.00000010  0.13D-11  0.17D-11  6  4    33.56     3.50
  11      1.13166531    -0.37431252   -93.28997145    -0.00000002     0.00000003  0.23D-12  0.15D-12  6  5    36.59     3.50
  12      1.13166525    -0.37431252   -93.28997146    -0.00000001     0.00000003  0.34D-13  0.25D-13  6  6    39.56     3.50
  13      1.13166521    -0.37431252   -93.28997146    -0.00000000     0.00000001  0.36D-14  0.55D-14  6  1    42.64     3.50
  14      1.13166520    -0.37431253   -93.28997146    -0.00000000     0.00000001  0.41D-15  0.76D-15  6  2    45.68     3.51
  15      1.13166519    -0.37431253   -93.28997146    -0.00000000     0.00000000  0.28D-16  0.11D-15  6  3    48.72     3.51
  16      1.13166519    -0.37431253   -93.28997146     0.00000000     0.00000000  0.47D-17  0.15D-16  6  4    51.82     3.51
  17      1.13166519    -0.37431253   -93.28997146     0.00000000     0.00000000  0.11D-17  0.25D-17  6  5    54.92     3.51
  18      1.13166519    -0.37431253   -93.28997146     0.00000000     0.00000000  0.24D-18  0.49D-18  6  6    57.92     3.51
  19      1.13166519    -0.37431253   -93.28997146     0.00000000    -0.00000000  0.11D-18  0.27D-18  6  1    61.12     3.52
  20      1.13166519    -0.37431253   -93.28997146     0.00000000     0.00000000  0.78D-19  0.18D-18  6  2    64.23     3.54
  21      1.13166519    -0.37431253   -93.28997146     0.00000000     0.00000000  0.34D-19  0.61D-19  6  3    67.33     3.54

 Norm of t1 vector:      0.06451721      S-energy:    -0.00000000      T1 diagnostic:  0.01442649
                                                                       D1 diagnostic:  0.02917837


 Total CPU time for triples:     19.92 sec


 RESULTS
 =======

  Reference energy                    -92.915658932539
  CCSD singlet pair energy             -0.262970614626
  CCSD triplet pair energy             -0.111341910508
  CCSD correlation energy              -0.374312525139

  Triples (T) contribution             -0.019933120037
  Total correlation energy             -0.394245645175

  CCSD total energy                   -93.289971457677
  CCSD[T] energy                      -93.310747523358
  CCSD-T energy                       -93.309531882514
 !CCSD(T) total energy                -93.309904577714

 Timing summary (sec):

 STEP                 CPU(USER)    SYS     CPU(TOT)    WALL
 Transformation          3.28      0.68      3.96      4.39
 CCSD iterations        64.06     10.34     74.40     74.42
 Triples                19.92      0.55     20.47     20.49

 Program statistics:

 Available memory in ccsd:               994999800
 Min. memory needed in ccsd:               1363289
 Max. memory used in ccsd:                 1637718
 Max. memory used in cckext:               2695008 (21 integral passes)



 **********************************************************************************************************************************
 DATASETS  * FILE   NREC   LENGTH (MB)   RECORD NAMES
              1      20     3265.03       500      610      700      900      950      970     1000      129      960     1100   
                                          VAR    BASINP    GEOM    SYMINP    ZMAT    AOBASIS   BASIS     P2S    ABASIS      S 
                                         1400     1410     1200     1210     1080     1600     1650     1300     1700     1380   
                                           T        V       H0       H01     AOSYM     SMH    MOLCAS    ERIS     OPER     JKOP   

              2       4        3.46       700     1000      520     2100   
                                         GEOM     BASIS   MCVARS     RHF  

 PROGRAMS   *        TOTAL   CCSD(T)        HF       INT
 CPU TIMES  *       206.51     87.29     25.98     93.17
 REAL TIME  *       263.24 SEC
 DISK USED  *        10.04 GB      
 **********************************************************************************************************************************

 CCSD(T)/aug-cc-pV5Z energy=    -93.309904577714

        CCSD(T)         HF-SCF  
    -93.30990458    -92.91565893
 **********************************************************************************************************************************
 Molpro calculation terminated
 Variable memory released
