
 Primary working directories    : /tmp/r2666/232427.maple
 Secondary working directories  : /tmp/r2666/232427.maple
 Wavefunction directory         : /ddn/home4/r2666/wfu/
 Main file repository           : /tmp/r2666/232427.maple/

 SHA1      : d5ffa45e93fdbca01ffc919aa182cfdae0147319
 NAME      : 2015.1.35
 ARCHNAME  : linux/x86_64
 FC        : /opt/intel/composer_xe_2015.1.133/bin/intel64/ifort
 BLASLIB   : -Wl,-_start-group /opt/intel/mkl/lib/intel64/libmkl_intel_ilp64.a /opt/intel/mkl/lib/intel64/libmkl_intel_thread.a /opt/intel/mkl/lib/intel64/libmkl_core.a -Wl,-_end-group
 id        : olemiss

 Nodes     nprocs
 cn087        1

 Using customized tuning parameters: mindgm=1; mindgv=20; mindgc=4; mindgr=1; noblas=0; minvec=7
 default implementation of scratch files=df  

 ***,hcn CCSD(T)/TZ-F12 QFF
 memory, 995, m;
 gthresh,energy=1.d-12,zero=1.d-22,oneint=1.d-22,twoint=1.d-22;
 gthresh,optgrad=1.d-8,optstep=1.d-8;
 nocompress;
 geomtyp=xyz
 bohr
 geometry={
 3
         36        36
 N        0.0000000000        0.0000000000        1.1215518477
 C        0.0000000000        0.0000000000       -1.0667464493
 H        0.0000000000        0.0000000000       -3.0518753804
 }
 
 basis=av5z
   {hf,maxit=500;accu,20;}
 {ccsd(t),nocheck,maxit=250;orbital,IGNORE_ERROR;}

 Variables initialized (889), CPU time= 0.01 sec
 Commands  initialized (702), CPU time= 0.01 sec, 572 directives.
 Default parameters read. Elapsed time= 0.07 sec

 Checking input...
 Passed
1


                                         ***  PROGRAM SYSTEM MOLPRO  ***
                                       Copyright, TTI GmbH Stuttgart, 2015
                                    Version 2015.1 linked Jul  9 2018 13:16:40


 **********************************************************************************************************************************
 LABEL *   hcn CCSD(T)/TZ-F12 QFF                                                        
  64 bit serial version                                                                  DATE: 06-Feb-20          TIME: 09:49:40  
 **********************************************************************************************************************************

 SHA1:             d5ffa45e93fdbca01ffc919aa182cfdae0147319
 **********************************************************************************************************************************

 THRESHOLDS:

 ZERO    =  1.00D-22  ONEINT  =  1.00D-22  TWOINT  =  1.00D-22  PREFAC  =  1.00D-14  LOCALI  =  1.00D-09  EORDER  =  1.00D-04
 ENERGY  =  1.00D-12  ETEST   =  0.00D+00  EDENS   =  0.00D+00  THRDEDEF=  1.00D-06  GRADIENT=  1.00D-02  STEP    =  1.00D-03
 ORBITAL =  1.00D-05  CIVEC   =  1.00D-05  COEFF   =  1.00D-04  PRINTCI =  5.00D-02  PUNCHCI =  9.90D+01  OPTGRAD =  3.00D-04
 OPTENERG=  1.00D-06  OPTSTEP =  3.00D-04  THRGRAD =  1.00D-10  COMPRESS=  1.00D-11  VARMIN  =  1.00D-07  VARMAX  =  1.00D-03
 THRDOUB =  0.00D+00  THRDIV  =  1.00D-05  THRRED  =  1.00D-07  THRPSP  =  1.00D+00  THRDC   =  1.00D-10  THRCS   =  1.00D-10
 THRNRM  =  1.00D-08  THREQ   =  0.00D+00  THRDE   =  1.00D+00  THRREF  =  1.00D-05  SPARFAC =  1.00D+00  THRDLP  =  1.00D-07
 THRDIA  =  1.00D-10  THRDLS  =  1.00D-07  THRGPS  =  0.00D+00  THRKEX  =  0.00D+00  THRDIS  =  2.00D-01  THRVAR  =  1.00D-10
 THRLOC  =  1.00D-06  THRGAP  =  1.00D-06  THRLOCT = -1.00D+00  THRGAPT = -1.00D+00  THRORB  =  1.00D-06  THRMLTP =  0.00D+00
 THRCPQCI=  1.00D-10  KEXTA   =  0.00D+00  THRCOARS=  0.00D+00  SYMTOL  =  1.00D-06  GRADTOL =  1.00D-06  THROVL  =  1.00D-08
 THRORTH =  1.00D-08  GRID    =  1.00D-06  GRIDMAX =  1.00D-03  DTMAX   =  0.00D+00  THROCCDE=  1.00D-01  THROCCDE=  1.00D-01



 THRESHOLDS:

 ZERO    =  1.00D-22  ONEINT  =  1.00D-22  TWOINT  =  1.00D-22  PREFAC  =  1.00D-14  LOCALI  =  1.00D-09  EORDER  =  1.00D-04
 ENERGY  =  1.00D-12  ETEST   =  0.00D+00  EDENS   =  0.00D+00  THRDEDEF=  1.00D-06  GRADIENT=  1.00D-02  STEP    =  1.00D-03
 ORBITAL =  1.00D-05  CIVEC   =  1.00D-05  COEFF   =  1.00D-04  PRINTCI =  5.00D-02  PUNCHCI =  9.90D+01  OPTGRAD =  1.00D-08
 OPTENERG=  1.00D-06  OPTSTEP =  1.00D-08  THRGRAD =  1.00D-10  COMPRESS=  1.00D-11  VARMIN  =  1.00D-07  VARMAX  =  1.00D-03
 THRDOUB =  0.00D+00  THRDIV  =  1.00D-05  THRRED  =  1.00D-07  THRPSP  =  1.00D+00  THRDC   =  1.00D-10  THRCS   =  1.00D-10
 THRNRM  =  1.00D-08  THREQ   =  0.00D+00  THRDE   =  1.00D+00  THRREF  =  1.00D-05  SPARFAC =  1.00D+00  THRDLP  =  1.00D-07
 THRDIA  =  1.00D-10  THRDLS  =  1.00D-07  THRGPS  =  0.00D+00  THRKEX  =  0.00D+00  THRDIS  =  2.00D-01  THRVAR  =  1.00D-10
 THRLOC  =  1.00D-06  THRGAP  =  1.00D-06  THRLOCT = -1.00D+00  THRGAPT = -1.00D+00  THRORB  =  1.00D-06  THRMLTP =  0.00D+00
 THRCPQCI=  1.00D-10  KEXTA   =  0.00D+00  THRCOARS=  0.00D+00  SYMTOL  =  1.00D-06  GRADTOL =  1.00D-06  THROVL  =  1.00D-08
 THRORTH =  1.00D-08  GRID    =  1.00D-06  GRIDMAX =  1.00D-03  DTMAX   =  0.00D+00  THROCCDE=  1.00D-01  THROCCDE=  1.00D-01



 Input parameters for SORTINT:

 COMPRESS =    0.000000
 C_FINAL  =    1.000000
 DEBUG    =   -1.000000
 C_SORT1  =    0.000000
 C_SEWARD =    0.000000
 THRESH   =    0.000000
 IO       =  molpro                                                          
 SPRI     =    0.000000
 SETTING GEOMTYP        =    XYZ
 ZUNIT=BOHR
 

 Variable memory set to  995000000 words,  buffer space   230000 words

 SETTING BASIS          =    AV5Z


 Recomputing integrals since basis changed


 Using spherical harmonics

 Library entry N      S aug-cc-pV5Z          selected for orbital group  1
 Library entry N      P aug-cc-pV5Z          selected for orbital group  1
 Library entry N      D aug-cc-pV5Z          selected for orbital group  1
 Library entry N      F aug-cc-pV5Z          selected for orbital group  1
 Library entry N      G aug-cc-pV5Z          selected for orbital group  1
 Library entry N      H aug-cc-pV5Z          selected for orbital group  1
 Library entry C      S aug-cc-pV5Z          selected for orbital group  2
 Library entry C      P aug-cc-pV5Z          selected for orbital group  2
 Library entry C      D aug-cc-pV5Z          selected for orbital group  2
 Library entry C      F aug-cc-pV5Z          selected for orbital group  2
 Library entry C      G aug-cc-pV5Z          selected for orbital group  2
 Library entry C      H aug-cc-pV5Z          selected for orbital group  2
 Library entry H      S aug-cc-pV5Z          selected for orbital group  3
 Library entry H      P aug-cc-pV5Z          selected for orbital group  3
 Library entry H      D aug-cc-pV5Z          selected for orbital group  3
 Library entry H      F aug-cc-pV5Z          selected for orbital group  3
 Library entry H      G aug-cc-pV5Z          selected for orbital group  3


 PROGRAM * SEWARD (Integral evaluation for generally contracted gaussian basis sets)     Author: Roland Lindh, 1990

 Geometry written to block  1 of record 700


 Point group  C2v 



 ATOMIC COORDINATES

 NR  ATOM    CHARGE       X              Y              Z

   1  N       7.00    0.000000000    0.000000000    1.121551848
   2  C       6.00    0.000000000    0.000000000   -1.066746449
   3  H       1.00    0.000000000    0.000000000   -3.051875380

 Bond lengths in Bohr (Angstrom)

 1-2  2.188298297  2-3  1.985128931
     ( 1.157997589)     ( 1.050484991)

 Bond angles

  1-2-3  179.99999829

 NUCLEAR CHARGE:                   14
 NUMBER OF PRIMITIVE AOS:         506
 NUMBER OF SYMMETRY AOS:          371
 NUMBER OF CONTRACTIONS:          334   ( 123A1  +  81B1  +  81B2  +  49A2  )
 NUMBER OF CORE ORBITALS:           2   (   2A1  +   0B1  +   0B2  +   0A2  )
 NUMBER OF VALENCE ORBITALS:        9   (   5A1  +   2B1  +   2B2  +   0A2  )


 NUCLEAR REPULSION ENERGY   23.89274805

 EXTRA SYMMETRY OF AOS IN SYMMETRY 1:   1 1 1 1 1 1 1 1 1 1   1 1 1 1 2 1 2 1 2 1   2 1 2 1 2 1 2 1 2 1   2 1 3 2 1 3 2 1 3 2
                                        2 3 1 2 3 1 1 1 1 1   1 1 1 1 1 1 1 1 1 1   2 1 2 1 2 1 2 1 2 1   2 1 2 1 2 1 2 1 3 2
                                        1 3 2 1 3 2 2 3 1 2   3 1 1 1 1 1 1 1 1 1   1 1 1 1 2 1 2 1 2 1   2 1 2 1 2 1 2 1 3 2
                                        1 3 2
 EXTRA SYMMETRY OF AOS IN SYMMETRY 2:   1 1 1 1 1 1 1 1 1 1   1 1 2 1 2 1 2 1 2 1   2 1 2 1 2 1 2 3 1 2   3 1 1 1 1 1 1 1 1 1
                                        1 1 1 2 1 2 1 2 1 2   1 2 1 2 1 2 1 2 3 1   2 3 1 1 1 1 1 1 1 1   1 1 2 1 2 1 2 1 2 1
                                        2
 EXTRA SYMMETRY OF AOS IN SYMMETRY 3:   1 1 1 1 1 1 1 1 1 1   1 1 2 1 2 1 2 1 2 1   2 1 2 1 2 1 2 3 1 2   3 1 1 1 1 1 1 1 1 1
                                        1 1 1 2 1 2 1 2 1 2   1 2 1 2 1 2 1 2 3 1   2 3 1 1 1 1 1 1 1 1   1 1 2 1 2 1 2 1 2 1
                                        2
 EXTRA SYMMETRY OF AOS IN SYMMETRY 4:   1 1 1 1 1 1 1 1 1 1   2 1 2 1 2 2 1 2 1 1   1 1 1 1 1 1 1 1 1 2   1 2 1 2 2 1 2 1 1 1
                                        1 1 1 1 1 1 2 1 2

 Eigenvalues of metric

         1 0.239E-05 0.551E-05 0.142E-04 0.347E-04 0.580E-04 0.683E-04 0.175E-03 0.222E-03
         2 0.564E-04 0.169E-03 0.370E-03 0.687E-03 0.924E-03 0.147E-02 0.187E-02 0.371E-02
         3 0.564E-04 0.169E-03 0.370E-03 0.687E-03 0.924E-03 0.147E-02 0.187E-02 0.371E-02
         4 0.779E-03 0.209E-02 0.494E-02 0.677E-02 0.158E-01 0.231E-01 0.252E-01 0.619E-01


 Contracted 2-electron integrals neglected if value below      1.0D-22

      355335441. INTEGRALS WRITTEN OUT IN   86774 BLOCKS ON RECORD 1290 OF FILE 1


 NUMBER OF SORTED TWO-ELECTRON INTEGRALS:  396972178.     BUFFER LENGTH:  32768
 NUMBER OF SEGMENTS:  13  SEGMENT LENGTH:   31999071      RECORD LENGTH: 524288

 Memory used in sort:      32.56 MW

 SORT1 READ   355335441. AND WROTE   358510233. INTEGRALS IN   1032 RECORDS. CPU TIME:     9.16 SEC, REAL TIME:    11.48 SEC
 SORT2 READ   358510233. AND WROTE   396972178. INTEGRALS IN     13 RECORDS. CPU TIME:     4.81 SEC, REAL TIME:     6.45 SEC

 FILE SIZES:   FILE 1:  5709.2 MBYTE,  FILE 4:  4328.6 MBYTE,   TOTAL:  10037.7 MBYTE

 OPERATOR DM      FOR CENTER  0  COORDINATES:    0.000000    0.000000    0.000000


 **********************************************************************************************************************************
 DATASETS  * FILE   NREC   LENGTH (MB)   RECORD NAMES
              1      19     3080.25       500      610      700      900      950      970     1000      129      960     1100   
                                          VAR    BASINP    GEOM    SYMINP    ZMAT    AOBASIS   BASIS     P2S    ABASIS      S 
                                         1400     1410     1200     1210     1080     1600     1650     1300     1700   
                                           T        V       H0       H01     AOSYM     SMH    MOLCAS    ERIS     OPER   

 PROGRAMS   *        TOTAL       INT
 CPU TIMES  *        81.56     81.46
 REAL TIME  *        89.32 SEC
 DISK USED  *        10.04 GB      
 **********************************************************************************************************************************


 PROGRAM * RHF-SCF (CLOSED SHELL)       Authors: W. Meyer, H.-J. Werner


 NUMBER OF ELECTRONS:       7+    7-
 CONVERGENCE THRESHOLDS:    1.00E-10 (Density)    1.00E-13 (Energy)
 MAX. NUMBER OF ITERATIONS:      500
 INTERPOLATION TYPE:            DIIS
 INTERPOLATION STEPS:              2 (START)      1 (STEP)
 LEVEL SHIFTS:                  0.00 (CLOSED)  0.00 (OPEN) 



 Orbital guess generated from atomic densities. Full valence occupancy:    7   2   2   0

 Molecular orbital dump at record        2100.2

 Initial occupancy:   5   1   1   0

 ITERATION    DDIFF          GRAD             ENERGY        2-EL.EN.            DIPOLE MOMENTS         DIIS   ORB.
    1      0.000D+00      0.000D+00       -92.89099348    111.868277    0.00000    0.00000   -1.76729    0    start
    2      0.000D+00      0.555D-02       -92.89976293    111.036453    0.00000    0.00000   -0.89214    1    diag
    3      0.431D-02      0.494D-02       -92.91467518    111.569335    0.00000    0.00000   -1.30179    2    diag
    4      0.220D-02      0.429D-03       -92.91491162    111.527056    0.00000    0.00000   -1.28962    3    diag
    5      0.427D-03      0.916D-04       -92.91492506    111.537667    0.00000    0.00000   -1.28817    4    diag
    6      0.104D-03      0.246D-04       -92.91492590    111.532477    0.00000    0.00000   -1.28819    5    diag
    7      0.212D-04      0.881D-05       -92.91492598    111.533611    0.00000    0.00000   -1.28824    6    diag
    8      0.708D-05      0.188D-05       -92.91492598    111.533563    0.00000    0.00000   -1.28821    7    diag
    9      0.152D-05      0.221D-06       -92.91492598    111.533572    0.00000    0.00000   -1.28820    8    diag
   10      0.233D-06      0.281D-07       -92.91492598    111.533573    0.00000    0.00000   -1.28820    9    orth
   11      0.275D-07      0.407D-08       -92.91492598    111.533573    0.00000    0.00000   -1.28820    9    diag
   12      0.494D-08      0.378D-09       -92.91492598    111.533573    0.00000    0.00000   -1.28820    9    diag
   13      0.125D-08      0.314D-10       -92.91492598    111.533573    0.00000    0.00000   -1.28820    9    diag
   14      0.115D-09      0.573D-11       -92.91492598    111.533573    0.00000    0.00000   -1.28820    9    diag
   15      0.953D-10      0.108D-11       -92.91492598    111.533573    0.00000    0.00000   -1.28820    9    diag
   16      0.417D-10      0.678D-12       -92.91492598    111.533573    0.00000    0.00000   -1.28820    9    diag
   17      0.300D-10      0.642D-12       -92.91492598    111.533573    0.00000    0.00000   -1.28820    0    orth

 Final occupancy:   5   1   1   0

 !RHF STATE 1.1 Energy                -92.914925981242
 Nuclear energy                        23.89274805
 One-electron energy                 -172.57446072
 Two-electron energy                   55.76678669
 Virial quotient                       -1.00204772
 !RHF STATE 1.1 Dipole moment           0.00000000     0.00000000    -1.28820409
 Dipole moment /Debye                   0.00000000     0.00000000    -3.27407375

 Orbital energies:

         1.1          2.1          3.1          4.1          5.1          6.1          7.1
    -15.600029   -11.291603    -1.234334    -0.819877    -0.583079     0.017609     0.053214

         1.2          2.2          3.2
     -0.495761     0.052443     0.101510

         1.3          2.3          3.3
     -0.495761     0.052443     0.101510

         1.4          2.4
      0.202596     0.326850

 HOMO      1.2    -0.495761 =     -13.4904eV
 LUMO      6.1     0.017609 =       0.4792eV
 LUMO-HOMO         0.513370 =      13.9695eV


 **********************************************************************************************************************************
 DATASETS  * FILE   NREC   LENGTH (MB)   RECORD NAMES
              1      19     3080.25       500      610      700      900      950      970     1000      129      960     1100   
                                          VAR    BASINP    GEOM    SYMINP    ZMAT    AOBASIS   BASIS     P2S    ABASIS      S 
                                         1400     1410     1200     1210     1080     1600     1650     1300     1700   
                                           T        V       H0       H01     AOSYM     SMH    MOLCAS    ERIS     OPER   

              2       4        3.46       700     1000      520     2100   
                                         GEOM     BASIS   MCVARS     RHF  

 PROGRAMS   *        TOTAL        HF       INT
 CPU TIMES  *       100.30     18.74     81.46
 REAL TIME  *       112.67 SEC
 DISK USED  *        10.04 GB      
 **********************************************************************************************************************************


 PROGRAM * CCSD (Closed-shell coupled cluster)     Authors: C. Hampel, H.-J. Werner, 1991, M. Deegan, P.J. Knowles, 1992


 Convergence thresholds:  THRVAR = 1.00D-08  THRDEN = 1.00D-12

 CCSD(T)     terms to be evaluated (factor= 1.000)


 Number of core orbitals:           2 (   2   0   0   0 )
 Number of closed-shell orbitals:   5 (   3   1   1   0 )
 Number of external orbitals:     327 ( 118  80  80  49 )

 Molecular orbitals read from record     2100.2  Type=RHF/CANONICAL (state 1.1)

 Number of N-1 electron functions:               5
 Number of N-2 electron functions:              15
 Number of singly external CSFs:               514
 Number of doubly external CSFs:            345689
 Total number of CSFs:                      346204

 Length of J-op  integral file:               0.00 MB
 Length of K-op  integral file:               2.14 MB
 Length of 3-ext integral record:             0.00 MB

 Memory could be reduced to 68.09 Mwords without degradation in triples

 Integral transformation finished. Total CPU:   3.03 sec, npass=  1  Memory used:   7.20 MW

 Reference energy:                    -92.91492598

 MP2 singlet pair energy:              -0.24522949
 MP2 triplet pair energy:              -0.13330681
 MP2 correlation energy:               -0.37853630
 MP2 total energy:                    -93.29346228

 SCS-MP2 correlation energy:           -0.37722184   (PS=  1.200000  PT=  0.333333)
 SCS-MP2 total energy:                -93.29214783

 ITER.      SQ.NORM     CORR.ENERGY   TOTAL ENERGY   ENERGY CHANGE        DEN1      VAR(S)    VAR(P)  DIIS     TIME  TIME/IT
   1      1.11550992    -0.37461217   -93.28953815     0.00392413     0.01754336  0.27D-02  0.32D-02  1  1     5.91     3.32
   2      1.12479066    -0.37470585   -93.28963183    -0.00009367    -0.01042103  0.69D-04  0.41D-03  2  2     8.66     3.31
   3      1.12979859    -0.37493813   -93.28986411    -0.00023228    -0.00261216  0.14D-04  0.48D-04  3  3    11.51     3.31
   4      1.13197901    -0.37499924   -93.28992522    -0.00006111    -0.00078695  0.67D-06  0.56D-05  4  4    14.33     3.30
   5      1.13256960    -0.37500948   -93.28993546    -0.00001024    -0.00016588  0.68D-07  0.48D-06  5  5    17.13     3.30
   6      1.13268643    -0.37500785   -93.28993383     0.00000163    -0.00002872  0.10D-07  0.40D-07  6  6    19.97     3.30
   7      1.13269577    -0.37500909   -93.28993507    -0.00000124    -0.00000104  0.88D-09  0.34D-08  6  1    22.82     3.30
   8      1.13269859    -0.37500955   -93.28993553    -0.00000046    -0.00000120  0.13D-09  0.31D-09  6  2    25.86     3.33
   9      1.13269862    -0.37500964   -93.28993562    -0.00000008     0.00000003  0.13D-10  0.20D-10  6  3    28.86     3.34
  10      1.13269849    -0.37500969   -93.28993567    -0.00000005     0.00000011  0.13D-11  0.18D-11  6  4    31.70     3.34
  11      1.13269842    -0.37500970   -93.28993568    -0.00000002     0.00000003  0.25D-12  0.16D-12  6  5    34.49     3.33
  12      1.13269836    -0.37500971   -93.28993569    -0.00000001     0.00000003  0.39D-13  0.26D-13  6  6    37.33     3.33
  13      1.13269832    -0.37500971   -93.28993569    -0.00000000     0.00000001  0.41D-14  0.59D-14  6  1    40.08     3.33
  14      1.13269830    -0.37500971   -93.28993569    -0.00000000     0.00000001  0.50D-15  0.82D-15  6  2    42.86     3.32
  15      1.13269830    -0.37500971   -93.28993569    -0.00000000     0.00000000  0.32D-16  0.12D-15  6  3    45.68     3.32
  16      1.13269830    -0.37500971   -93.28993569     0.00000000     0.00000000  0.52D-17  0.16D-16  6  4    48.52     3.32
  17      1.13269830    -0.37500971   -93.28993569     0.00000000     0.00000000  0.11D-17  0.24D-17  6  5    51.33     3.32
  18      1.13269830    -0.37500971   -93.28993569     0.00000000     0.00000000  0.27D-18  0.54D-18  6  6    54.19     3.32
  19      1.13269830    -0.37500971   -93.28993569     0.00000000    -0.00000000  0.74D-19  0.21D-18  6  1    57.00     3.31
  20      1.13269830    -0.37500971   -93.28993569     0.00000000     0.00000000  0.37D-19  0.10D-18  6  3    59.86     3.31
  21      1.13269830    -0.37500971   -93.28993569    -0.00000000     0.00000000  0.32D-19  0.66D-19  6  2    62.60     3.31

 Norm of t1 vector:      0.06523324      S-energy:    -0.00000000      T1 diagnostic:  0.01458660
                                                                       D1 diagnostic:  0.02951269


 Total CPU time for triples:     18.76 sec


 RESULTS
 =======

  Reference energy                    -92.914925981242
  CCSD singlet pair energy             -0.263563004576
  CCSD triplet pair energy             -0.111446706262
  CCSD correlation energy              -0.375009710844

  Triples (T) contribution             -0.020110298665
  Total correlation energy             -0.395120009509

  CCSD total energy                   -93.289935692085
  CCSD[T] energy                      -93.310909353779
  CCSD-T energy                       -93.309665236585
 !CCSD(T) total energy                -93.310045990750

 Timing summary (sec):

 STEP                 CPU(USER)    SYS     CPU(TOT)    WALL
 Transformation          3.04      0.69      3.73      4.04
 CCSD iterations        59.56      9.99     69.55     69.57
 Triples                18.76      0.55     19.31     19.31

 Program statistics:

 Available memory in ccsd:               994999800
 Min. memory needed in ccsd:               1363289
 Max. memory used in ccsd:                 1637718
 Max. memory used in cckext:               2695008 (21 integral passes)



 **********************************************************************************************************************************
 DATASETS  * FILE   NREC   LENGTH (MB)   RECORD NAMES
              1      20     3264.46       500      610      700      900      950      970     1000      129      960     1100   
                                          VAR    BASINP    GEOM    SYMINP    ZMAT    AOBASIS   BASIS     P2S    ABASIS      S 
                                         1400     1410     1200     1210     1080     1600     1650     1300     1700     1380   
                                           T        V       H0       H01     AOSYM     SMH    MOLCAS    ERIS     OPER     JKOP   

              2       4        3.46       700     1000      520     2100   
                                         GEOM     BASIS   MCVARS     RHF  

 PROGRAMS   *        TOTAL   CCSD(T)        HF       INT
 CPU TIMES  *       181.70     81.38     18.74     81.46
 REAL TIME  *       205.89 SEC
 DISK USED  *        10.04 GB      
 **********************************************************************************************************************************

 CCSD(T)/aug-cc-pV5Z energy=    -93.310045990750

        CCSD(T)         HF-SCF  
    -93.31004599    -92.91492598
 **********************************************************************************************************************************
 Molpro calculation terminated
 Variable memory released
