
 Primary working directories    : /tmp/r2666/232440.maple
 Secondary working directories  : /tmp/r2666/232440.maple
 Wavefunction directory         : /ddn/home4/r2666/wfu/
 Main file repository           : /tmp/r2666/232440.maple/

 SHA1      : d5ffa45e93fdbca01ffc919aa182cfdae0147319
 NAME      : 2015.1.35
 ARCHNAME  : linux/x86_64
 FC        : /opt/intel/composer_xe_2015.1.133/bin/intel64/ifort
 BLASLIB   : -Wl,-_start-group /opt/intel/mkl/lib/intel64/libmkl_intel_ilp64.a /opt/intel/mkl/lib/intel64/libmkl_intel_thread.a /opt/intel/mkl/lib/intel64/libmkl_core.a -Wl,-_end-group
 id        : olemiss

 Nodes     nprocs
 cn079        1

 Using customized tuning parameters: mindgm=1; mindgv=20; mindgc=4; mindgr=1; noblas=0; minvec=7
 default implementation of scratch files=df  

 ***,hcn CCSD(T)/TZ-F12 QFF
 memory, 995, m;
 gthresh,energy=1.d-12,zero=1.d-22,oneint=1.d-22,twoint=1.d-22;
 gthresh,optgrad=1.d-8,optstep=1.d-8;
 nocompress;
 geomtyp=xyz
 bohr
 geometry={
 3
         49        49
 N       -0.0046350011        0.0000001318        1.1372508040
 C        0.0096508443       -0.0000000034       -1.0604496918
 H       -0.0050158432       -0.0000001284       -3.0738710941
 }
 
 basis=av5z
   {hf,maxit=500;accu,20;}
 {ccsd(t),nocheck,maxit=250;orbital,IGNORE_ERROR;}

 Variables initialized (889), CPU time= 0.00 sec
 Commands  initialized (702), CPU time= 0.01 sec, 572 directives.
 Default parameters read. Elapsed time= 0.06 sec

 Checking input...
 Passed
1


                                         ***  PROGRAM SYSTEM MOLPRO  ***
                                       Copyright, TTI GmbH Stuttgart, 2015
                                    Version 2015.1 linked Jul  9 2018 13:16:40


 **********************************************************************************************************************************
 LABEL *   hcn CCSD(T)/TZ-F12 QFF                                                        
  64 bit serial version                                                                  DATE: 06-Feb-20          TIME: 09:49:40  
 **********************************************************************************************************************************

 SHA1:             d5ffa45e93fdbca01ffc919aa182cfdae0147319
 **********************************************************************************************************************************

 THRESHOLDS:

 ZERO    =  1.00D-22  ONEINT  =  1.00D-22  TWOINT  =  1.00D-22  PREFAC  =  1.00D-14  LOCALI  =  1.00D-09  EORDER  =  1.00D-04
 ENERGY  =  1.00D-12  ETEST   =  0.00D+00  EDENS   =  0.00D+00  THRDEDEF=  1.00D-06  GRADIENT=  1.00D-02  STEP    =  1.00D-03
 ORBITAL =  1.00D-05  CIVEC   =  1.00D-05  COEFF   =  1.00D-04  PRINTCI =  5.00D-02  PUNCHCI =  9.90D+01  OPTGRAD =  3.00D-04
 OPTENERG=  1.00D-06  OPTSTEP =  3.00D-04  THRGRAD =  1.00D-10  COMPRESS=  1.00D-11  VARMIN  =  1.00D-07  VARMAX  =  1.00D-03
 THRDOUB =  0.00D+00  THRDIV  =  1.00D-05  THRRED  =  1.00D-07  THRPSP  =  1.00D+00  THRDC   =  1.00D-10  THRCS   =  1.00D-10
 THRNRM  =  1.00D-08  THREQ   =  0.00D+00  THRDE   =  1.00D+00  THRREF  =  1.00D-05  SPARFAC =  1.00D+00  THRDLP  =  1.00D-07
 THRDIA  =  1.00D-10  THRDLS  =  1.00D-07  THRGPS  =  0.00D+00  THRKEX  =  0.00D+00  THRDIS  =  2.00D-01  THRVAR  =  1.00D-10
 THRLOC  =  1.00D-06  THRGAP  =  1.00D-06  THRLOCT = -1.00D+00  THRGAPT = -1.00D+00  THRORB  =  1.00D-06  THRMLTP =  0.00D+00
 THRCPQCI=  1.00D-10  KEXTA   =  0.00D+00  THRCOARS=  0.00D+00  SYMTOL  =  1.00D-06  GRADTOL =  1.00D-06  THROVL  =  1.00D-08
 THRORTH =  1.00D-08  GRID    =  1.00D-06  GRIDMAX =  1.00D-03  DTMAX   =  0.00D+00  THROCCDE=  1.00D-01  THROCCDE=  1.00D-01



 THRESHOLDS:

 ZERO    =  1.00D-22  ONEINT  =  1.00D-22  TWOINT  =  1.00D-22  PREFAC  =  1.00D-14  LOCALI  =  1.00D-09  EORDER  =  1.00D-04
 ENERGY  =  1.00D-12  ETEST   =  0.00D+00  EDENS   =  0.00D+00  THRDEDEF=  1.00D-06  GRADIENT=  1.00D-02  STEP    =  1.00D-03
 ORBITAL =  1.00D-05  CIVEC   =  1.00D-05  COEFF   =  1.00D-04  PRINTCI =  5.00D-02  PUNCHCI =  9.90D+01  OPTGRAD =  1.00D-08
 OPTENERG=  1.00D-06  OPTSTEP =  1.00D-08  THRGRAD =  1.00D-10  COMPRESS=  1.00D-11  VARMIN  =  1.00D-07  VARMAX  =  1.00D-03
 THRDOUB =  0.00D+00  THRDIV  =  1.00D-05  THRRED  =  1.00D-07  THRPSP  =  1.00D+00  THRDC   =  1.00D-10  THRCS   =  1.00D-10
 THRNRM  =  1.00D-08  THREQ   =  0.00D+00  THRDE   =  1.00D+00  THRREF  =  1.00D-05  SPARFAC =  1.00D+00  THRDLP  =  1.00D-07
 THRDIA  =  1.00D-10  THRDLS  =  1.00D-07  THRGPS  =  0.00D+00  THRKEX  =  0.00D+00  THRDIS  =  2.00D-01  THRVAR  =  1.00D-10
 THRLOC  =  1.00D-06  THRGAP  =  1.00D-06  THRLOCT = -1.00D+00  THRGAPT = -1.00D+00  THRORB  =  1.00D-06  THRMLTP =  0.00D+00
 THRCPQCI=  1.00D-10  KEXTA   =  0.00D+00  THRCOARS=  0.00D+00  SYMTOL  =  1.00D-06  GRADTOL =  1.00D-06  THROVL  =  1.00D-08
 THRORTH =  1.00D-08  GRID    =  1.00D-06  GRIDMAX =  1.00D-03  DTMAX   =  0.00D+00  THROCCDE=  1.00D-01  THROCCDE=  1.00D-01



 Input parameters for SORTINT:

 COMPRESS =    0.000000
 C_FINAL  =    1.000000
 DEBUG    =   -1.000000
 C_SORT1  =    0.000000
 C_SEWARD =    0.000000
 THRESH   =    0.000000
 IO       =  molpro                                                          
 SPRI     =    0.000000
 SETTING GEOMTYP        =    XYZ
 ZUNIT=BOHR
 

 Variable memory set to  995000000 words,  buffer space   230000 words

 SETTING BASIS          =    AV5Z


 Recomputing integrals since basis changed


 Using spherical harmonics

 Library entry N      S aug-cc-pV5Z          selected for orbital group  1
 Library entry N      P aug-cc-pV5Z          selected for orbital group  1
 Library entry N      D aug-cc-pV5Z          selected for orbital group  1
 Library entry N      F aug-cc-pV5Z          selected for orbital group  1
 Library entry N      G aug-cc-pV5Z          selected for orbital group  1
 Library entry N      H aug-cc-pV5Z          selected for orbital group  1
 Library entry C      S aug-cc-pV5Z          selected for orbital group  2
 Library entry C      P aug-cc-pV5Z          selected for orbital group  2
 Library entry C      D aug-cc-pV5Z          selected for orbital group  2
 Library entry C      F aug-cc-pV5Z          selected for orbital group  2
 Library entry C      G aug-cc-pV5Z          selected for orbital group  2
 Library entry C      H aug-cc-pV5Z          selected for orbital group  2
 Library entry H      S aug-cc-pV5Z          selected for orbital group  3
 Library entry H      P aug-cc-pV5Z          selected for orbital group  3
 Library entry H      D aug-cc-pV5Z          selected for orbital group  3
 Library entry H      F aug-cc-pV5Z          selected for orbital group  3
 Library entry H      G aug-cc-pV5Z          selected for orbital group  3


 PROGRAM * SEWARD (Integral evaluation for generally contracted gaussian basis sets)     Author: Roland Lindh, 1990

 Geometry written to block  1 of record 700


 Point group  Cs  



 ATOMIC COORDINATES

 NR  ATOM    CHARGE       X              Y              Z

   1  N       7.00   -0.004635001    0.000000000    1.137250804
   2  C       6.00    0.009650844    0.000000000   -1.060449692
   3  H       1.00   -0.005015843    0.000000000   -3.073871094

 Bond lengths in Bohr (Angstrom)

 1-2  2.197746927  2-3  2.013474821
     ( 1.162997589)     ( 1.065484990)

 Bond angles

  1-2-3  179.21020060

 NUCLEAR CHARGE:                   14
 NUMBER OF PRIMITIVE AOS:         506
 NUMBER OF SYMMETRY AOS:          371
 NUMBER OF CONTRACTIONS:          334   ( 204A'  + 130A"  )
 NUMBER OF CORE ORBITALS:           2   (   2A'  +   0A"  )
 NUMBER OF VALENCE ORBITALS:        9   (   7A'  +   2A"  )


 NUCLEAR REPULSION ENERGY   23.75266850


 Eigenvalues of metric

         1 0.257E-05 0.564E-05 0.148E-04 0.357E-04 0.583E-04 0.592E-04 0.701E-04 0.179E-03
         2 0.583E-04 0.184E-03 0.379E-03 0.711E-03 0.793E-03 0.941E-03 0.154E-02 0.189E-02


 Contracted 2-electron integrals neglected if value below      1.0D-22

      755670554. INTEGRALS WRITTEN OUT IN  184535 BLOCKS ON RECORD 1290 OF FILE 1


 NUMBER OF SORTED TWO-ELECTRON INTEGRALS:  789027325.     BUFFER LENGTH:  32768
 NUMBER OF SEGMENTS:  25  SEGMENT LENGTH:   31997130      RECORD LENGTH: 524288

 Memory used in sort:      32.55 MW

 SORT1 READ   755670554. AND WROTE   759677082. INTEGRALS IN   2188 RECORDS. CPU TIME:    18.18 SEC, REAL TIME:    42.00 SEC
 SORT2 READ   759677082. AND WROTE   789027325. INTEGRALS IN     25 RECORDS. CPU TIME:     8.02 SEC, REAL TIME:    11.83 SEC

 FILE SIZES:   FILE 1: 12116.5 MBYTE,  FILE 4:  9177.2 MBYTE,   TOTAL:  21293.7 MBYTE

 OPERATOR DM      FOR CENTER  0  COORDINATES:    0.000000    0.000000    0.000000


 **********************************************************************************************************************************
 DATASETS  * FILE   NREC   LENGTH (MB)   RECORD NAMES
              1      19     6368.00       500      610      700      900      950      970     1000      129      960     1100   
                                          VAR    BASINP    GEOM    SYMINP    ZMAT    AOBASIS   BASIS     P2S    ABASIS      S 
                                         1400     1410     1200     1210     1080     1600     1650     1300     1700   
                                           T        V       H0       H01     AOSYM     SMH    MOLCAS    ERIS     OPER   

 PROGRAMS   *        TOTAL       INT
 CPU TIMES  *       125.53    125.42
 REAL TIME  *       179.56 SEC
 DISK USED  *        21.29 GB      
 **********************************************************************************************************************************


 PROGRAM * RHF-SCF (CLOSED SHELL)       Authors: W. Meyer, H.-J. Werner


 NUMBER OF ELECTRONS:       7+    7-
 CONVERGENCE THRESHOLDS:    1.00E-10 (Density)    1.00E-13 (Energy)
 MAX. NUMBER OF ITERATIONS:      500
 INTERPOLATION TYPE:            DIIS
 INTERPOLATION STEPS:              2 (START)      1 (STEP)
 LEVEL SHIFTS:                  0.00 (CLOSED)  0.00 (OPEN) 



 Orbital guess generated from atomic densities. Full valence occupancy:    9   2

 Molecular orbital dump at record        2100.2

 Initial occupancy:   6   1

 ITERATION    DDIFF          GRAD             ENERGY        2-EL.EN.            DIPOLE MOMENTS         DIIS   ORB.
    1      0.000D+00      0.000D+00       -92.88945693    111.598557    0.00693    0.00000   -1.79104    0    start
    2      0.000D+00      0.424D-02       -92.89803170    110.778252   -0.00262    0.00000   -0.88924    1    diag
    3      0.316D-02      0.382D-02       -92.91374531    111.315720    0.00141    0.00000   -1.31114    2    diag
    4      0.163D-02      0.322D-03       -92.91398194    111.271308    0.00106    0.00000   -1.29908    3    diag
    5      0.309D-03      0.710D-04       -92.91399593    111.283600    0.00096    0.00000   -1.29763    4    diag
    6      0.758D-04      0.195D-04       -92.91399688    111.278014    0.00094    0.00000   -1.29757    5    diag
    7      0.166D-04      0.702D-05       -92.91399697    111.279151    0.00094    0.00000   -1.29764    6    diag
    8      0.543D-05      0.149D-05       -92.91399697    111.279106    0.00094    0.00000   -1.29761    7    diag
    9      0.115D-05      0.173D-06       -92.91399697    111.279116    0.00094    0.00000   -1.29760    8    diag
   10      0.176D-06      0.221D-07       -92.91399697    111.279117    0.00094    0.00000   -1.29760    9    orth
   11      0.208D-07      0.418D-08       -92.91399697    111.279117    0.00094    0.00000   -1.29760    9    diag
   12      0.482D-08      0.157D-08       -92.91399697    111.279117    0.00094    0.00000   -1.29760    9    diag
   13      0.232D-08      0.756D-09       -92.91399697    111.279117    0.00094    0.00000   -1.29760    9    diag
   14      0.157D-08      0.196D-09       -92.91399697    111.279117    0.00094    0.00000   -1.29760    9    diag
   15      0.433D-09      0.770D-10       -92.91399697    111.279117    0.00094    0.00000   -1.29760    9    diag
   16      0.195D-09      0.947D-11       -92.91399697    111.279117    0.00094    0.00000   -1.29760    9    diag
   17      0.126D-09      0.167D-11       -92.91399697    111.279117    0.00094    0.00000   -1.29760    9    diag
   18      0.487D-10      0.641D-12       -92.91399697    111.279117    0.00094    0.00000   -1.29760    9    diag
   19      0.236D-10      0.546D-12       -92.91399697    111.279117    0.00094    0.00000   -1.29760    9    fixocc
   20      0.285D-10      0.420D-12       -92.91399697    111.279117    0.00094    0.00000   -1.29760    9    orth
   21      0.136D-10      0.467D-12       -92.91399697    111.279117    0.00094    0.00000   -1.29760    0    orth

 Final occupancy:   6   1

 !RHF STATE 1.1 Energy                -92.913996974056
 Nuclear energy                        23.75266850
 One-electron energy                 -172.30622379
 Two-electron energy                   55.63955832
 Virial quotient                       -1.00258920
 !RHF STATE 1.1 Dipole moment           0.00093563     0.00000000    -1.29760472
 Dipole moment /Debye                   0.00237798     0.00000000    -3.29796621

 Orbital energies:

         1.1          2.1          3.1          4.1          5.1          6.1          7.1          8.1
    -15.601538   -11.294568    -1.231801    -0.814714    -0.582827    -0.494052     0.017537     0.052466

         1.2          2.2          3.2
     -0.494054     0.052468     0.101368

 HOMO      6.1    -0.494052 =     -13.4438eV
 LUMO      7.1     0.017537 =       0.4772eV
 LUMO-HOMO         0.511589 =      13.9210eV


 **********************************************************************************************************************************
 DATASETS  * FILE   NREC   LENGTH (MB)   RECORD NAMES
              1      19     6368.00       500      610      700      900      950      970     1000      129      960     1100   
                                          VAR    BASINP    GEOM    SYMINP    ZMAT    AOBASIS   BASIS     P2S    ABASIS      S 
                                         1400     1410     1200     1210     1080     1600     1650     1300     1700   
                                           T        V       H0       H01     AOSYM     SMH    MOLCAS    ERIS     OPER   

              2       4        4.02       700     1000      520     2100   
                                         GEOM     BASIS   MCVARS     RHF  

 PROGRAMS   *        TOTAL        HF       INT
 CPU TIMES  *       195.88     70.35    125.42
 REAL TIME  *       270.70 SEC
 DISK USED  *        21.29 GB      
 **********************************************************************************************************************************


 PROGRAM * CCSD (Closed-shell coupled cluster)     Authors: C. Hampel, H.-J. Werner, 1991, M. Deegan, P.J. Knowles, 1992


 Convergence thresholds:  THRVAR = 1.00D-08  THRDEN = 1.00D-12

 CCSD(T)     terms to be evaluated (factor= 1.000)


 Number of core orbitals:           2 (   2   0 )
 Number of closed-shell orbitals:   5 (   4   1 )
 Number of external orbitals:     327 ( 198 129 )

 Molecular orbitals read from record     2100.2  Type=RHF/CANONICAL (state 1.1)

 Number of N-1 electron functions:               5
 Number of N-2 electron functions:              15
 Number of singly external CSFs:               921
 Number of doubly external CSFs:            679836
 Total number of CSFs:                      680758

 Length of J-op  integral file:               0.00 MB
 Length of K-op  integral file:               4.07 MB
 Length of 3-ext integral record:             0.00 MB

 Memory could be reduced to 134.37 Mwords without degradation in triples

 Integral transformation finished. Total CPU:   9.53 sec, npass=  1  Memory used:  35.82 MW

 Reference energy:                    -92.91399697

 MP2 singlet pair energy:              -0.24586132
 MP2 triplet pair energy:              -0.13378228
 MP2 correlation energy:               -0.37964360
 MP2 total energy:                    -93.29364057

 SCS-MP2 correlation energy:           -0.37827589   (PS=  1.200000  PT=  0.333333)
 SCS-MP2 total energy:                -93.29227286

 ITER.      SQ.NORM     CORR.ENERGY   TOTAL ENERGY   ENERGY CHANGE        DEN1      VAR(S)    VAR(P)  DIIS     TIME  TIME/IT
   1      1.11639676    -0.37544427   -93.28944125     0.00419933     0.01807865  0.28D-02  0.33D-02  1  1    16.93     8.27
   2      1.12585616    -0.37550265   -93.28949962    -0.00005837    -0.01058064  0.71D-04  0.42D-03  2  2    24.51     8.47
   3      1.13099952    -0.37574488   -93.28974185    -0.00024223    -0.00266352  0.15D-04  0.50D-04  3  3    31.74     8.44
   4      1.13325002    -0.37580913   -93.28980610    -0.00006425    -0.00080687  0.70D-06  0.58D-05  4  4    38.89     8.33
   5      1.13386439    -0.37582037   -93.28981734    -0.00001124    -0.00017136  0.76D-07  0.52D-06  5  5    46.07     8.28
   6      1.13399011    -0.37581858   -93.28981556     0.00000178    -0.00003095  0.11D-07  0.43D-07  6  6    53.69     8.32
   7      1.13400032    -0.37581987   -93.28981685    -0.00000129    -0.00000112  0.92D-09  0.37D-08  6  1    61.26     8.36
   8      1.13400343    -0.37582034   -93.28981732    -0.00000047    -0.00000133  0.14D-09  0.34D-09  6  2    68.61     8.35
   9      1.13400347    -0.37582043   -93.28981740    -0.00000008     0.00000003  0.14D-10  0.22D-10  6  3    76.21     8.38
  10      1.13400333    -0.37582048   -93.28981746    -0.00000006     0.00000011  0.14D-11  0.21D-11  6  4    83.78     8.40
  11      1.13400326    -0.37582050   -93.28981747    -0.00000002     0.00000003  0.26D-12  0.18D-12  6  5    91.11     8.38
  12      1.13400319    -0.37582051   -93.28981748    -0.00000001     0.00000003  0.39D-13  0.28D-13  6  6    98.50     8.38
  13      1.13400315    -0.37582051   -93.28981748    -0.00000000     0.00000001  0.45D-14  0.63D-14  6  1   105.68     8.36
  14      1.13400313    -0.37582051   -93.28981748    -0.00000000     0.00000001  0.64D-15  0.90D-15  6  2   112.74     8.33
  15      1.13400312    -0.37582051   -93.28981748    -0.00000000     0.00000000  0.61D-16  0.14D-15  6  3   119.84     8.31
  16      1.13400312    -0.37582051   -93.28981748     0.00000000     0.00000000  0.12D-16  0.19D-16  6  4   126.71     8.30
  17      1.13400312    -0.37582051   -93.28981748     0.00000000     0.00000000  0.36D-17  0.35D-17  6  5   133.71     8.28
  18      1.13400312    -0.37582051   -93.28981748     0.00000000     0.00000000  0.14D-17  0.11D-17  6  6   140.74     8.27
  19      1.13400312    -0.37582051   -93.28981748     0.00000000    -0.00000000  0.80D-18  0.53D-18  6  1   147.81     8.25
  20      1.13400312    -0.37582051   -93.28981748     0.00000000     0.00000000  0.40D-18  0.22D-18  6  2   154.87     8.24
  21      1.13400312    -0.37582051   -93.28981748     0.00000000    -0.00000000  0.24D-18  0.11D-18  6  5   161.81     8.23

 Norm of t1 vector:      0.06601722      S-energy:    -0.00000000      T1 diagnostic:  0.01476190
                                                                       D1 diagnostic:  0.02983353


 Total CPU time for triples:     50.64 sec


 RESULTS
 =======

  Reference energy                    -92.913996974055
  CCSD singlet pair energy             -0.264276189521
  CCSD triplet pair energy             -0.111544318645
  CCSD correlation energy              -0.375820508172

  Triples (T) contribution             -0.020316487277
  Total correlation energy             -0.396136995449

  CCSD total energy                   -93.289817482228
  CCSD[T] energy                      -93.311019723447
  CCSD-T energy                       -93.309744667941
 !CCSD(T) total energy                -93.310133969505

 Timing summary (sec):

 STEP                 CPU(USER)    SYS     CPU(TOT)    WALL
 Transformation          9.56      1.41     10.97     10.98
 CCSD iterations       152.25     20.60    172.85    172.91
 Triples                50.64      1.07     51.71     51.71

 Program statistics:

 Available memory in ccsd:               994999800
 Min. memory needed in ccsd:               2642580
 Max. memory used in ccsd:                 3176052
 Max. memory used in cckext:               7643882 (21 integral passes)



 **********************************************************************************************************************************
 DATASETS  * FILE   NREC   LENGTH (MB)   RECORD NAMES
              1      20     6732.13       500      610      700      900      950      970     1000      129      960     1100   
                                          VAR    BASINP    GEOM    SYMINP    ZMAT    AOBASIS   BASIS     P2S    ABASIS      S 
                                         1400     1410     1200     1210     1080     1600     1650     1300     1700     1380   
                                           T        V       H0       H01     AOSYM     SMH    MOLCAS    ERIS     OPER     JKOP   

              2       4        4.02       700     1000      520     2100   
                                         GEOM     BASIS   MCVARS     RHF  

 PROGRAMS   *        TOTAL   CCSD(T)        HF       INT
 CPU TIMES  *       408.36    212.48     70.35    125.42
 REAL TIME  *       506.34 SEC
 DISK USED  *        21.29 GB      
 **********************************************************************************************************************************

 CCSD(T)/aug-cc-pV5Z energy=    -93.310133969505

        CCSD(T)         HF-SCF  
    -93.31013397    -92.91399697
 **********************************************************************************************************************************
 Molpro calculation terminated
 Variable memory released
