
 Primary working directories    : /tmp/r2666/232410.maple
 Secondary working directories  : /tmp/r2666/232410.maple
 Wavefunction directory         : /ddn/home4/r2666/wfu/
 Main file repository           : /tmp/r2666/232410.maple/

 SHA1      : d5ffa45e93fdbca01ffc919aa182cfdae0147319
 NAME      : 2015.1.35
 ARCHNAME  : linux/x86_64
 FC        : /opt/intel/composer_xe_2015.1.133/bin/intel64/ifort
 BLASLIB   : -Wl,-_start-group /opt/intel/mkl/lib/intel64/libmkl_intel_ilp64.a /opt/intel/mkl/lib/intel64/libmkl_intel_thread.a /opt/intel/mkl/lib/intel64/libmkl_core.a -Wl,-_end-group
 id        : olemiss

 Nodes     nprocs
 cn090        1

 Using customized tuning parameters: mindgm=1; mindgv=20; mindgc=4; mindgr=1; noblas=0; minvec=7
 default implementation of scratch files=df  

 ***,hcn CCSD(T)/TZ-F12 QFF
 memory, 995, m;
 gthresh,energy=1.d-12,zero=1.d-22,oneint=1.d-22,twoint=1.d-22;
 gthresh,optgrad=1.d-8,optstep=1.d-8;
 nocompress;
 geomtyp=xyz
 bohr
 geometry={
 3
         19        19
 N        0.0000000000        0.0000000000        1.1247013910
 C        0.0000000000        0.0000000000       -1.0446996461
 H        0.0000000000        0.0000000000       -3.0770717269
 }
 
 basis=av5z
   {hf,maxit=500;accu,20;}
 {ccsd(t),nocheck,maxit=250;orbital,IGNORE_ERROR;}

 Variables initialized (889), CPU time= 0.01 sec
 Commands  initialized (702), CPU time= 0.01 sec, 572 directives.
 Default parameters read. Elapsed time= 0.07 sec

 Checking input...
 Passed
1


                                         ***  PROGRAM SYSTEM MOLPRO  ***
                                       Copyright, TTI GmbH Stuttgart, 2015
                                    Version 2015.1 linked Jul  9 2018 13:16:40


 **********************************************************************************************************************************
 LABEL *   hcn CCSD(T)/TZ-F12 QFF                                                        
  64 bit serial version                                                                  DATE: 06-Feb-20          TIME: 09:49:39  
 **********************************************************************************************************************************

 SHA1:             d5ffa45e93fdbca01ffc919aa182cfdae0147319
 **********************************************************************************************************************************

 THRESHOLDS:

 ZERO    =  1.00D-22  ONEINT  =  1.00D-22  TWOINT  =  1.00D-22  PREFAC  =  1.00D-14  LOCALI  =  1.00D-09  EORDER  =  1.00D-04
 ENERGY  =  1.00D-12  ETEST   =  0.00D+00  EDENS   =  0.00D+00  THRDEDEF=  1.00D-06  GRADIENT=  1.00D-02  STEP    =  1.00D-03
 ORBITAL =  1.00D-05  CIVEC   =  1.00D-05  COEFF   =  1.00D-04  PRINTCI =  5.00D-02  PUNCHCI =  9.90D+01  OPTGRAD =  3.00D-04
 OPTENERG=  1.00D-06  OPTSTEP =  3.00D-04  THRGRAD =  1.00D-10  COMPRESS=  1.00D-11  VARMIN  =  1.00D-07  VARMAX  =  1.00D-03
 THRDOUB =  0.00D+00  THRDIV  =  1.00D-05  THRRED  =  1.00D-07  THRPSP  =  1.00D+00  THRDC   =  1.00D-10  THRCS   =  1.00D-10
 THRNRM  =  1.00D-08  THREQ   =  0.00D+00  THRDE   =  1.00D+00  THRREF  =  1.00D-05  SPARFAC =  1.00D+00  THRDLP  =  1.00D-07
 THRDIA  =  1.00D-10  THRDLS  =  1.00D-07  THRGPS  =  0.00D+00  THRKEX  =  0.00D+00  THRDIS  =  2.00D-01  THRVAR  =  1.00D-10
 THRLOC  =  1.00D-06  THRGAP  =  1.00D-06  THRLOCT = -1.00D+00  THRGAPT = -1.00D+00  THRORB  =  1.00D-06  THRMLTP =  0.00D+00
 THRCPQCI=  1.00D-10  KEXTA   =  0.00D+00  THRCOARS=  0.00D+00  SYMTOL  =  1.00D-06  GRADTOL =  1.00D-06  THROVL  =  1.00D-08
 THRORTH =  1.00D-08  GRID    =  1.00D-06  GRIDMAX =  1.00D-03  DTMAX   =  0.00D+00  THROCCDE=  1.00D-01  THROCCDE=  1.00D-01



 THRESHOLDS:

 ZERO    =  1.00D-22  ONEINT  =  1.00D-22  TWOINT  =  1.00D-22  PREFAC  =  1.00D-14  LOCALI  =  1.00D-09  EORDER  =  1.00D-04
 ENERGY  =  1.00D-12  ETEST   =  0.00D+00  EDENS   =  0.00D+00  THRDEDEF=  1.00D-06  GRADIENT=  1.00D-02  STEP    =  1.00D-03
 ORBITAL =  1.00D-05  CIVEC   =  1.00D-05  COEFF   =  1.00D-04  PRINTCI =  5.00D-02  PUNCHCI =  9.90D+01  OPTGRAD =  1.00D-08
 OPTENERG=  1.00D-06  OPTSTEP =  1.00D-08  THRGRAD =  1.00D-10  COMPRESS=  1.00D-11  VARMIN  =  1.00D-07  VARMAX  =  1.00D-03
 THRDOUB =  0.00D+00  THRDIV  =  1.00D-05  THRRED  =  1.00D-07  THRPSP  =  1.00D+00  THRDC   =  1.00D-10  THRCS   =  1.00D-10
 THRNRM  =  1.00D-08  THREQ   =  0.00D+00  THRDE   =  1.00D+00  THRREF  =  1.00D-05  SPARFAC =  1.00D+00  THRDLP  =  1.00D-07
 THRDIA  =  1.00D-10  THRDLS  =  1.00D-07  THRGPS  =  0.00D+00  THRKEX  =  0.00D+00  THRDIS  =  2.00D-01  THRVAR  =  1.00D-10
 THRLOC  =  1.00D-06  THRGAP  =  1.00D-06  THRLOCT = -1.00D+00  THRGAPT = -1.00D+00  THRORB  =  1.00D-06  THRMLTP =  0.00D+00
 THRCPQCI=  1.00D-10  KEXTA   =  0.00D+00  THRCOARS=  0.00D+00  SYMTOL  =  1.00D-06  GRADTOL =  1.00D-06  THROVL  =  1.00D-08
 THRORTH =  1.00D-08  GRID    =  1.00D-06  GRIDMAX =  1.00D-03  DTMAX   =  0.00D+00  THROCCDE=  1.00D-01  THROCCDE=  1.00D-01



 Input parameters for SORTINT:

 COMPRESS =    0.000000
 C_FINAL  =    1.000000
 DEBUG    =   -1.000000
 C_SORT1  =    0.000000
 C_SEWARD =    0.000000
 THRESH   =    0.000000
 IO       =  molpro                                                          
 SPRI     =    0.000000
 SETTING GEOMTYP        =    XYZ
 ZUNIT=BOHR
 

 Variable memory set to  995000000 words,  buffer space   230000 words

 SETTING BASIS          =    AV5Z


 Recomputing integrals since basis changed


 Using spherical harmonics

 Library entry N      S aug-cc-pV5Z          selected for orbital group  1
 Library entry N      P aug-cc-pV5Z          selected for orbital group  1
 Library entry N      D aug-cc-pV5Z          selected for orbital group  1
 Library entry N      F aug-cc-pV5Z          selected for orbital group  1
 Library entry N      G aug-cc-pV5Z          selected for orbital group  1
 Library entry N      H aug-cc-pV5Z          selected for orbital group  1
 Library entry C      S aug-cc-pV5Z          selected for orbital group  2
 Library entry C      P aug-cc-pV5Z          selected for orbital group  2
 Library entry C      D aug-cc-pV5Z          selected for orbital group  2
 Library entry C      F aug-cc-pV5Z          selected for orbital group  2
 Library entry C      G aug-cc-pV5Z          selected for orbital group  2
 Library entry C      H aug-cc-pV5Z          selected for orbital group  2
 Library entry H      S aug-cc-pV5Z          selected for orbital group  3
 Library entry H      P aug-cc-pV5Z          selected for orbital group  3
 Library entry H      D aug-cc-pV5Z          selected for orbital group  3
 Library entry H      F aug-cc-pV5Z          selected for orbital group  3
 Library entry H      G aug-cc-pV5Z          selected for orbital group  3


 PROGRAM * SEWARD (Integral evaluation for generally contracted gaussian basis sets)     Author: Roland Lindh, 1990

 Geometry written to block  1 of record 700


 Point group  C2v 



 ATOMIC COORDINATES

 NR  ATOM    CHARGE       X              Y              Z

   1  N       7.00    0.000000000    0.000000000    1.124701391
   2  C       6.00    0.000000000    0.000000000   -1.044699646
   3  H       1.00    0.000000000    0.000000000   -3.077071727

 Bond lengths in Bohr (Angstrom)

 1-2  2.169401037  2-3  2.032372081
     ( 1.147997590)     ( 1.075484989)

 Bond angles

  1-2-3  180.00000000

 NUCLEAR CHARGE:                   14
 NUMBER OF PRIMITIVE AOS:         506
 NUMBER OF SYMMETRY AOS:          371
 NUMBER OF CONTRACTIONS:          334   ( 123A1  +  81B1  +  81B2  +  49A2  )
 NUMBER OF CORE ORBITALS:           2   (   2A1  +   0B1  +   0B2  +   0A2  )
 NUMBER OF VALENCE ORBITALS:        9   (   5A1  +   2B1  +   2B2  +   0A2  )


 NUCLEAR REPULSION ENERGY   23.97836117

 EXTRA SYMMETRY OF AOS IN SYMMETRY 1:   1 1 1 1 1 1 1 1 1 1   1 1 1 1 2 1 2 1 2 1   2 1 2 1 2 1 2 1 2 1   2 1 3 2 1 3 2 1 3 2
                                        2 3 1 2 3 1 1 1 1 1   1 1 1 1 1 1 1 1 1 1   2 1 2 1 2 1 2 1 2 1   2 1 2 1 2 1 2 1 3 2
                                        1 3 2 1 3 2 2 3 1 2   3 1 1 1 1 1 1 1 1 1   1 1 1 1 2 1 2 1 2 1   2 1 2 1 2 1 2 1 3 2
                                        1 3 2
 EXTRA SYMMETRY OF AOS IN SYMMETRY 2:   1 1 1 1 1 1 1 1 1 1   1 1 2 1 2 1 2 1 2 1   2 1 2 1 2 1 2 3 1 2   3 1 1 1 1 1 1 1 1 1
                                        1 1 1 2 1 2 1 2 1 2   1 2 1 2 1 2 1 2 3 1   2 3 1 1 1 1 1 1 1 1   1 1 2 1 2 1 2 1 2 1
                                        2
 EXTRA SYMMETRY OF AOS IN SYMMETRY 3:   1 1 1 1 1 1 1 1 1 1   1 1 2 1 2 1 2 1 2 1   2 1 2 1 2 1 2 3 1 2   3 1 1 1 1 1 1 1 1 1
                                        1 1 1 2 1 2 1 2 1 2   1 2 1 2 1 2 1 2 3 1   2 3 1 1 1 1 1 1 1 1   1 1 2 1 2 1 2 1 2 1
                                        2
 EXTRA SYMMETRY OF AOS IN SYMMETRY 4:   1 1 1 1 1 1 1 1 1 1   2 1 2 1 2 2 1 2 1 1   1 1 1 1 1 1 1 1 1 2   1 2 1 2 2 1 2 1 1 1
                                        1 1 1 1 1 1 2 1 2

 Eigenvalues of metric

         1 0.250E-05 0.555E-05 0.148E-04 0.358E-04 0.577E-04 0.698E-04 0.172E-03 0.221E-03
         2 0.558E-04 0.190E-03 0.371E-03 0.705E-03 0.930E-03 0.157E-02 0.185E-02 0.368E-02
         3 0.558E-04 0.190E-03 0.371E-03 0.705E-03 0.930E-03 0.157E-02 0.185E-02 0.368E-02
         4 0.756E-03 0.225E-02 0.479E-02 0.712E-02 0.172E-01 0.235E-01 0.253E-01 0.646E-01


 Contracted 2-electron integrals neglected if value below      1.0D-22

      355209516. INTEGRALS WRITTEN OUT IN   86743 BLOCKS ON RECORD 1290 OF FILE 1


 NUMBER OF SORTED TWO-ELECTRON INTEGRALS:  396972178.     BUFFER LENGTH:  32768
 NUMBER OF SEGMENTS:  13  SEGMENT LENGTH:   31999071      RECORD LENGTH: 524288

 Memory used in sort:      32.56 MW

 SORT1 READ   355209516. AND WROTE   358383136. INTEGRALS IN   1032 RECORDS. CPU TIME:    13.59 SEC, REAL TIME:    38.93 SEC
 SORT2 READ   358383136. AND WROTE   396972178. INTEGRALS IN     13 RECORDS. CPU TIME:     6.54 SEC, REAL TIME:    17.44 SEC

 FILE SIZES:   FILE 1:  5707.1 MBYTE,  FILE 4:  4328.6 MBYTE,   TOTAL:  10035.7 MBYTE

 OPERATOR DM      FOR CENTER  0  COORDINATES:    0.000000    0.000000    0.000000


 **********************************************************************************************************************************
 DATASETS  * FILE   NREC   LENGTH (MB)   RECORD NAMES
              1      19     3079.49       500      610      700      900      950      970     1000      129      960     1100   
                                          VAR    BASINP    GEOM    SYMINP    ZMAT    AOBASIS   BASIS     P2S    ABASIS      S 
                                         1400     1410     1200     1210     1080     1600     1650     1300     1700   
                                           T        V       H0       H01     AOSYM     SMH    MOLCAS    ERIS     OPER   

 PROGRAMS   *        TOTAL       INT
 CPU TIMES  *        88.52     88.42
 REAL TIME  *       128.01 SEC
 DISK USED  *        10.04 GB      
 **********************************************************************************************************************************


 PROGRAM * RHF-SCF (CLOSED SHELL)       Authors: W. Meyer, H.-J. Werner


 NUMBER OF ELECTRONS:       7+    7-
 CONVERGENCE THRESHOLDS:    1.00E-10 (Density)    1.00E-13 (Energy)
 MAX. NUMBER OF ITERATIONS:      500
 INTERPOLATION TYPE:            DIIS
 INTERPOLATION STEPS:              2 (START)      1 (STEP)
 LEVEL SHIFTS:                  0.00 (CLOSED)  0.00 (OPEN) 



 Orbital guess generated from atomic densities. Full valence occupancy:    7   2   2   0

 Molecular orbital dump at record        2100.2

 Initial occupancy:   5   1   1   0

 ITERATION    DDIFF          GRAD             ENERGY        2-EL.EN.            DIPOLE MOMENTS         DIIS   ORB.
    1      0.000D+00      0.000D+00       -92.89135814    112.145721    0.00000    0.00000   -1.79249    0    start
    2      0.000D+00      0.571D-02       -92.90062563    111.218607    0.00000    0.00000   -0.90575    1    diag
    3      0.438D-02      0.503D-02       -92.91598891    111.772755    0.00000    0.00000   -1.31291    2    diag
    4      0.224D-02      0.416D-03       -92.91621505    111.738974    0.00000    0.00000   -1.30086    3    diag
    5      0.416D-03      0.881D-04       -92.91622831    111.746543    0.00000    0.00000   -1.29932    4    diag
    6      0.103D-03      0.236D-04       -92.91622904    111.742207    0.00000    0.00000   -1.29945    5    diag
    7      0.198D-04      0.825D-05       -92.91622911    111.743446    0.00000    0.00000   -1.29948    6    diag
    8      0.657D-05      0.180D-05       -92.91622911    111.743380    0.00000    0.00000   -1.29946    7    diag
    9      0.140D-05      0.209D-06       -92.91622911    111.743389    0.00000    0.00000   -1.29945    8    diag
   10      0.218D-06      0.266D-07       -92.91622911    111.743390    0.00000    0.00000   -1.29945    9    orth
   11      0.260D-07      0.390D-08       -92.91622911    111.743390    0.00000    0.00000   -1.29945    9    diag
   12      0.471D-08      0.376D-09       -92.91622911    111.743390    0.00000    0.00000   -1.29945    9    diag
   13      0.117D-08      0.332D-10       -92.91622911    111.743390    0.00000    0.00000   -1.29945    9    diag
   14      0.887D-10      0.598D-11       -92.91622911    111.743390    0.00000    0.00000   -1.29945    9    diag
   15      0.492D-10      0.121D-11       -92.91622911    111.743390    0.00000    0.00000   -1.29945    9    diag
   16      0.451D-10      0.945D-12       -92.91622911    111.743390    0.00000    0.00000   -1.29945    9    diag
   17      0.406D-10      0.751D-12       -92.91622911    111.743390    0.00000    0.00000   -1.29945    9    diag
   18      0.252D-10      0.495D-12       -92.91622911    111.743390    0.00000    0.00000   -1.29945    9    diag
   19      0.141D-10      0.353D-12       -92.91622911    111.743390    0.00000    0.00000   -1.29945    9    fixocc
   20      0.151D-10      0.371D-12       -92.91622911    111.743390    0.00000    0.00000   -1.29945    9    orth
   21      0.108D-10      0.631D-12       -92.91622911    111.743390    0.00000    0.00000   -1.29945    9    diag
   22      0.127D-10      0.534D-12       -92.91622911    111.743390    0.00000    0.00000   -1.29945    9    diag
   23      0.278D-11      0.533D-12       -92.91622911    111.743390    0.00000    0.00000   -1.29945    9    diag
   24      0.738D-11      0.453D-12       -92.91622911    111.743390    0.00000    0.00000   -1.29945    9    diag
   25      0.216D-11      0.334D-12       -92.91622911    111.743390    0.00000    0.00000   -1.29945    9    diag
   26      0.144D-11      0.353D-12       -92.91622911    111.743390    0.00000    0.00000   -1.29945    9    diag
   27      0.235D-11      0.330D-12       -92.91622911    111.743390    0.00000    0.00000   -1.29945    9    diag
   28      0.323D-11      0.388D-12       -92.91622911    111.743390    0.00000    0.00000   -1.29945    9    diag
   29      0.156D-11      0.415D-12       -92.91622911    111.743390    0.00000    0.00000   -1.29945    9    diag
   30      0.386D-11      0.376D-12       -92.91622911    111.743390    0.00000    0.00000   -1.29945    9    orth
   31      0.241D-11      0.402D-12       -92.91622911    111.743390    0.00000    0.00000   -1.29945    0    orth

 Final occupancy:   5   1   1   0

 !RHF STATE 1.1 Energy                -92.916229114278
 Nuclear energy                        23.97836117
 One-electron energy                 -172.76628526
 Two-electron energy                   55.87169498
 Virial quotient                       -1.00188753
 !RHF STATE 1.1 Dipole moment           0.00000000     0.00000000    -1.29944833
 Dipole moment /Debye                   0.00000000     0.00000000    -3.30265189

 Orbital energies:

         1.1          2.1          3.1          4.1          5.1          6.1          7.1
    -15.595922   -11.289792    -1.238681    -0.808563    -0.581697     0.017556     0.053227

         1.2          2.2          3.2
     -0.498396     0.052449     0.101907

         1.3          2.3          3.3
     -0.498396     0.052449     0.101907

         1.4          2.4
      0.202719     0.327086

 HOMO      1.2    -0.498396 =     -13.5620eV
 LUMO      6.1     0.017556 =       0.4777eV
 LUMO-HOMO         0.515951 =      14.0398eV


 **********************************************************************************************************************************
 DATASETS  * FILE   NREC   LENGTH (MB)   RECORD NAMES
              1      19     3079.49       500      610      700      900      950      970     1000      129      960     1100   
                                          VAR    BASINP    GEOM    SYMINP    ZMAT    AOBASIS   BASIS     P2S    ABASIS      S 
                                         1400     1410     1200     1210     1080     1600     1650     1300     1700   
                                           T        V       H0       H01     AOSYM     SMH    MOLCAS    ERIS     OPER   

              2       4        3.46       700     1000      520     2100   
                                         GEOM     BASIS   MCVARS     RHF  

 PROGRAMS   *        TOTAL        HF       INT
 CPU TIMES  *       121.81     33.29     88.42
 REAL TIME  *       169.47 SEC
 DISK USED  *        10.04 GB      
 **********************************************************************************************************************************


 PROGRAM * CCSD (Closed-shell coupled cluster)     Authors: C. Hampel, H.-J. Werner, 1991, M. Deegan, P.J. Knowles, 1992


 Convergence thresholds:  THRVAR = 1.00D-08  THRDEN = 1.00D-12

 CCSD(T)     terms to be evaluated (factor= 1.000)


 Number of core orbitals:           2 (   2   0   0   0 )
 Number of closed-shell orbitals:   5 (   3   1   1   0 )
 Number of external orbitals:     327 ( 118  80  80  49 )

 Molecular orbitals read from record     2100.2  Type=RHF/CANONICAL (state 1.1)

 Number of N-1 electron functions:               5
 Number of N-2 electron functions:              15
 Number of singly external CSFs:               514
 Number of doubly external CSFs:            345689
 Total number of CSFs:                      346204

 Length of J-op  integral file:               0.00 MB
 Length of K-op  integral file:               2.14 MB
 Length of 3-ext integral record:             0.00 MB

 Memory could be reduced to 68.09 Mwords without degradation in triples

 Integral transformation finished. Total CPU:   3.13 sec, npass=  1  Memory used:   7.20 MW

 Reference energy:                    -92.91622911

 MP2 singlet pair energy:              -0.24434709
 MP2 triplet pair energy:              -0.13251567
 MP2 correlation energy:               -0.37686276
 MP2 total energy:                    -93.29309187

 SCS-MP2 correlation energy:           -0.37567070   (PS=  1.200000  PT=  0.333333)
 SCS-MP2 total energy:                -93.29189981

 ITER.      SQ.NORM     CORR.ENERGY   TOTAL ENERGY   ENERGY CHANGE        DEN1      VAR(S)    VAR(P)  DIIS     TIME  TIME/IT
   1      1.11474222    -0.37348958   -93.28971869     0.00337318     0.01663123  0.26D-02  0.31D-02  1  1     6.16     3.41
   2      1.12384934    -0.37368651   -93.28991563    -0.00019693    -0.01021486  0.65D-04  0.40D-03  2  2     9.05     3.39
   3      1.12876341    -0.37391800   -93.29014712    -0.00023149    -0.00258652  0.14D-04  0.46D-04  3  3    11.95     3.38
   4      1.13085712    -0.37397558   -93.29020469    -0.00005757    -0.00076578  0.68D-06  0.52D-05  4  4    14.88     3.37
   5      1.13141476    -0.37398598   -93.29021510    -0.00001041    -0.00015712  0.80D-07  0.45D-06  5  5    17.85     3.37
   6      1.13152724    -0.37398441   -93.29021352     0.00000157    -0.00002795  0.93D-08  0.37D-07  6  6    20.72     3.36
   7      1.13153676    -0.37398541   -93.29021453    -0.00000100    -0.00000123  0.88D-09  0.31D-08  6  1    23.57     3.36
   8      1.13153950    -0.37398582   -93.29021493    -0.00000041    -0.00000115  0.13D-09  0.28D-09  6  2    26.44     3.36
   9      1.13153961    -0.37398589   -93.29021500    -0.00000007     0.00000000  0.12D-10  0.19D-10  6  3    29.38     3.36
  10      1.13153949    -0.37398594   -93.29021505    -0.00000005     0.00000010  0.13D-11  0.18D-11  6  4    32.33     3.36
  11      1.13153943    -0.37398595   -93.29021507    -0.00000002     0.00000003  0.17D-12  0.17D-12  6  5    35.26     3.36
  12      1.13153937    -0.37398596   -93.29021507    -0.00000000     0.00000003  0.18D-13  0.28D-13  6  6    38.16     3.36
  13      1.13153934    -0.37398596   -93.29021507    -0.00000000     0.00000001  0.22D-14  0.53D-14  6  1    41.10     3.36
  14      1.13153933    -0.37398596   -93.29021507    -0.00000000     0.00000001  0.78D-16  0.84D-15  6  2    43.95     3.36
  15      1.13153932    -0.37398596   -93.29021507    -0.00000000     0.00000000  0.19D-16  0.11D-15  6  3    46.84     3.35
  16      1.13153932    -0.37398596   -93.29021507     0.00000000     0.00000000  0.21D-17  0.15D-16  6  4    49.69     3.35
  17      1.13153932    -0.37398596   -93.29021507     0.00000000     0.00000000  0.75D-18  0.24D-17  6  5    52.62     3.36
  18      1.13153932    -0.37398596   -93.29021507     0.00000000     0.00000000  0.17D-18  0.35D-18  6  6    55.57     3.36
  19      1.13153932    -0.37398596   -93.29021507     0.00000000     0.00000000  0.75D-19  0.15D-18  6  3    58.62     3.37
  20      1.13153932    -0.37398596   -93.29021507     0.00000000    -0.00000000  0.37D-19  0.92D-19  6  1    61.48     3.37
  21      1.13153932    -0.37398596   -93.29021507    -0.00000000     0.00000000  0.43D-19  0.70D-19  6  2    64.35     3.37

 Norm of t1 vector:      0.06401822      S-energy:    -0.00000000      T1 diagnostic:  0.01431491
                                                                       D1 diagnostic:  0.02878653


 Total CPU time for triples:     18.02 sec


 RESULTS
 =======

  Reference energy                    -92.916229114278
  CCSD singlet pair energy             -0.262778414342
  CCSD triplet pair energy             -0.111207543924
  CCSD correlation energy              -0.373985958271

  Triples (T) contribution             -0.019849372582
  Total correlation energy             -0.393835330853

  CCSD total energy                   -93.290215072548
  CCSD[T] energy                      -93.310892412518
  CCSD-T energy                       -93.309698453913
 !CCSD(T) total energy                -93.310064445131

 Timing summary (sec):

 STEP                 CPU(USER)    SYS     CPU(TOT)    WALL
 Transformation          3.14      0.57      3.71      4.01
 CCSD iterations        61.22      9.49     70.71     70.69
 Triples                18.02      0.53     18.55     18.57

 Program statistics:

 Available memory in ccsd:               994999800
 Min. memory needed in ccsd:               1363289
 Max. memory used in ccsd:                 1637718
 Max. memory used in cckext:               2695008 (21 integral passes)



 **********************************************************************************************************************************
 DATASETS  * FILE   NREC   LENGTH (MB)   RECORD NAMES
              1      20     3263.70       500      610      700      900      950      970     1000      129      960     1100   
                                          VAR    BASINP    GEOM    SYMINP    ZMAT    AOBASIS   BASIS     P2S    ABASIS      S 
                                         1400     1410     1200     1210     1080     1600     1650     1300     1700     1380   
                                           T        V       H0       H01     AOSYM     SMH    MOLCAS    ERIS     OPER     JKOP   

              2       4        3.46       700     1000      520     2100   
                                         GEOM     BASIS   MCVARS     RHF  

 PROGRAMS   *        TOTAL   CCSD(T)        HF       INT
 CPU TIMES  *       204.21     82.40     33.29     88.42
 REAL TIME  *       262.85 SEC
 DISK USED  *        10.04 GB      
 **********************************************************************************************************************************

 CCSD(T)/aug-cc-pV5Z energy=    -93.310064445131

        CCSD(T)         HF-SCF  
    -93.31006445    -92.91622911
 **********************************************************************************************************************************
 Molpro calculation terminated
 Variable memory released
