
 Primary working directories    : /tmp/r2666/233463.maple
 Secondary working directories  : /tmp/r2666/233463.maple
 Wavefunction directory         : /ddn/home4/r2666/wfu/
 Main file repository           : /tmp/r2666/233463.maple/

 SHA1      : d5ffa45e93fdbca01ffc919aa182cfdae0147319
 NAME      : 2015.1.35
 ARCHNAME  : linux/x86_64
 FC        : /opt/intel/composer_xe_2015.1.133/bin/intel64/ifort
 BLASLIB   : -Wl,-_start-group /opt/intel/mkl/lib/intel64/libmkl_intel_ilp64.a /opt/intel/mkl/lib/intel64/libmkl_intel_thread.a /opt/intel/mkl/lib/intel64/libmkl_core.a -Wl,-_end-group
 id        : olemiss

 Nodes     nprocs
 cn094        1

 Using customized tuning parameters: mindgm=1; mindgv=20; mindgc=4; mindgr=1; noblas=0; minvec=7
 default implementation of scratch files=df  

 ***,hcn CCSD(T)/TZ-F12 QFF
 memory, 995, m;
 gthresh,energy=1.d-12,zero=1.d-22,oneint=1.d-22,twoint=1.d-22;
 gthresh,optgrad=1.d-8,optstep=1.d-8;
 nocompress;
 geomtyp=xyz
 bohr
 geometry={
 3
          3         3
 N        0.0000000000        0.0000000000        1.1058041311
 C        0.0000000000        0.0000000000       -1.0446996461
 H        0.0000000000        0.0000000000       -3.0581744671
 }
 
 basis=av5z
   {hf,maxit=500;accu,20;}
 {ccsd(t),nocheck,maxit=250;orbital,IGNORE_ERROR;}

 Variables initialized (889), CPU time= 0.01 sec
 Commands  initialized (702), CPU time= 0.01 sec, 572 directives.
 Default parameters read. Elapsed time= 0.05 sec

 Checking input...
 Passed
1


                                         ***  PROGRAM SYSTEM MOLPRO  ***
                                       Copyright, TTI GmbH Stuttgart, 2015
                                    Version 2015.1 linked Jul  9 2018 13:16:40


 **********************************************************************************************************************************
 LABEL *   hcn CCSD(T)/TZ-F12 QFF                                                        
  64 bit serial version                                                                  DATE: 06-Feb-20          TIME: 21:32:26  
 **********************************************************************************************************************************

 SHA1:             d5ffa45e93fdbca01ffc919aa182cfdae0147319
 **********************************************************************************************************************************

 THRESHOLDS:

 ZERO    =  1.00D-22  ONEINT  =  1.00D-22  TWOINT  =  1.00D-22  PREFAC  =  1.00D-14  LOCALI  =  1.00D-09  EORDER  =  1.00D-04
 ENERGY  =  1.00D-12  ETEST   =  0.00D+00  EDENS   =  0.00D+00  THRDEDEF=  1.00D-06  GRADIENT=  1.00D-02  STEP    =  1.00D-03
 ORBITAL =  1.00D-05  CIVEC   =  1.00D-05  COEFF   =  1.00D-04  PRINTCI =  5.00D-02  PUNCHCI =  9.90D+01  OPTGRAD =  3.00D-04
 OPTENERG=  1.00D-06  OPTSTEP =  3.00D-04  THRGRAD =  1.00D-10  COMPRESS=  1.00D-11  VARMIN  =  1.00D-07  VARMAX  =  1.00D-03
 THRDOUB =  0.00D+00  THRDIV  =  1.00D-05  THRRED  =  1.00D-07  THRPSP  =  1.00D+00  THRDC   =  1.00D-10  THRCS   =  1.00D-10
 THRNRM  =  1.00D-08  THREQ   =  0.00D+00  THRDE   =  1.00D+00  THRREF  =  1.00D-05  SPARFAC =  1.00D+00  THRDLP  =  1.00D-07
 THRDIA  =  1.00D-10  THRDLS  =  1.00D-07  THRGPS  =  0.00D+00  THRKEX  =  0.00D+00  THRDIS  =  2.00D-01  THRVAR  =  1.00D-10
 THRLOC  =  1.00D-06  THRGAP  =  1.00D-06  THRLOCT = -1.00D+00  THRGAPT = -1.00D+00  THRORB  =  1.00D-06  THRMLTP =  0.00D+00
 THRCPQCI=  1.00D-10  KEXTA   =  0.00D+00  THRCOARS=  0.00D+00  SYMTOL  =  1.00D-06  GRADTOL =  1.00D-06  THROVL  =  1.00D-08
 THRORTH =  1.00D-08  GRID    =  1.00D-06  GRIDMAX =  1.00D-03  DTMAX   =  0.00D+00  THROCCDE=  1.00D-01  THROCCDE=  1.00D-01



 THRESHOLDS:

 ZERO    =  1.00D-22  ONEINT  =  1.00D-22  TWOINT  =  1.00D-22  PREFAC  =  1.00D-14  LOCALI  =  1.00D-09  EORDER  =  1.00D-04
 ENERGY  =  1.00D-12  ETEST   =  0.00D+00  EDENS   =  0.00D+00  THRDEDEF=  1.00D-06  GRADIENT=  1.00D-02  STEP    =  1.00D-03
 ORBITAL =  1.00D-05  CIVEC   =  1.00D-05  COEFF   =  1.00D-04  PRINTCI =  5.00D-02  PUNCHCI =  9.90D+01  OPTGRAD =  1.00D-08
 OPTENERG=  1.00D-06  OPTSTEP =  1.00D-08  THRGRAD =  1.00D-10  COMPRESS=  1.00D-11  VARMIN  =  1.00D-07  VARMAX  =  1.00D-03
 THRDOUB =  0.00D+00  THRDIV  =  1.00D-05  THRRED  =  1.00D-07  THRPSP  =  1.00D+00  THRDC   =  1.00D-10  THRCS   =  1.00D-10
 THRNRM  =  1.00D-08  THREQ   =  0.00D+00  THRDE   =  1.00D+00  THRREF  =  1.00D-05  SPARFAC =  1.00D+00  THRDLP  =  1.00D-07
 THRDIA  =  1.00D-10  THRDLS  =  1.00D-07  THRGPS  =  0.00D+00  THRKEX  =  0.00D+00  THRDIS  =  2.00D-01  THRVAR  =  1.00D-10
 THRLOC  =  1.00D-06  THRGAP  =  1.00D-06  THRLOCT = -1.00D+00  THRGAPT = -1.00D+00  THRORB  =  1.00D-06  THRMLTP =  0.00D+00
 THRCPQCI=  1.00D-10  KEXTA   =  0.00D+00  THRCOARS=  0.00D+00  SYMTOL  =  1.00D-06  GRADTOL =  1.00D-06  THROVL  =  1.00D-08
 THRORTH =  1.00D-08  GRID    =  1.00D-06  GRIDMAX =  1.00D-03  DTMAX   =  0.00D+00  THROCCDE=  1.00D-01  THROCCDE=  1.00D-01



 Input parameters for SORTINT:

 COMPRESS =    0.000000
 C_FINAL  =    1.000000
 DEBUG    =   -1.000000
 C_SORT1  =    0.000000
 C_SEWARD =    0.000000
 THRESH   =    0.000000
 IO       =  molpro                                                          
 SPRI     =    0.000000
 SETTING GEOMTYP        =    XYZ
 ZUNIT=BOHR
 

 Variable memory set to  995000000 words,  buffer space   230000 words

 SETTING BASIS          =    AV5Z


 Recomputing integrals since basis changed


 Using spherical harmonics

 Library entry N      S aug-cc-pV5Z          selected for orbital group  1
 Library entry N      P aug-cc-pV5Z          selected for orbital group  1
 Library entry N      D aug-cc-pV5Z          selected for orbital group  1
 Library entry N      F aug-cc-pV5Z          selected for orbital group  1
 Library entry N      G aug-cc-pV5Z          selected for orbital group  1
 Library entry N      H aug-cc-pV5Z          selected for orbital group  1
 Library entry C      S aug-cc-pV5Z          selected for orbital group  2
 Library entry C      P aug-cc-pV5Z          selected for orbital group  2
 Library entry C      D aug-cc-pV5Z          selected for orbital group  2
 Library entry C      F aug-cc-pV5Z          selected for orbital group  2
 Library entry C      G aug-cc-pV5Z          selected for orbital group  2
 Library entry C      H aug-cc-pV5Z          selected for orbital group  2
 Library entry H      S aug-cc-pV5Z          selected for orbital group  3
 Library entry H      P aug-cc-pV5Z          selected for orbital group  3
 Library entry H      D aug-cc-pV5Z          selected for orbital group  3
 Library entry H      F aug-cc-pV5Z          selected for orbital group  3
 Library entry H      G aug-cc-pV5Z          selected for orbital group  3


 PROGRAM * SEWARD (Integral evaluation for generally contracted gaussian basis sets)     Author: Roland Lindh, 1990

 Geometry written to block  1 of record 700


 Point group  C2v 



 ATOMIC COORDINATES

 NR  ATOM    CHARGE       X              Y              Z

   1  N       7.00    0.000000000    0.000000000    1.105804131
   2  C       6.00    0.000000000    0.000000000   -1.044699646
   3  H       1.00    0.000000000    0.000000000   -3.058174467

 Bond lengths in Bohr (Angstrom)

 1-2  2.150503777  2-3  2.013474821
     ( 1.137997591)     ( 1.065484990)

 Bond angles

  1-2-3  179.99999879

 NUCLEAR CHARGE:                   14
 NUMBER OF PRIMITIVE AOS:         506
 NUMBER OF SYMMETRY AOS:          371
 NUMBER OF CONTRACTIONS:          334   ( 123A1  +  81B1  +  81B2  +  49A2  )
 NUMBER OF CORE ORBITALS:           2   (   2A1  +   0B1  +   0B2  +   0A2  )
 NUMBER OF VALENCE ORBITALS:        9   (   5A1  +   2B1  +   2B2  +   0A2  )


 NUCLEAR REPULSION ENERGY   24.19131504

 EXTRA SYMMETRY OF AOS IN SYMMETRY 1:   1 1 1 1 1 1 1 1 1 1   1 1 1 1 2 1 2 1 2 1   2 1 2 1 2 1 2 1 2 1   2 1 3 2 1 3 2 1 3 2
                                        2 3 1 2 3 1 1 1 1 1   1 1 1 1 1 1 1 1 1 1   2 1 2 1 2 1 2 1 2 1   2 1 2 1 2 1 2 1 3 2
                                        1 3 2 1 3 2 2 3 1 2   3 1 1 1 1 1 1 1 1 1   1 1 1 1 2 1 2 1 2 1   2 1 2 1 2 1 2 1 3 2
                                        1 3 2
 EXTRA SYMMETRY OF AOS IN SYMMETRY 2:   1 1 1 1 1 1 1 1 1 1   1 1 2 1 2 1 2 1 2 1   2 1 2 1 2 1 2 3 1 2   3 1 1 1 1 1 1 1 1 1
                                        1 1 1 2 1 2 1 2 1 2   1 2 1 2 1 2 1 2 3 1   2 3 1 1 1 1 1 1 1 1   1 1 2 1 2 1 2 1 2 1
                                        2
 EXTRA SYMMETRY OF AOS IN SYMMETRY 3:   1 1 1 1 1 1 1 1 1 1   1 1 2 1 2 1 2 1 2 1   2 1 2 1 2 1 2 3 1 2   3 1 1 1 1 1 1 1 1 1
                                        1 1 1 2 1 2 1 2 1 2   1 2 1 2 1 2 1 2 3 1   2 3 1 1 1 1 1 1 1 1   1 1 2 1 2 1 2 1 2 1
                                        2
 EXTRA SYMMETRY OF AOS IN SYMMETRY 4:   1 1 1 1 1 1 1 1 1 1   2 1 2 1 2 2 1 2 1 1   1 1 1 1 1 1 1 1 1 2   1 2 1 2 2 1 2 1 1 1
                                        1 1 1 1 1 1 2 1 2

 Eigenvalues of metric

         1 0.231E-05 0.541E-05 0.142E-04 0.349E-04 0.562E-04 0.680E-04 0.166E-03 0.217E-03
         2 0.534E-04 0.177E-03 0.361E-03 0.683E-03 0.910E-03 0.151E-02 0.182E-02 0.362E-02
         3 0.534E-04 0.177E-03 0.361E-03 0.683E-03 0.910E-03 0.151E-02 0.182E-02 0.362E-02
         4 0.731E-03 0.217E-02 0.465E-02 0.688E-02 0.159E-01 0.226E-01 0.245E-01 0.629E-01


 Contracted 2-electron integrals neglected if value below      1.0D-22

      355400428. INTEGRALS WRITTEN OUT IN   86789 BLOCKS ON RECORD 1290 OF FILE 1


 NUMBER OF SORTED TWO-ELECTRON INTEGRALS:  396972178.     BUFFER LENGTH:  32768
 NUMBER OF SEGMENTS:  13  SEGMENT LENGTH:   31999071      RECORD LENGTH: 524288

 Memory used in sort:      32.56 MW

 SORT1 READ   355400428. AND WROTE   358575824. INTEGRALS IN   1032 RECORDS. CPU TIME:    10.08 SEC, REAL TIME:    12.65 SEC
 SORT2 READ   358575824. AND WROTE   396972178. INTEGRALS IN     13 RECORDS. CPU TIME:     5.38 SEC, REAL TIME:     7.36 SEC

 FILE SIZES:   FILE 1:  5710.2 MBYTE,  FILE 4:  4328.6 MBYTE,   TOTAL:  10038.7 MBYTE

 OPERATOR DM      FOR CENTER  0  COORDINATES:    0.000000    0.000000    0.000000


 **********************************************************************************************************************************
 DATASETS  * FILE   NREC   LENGTH (MB)   RECORD NAMES
              1      19     3080.61       500      610      700      900      950      970     1000      129      960     1100   
                                          VAR    BASINP    GEOM    SYMINP    ZMAT    AOBASIS   BASIS     P2S    ABASIS      S 
                                         1400     1410     1200     1210     1080     1600     1650     1300     1700   
                                           T        V       H0       H01     AOSYM     SMH    MOLCAS    ERIS     OPER   

 PROGRAMS   *        TOTAL       INT
 CPU TIMES  *        94.68     94.56
 REAL TIME  *       103.48 SEC
 DISK USED  *        10.04 GB      
 **********************************************************************************************************************************


 PROGRAM * RHF-SCF (CLOSED SHELL)       Authors: W. Meyer, H.-J. Werner


 NUMBER OF ELECTRONS:       7+    7-
 CONVERGENCE THRESHOLDS:    1.00E-10 (Density)    1.00E-13 (Energy)
 MAX. NUMBER OF ITERATIONS:      500
 INTERPOLATION TYPE:            DIIS
 INTERPOLATION STEPS:              2 (START)      1 (STEP)
 LEVEL SHIFTS:                  0.00 (CLOSED)  0.00 (OPEN) 



 Orbital guess generated from atomic densities. Full valence occupancy:    7   2   2   0

 Molecular orbital dump at record        2100.2

 Initial occupancy:   5   1   1   0

 ITERATION    DDIFF          GRAD             ENERGY        2-EL.EN.            DIPOLE MOMENTS         DIIS   ORB.
    1      0.000D+00      0.000D+00       -92.89293925    112.599035    0.00000    0.00000   -1.77193    0    start
    2      0.000D+00      0.569D-02       -92.90262851    111.618195    0.00000    0.00000   -0.91307    1    diag
    3      0.435D-02      0.492D-02       -92.91721310    112.176268    0.00000    0.00000   -1.30505    2    diag
    4      0.220D-02      0.415D-03       -92.91743544    112.147895    0.00000    0.00000   -1.29273    3    diag
    5      0.414D-03      0.846D-04       -92.91744808    112.151961    0.00000    0.00000   -1.29130    4    diag
    6      0.103D-03      0.215D-04       -92.91744868    112.148867    0.00000    0.00000   -1.29151    5    diag
    7      0.180D-04      0.692D-05       -92.91744873    112.150062    0.00000    0.00000   -1.29151    6    diag
    8      0.543D-05      0.163D-05       -92.91744873    112.149971    0.00000    0.00000   -1.29148    7    diag
    9      0.124D-05      0.194D-06       -92.91744873    112.149980    0.00000    0.00000   -1.29147    8    diag
   10      0.203D-06      0.258D-07       -92.91744873    112.149982    0.00000    0.00000   -1.29147    9    orth
   11      0.255D-07      0.389D-08       -92.91744873    112.149982    0.00000    0.00000   -1.29147    9    diag
   12      0.448D-08      0.369D-09       -92.91744873    112.149982    0.00000    0.00000   -1.29147    9    diag
   13      0.116D-08      0.322D-10       -92.91744873    112.149982    0.00000    0.00000   -1.29147    9    diag
   14      0.134D-09      0.476D-11       -92.91744873    112.149982    0.00000    0.00000   -1.29147    9    diag
   15      0.604D-10      0.132D-11       -92.91744873    112.149982    0.00000    0.00000   -1.29147    9    diag
   16      0.984D-10      0.612D-12       -92.91744873    112.149982    0.00000    0.00000   -1.29147    9    diag
   17      0.380D-10      0.759D-12       -92.91744873    112.149982    0.00000    0.00000   -1.29147    9    diag
   18      0.224D-10      0.511D-12       -92.91744873    112.149982    0.00000    0.00000   -1.29147    9    diag
   19      0.175D-10      0.731D-12       -92.91744873    112.149982    0.00000    0.00000   -1.29147    9    fixocc
   20      0.131D-10      0.551D-12       -92.91744873    112.149982    0.00000    0.00000   -1.29147    9    orth
   21      0.359D-11      0.443D-12       -92.91744873    112.149982    0.00000    0.00000   -1.29147    9    diag
   22      0.669D-11      0.426D-12       -92.91744873    112.149982    0.00000    0.00000   -1.29147    9    diag
   23      0.663D-11      0.478D-12       -92.91744873    112.149982    0.00000    0.00000   -1.29147    9    diag
   24      0.178D-11      0.322D-12       -92.91744873    112.149982    0.00000    0.00000   -1.29147    9    diag
   25      0.197D-11      0.399D-12       -92.91744873    112.149982    0.00000    0.00000   -1.29147    9    diag
   26      0.158D-11      0.436D-12       -92.91744873    112.149982    0.00000    0.00000   -1.29147    9    diag
   27      0.243D-11      0.451D-12       -92.91744873    112.149982    0.00000    0.00000   -1.29147    9    diag
   28      0.469D-11      0.457D-12       -92.91744873    112.149982    0.00000    0.00000   -1.29147    9    diag
   29      0.276D-11      0.491D-12       -92.91744873    112.149982    0.00000    0.00000   -1.29147    9    diag
   30      0.512D-11      0.381D-12       -92.91744873    112.149982    0.00000    0.00000   -1.29147    9    orth
   31      0.502D-11      0.462D-12       -92.91744873    112.149982    0.00000    0.00000   -1.29147    9    diag
   32      0.555D-11      0.506D-12       -92.91744873    112.149982    0.00000    0.00000   -1.29147    9    diag
   33      0.863D-11      0.361D-12       -92.91744873    112.149982    0.00000    0.00000   -1.29147    0    orth

 Final occupancy:   5   1   1   0

 !RHF STATE 1.1 Energy                -92.917448729179
 Nuclear energy                        24.19131504
 One-electron energy                 -173.18375453
 Two-electron energy                   56.07499076
 Virial quotient                       -1.00111236
 !RHF STATE 1.1 Dipole moment           0.00000000     0.00000000    -1.29147477
 Dipole moment /Debye                   0.00000000     0.00000000    -3.28238646

 Orbital energies:

         1.1          2.1          3.1          4.1          5.1          6.1          7.1
    -15.592444   -11.285333    -1.243496    -0.810943    -0.581450     0.017631     0.053253

         1.2          2.2          3.2
     -0.501610     0.052410     0.102205

         1.3          2.3          3.3
     -0.501610     0.052410     0.102205

         1.4          2.4
      0.202447     0.326721

 HOMO      1.2    -0.501610 =     -13.6495eV
 LUMO      6.1     0.017631 =       0.4798eV
 LUMO-HOMO         0.519241 =      14.1293eV


 **********************************************************************************************************************************
 DATASETS  * FILE   NREC   LENGTH (MB)   RECORD NAMES
              1      19     3080.61       500      610      700      900      950      970     1000      129      960     1100   
                                          VAR    BASINP    GEOM    SYMINP    ZMAT    AOBASIS   BASIS     P2S    ABASIS      S 
                                         1400     1410     1200     1210     1080     1600     1650     1300     1700   
                                           T        V       H0       H01     AOSYM     SMH    MOLCAS    ERIS     OPER   

              2       4        3.46       700     1000      520     2100   
                                         GEOM     BASIS   MCVARS     RHF  

 PROGRAMS   *        TOTAL        HF       INT
 CPU TIMES  *       136.90     42.20     94.56
 REAL TIME  *       155.41 SEC
 DISK USED  *        10.04 GB      
 **********************************************************************************************************************************


 PROGRAM * CCSD (Closed-shell coupled cluster)     Authors: C. Hampel, H.-J. Werner, 1991, M. Deegan, P.J. Knowles, 1992


 Convergence thresholds:  THRVAR = 1.00D-08  THRDEN = 1.00D-12

 CCSD(T)     terms to be evaluated (factor= 1.000)


 Number of core orbitals:           2 (   2   0   0   0 )
 Number of closed-shell orbitals:   5 (   3   1   1   0 )
 Number of external orbitals:     327 ( 118  80  80  49 )

 Molecular orbitals read from record     2100.2  Type=RHF/CANONICAL (state 1.1)

 Number of N-1 electron functions:               5
 Number of N-2 electron functions:              15
 Number of singly external CSFs:               514
 Number of doubly external CSFs:            345689
 Total number of CSFs:                      346204

 Length of J-op  integral file:               0.00 MB
 Length of K-op  integral file:               2.14 MB
 Length of 3-ext integral record:             0.00 MB

 Memory could be reduced to 68.09 Mwords without degradation in triples

 Integral transformation finished. Total CPU:   3.82 sec, npass=  1  Memory used:   7.20 MW

 Reference energy:                    -92.91744873

 MP2 singlet pair energy:              -0.24324798
 MP2 triplet pair energy:              -0.13165277
 MP2 correlation energy:               -0.37490076
 MP2 total energy:                    -93.29234948

 SCS-MP2 correlation energy:           -0.37381486   (PS=  1.200000  PT=  0.333333)
 SCS-MP2 total energy:                -93.29126359

 ITER.      SQ.NORM     CORR.ENERGY   TOTAL ENERGY   ENERGY CHANGE        DEN1      VAR(S)    VAR(P)  DIIS     TIME  TIME/IT
   1      1.11334572    -0.37205367   -93.28950240     0.00284708     0.01566993  0.24D-02  0.29D-02  1  1     7.43     4.10
   2      1.12217481    -0.37232292   -93.28977165    -0.00026925    -0.00995087  0.62D-04  0.38D-03  2  2    11.07     4.14
   3      1.12688893    -0.37254142   -93.28999015    -0.00021850    -0.00251299  0.13D-04  0.43D-04  3  3    14.77     4.16
   4      1.12886887    -0.37259420   -93.29004292    -0.00005277    -0.00073393  0.65D-06  0.48D-05  4  4    18.48     4.17
   5      1.12938785    -0.37260352   -93.29005225    -0.00000933    -0.00014767  0.75D-07  0.40D-06  5  5    22.10     4.17
   6      1.12948897    -0.37260212   -93.29005085     0.00000140    -0.00002520  0.81D-08  0.33D-07  6  6    25.58     4.16
   7      1.12949756    -0.37260300   -93.29005173    -0.00000088    -0.00000118  0.83D-09  0.27D-08  6  1    29.16     4.15
   8      1.12949996    -0.37260338   -93.29005210    -0.00000038    -0.00000100  0.12D-09  0.24D-09  6  2    32.82     4.15
   9      1.12950008    -0.37260344   -93.29005217    -0.00000006    -0.00000001  0.11D-10  0.17D-10  6  3    36.46     4.15
  10      1.12949998    -0.37260348   -93.29005221    -0.00000004     0.00000010  0.13D-11  0.15D-11  6  4    40.01     4.15
  11      1.12949992    -0.37260350   -93.29005223    -0.00000001     0.00000003  0.17D-12  0.16D-12  6  5    43.66     4.16
  12      1.12949987    -0.37260350   -93.29005223    -0.00000000     0.00000003  0.20D-13  0.27D-13  6  6    47.27     4.16
  13      1.12949984    -0.37260350   -93.29005223    -0.00000000     0.00000001  0.25D-14  0.52D-14  6  1    50.84     4.15
  14      1.12949983    -0.37260350   -93.29005223    -0.00000000     0.00000000  0.62D-16  0.80D-15  6  2    54.35     4.15
  15      1.12949982    -0.37260350   -93.29005223    -0.00000000     0.00000000  0.20D-16  0.10D-15  6  3    57.87     4.14
  16      1.12949982    -0.37260350   -93.29005223     0.00000000     0.00000000  0.25D-17  0.14D-16  6  4    61.43     4.14
  17      1.12949982    -0.37260350   -93.29005223     0.00000000     0.00000000  0.88D-18  0.23D-17  6  5    64.99     4.15
  18      1.12949982    -0.37260350   -93.29005223     0.00000000     0.00000000  0.33D-18  0.66D-18  6  6    68.71     4.15
  19      1.12949982    -0.37260350   -93.29005223     0.00000000     0.00000000  0.14D-18  0.32D-18  6  1    72.35     4.15
  20      1.12949982    -0.37260350   -93.29005223     0.00000000     0.00000000  0.67D-19  0.11D-18  6  2    76.01     4.15
  21      1.12949982    -0.37260350   -93.29005223     0.00000000     0.00000000  0.52D-19  0.64D-19  6  3    79.57     4.14

 Norm of t1 vector:      0.06260048      S-energy:    -0.00000000      T1 diagnostic:  0.01399789
                                                                       D1 diagnostic:  0.02812836


 Total CPU time for triples:     22.07 sec


 RESULTS
 =======

  Reference energy                    -92.917448729180
  CCSD singlet pair energy             -0.261606453722
  CCSD triplet pair energy             -0.110997050116
  CCSD correlation energy              -0.372603503841

  Triples (T) contribution             -0.019500871172
  Total correlation energy             -0.392104375013

  CCSD total energy                   -93.290052233021
  CCSD[T] energy                      -93.310342076327
  CCSD-T energy                       -93.309202712994
 !CCSD(T) total energy                -93.309553104193

 Timing summary (sec):

 STEP                 CPU(USER)    SYS     CPU(TOT)    WALL
 Transformation          3.84      0.70      4.54      4.80
 CCSD iterations        75.74     11.31     87.05     87.06
 Triples                22.07      0.61     22.68     22.68

 Program statistics:

 Available memory in ccsd:               994999800
 Min. memory needed in ccsd:               1363289
 Max. memory used in ccsd:                 1637718
 Max. memory used in cckext:               2695008 (21 integral passes)



 **********************************************************************************************************************************
 DATASETS  * FILE   NREC   LENGTH (MB)   RECORD NAMES
              1      20     3264.82       500      610      700      900      950      970     1000      129      960     1100   
                                          VAR    BASINP    GEOM    SYMINP    ZMAT    AOBASIS   BASIS     P2S    ABASIS      S 
                                         1400     1410     1200     1210     1080     1600     1650     1300     1700     1380   
                                           T        V       H0       H01     AOSYM     SMH    MOLCAS    ERIS     OPER     JKOP   

              2       4        3.46       700     1000      520     2100   
                                         GEOM     BASIS   MCVARS     RHF  

 PROGRAMS   *        TOTAL   CCSD(T)        HF       INT
 CPU TIMES  *       238.57    101.67     42.20     94.56
 REAL TIME  *       270.20 SEC
 DISK USED  *        10.04 GB      
 **********************************************************************************************************************************

 CCSD(T)/aug-cc-pV5Z energy=    -93.309553104193

        CCSD(T)         HF-SCF  
    -93.30955310    -92.91744873
 **********************************************************************************************************************************
 Molpro calculation terminated
 Variable memory released
