
 Primary working directories    : /tmp/r2666/232445.maple
 Secondary working directories  : /tmp/r2666/232445.maple
 Wavefunction directory         : /ddn/home4/r2666/wfu/
 Main file repository           : /tmp/r2666/232445.maple/

 SHA1      : d5ffa45e93fdbca01ffc919aa182cfdae0147319
 NAME      : 2015.1.35
 ARCHNAME  : linux/x86_64
 FC        : /opt/intel/composer_xe_2015.1.133/bin/intel64/ifort
 BLASLIB   : -Wl,-_start-group /opt/intel/mkl/lib/intel64/libmkl_intel_ilp64.a /opt/intel/mkl/lib/intel64/libmkl_intel_thread.a /opt/intel/mkl/lib/intel64/libmkl_core.a -Wl,-_end-group
 id        : olemiss

 Nodes     nprocs
 cn078        1

 Using customized tuning parameters: mindgm=1; mindgv=20; mindgc=4; mindgr=1; noblas=0; minvec=7
 default implementation of scratch files=df  

 ***,hcn CCSD(T)/TZ-F12 QFF
 memory, 995, m;
 gthresh,energy=1.d-12,zero=1.d-22,oneint=1.d-22,twoint=1.d-22;
 gthresh,optgrad=1.d-8,optstep=1.d-8;
 nocompress;
 geomtyp=xyz
 bohr
 geometry={
 3
         54        54
 N        0.0000000000        0.0000000000        1.1467481942
 C        0.0000000000        0.0000000000       -1.0604473626
 H        0.0000000000        0.0000000000       -3.0833708136
 }
 
 basis=av5z
   {hf,maxit=500;accu,20;}
 {ccsd(t),nocheck,maxit=250;orbital,IGNORE_ERROR;}

 Variables initialized (889), CPU time= 0.00 sec
 Commands  initialized (702), CPU time= 0.01 sec, 572 directives.
 Default parameters read. Elapsed time= 0.04 sec

 Checking input...
 Passed
1


                                         ***  PROGRAM SYSTEM MOLPRO  ***
                                       Copyright, TTI GmbH Stuttgart, 2015
                                    Version 2015.1 linked Jul  9 2018 13:16:40


 **********************************************************************************************************************************
 LABEL *   hcn CCSD(T)/TZ-F12 QFF                                                        
  64 bit serial version                                                                  DATE: 06-Feb-20          TIME: 09:49:40  
 **********************************************************************************************************************************

 SHA1:             d5ffa45e93fdbca01ffc919aa182cfdae0147319
 **********************************************************************************************************************************

 THRESHOLDS:

 ZERO    =  1.00D-22  ONEINT  =  1.00D-22  TWOINT  =  1.00D-22  PREFAC  =  1.00D-14  LOCALI  =  1.00D-09  EORDER  =  1.00D-04
 ENERGY  =  1.00D-12  ETEST   =  0.00D+00  EDENS   =  0.00D+00  THRDEDEF=  1.00D-06  GRADIENT=  1.00D-02  STEP    =  1.00D-03
 ORBITAL =  1.00D-05  CIVEC   =  1.00D-05  COEFF   =  1.00D-04  PRINTCI =  5.00D-02  PUNCHCI =  9.90D+01  OPTGRAD =  3.00D-04
 OPTENERG=  1.00D-06  OPTSTEP =  3.00D-04  THRGRAD =  1.00D-10  COMPRESS=  1.00D-11  VARMIN  =  1.00D-07  VARMAX  =  1.00D-03
 THRDOUB =  0.00D+00  THRDIV  =  1.00D-05  THRRED  =  1.00D-07  THRPSP  =  1.00D+00  THRDC   =  1.00D-10  THRCS   =  1.00D-10
 THRNRM  =  1.00D-08  THREQ   =  0.00D+00  THRDE   =  1.00D+00  THRREF  =  1.00D-05  SPARFAC =  1.00D+00  THRDLP  =  1.00D-07
 THRDIA  =  1.00D-10  THRDLS  =  1.00D-07  THRGPS  =  0.00D+00  THRKEX  =  0.00D+00  THRDIS  =  2.00D-01  THRVAR  =  1.00D-10
 THRLOC  =  1.00D-06  THRGAP  =  1.00D-06  THRLOCT = -1.00D+00  THRGAPT = -1.00D+00  THRORB  =  1.00D-06  THRMLTP =  0.00D+00
 THRCPQCI=  1.00D-10  KEXTA   =  0.00D+00  THRCOARS=  0.00D+00  SYMTOL  =  1.00D-06  GRADTOL =  1.00D-06  THROVL  =  1.00D-08
 THRORTH =  1.00D-08  GRID    =  1.00D-06  GRIDMAX =  1.00D-03  DTMAX   =  0.00D+00  THROCCDE=  1.00D-01  THROCCDE=  1.00D-01



 THRESHOLDS:

 ZERO    =  1.00D-22  ONEINT  =  1.00D-22  TWOINT  =  1.00D-22  PREFAC  =  1.00D-14  LOCALI  =  1.00D-09  EORDER  =  1.00D-04
 ENERGY  =  1.00D-12  ETEST   =  0.00D+00  EDENS   =  0.00D+00  THRDEDEF=  1.00D-06  GRADIENT=  1.00D-02  STEP    =  1.00D-03
 ORBITAL =  1.00D-05  CIVEC   =  1.00D-05  COEFF   =  1.00D-04  PRINTCI =  5.00D-02  PUNCHCI =  9.90D+01  OPTGRAD =  1.00D-08
 OPTENERG=  1.00D-06  OPTSTEP =  1.00D-08  THRGRAD =  1.00D-10  COMPRESS=  1.00D-11  VARMIN  =  1.00D-07  VARMAX  =  1.00D-03
 THRDOUB =  0.00D+00  THRDIV  =  1.00D-05  THRRED  =  1.00D-07  THRPSP  =  1.00D+00  THRDC   =  1.00D-10  THRCS   =  1.00D-10
 THRNRM  =  1.00D-08  THREQ   =  0.00D+00  THRDE   =  1.00D+00  THRREF  =  1.00D-05  SPARFAC =  1.00D+00  THRDLP  =  1.00D-07
 THRDIA  =  1.00D-10  THRDLS  =  1.00D-07  THRGPS  =  0.00D+00  THRKEX  =  0.00D+00  THRDIS  =  2.00D-01  THRVAR  =  1.00D-10
 THRLOC  =  1.00D-06  THRGAP  =  1.00D-06  THRLOCT = -1.00D+00  THRGAPT = -1.00D+00  THRORB  =  1.00D-06  THRMLTP =  0.00D+00
 THRCPQCI=  1.00D-10  KEXTA   =  0.00D+00  THRCOARS=  0.00D+00  SYMTOL  =  1.00D-06  GRADTOL =  1.00D-06  THROVL  =  1.00D-08
 THRORTH =  1.00D-08  GRID    =  1.00D-06  GRIDMAX =  1.00D-03  DTMAX   =  0.00D+00  THROCCDE=  1.00D-01  THROCCDE=  1.00D-01



 Input parameters for SORTINT:

 COMPRESS =    0.000000
 C_FINAL  =    1.000000
 DEBUG    =   -1.000000
 C_SORT1  =    0.000000
 C_SEWARD =    0.000000
 THRESH   =    0.000000
 IO       =  molpro                                                          
 SPRI     =    0.000000
 SETTING GEOMTYP        =    XYZ
 ZUNIT=BOHR
 

 Variable memory set to  995000000 words,  buffer space   230000 words

 SETTING BASIS          =    AV5Z


 Recomputing integrals since basis changed


 Using spherical harmonics

 Library entry N      S aug-cc-pV5Z          selected for orbital group  1
 Library entry N      P aug-cc-pV5Z          selected for orbital group  1
 Library entry N      D aug-cc-pV5Z          selected for orbital group  1
 Library entry N      F aug-cc-pV5Z          selected for orbital group  1
 Library entry N      G aug-cc-pV5Z          selected for orbital group  1
 Library entry N      H aug-cc-pV5Z          selected for orbital group  1
 Library entry C      S aug-cc-pV5Z          selected for orbital group  2
 Library entry C      P aug-cc-pV5Z          selected for orbital group  2
 Library entry C      D aug-cc-pV5Z          selected for orbital group  2
 Library entry C      F aug-cc-pV5Z          selected for orbital group  2
 Library entry C      G aug-cc-pV5Z          selected for orbital group  2
 Library entry C      H aug-cc-pV5Z          selected for orbital group  2
 Library entry H      S aug-cc-pV5Z          selected for orbital group  3
 Library entry H      P aug-cc-pV5Z          selected for orbital group  3
 Library entry H      D aug-cc-pV5Z          selected for orbital group  3
 Library entry H      F aug-cc-pV5Z          selected for orbital group  3
 Library entry H      G aug-cc-pV5Z          selected for orbital group  3


 PROGRAM * SEWARD (Integral evaluation for generally contracted gaussian basis sets)     Author: Roland Lindh, 1990

 Geometry written to block  1 of record 700


 Point group  C2v 



 ATOMIC COORDINATES

 NR  ATOM    CHARGE       X              Y              Z

   1  N       7.00    0.000000000    0.000000000    1.146748194
   2  C       6.00    0.000000000    0.000000000   -1.060447363
   3  H       1.00    0.000000000    0.000000000   -3.083370814

 Bond lengths in Bohr (Angstrom)

 1-2  2.207195557  2-3  2.022923451
     ( 1.167997589)     ( 1.070484990)

 Bond angles

  1-2-3  179.99999829

 NUCLEAR CHARGE:                   14
 NUMBER OF PRIMITIVE AOS:         506
 NUMBER OF SYMMETRY AOS:          371
 NUMBER OF CONTRACTIONS:          334   ( 123A1  +  81B1  +  81B2  +  49A2  )
 NUMBER OF CORE ORBITALS:           2   (   2A1  +   0B1  +   0B2  +   0A2  )
 NUMBER OF VALENCE ORBITALS:        9   (   5A1  +   2B1  +   2B2  +   0A2  )


 NUCLEAR REPULSION ENERGY   23.64947612

 EXTRA SYMMETRY OF AOS IN SYMMETRY 1:   1 1 1 1 1 1 1 1 1 1   1 1 1 1 2 1 2 1 2 1   2 1 2 1 2 1 2 1 2 1   2 1 3 2 1 3 2 1 3 2
                                        2 3 1 2 3 1 1 1 1 1   1 1 1 1 1 1 1 1 1 1   2 1 2 1 2 1 2 1 2 1   2 1 2 1 2 1 2 1 3 2
                                        1 3 2 1 3 2 2 3 1 2   3 1 1 1 1 1 1 1 1 1   1 1 1 1 2 1 2 1 2 1   2 1 2 1 2 1 2 1 3 2
                                        1 3 2
 EXTRA SYMMETRY OF AOS IN SYMMETRY 2:   1 1 1 1 1 1 1 1 1 1   1 1 2 1 2 1 2 1 2 1   2 1 2 1 2 1 2 3 1 2   3 1 1 1 1 1 1 1 1 1
                                        1 1 1 2 1 2 1 2 1 2   1 2 1 2 1 2 1 2 3 1   2 3 1 1 1 1 1 1 1 1   1 1 2 1 2 1 2 1 2 1
                                        2
 EXTRA SYMMETRY OF AOS IN SYMMETRY 3:   1 1 1 1 1 1 1 1 1 1   1 1 2 1 2 1 2 1 2 1   2 1 2 1 2 1 2 3 1 2   3 1 1 1 1 1 1 1 1 1
                                        1 1 1 2 1 2 1 2 1 2   1 2 1 2 1 2 1 2 3 1   2 3 1 1 1 1 1 1 1 1   1 1 2 1 2 1 2 1 2 1
                                        2
 EXTRA SYMMETRY OF AOS IN SYMMETRY 4:   1 1 1 1 1 1 1 1 1 1   2 1 2 1 2 2 1 2 1 1   1 1 1 1 1 1 1 1 1 2   1 2 1 2 2 1 2 1 1 1
                                        1 1 1 1 1 1 2 1 2

 Eigenvalues of metric

         1 0.267E-05 0.572E-05 0.151E-04 0.362E-04 0.600E-04 0.710E-04 0.183E-03 0.227E-03
         2 0.596E-04 0.191E-03 0.384E-03 0.723E-03 0.951E-03 0.156E-02 0.191E-02 0.377E-02
         3 0.596E-04 0.191E-03 0.384E-03 0.723E-03 0.951E-03 0.156E-02 0.191E-02 0.377E-02
         4 0.805E-03 0.224E-02 0.507E-02 0.718E-02 0.179E-01 0.242E-01 0.264E-01 0.650E-01


 Contracted 2-electron integrals neglected if value below      1.0D-22

      355072895. INTEGRALS WRITTEN OUT IN   86709 BLOCKS ON RECORD 1290 OF FILE 1


 NUMBER OF SORTED TWO-ELECTRON INTEGRALS:  396972178.     BUFFER LENGTH:  32768
 NUMBER OF SEGMENTS:  13  SEGMENT LENGTH:   31999071      RECORD LENGTH: 524288

 Memory used in sort:      32.56 MW

 SORT1 READ   355072895. AND WROTE   358245207. INTEGRALS IN   1031 RECORDS. CPU TIME:     9.50 SEC, REAL TIME:    12.05 SEC
 SORT2 READ   358245207. AND WROTE   396972178. INTEGRALS IN     13 RECORDS. CPU TIME:     4.84 SEC, REAL TIME:     6.46 SEC

 FILE SIZES:   FILE 1:  5704.9 MBYTE,  FILE 4:  4324.4 MBYTE,   TOTAL:  10029.3 MBYTE

 OPERATOR DM      FOR CENTER  0  COORDINATES:    0.000000    0.000000    0.000000


 **********************************************************************************************************************************
 DATASETS  * FILE   NREC   LENGTH (MB)   RECORD NAMES
              1      19     3078.61       500      610      700      900      950      970     1000      129      960     1100   
                                          VAR    BASINP    GEOM    SYMINP    ZMAT    AOBASIS   BASIS     P2S    ABASIS      S 
                                         1400     1410     1200     1210     1080     1600     1650     1300     1700   
                                           T        V       H0       H01     AOSYM     SMH    MOLCAS    ERIS     OPER   

 PROGRAMS   *        TOTAL       INT
 CPU TIMES  *        83.75     83.67
 REAL TIME  *        91.35 SEC
 DISK USED  *        10.03 GB      
 **********************************************************************************************************************************


 PROGRAM * RHF-SCF (CLOSED SHELL)       Authors: W. Meyer, H.-J. Werner


 NUMBER OF ELECTRONS:       7+    7-
 CONVERGENCE THRESHOLDS:    1.00E-10 (Density)    1.00E-13 (Energy)
 MAX. NUMBER OF ITERATIONS:      500
 INTERPOLATION TYPE:            DIIS
 INTERPOLATION STEPS:              2 (START)      1 (STEP)
 LEVEL SHIFTS:                  0.00 (CLOSED)  0.00 (OPEN) 



 Orbital guess generated from atomic densities. Full valence occupancy:    7   2   2   0

 Molecular orbital dump at record        2100.2

 Initial occupancy:   5   1   1   0

 ITERATION    DDIFF          GRAD             ENERGY        2-EL.EN.            DIPOLE MOMENTS         DIIS   ORB.
    1      0.000D+00      0.000D+00       -92.88813857    111.379573    0.00000    0.00000   -1.80165    0    start
    2      0.000D+00      0.563D-02       -92.89649548    110.583044    0.00000    0.00000   -0.88490    1    diag
    3      0.438D-02      0.513D-02       -92.91264843    111.119853    0.00000    0.00000   -1.31526    2    diag
    4      0.227D-02      0.428D-03       -92.91288720    111.072447    0.00000    0.00000   -1.30316    3    diag
    5      0.426D-03      0.965D-04       -92.91290160    111.086258    0.00000    0.00000   -1.30175    4    diag
    6      0.105D-03      0.267D-04       -92.91290265    111.080364    0.00000    0.00000   -1.30163    5    diag
    7      0.244D-04      0.964D-05       -92.91290275    111.081483    0.00000    0.00000   -1.30171    6    diag
    8      0.777D-05      0.205D-05       -92.91290276    111.081441    0.00000    0.00000   -1.30168    7    diag
    9      0.165D-05      0.236D-06       -92.91290276    111.081451    0.00000    0.00000   -1.30167    8    diag
   10      0.250D-06      0.287D-07       -92.91290276    111.081452    0.00000    0.00000   -1.30167    9    orth
   11      0.280D-07      0.401D-08       -92.91290276    111.081452    0.00000    0.00000   -1.30167    9    diag
   12      0.528D-08      0.386D-09       -92.91290276    111.081452    0.00000    0.00000   -1.30167    9    diag
   13      0.115D-08      0.332D-10       -92.91290276    111.081452    0.00000    0.00000   -1.30167    9    diag
   14      0.104D-09      0.822D-11       -92.91290276    111.081452    0.00000    0.00000   -1.30167    9    diag
   15      0.124D-09      0.155D-11       -92.91290276    111.081452    0.00000    0.00000   -1.30167    9    diag
   16      0.380D-10      0.641D-12       -92.91290276    111.081452    0.00000    0.00000   -1.30167    9    diag
   17      0.265D-10      0.620D-12       -92.91290276    111.081452    0.00000    0.00000   -1.30167    9    diag
   18      0.236D-10      0.438D-12       -92.91290276    111.081452    0.00000    0.00000   -1.30167    0    orth

 Final occupancy:   5   1   1   0

 !RHF STATE 1.1 Energy                -92.912902756338
 Nuclear energy                        23.64947612
 One-electron energy                 -172.10310490
 Two-electron energy                   55.54072602
 Virial quotient                       -1.00294923
 !RHF STATE 1.1 Dipole moment           0.00000000     0.00000000    -1.30167208
 Dipole moment /Debye                   0.00000000     0.00000000    -3.30830372

 Orbital energies:

         1.1          2.1          3.1          4.1          5.1          6.1          7.1
    -15.603223   -11.296770    -1.229399    -0.813530    -0.582891     0.017498     0.053181

         1.2          2.2          3.2
     -0.492507     0.052480     0.101194

         1.3          2.3          3.3
     -0.492507     0.052480     0.101194

         1.4          2.4
      0.202978     0.327410

 HOMO      1.2    -0.492507 =     -13.4018eV
 LUMO      6.1     0.017498 =       0.4761eV
 LUMO-HOMO         0.510004 =      13.8779eV


 **********************************************************************************************************************************
 DATASETS  * FILE   NREC   LENGTH (MB)   RECORD NAMES
              1      19     3078.61       500      610      700      900      950      970     1000      129      960     1100   
                                          VAR    BASINP    GEOM    SYMINP    ZMAT    AOBASIS   BASIS     P2S    ABASIS      S 
                                         1400     1410     1200     1210     1080     1600     1650     1300     1700   
                                           T        V       H0       H01     AOSYM     SMH    MOLCAS    ERIS     OPER   

              2       4        3.46       700     1000      520     2100   
                                         GEOM     BASIS   MCVARS     RHF  

 PROGRAMS   *        TOTAL        HF       INT
 CPU TIMES  *       104.77     21.02     83.67
 REAL TIME  *       117.30 SEC
 DISK USED  *        10.03 GB      
 **********************************************************************************************************************************


 PROGRAM * CCSD (Closed-shell coupled cluster)     Authors: C. Hampel, H.-J. Werner, 1991, M. Deegan, P.J. Knowles, 1992


 Convergence thresholds:  THRVAR = 1.00D-08  THRDEN = 1.00D-12

 CCSD(T)     terms to be evaluated (factor= 1.000)


 Number of core orbitals:           2 (   2   0   0   0 )
 Number of closed-shell orbitals:   5 (   3   1   1   0 )
 Number of external orbitals:     327 ( 118  80  80  49 )

 Molecular orbitals read from record     2100.2  Type=RHF/CANONICAL (state 1.1)

 Number of N-1 electron functions:               5
 Number of N-2 electron functions:              15
 Number of singly external CSFs:               514
 Number of doubly external CSFs:            345689
 Total number of CSFs:                      346204

 Length of J-op  integral file:               0.00 MB
 Length of K-op  integral file:               2.14 MB
 Length of 3-ext integral record:             0.00 MB

 Memory could be reduced to 68.09 Mwords without degradation in triples

 Integral transformation finished. Total CPU:   3.10 sec, npass=  1  Memory used:   7.20 MW

 Reference energy:                    -92.91290276

 MP2 singlet pair energy:              -0.24643177
 MP2 triplet pair energy:              -0.13423694
 MP2 correlation energy:               -0.38066871
 MP2 total energy:                    -93.29357147

 SCS-MP2 correlation energy:           -0.37924333   (PS=  1.200000  PT=  0.333333)
 SCS-MP2 total energy:                -93.29214609

 ITER.      SQ.NORM     CORR.ENERGY   TOTAL ENERGY   ENERGY CHANGE        DEN1      VAR(S)    VAR(P)  DIIS     TIME  TIME/IT
   1      1.11710454    -0.37618835   -93.28909111     0.00448036     0.01859866  0.28D-02  0.34D-02  1  1     6.01     3.37
   2      1.12671318    -0.37620288   -93.28910564    -0.00001453    -0.01072377  0.73D-04  0.43D-03  2  2     9.00     3.40
   3      1.13196242    -0.37645171   -93.28935447    -0.00024883    -0.00270149  0.15D-04  0.52D-04  3  3    11.91     3.41
   4      1.13427552    -0.37651873   -93.28942148    -0.00006702    -0.00082386  0.71D-06  0.61D-05  4  4    14.93     3.42
   5      1.13491203    -0.37653063   -93.28943338    -0.00001190    -0.00017664  0.79D-07  0.55D-06  5  5    17.89     3.42
   6      1.13504473    -0.37652873   -93.28943148     0.00000190    -0.00003263  0.12D-07  0.46D-07  6  6    20.93     3.43
   7      1.13505551    -0.37653010   -93.28943285    -0.00000137    -0.00000114  0.96D-09  0.40D-08  6  1    23.92     3.43
   8      1.13505883    -0.37653059   -93.28943334    -0.00000049    -0.00000142  0.14D-09  0.36D-09  6  2    26.92     3.43
   9      1.13505888    -0.37653067   -93.28943343    -0.00000009     0.00000004  0.15D-10  0.24D-10  6  3    29.77     3.43
  10      1.13505873    -0.37653073   -93.28943349    -0.00000006     0.00000011  0.15D-11  0.22D-11  6  4    32.74     3.43
  11      1.13505865    -0.37653075   -93.28943350    -0.00000002     0.00000003  0.28D-12  0.19D-12  6  5    35.72     3.43
  12      1.13505858    -0.37653075   -93.28943351    -0.00000001     0.00000003  0.43D-13  0.30D-13  6  6    38.70     3.43
  13      1.13505854    -0.37653076   -93.28943351    -0.00000000     0.00000001  0.47D-14  0.68D-14  6  1    41.65     3.43
  14      1.13505852    -0.37653076   -93.28943351    -0.00000000     0.00000001  0.65D-15  0.94D-15  6  2    44.57     3.43
  15      1.13505851    -0.37653076   -93.28943351    -0.00000000     0.00000000  0.39D-16  0.15D-15  6  3    47.48     3.43
  16      1.13505851    -0.37653076   -93.28943351     0.00000000     0.00000000  0.64D-17  0.19D-16  6  4    50.50     3.43
  17      1.13505851    -0.37653076   -93.28943351     0.00000000     0.00000000  0.12D-17  0.26D-17  6  5    53.57     3.44
  18      1.13505851    -0.37653076   -93.28943351     0.00000000     0.00000000  0.21D-18  0.53D-18  6  1    56.54     3.45
  19      1.13505851    -0.37653076   -93.28943351     0.00000000     0.00000000  0.75D-19  0.22D-18  6  6    59.55     3.45
  20      1.13505851    -0.37653076   -93.28943351     0.00000000     0.00000000  0.38D-19  0.11D-18  6  2    62.50     3.45
  21      1.13505851    -0.37653076   -93.28943351     0.00000000     0.00000000  0.21D-19  0.62D-19  6  5    65.50     3.45

 Norm of t1 vector:      0.06674716      S-energy:    -0.00000000      T1 diagnostic:  0.01492512
                                                                       D1 diagnostic:  0.03017239


 Total CPU time for triples:     19.90 sec


 RESULTS
 =======

  Reference energy                    -92.912902756338
  CCSD singlet pair energy             -0.264880270280
  CCSD triplet pair energy             -0.111650486680
  CCSD correlation energy              -0.376530756964

  Triples (T) contribution             -0.020497504640
  Total correlation energy             -0.397028261604

  CCSD total energy                   -93.289433513302
  CCSD[T] energy                      -93.310838138455
  CCSD-T energy                       -93.309533408740
 !CCSD(T) total energy                -93.309931017942

 Timing summary (sec):

 STEP                 CPU(USER)    SYS     CPU(TOT)    WALL
 Transformation          3.10      0.67      3.77      4.12
 CCSD iterations        62.40     10.10     72.50     72.51
 Triples                19.90      0.67     20.57     20.58

 Program statistics:

 Available memory in ccsd:               994999800
 Min. memory needed in ccsd:               1363289
 Max. memory used in ccsd:                 1637718
 Max. memory used in cckext:               2695008 (21 integral passes)



 **********************************************************************************************************************************
 DATASETS  * FILE   NREC   LENGTH (MB)   RECORD NAMES
              1      20     3262.82       500      610      700      900      950      970     1000      129      960     1100   
                                          VAR    BASINP    GEOM    SYMINP    ZMAT    AOBASIS   BASIS     P2S    ABASIS      S 
                                         1400     1410     1200     1210     1080     1600     1650     1300     1700     1380   
                                           T        V       H0       H01     AOSYM     SMH    MOLCAS    ERIS     OPER     JKOP   

              2       4        3.46       700     1000      520     2100   
                                         GEOM     BASIS   MCVARS     RHF  

 PROGRAMS   *        TOTAL   CCSD(T)        HF       INT
 CPU TIMES  *       190.20     85.43     21.02     83.67
 REAL TIME  *       214.60 SEC
 DISK USED  *        10.03 GB      
 **********************************************************************************************************************************

 CCSD(T)/aug-cc-pV5Z energy=    -93.309931017942

        CCSD(T)         HF-SCF  
    -93.30993102    -92.91290276
 **********************************************************************************************************************************
 Molpro calculation terminated
 Variable memory released
