
 Primary working directories    : /tmp/r2666/232395.maple
 Secondary working directories  : /tmp/r2666/232395.maple
 Wavefunction directory         : /ddn/home4/r2666/wfu/
 Main file repository           : /tmp/r2666/232395.maple/

 SHA1      : d5ffa45e93fdbca01ffc919aa182cfdae0147319
 NAME      : 2015.1.35
 ARCHNAME  : linux/x86_64
 FC        : /opt/intel/composer_xe_2015.1.133/bin/intel64/ifort
 BLASLIB   : -Wl,-_start-group /opt/intel/mkl/lib/intel64/libmkl_intel_ilp64.a /opt/intel/mkl/lib/intel64/libmkl_intel_thread.a /opt/intel/mkl/lib/intel64/libmkl_core.a -Wl,-_end-group
 id        : olemiss

 Nodes     nprocs
 cn046        1

 Using customized tuning parameters: mindgm=1; mindgv=20; mindgc=4; mindgr=1; noblas=0; minvec=7
 default implementation of scratch files=df  

 ***,hcn CCSD(T)/TZ-F12 QFF
 memory, 995, m;
 gthresh,energy=1.d-12,zero=1.d-22,oneint=1.d-22,twoint=1.d-22;
 gthresh,optgrad=1.d-8,optstep=1.d-8;
 nocompress;
 geomtyp=xyz
 bohr
 geometry={
 3
          4         4
 N        0.0000000000        0.0000000000        1.1089536744
 C        0.0000000000        0.0000000000       -1.0415501027
 H        0.0000000000        0.0000000000       -3.0644735537
 }
 
 basis=av5z
   {hf,maxit=500;accu,20;}
 {ccsd(t),nocheck,maxit=250;orbital,IGNORE_ERROR;}

 Variables initialized (889), CPU time= 0.00 sec
 Commands  initialized (702), CPU time= 0.01 sec, 572 directives.
 Default parameters read. Elapsed time= 0.05 sec

 Checking input...
 Passed
1


                                         ***  PROGRAM SYSTEM MOLPRO  ***
                                       Copyright, TTI GmbH Stuttgart, 2015
                                    Version 2015.1 linked Jul  9 2018 13:16:40


 **********************************************************************************************************************************
 LABEL *   hcn CCSD(T)/TZ-F12 QFF                                                        
  64 bit serial version                                                                  DATE: 06-Feb-20          TIME: 09:49:38  
 **********************************************************************************************************************************

 SHA1:             d5ffa45e93fdbca01ffc919aa182cfdae0147319
 **********************************************************************************************************************************

 THRESHOLDS:

 ZERO    =  1.00D-22  ONEINT  =  1.00D-22  TWOINT  =  1.00D-22  PREFAC  =  1.00D-14  LOCALI  =  1.00D-09  EORDER  =  1.00D-04
 ENERGY  =  1.00D-12  ETEST   =  0.00D+00  EDENS   =  0.00D+00  THRDEDEF=  1.00D-06  GRADIENT=  1.00D-02  STEP    =  1.00D-03
 ORBITAL =  1.00D-05  CIVEC   =  1.00D-05  COEFF   =  1.00D-04  PRINTCI =  5.00D-02  PUNCHCI =  9.90D+01  OPTGRAD =  3.00D-04
 OPTENERG=  1.00D-06  OPTSTEP =  3.00D-04  THRGRAD =  1.00D-10  COMPRESS=  1.00D-11  VARMIN  =  1.00D-07  VARMAX  =  1.00D-03
 THRDOUB =  0.00D+00  THRDIV  =  1.00D-05  THRRED  =  1.00D-07  THRPSP  =  1.00D+00  THRDC   =  1.00D-10  THRCS   =  1.00D-10
 THRNRM  =  1.00D-08  THREQ   =  0.00D+00  THRDE   =  1.00D+00  THRREF  =  1.00D-05  SPARFAC =  1.00D+00  THRDLP  =  1.00D-07
 THRDIA  =  1.00D-10  THRDLS  =  1.00D-07  THRGPS  =  0.00D+00  THRKEX  =  0.00D+00  THRDIS  =  2.00D-01  THRVAR  =  1.00D-10
 THRLOC  =  1.00D-06  THRGAP  =  1.00D-06  THRLOCT = -1.00D+00  THRGAPT = -1.00D+00  THRORB  =  1.00D-06  THRMLTP =  0.00D+00
 THRCPQCI=  1.00D-10  KEXTA   =  0.00D+00  THRCOARS=  0.00D+00  SYMTOL  =  1.00D-06  GRADTOL =  1.00D-06  THROVL  =  1.00D-08
 THRORTH =  1.00D-08  GRID    =  1.00D-06  GRIDMAX =  1.00D-03  DTMAX   =  0.00D+00  THROCCDE=  1.00D-01  THROCCDE=  1.00D-01



 THRESHOLDS:

 ZERO    =  1.00D-22  ONEINT  =  1.00D-22  TWOINT  =  1.00D-22  PREFAC  =  1.00D-14  LOCALI  =  1.00D-09  EORDER  =  1.00D-04
 ENERGY  =  1.00D-12  ETEST   =  0.00D+00  EDENS   =  0.00D+00  THRDEDEF=  1.00D-06  GRADIENT=  1.00D-02  STEP    =  1.00D-03
 ORBITAL =  1.00D-05  CIVEC   =  1.00D-05  COEFF   =  1.00D-04  PRINTCI =  5.00D-02  PUNCHCI =  9.90D+01  OPTGRAD =  1.00D-08
 OPTENERG=  1.00D-06  OPTSTEP =  1.00D-08  THRGRAD =  1.00D-10  COMPRESS=  1.00D-11  VARMIN  =  1.00D-07  VARMAX  =  1.00D-03
 THRDOUB =  0.00D+00  THRDIV  =  1.00D-05  THRRED  =  1.00D-07  THRPSP  =  1.00D+00  THRDC   =  1.00D-10  THRCS   =  1.00D-10
 THRNRM  =  1.00D-08  THREQ   =  0.00D+00  THRDE   =  1.00D+00  THRREF  =  1.00D-05  SPARFAC =  1.00D+00  THRDLP  =  1.00D-07
 THRDIA  =  1.00D-10  THRDLS  =  1.00D-07  THRGPS  =  0.00D+00  THRKEX  =  0.00D+00  THRDIS  =  2.00D-01  THRVAR  =  1.00D-10
 THRLOC  =  1.00D-06  THRGAP  =  1.00D-06  THRLOCT = -1.00D+00  THRGAPT = -1.00D+00  THRORB  =  1.00D-06  THRMLTP =  0.00D+00
 THRCPQCI=  1.00D-10  KEXTA   =  0.00D+00  THRCOARS=  0.00D+00  SYMTOL  =  1.00D-06  GRADTOL =  1.00D-06  THROVL  =  1.00D-08
 THRORTH =  1.00D-08  GRID    =  1.00D-06  GRIDMAX =  1.00D-03  DTMAX   =  0.00D+00  THROCCDE=  1.00D-01  THROCCDE=  1.00D-01



 Input parameters for SORTINT:

 COMPRESS =    0.000000
 C_FINAL  =    1.000000
 DEBUG    =   -1.000000
 C_SORT1  =    0.000000
 C_SEWARD =    0.000000
 THRESH   =    0.000000
 IO       =  molpro                                                          
 SPRI     =    0.000000
 SETTING GEOMTYP        =    XYZ
 ZUNIT=BOHR
 

 Variable memory set to  995000000 words,  buffer space   230000 words

 SETTING BASIS          =    AV5Z


 Recomputing integrals since basis changed


 Using spherical harmonics

 Library entry N      S aug-cc-pV5Z          selected for orbital group  1
 Library entry N      P aug-cc-pV5Z          selected for orbital group  1
 Library entry N      D aug-cc-pV5Z          selected for orbital group  1
 Library entry N      F aug-cc-pV5Z          selected for orbital group  1
 Library entry N      G aug-cc-pV5Z          selected for orbital group  1
 Library entry N      H aug-cc-pV5Z          selected for orbital group  1
 Library entry C      S aug-cc-pV5Z          selected for orbital group  2
 Library entry C      P aug-cc-pV5Z          selected for orbital group  2
 Library entry C      D aug-cc-pV5Z          selected for orbital group  2
 Library entry C      F aug-cc-pV5Z          selected for orbital group  2
 Library entry C      G aug-cc-pV5Z          selected for orbital group  2
 Library entry C      H aug-cc-pV5Z          selected for orbital group  2
 Library entry H      S aug-cc-pV5Z          selected for orbital group  3
 Library entry H      P aug-cc-pV5Z          selected for orbital group  3
 Library entry H      D aug-cc-pV5Z          selected for orbital group  3
 Library entry H      F aug-cc-pV5Z          selected for orbital group  3
 Library entry H      G aug-cc-pV5Z          selected for orbital group  3


 PROGRAM * SEWARD (Integral evaluation for generally contracted gaussian basis sets)     Author: Roland Lindh, 1990

 Geometry written to block  1 of record 700


 Point group  C2v 



 ATOMIC COORDINATES

 NR  ATOM    CHARGE       X              Y              Z

   1  N       7.00    0.000000000    0.000000000    1.108953674
   2  C       6.00    0.000000000    0.000000000   -1.041550103
   3  H       1.00    0.000000000    0.000000000   -3.064473554

 Bond lengths in Bohr (Angstrom)

 1-2  2.150503777  2-3  2.022923451
     ( 1.137997591)     ( 1.070484990)

 Bond angles

  1-2-3  179.99999879

 NUCLEAR CHARGE:                   14
 NUMBER OF PRIMITIVE AOS:         506
 NUMBER OF SYMMETRY AOS:          371
 NUMBER OF CONTRACTIONS:          334   ( 123A1  +  81B1  +  81B2  +  49A2  )
 NUMBER OF CORE ORBITALS:           2   (   2A1  +   0B1  +   0B2  +   0A2  )
 NUMBER OF VALENCE ORBITALS:        9   (   5A1  +   2B1  +   2B2  +   0A2  )


 NUCLEAR REPULSION ENERGY   24.17359051

 EXTRA SYMMETRY OF AOS IN SYMMETRY 1:   1 1 1 1 1 1 1 1 1 1   1 1 1 1 2 1 2 1 2 1   2 1 2 1 2 1 2 1 2 1   2 1 3 2 1 3 2 1 3 2
                                        2 3 1 2 3 1 1 1 1 1   1 1 1 1 1 1 1 1 1 1   2 1 2 1 2 1 2 1 2 1   2 1 2 1 2 1 2 1 3 2
                                        1 3 2 1 3 2 2 3 1 2   3 1 1 1 1 1 1 1 1 1   1 1 1 1 2 1 2 1 2 1   2 1 2 1 2 1 2 1 3 2
                                        1 3 2
 EXTRA SYMMETRY OF AOS IN SYMMETRY 2:   1 1 1 1 1 1 1 1 1 1   1 1 2 1 2 1 2 1 2 1   2 1 2 1 2 1 2 3 1 2   3 1 1 1 1 1 1 1 1 1
                                        1 1 1 2 1 2 1 2 1 2   1 2 1 2 1 2 1 2 3 1   2 3 1 1 1 1 1 1 1 1   1 1 2 1 2 1 2 1 2 1
                                        2
 EXTRA SYMMETRY OF AOS IN SYMMETRY 3:   1 1 1 1 1 1 1 1 1 1   1 1 2 1 2 1 2 1 2 1   2 1 2 1 2 1 2 3 1 2   3 1 1 1 1 1 1 1 1 1
                                        1 1 1 2 1 2 1 2 1 2   1 2 1 2 1 2 1 2 3 1   2 3 1 1 1 1 1 1 1 1   1 1 2 1 2 1 2 1 2 1
                                        2
 EXTRA SYMMETRY OF AOS IN SYMMETRY 4:   1 1 1 1 1 1 1 1 1 1   2 1 2 1 2 2 1 2 1 1   1 1 1 1 1 1 1 1 1 2   1 2 1 2 2 1 2 1 1 1
                                        1 1 1 1 1 1 2 1 2

 Eigenvalues of metric

         1 0.235E-05 0.543E-05 0.144E-04 0.351E-04 0.564E-04 0.684E-04 0.166E-03 0.217E-03
         2 0.537E-04 0.182E-03 0.363E-03 0.688E-03 0.914E-03 0.153E-02 0.183E-02 0.362E-02
         3 0.537E-04 0.182E-03 0.363E-03 0.688E-03 0.914E-03 0.153E-02 0.183E-02 0.362E-02
         4 0.732E-03 0.220E-02 0.465E-02 0.696E-02 0.163E-01 0.228E-01 0.247E-01 0.635E-01


 Contracted 2-electron integrals neglected if value below      1.0D-22

      355360891. INTEGRALS WRITTEN OUT IN   86780 BLOCKS ON RECORD 1290 OF FILE 1


 NUMBER OF SORTED TWO-ELECTRON INTEGRALS:  396972178.     BUFFER LENGTH:  32768
 NUMBER OF SEGMENTS:  13  SEGMENT LENGTH:   31999071      RECORD LENGTH: 524288

 Memory used in sort:      32.56 MW

 SORT1 READ   355360891. AND WROTE   358535715. INTEGRALS IN   1032 RECORDS. CPU TIME:    17.03 SEC, REAL TIME:    20.40 SEC
 SORT2 READ   358535715. AND WROTE   396972178. INTEGRALS IN     13 RECORDS. CPU TIME:     8.04 SEC, REAL TIME:    10.49 SEC

 FILE SIZES:   FILE 1:  5709.6 MBYTE,  FILE 4:  4328.6 MBYTE,   TOTAL:  10038.1 MBYTE

 OPERATOR DM      FOR CENTER  0  COORDINATES:    0.000000    0.000000    0.000000


 **********************************************************************************************************************************
 DATASETS  * FILE   NREC   LENGTH (MB)   RECORD NAMES
              1      19     3080.34       500      610      700      900      950      970     1000      129      960     1100   
                                          VAR    BASINP    GEOM    SYMINP    ZMAT    AOBASIS   BASIS     P2S    ABASIS      S 
                                         1400     1410     1200     1210     1080     1600     1650     1300     1700   
                                           T        V       H0       H01     AOSYM     SMH    MOLCAS    ERIS     OPER   

 PROGRAMS   *        TOTAL       INT
 CPU TIMES  *       122.53    122.41
 REAL TIME  *       133.91 SEC
 DISK USED  *        10.04 GB      
 **********************************************************************************************************************************


 PROGRAM * RHF-SCF (CLOSED SHELL)       Authors: W. Meyer, H.-J. Werner


 NUMBER OF ELECTRONS:       7+    7-
 CONVERGENCE THRESHOLDS:    1.00E-10 (Density)    1.00E-13 (Energy)
 MAX. NUMBER OF ITERATIONS:      500
 INTERPOLATION TYPE:            DIIS
 INTERPOLATION STEPS:              2 (START)      1 (STEP)
 LEVEL SHIFTS:                  0.00 (CLOSED)  0.00 (OPEN) 



 Orbital guess generated from atomic densities. Full valence occupancy:    7   2   2   0

 Molecular orbital dump at record        2100.2

 Initial occupancy:   5   1   1   0

 ITERATION    DDIFF          GRAD             ENERGY        2-EL.EN.            DIPOLE MOMENTS         DIIS   ORB.
    1      0.000D+00      0.000D+00       -92.89267295    112.574898    0.00000    0.00000   -1.77834    0    start
    2      0.000D+00      0.572D-02       -92.90238287    111.587785    0.00000    0.00000   -0.91408    1    diag
    3      0.436D-02      0.495D-02       -92.91713282    112.148411    0.00000    0.00000   -1.30778    2    diag
    4      0.221D-02      0.414D-03       -92.91735441    112.120441    0.00000    0.00000   -1.29547    3    diag
    5      0.412D-03      0.847D-04       -92.91736712    112.124526    0.00000    0.00000   -1.29402    4    diag
    6      0.103D-03      0.216D-04       -92.91736772    112.121431    0.00000    0.00000   -1.29423    5    diag
    7      0.181D-04      0.695D-05       -92.91736777    112.122636    0.00000    0.00000   -1.29423    6    diag
    8      0.545D-05      0.163D-05       -92.91736777    112.122544    0.00000    0.00000   -1.29420    7    diag
    9      0.125D-05      0.194D-06       -92.91736777    112.122553    0.00000    0.00000   -1.29420    8    diag
   10      0.203D-06      0.257D-07       -92.91736777    112.122554    0.00000    0.00000   -1.29419    9    orth
   11      0.253D-07      0.387D-08       -92.91736777    112.122554    0.00000    0.00000   -1.29419    9    diag
   12      0.442D-08      0.370D-09       -92.91736777    112.122554    0.00000    0.00000   -1.29419    9    diag
   13      0.121D-08      0.326D-10       -92.91736777    112.122554    0.00000    0.00000   -1.29419    9    diag
   14      0.155D-09      0.498D-11       -92.91736777    112.122554    0.00000    0.00000   -1.29419    9    diag
   15      0.858D-10      0.114D-11       -92.91736777    112.122554    0.00000    0.00000   -1.29419    9    diag
   16      0.986D-10      0.103D-11       -92.91736777    112.122554    0.00000    0.00000   -1.29419    9    diag
   17      0.682D-10      0.598D-12       -92.91736777    112.122554    0.00000    0.00000   -1.29419    9    diag
   18      0.291D-10      0.459D-12       -92.91736777    112.122554    0.00000    0.00000   -1.29419    0    orth

 Final occupancy:   5   1   1   0

 !RHF STATE 1.1 Energy                -92.917367774516
 Nuclear energy                        24.17359051
 One-electron energy                 -173.15223539
 Two-electron energy                   56.06127711
 Virial quotient                       -1.00119549
 !RHF STATE 1.1 Dipole moment           0.00000000     0.00000000    -1.29419496
 Dipole moment /Debye                   0.00000000     0.00000000    -3.28930003

 Orbital energies:

         1.1          2.1          3.1          4.1          5.1          6.1          7.1
    -15.592350   -11.285708    -1.243434    -0.808987    -0.581287     0.017613     0.053252

         1.2          2.2          3.2
     -0.501537     0.052416     0.102215

         1.3          2.3          3.3
     -0.501537     0.052416     0.102215

         1.4          2.4
      0.202500     0.326810

 HOMO      1.2    -0.501537 =     -13.6475eV
 LUMO      6.1     0.017613 =       0.4793eV
 LUMO-HOMO         0.519150 =      14.1268eV


 **********************************************************************************************************************************
 DATASETS  * FILE   NREC   LENGTH (MB)   RECORD NAMES
              1      19     3080.34       500      610      700      900      950      970     1000      129      960     1100   
                                          VAR    BASINP    GEOM    SYMINP    ZMAT    AOBASIS   BASIS     P2S    ABASIS      S 
                                         1400     1410     1200     1210     1080     1600     1650     1300     1700   
                                           T        V       H0       H01     AOSYM     SMH    MOLCAS    ERIS     OPER   

              2       4        3.46       700     1000      520     2100   
                                         GEOM     BASIS   MCVARS     RHF  

 PROGRAMS   *        TOTAL        HF       INT
 CPU TIMES  *       149.78     27.25    122.41
 REAL TIME  *       171.03 SEC
 DISK USED  *        10.04 GB      
 **********************************************************************************************************************************


 PROGRAM * CCSD (Closed-shell coupled cluster)     Authors: C. Hampel, H.-J. Werner, 1991, M. Deegan, P.J. Knowles, 1992


 Convergence thresholds:  THRVAR = 1.00D-08  THRDEN = 1.00D-12

 CCSD(T)     terms to be evaluated (factor= 1.000)


 Number of core orbitals:           2 (   2   0   0   0 )
 Number of closed-shell orbitals:   5 (   3   1   1   0 )
 Number of external orbitals:     327 ( 118  80  80  49 )

 Molecular orbitals read from record     2100.2  Type=RHF/CANONICAL (state 1.1)

 Number of N-1 electron functions:               5
 Number of N-2 electron functions:              15
 Number of singly external CSFs:               514
 Number of doubly external CSFs:            345689
 Total number of CSFs:                      346204

 Length of J-op  integral file:               0.00 MB
 Length of K-op  integral file:               2.14 MB
 Length of 3-ext integral record:             0.00 MB

 Memory could be reduced to 68.09 Mwords without degradation in triples

 Integral transformation finished. Total CPU:   4.92 sec, npass=  1  Memory used:   7.20 MW

 Reference energy:                    -92.91736777

 MP2 singlet pair energy:              -0.24328207
 MP2 triplet pair energy:              -0.13166536
 MP2 correlation energy:               -0.37494743
 MP2 total energy:                    -93.29231520

 SCS-MP2 correlation energy:           -0.37386360   (PS=  1.200000  PT=  0.333333)
 SCS-MP2 total energy:                -93.29123137

 ITER.      SQ.NORM     CORR.ENERGY   TOTAL ENERGY   ENERGY CHANGE        DEN1      VAR(S)    VAR(P)  DIIS     TIME  TIME/IT
   1      1.11343742    -0.37210213   -93.28946990     0.00284530     0.01568121  0.25D-02  0.29D-02  1  1     9.64     5.45
   2      1.12228290    -0.37237509   -93.28974286    -0.00027296    -0.00996054  0.62D-04  0.38D-03  2  2    14.47     5.50
   3      1.12701290    -0.37259533   -93.28996311    -0.00022025    -0.00252003  0.13D-04  0.43D-04  3  3    19.44     5.52
   4      1.12899749    -0.37264834   -93.29001612    -0.00005301    -0.00073561  0.65D-06  0.48D-05  4  4    24.33     5.53
   5      1.12951762    -0.37265785   -93.29002562    -0.00000950    -0.00014784  0.77D-07  0.40D-06  5  5    29.19     5.53
   6      1.12961979    -0.37265643   -93.29002420     0.00000142    -0.00002549  0.82D-08  0.33D-07  6  6    34.09     5.54
   7      1.12962854    -0.37265729   -93.29002507    -0.00000087    -0.00000122  0.85D-09  0.27D-08  6  1    38.98     5.54
   8      1.12963098    -0.37265767   -93.29002544    -0.00000037    -0.00000102  0.13D-09  0.25D-09  6  2    43.87     5.54
   9      1.12963111    -0.37265773   -93.29002550    -0.00000006    -0.00000001  0.11D-10  0.17D-10  6  3    48.85     5.55
  10      1.12963101    -0.37265778   -93.29002555    -0.00000004     0.00000010  0.14D-11  0.16D-11  6  4    53.66     5.55
  11      1.12963096    -0.37265779   -93.29002556    -0.00000001     0.00000003  0.18D-12  0.17D-12  6  5    58.58     5.55
  12      1.12963090    -0.37265779   -93.29002557    -0.00000000     0.00000003  0.20D-13  0.29D-13  6  6    63.55     5.55
  13      1.12963087    -0.37265779   -93.29002557    -0.00000000     0.00000001  0.27D-14  0.55D-14  6  1    68.48     5.55
  14      1.12963086    -0.37265780   -93.29002557    -0.00000000     0.00000000  0.63D-16  0.86D-15  6  2    73.32     5.55
  15      1.12963086    -0.37265780   -93.29002557    -0.00000000     0.00000000  0.24D-16  0.11D-15  6  3    78.19     5.55
  16      1.12963085    -0.37265780   -93.29002557     0.00000000     0.00000000  0.31D-17  0.14D-16  6  4    82.99     5.55
  17      1.12963085    -0.37265780   -93.29002557     0.00000000     0.00000000  0.10D-17  0.21D-17  6  5    87.94     5.55
  18      1.12963085    -0.37265780   -93.29002557     0.00000000     0.00000000  0.24D-18  0.39D-18  6  6    92.81     5.55
  19      1.12963085    -0.37265780   -93.29002557     0.00000000    -0.00000000  0.14D-18  0.26D-18  6  1    97.66     5.55
  20      1.12963085    -0.37265780   -93.29002557    -0.00000000     0.00000000  0.80D-19  0.11D-18  6  2   102.56     5.55
  21      1.12963085    -0.37265780   -93.29002557     0.00000000     0.00000000  0.50D-19  0.61D-19  6  3   107.45     5.55

 Norm of t1 vector:      0.06263280      S-energy:    -0.00000000      T1 diagnostic:  0.01400512
                                                                       D1 diagnostic:  0.02811986


 Total CPU time for triples:     30.77 sec


 RESULTS
 =======

  Reference energy                    -92.917367774516
  CCSD singlet pair energy             -0.261665062325
  CCSD triplet pair energy             -0.110992732995
  CCSD correlation energy              -0.372657795322

  Triples (T) contribution             -0.019514029261
  Total correlation energy             -0.392171824582

  CCSD total energy                   -93.290025569838
  CCSD[T] energy                      -93.310329288431
  CCSD-T energy                       -93.309189027125
 !CCSD(T) total energy                -93.309539599098

 Timing summary (sec):

 STEP                 CPU(USER)    SYS     CPU(TOT)    WALL
 Transformation          4.94      0.98      5.92      5.92
 CCSD iterations       102.51     14.08    116.59    116.60
 Triples                30.77      0.77     31.54     31.54

 Program statistics:

 Available memory in ccsd:               994999800
 Min. memory needed in ccsd:               1363289
 Max. memory used in ccsd:                 1637718
 Max. memory used in cckext:               2695008 (21 integral passes)



 **********************************************************************************************************************************
 DATASETS  * FILE   NREC   LENGTH (MB)   RECORD NAMES
              1      20     3264.55       500      610      700      900      950      970     1000      129      960     1100   
                                          VAR    BASINP    GEOM    SYMINP    ZMAT    AOBASIS   BASIS     P2S    ABASIS      S 
                                         1400     1410     1200     1210     1080     1600     1650     1300     1700     1380   
                                           T        V       H0       H01     AOSYM     SMH    MOLCAS    ERIS     OPER     JKOP   

              2       4        3.46       700     1000      520     2100   
                                         GEOM     BASIS   MCVARS     RHF  

 PROGRAMS   *        TOTAL   CCSD(T)        HF       INT
 CPU TIMES  *       288.03    138.23     27.25    122.41
 REAL TIME  *       325.19 SEC
 DISK USED  *        10.04 GB      
 **********************************************************************************************************************************

 CCSD(T)/aug-cc-pV5Z energy=    -93.309539599098

        CCSD(T)         HF-SCF  
    -93.30953960    -92.91736777
 **********************************************************************************************************************************
 Molpro calculation terminated
 Variable memory released
