
 Primary working directories    : /tmp/r2666/232436.maple
 Secondary working directories  : /tmp/r2666/232436.maple
 Wavefunction directory         : /ddn/home4/r2666/wfu/
 Main file repository           : /tmp/r2666/232436.maple/

 SHA1      : d5ffa45e93fdbca01ffc919aa182cfdae0147319
 NAME      : 2015.1.35
 ARCHNAME  : linux/x86_64
 FC        : /opt/intel/composer_xe_2015.1.133/bin/intel64/ifort
 BLASLIB   : -Wl,-_start-group /opt/intel/mkl/lib/intel64/libmkl_intel_ilp64.a /opt/intel/mkl/lib/intel64/libmkl_intel_thread.a /opt/intel/mkl/lib/intel64/libmkl_core.a -Wl,-_end-group
 id        : olemiss

 Nodes     nprocs
 cn080        1

 Using customized tuning parameters: mindgm=1; mindgv=20; mindgc=4; mindgr=1; noblas=0; minvec=7
 default implementation of scratch files=df  

 ***,hcn CCSD(T)/TZ-F12 QFF
 memory, 995, m;
 gthresh,energy=1.d-12,zero=1.d-22,oneint=1.d-22,twoint=1.d-22;
 gthresh,optgrad=1.d-8,optstep=1.d-8;
 nocompress;
 geomtyp=xyz
 bohr
 geometry={
 3
         45        45
 N        0.0000000000        0.0000000000        1.1404491076
 C        0.0000000000        0.0000000000       -1.0478491894
 H        0.0000000000        0.0000000000       -3.0896699002
 }
 
 basis=av5z
   {hf,maxit=500;accu,20;}
 {ccsd(t),nocheck,maxit=250;orbital,IGNORE_ERROR;}

 Variables initialized (889), CPU time= 0.00 sec
 Commands  initialized (702), CPU time= 0.01 sec, 572 directives.
 Default parameters read. Elapsed time= 0.04 sec

 Checking input...
 Passed
1


                                         ***  PROGRAM SYSTEM MOLPRO  ***
                                       Copyright, TTI GmbH Stuttgart, 2015
                                    Version 2015.1 linked Jul  9 2018 13:16:40


 **********************************************************************************************************************************
 LABEL *   hcn CCSD(T)/TZ-F12 QFF                                                        
  64 bit serial version                                                                  DATE: 06-Feb-20          TIME: 09:49:40  
 **********************************************************************************************************************************

 SHA1:             d5ffa45e93fdbca01ffc919aa182cfdae0147319
 **********************************************************************************************************************************

 THRESHOLDS:

 ZERO    =  1.00D-22  ONEINT  =  1.00D-22  TWOINT  =  1.00D-22  PREFAC  =  1.00D-14  LOCALI  =  1.00D-09  EORDER  =  1.00D-04
 ENERGY  =  1.00D-12  ETEST   =  0.00D+00  EDENS   =  0.00D+00  THRDEDEF=  1.00D-06  GRADIENT=  1.00D-02  STEP    =  1.00D-03
 ORBITAL =  1.00D-05  CIVEC   =  1.00D-05  COEFF   =  1.00D-04  PRINTCI =  5.00D-02  PUNCHCI =  9.90D+01  OPTGRAD =  3.00D-04
 OPTENERG=  1.00D-06  OPTSTEP =  3.00D-04  THRGRAD =  1.00D-10  COMPRESS=  1.00D-11  VARMIN  =  1.00D-07  VARMAX  =  1.00D-03
 THRDOUB =  0.00D+00  THRDIV  =  1.00D-05  THRRED  =  1.00D-07  THRPSP  =  1.00D+00  THRDC   =  1.00D-10  THRCS   =  1.00D-10
 THRNRM  =  1.00D-08  THREQ   =  0.00D+00  THRDE   =  1.00D+00  THRREF  =  1.00D-05  SPARFAC =  1.00D+00  THRDLP  =  1.00D-07
 THRDIA  =  1.00D-10  THRDLS  =  1.00D-07  THRGPS  =  0.00D+00  THRKEX  =  0.00D+00  THRDIS  =  2.00D-01  THRVAR  =  1.00D-10
 THRLOC  =  1.00D-06  THRGAP  =  1.00D-06  THRLOCT = -1.00D+00  THRGAPT = -1.00D+00  THRORB  =  1.00D-06  THRMLTP =  0.00D+00
 THRCPQCI=  1.00D-10  KEXTA   =  0.00D+00  THRCOARS=  0.00D+00  SYMTOL  =  1.00D-06  GRADTOL =  1.00D-06  THROVL  =  1.00D-08
 THRORTH =  1.00D-08  GRID    =  1.00D-06  GRIDMAX =  1.00D-03  DTMAX   =  0.00D+00  THROCCDE=  1.00D-01  THROCCDE=  1.00D-01



 THRESHOLDS:

 ZERO    =  1.00D-22  ONEINT  =  1.00D-22  TWOINT  =  1.00D-22  PREFAC  =  1.00D-14  LOCALI  =  1.00D-09  EORDER  =  1.00D-04
 ENERGY  =  1.00D-12  ETEST   =  0.00D+00  EDENS   =  0.00D+00  THRDEDEF=  1.00D-06  GRADIENT=  1.00D-02  STEP    =  1.00D-03
 ORBITAL =  1.00D-05  CIVEC   =  1.00D-05  COEFF   =  1.00D-04  PRINTCI =  5.00D-02  PUNCHCI =  9.90D+01  OPTGRAD =  1.00D-08
 OPTENERG=  1.00D-06  OPTSTEP =  1.00D-08  THRGRAD =  1.00D-10  COMPRESS=  1.00D-11  VARMIN  =  1.00D-07  VARMAX  =  1.00D-03
 THRDOUB =  0.00D+00  THRDIV  =  1.00D-05  THRRED  =  1.00D-07  THRPSP  =  1.00D+00  THRDC   =  1.00D-10  THRCS   =  1.00D-10
 THRNRM  =  1.00D-08  THREQ   =  0.00D+00  THRDE   =  1.00D+00  THRREF  =  1.00D-05  SPARFAC =  1.00D+00  THRDLP  =  1.00D-07
 THRDIA  =  1.00D-10  THRDLS  =  1.00D-07  THRGPS  =  0.00D+00  THRKEX  =  0.00D+00  THRDIS  =  2.00D-01  THRVAR  =  1.00D-10
 THRLOC  =  1.00D-06  THRGAP  =  1.00D-06  THRLOCT = -1.00D+00  THRGAPT = -1.00D+00  THRORB  =  1.00D-06  THRMLTP =  0.00D+00
 THRCPQCI=  1.00D-10  KEXTA   =  0.00D+00  THRCOARS=  0.00D+00  SYMTOL  =  1.00D-06  GRADTOL =  1.00D-06  THROVL  =  1.00D-08
 THRORTH =  1.00D-08  GRID    =  1.00D-06  GRIDMAX =  1.00D-03  DTMAX   =  0.00D+00  THROCCDE=  1.00D-01  THROCCDE=  1.00D-01



 Input parameters for SORTINT:

 COMPRESS =    0.000000
 C_FINAL  =    1.000000
 DEBUG    =   -1.000000
 C_SORT1  =    0.000000
 C_SEWARD =    0.000000
 THRESH   =    0.000000
 IO       =  molpro                                                          
 SPRI     =    0.000000
 SETTING GEOMTYP        =    XYZ
 ZUNIT=BOHR
 

 Variable memory set to  995000000 words,  buffer space   230000 words

 SETTING BASIS          =    AV5Z


 Recomputing integrals since basis changed


 Using spherical harmonics

 Library entry N      S aug-cc-pV5Z          selected for orbital group  1
 Library entry N      P aug-cc-pV5Z          selected for orbital group  1
 Library entry N      D aug-cc-pV5Z          selected for orbital group  1
 Library entry N      F aug-cc-pV5Z          selected for orbital group  1
 Library entry N      G aug-cc-pV5Z          selected for orbital group  1
 Library entry N      H aug-cc-pV5Z          selected for orbital group  1
 Library entry C      S aug-cc-pV5Z          selected for orbital group  2
 Library entry C      P aug-cc-pV5Z          selected for orbital group  2
 Library entry C      D aug-cc-pV5Z          selected for orbital group  2
 Library entry C      F aug-cc-pV5Z          selected for orbital group  2
 Library entry C      G aug-cc-pV5Z          selected for orbital group  2
 Library entry C      H aug-cc-pV5Z          selected for orbital group  2
 Library entry H      S aug-cc-pV5Z          selected for orbital group  3
 Library entry H      P aug-cc-pV5Z          selected for orbital group  3
 Library entry H      D aug-cc-pV5Z          selected for orbital group  3
 Library entry H      F aug-cc-pV5Z          selected for orbital group  3
 Library entry H      G aug-cc-pV5Z          selected for orbital group  3


 PROGRAM * SEWARD (Integral evaluation for generally contracted gaussian basis sets)     Author: Roland Lindh, 1990

 Geometry written to block  1 of record 700


 Point group  C2v 



 ATOMIC COORDINATES

 NR  ATOM    CHARGE       X              Y              Z

   1  N       7.00    0.000000000    0.000000000    1.140449108
   2  C       6.00    0.000000000    0.000000000   -1.047849189
   3  H       1.00    0.000000000    0.000000000   -3.089669900

 Bond lengths in Bohr (Angstrom)

 1-2  2.188298297  2-3  2.041820711
     ( 1.157997589)     ( 1.080484989)

 Bond angles

  1-2-3  179.99999829

 NUCLEAR CHARGE:                   14
 NUMBER OF PRIMITIVE AOS:         506
 NUMBER OF SYMMETRY AOS:          371
 NUMBER OF CONTRACTIONS:          334   ( 123A1  +  81B1  +  81B2  +  49A2  )
 NUMBER OF CORE ORBITALS:           2   (   2A1  +   0B1  +   0B2  +   0A2  )
 NUMBER OF VALENCE ORBITALS:        9   (   5A1  +   2B1  +   2B2  +   0A2  )


 NUCLEAR REPULSION ENERGY   23.78634936

 EXTRA SYMMETRY OF AOS IN SYMMETRY 1:   1 1 1 1 1 1 1 1 1 1   1 1 1 1 2 1 2 1 2 1   2 1 2 1 2 1 2 1 2 1   2 1 3 2 1 3 2 1 3 2
                                        2 3 1 2 3 1 1 1 1 1   1 1 1 1 1 1 1 1 1 1   2 1 2 1 2 1 2 1 2 1   2 1 2 1 2 1 2 1 3 2
                                        1 3 2 1 3 2 2 3 1 2   3 1 1 1 1 1 1 1 1 1   1 1 1 1 2 1 2 1 2 1   2 1 2 1 2 1 2 1 3 2
                                        1 3 2
 EXTRA SYMMETRY OF AOS IN SYMMETRY 2:   1 1 1 1 1 1 1 1 1 1   1 1 2 1 2 1 2 1 2 1   2 1 2 1 2 1 2 3 1 2   3 1 1 1 1 1 1 1 1 1
                                        1 1 1 2 1 2 1 2 1 2   1 2 1 2 1 2 1 2 3 1   2 3 1 1 1 1 1 1 1 1   1 1 2 1 2 1 2 1 2 1
                                        2
 EXTRA SYMMETRY OF AOS IN SYMMETRY 3:   1 1 1 1 1 1 1 1 1 1   1 1 2 1 2 1 2 1 2 1   2 1 2 1 2 1 2 3 1 2   3 1 1 1 1 1 1 1 1 1
                                        1 1 1 2 1 2 1 2 1 2   1 2 1 2 1 2 1 2 3 1   2 3 1 1 1 1 1 1 1 1   1 1 2 1 2 1 2 1 2 1
                                        2
 EXTRA SYMMETRY OF AOS IN SYMMETRY 4:   1 1 1 1 1 1 1 1 1 1   2 1 2 1 2 2 1 2 1 1   1 1 1 1 1 1 1 1 1 2   1 2 1 2 2 1 2 1 1 1
                                        1 1 1 1 1 1 2 1 2

 Eigenvalues of metric

         1 0.265E-05 0.567E-05 0.152E-04 0.365E-04 0.591E-04 0.711E-04 0.178E-03 0.225E-03
         2 0.581E-04 0.198E-03 0.381E-03 0.723E-03 0.946E-03 0.160E-02 0.188E-02 0.373E-02
         3 0.581E-04 0.198E-03 0.381E-03 0.723E-03 0.946E-03 0.160E-02 0.188E-02 0.373E-02
         4 0.781E-03 0.230E-02 0.493E-02 0.728E-02 0.181E-01 0.242E-01 0.260E-01 0.658E-01


 Contracted 2-electron integrals neglected if value below      1.0D-22

      355071220. INTEGRALS WRITTEN OUT IN   86709 BLOCKS ON RECORD 1290 OF FILE 1


 NUMBER OF SORTED TWO-ELECTRON INTEGRALS:  396972178.     BUFFER LENGTH:  32768
 NUMBER OF SEGMENTS:  13  SEGMENT LENGTH:   31999071      RECORD LENGTH: 524288

 Memory used in sort:      32.56 MW

 SORT1 READ   355071220. AND WROTE   358243665. INTEGRALS IN   1031 RECORDS. CPU TIME:    17.71 SEC, REAL TIME:    63.10 SEC
 SORT2 READ   358243665. AND WROTE   396972178. INTEGRALS IN     13 RECORDS. CPU TIME:     6.93 SEC, REAL TIME:    20.26 SEC

 FILE SIZES:   FILE 1:  5704.9 MBYTE,  FILE 4:  4324.4 MBYTE,   TOTAL:  10029.3 MBYTE

 OPERATOR DM      FOR CENTER  0  COORDINATES:    0.000000    0.000000    0.000000


 **********************************************************************************************************************************
 DATASETS  * FILE   NREC   LENGTH (MB)   RECORD NAMES
              1      19     3078.62       500      610      700      900      950      970     1000      129      960     1100   
                                          VAR    BASINP    GEOM    SYMINP    ZMAT    AOBASIS   BASIS     P2S    ABASIS      S 
                                         1400     1410     1200     1210     1080     1600     1650     1300     1700   
                                           T        V       H0       H01     AOSYM     SMH    MOLCAS    ERIS     OPER   

 PROGRAMS   *        TOTAL       INT
 CPU TIMES  *        96.96     96.88
 REAL TIME  *       159.96 SEC
 DISK USED  *        10.03 GB      
 **********************************************************************************************************************************


 PROGRAM * RHF-SCF (CLOSED SHELL)       Authors: W. Meyer, H.-J. Werner


 NUMBER OF ELECTRONS:       7+    7-
 CONVERGENCE THRESHOLDS:    1.00E-10 (Density)    1.00E-13 (Energy)
 MAX. NUMBER OF ITERATIONS:      500
 INTERPOLATION TYPE:            DIIS
 INTERPOLATION STEPS:              2 (START)      1 (STEP)
 LEVEL SHIFTS:                  0.00 (CLOSED)  0.00 (OPEN) 



 Orbital guess generated from atomic densities. Full valence occupancy:    7   2   2   0

 Molecular orbital dump at record        2100.2

 Initial occupancy:   5   1   1   0

 ITERATION    DDIFF          GRAD             ENERGY        2-EL.EN.            DIPOLE MOMENTS         DIIS   ORB.
    1      0.000D+00      0.000D+00       -92.88949911    111.723819    0.00000    0.00000   -1.80682    0    start
    2      0.000D+00      0.570D-02       -92.89831834    110.853942    0.00000    0.00000   -0.89683    1    diag
    3      0.440D-02      0.512D-02       -92.91433866    111.402749    0.00000    0.00000   -1.31817    2    diag
    4      0.227D-02      0.419D-03       -92.91456964    111.362868    0.00000    0.00000   -1.30622    3    diag
    5      0.420D-03      0.921D-04       -92.91458353    111.373737    0.00000    0.00000   -1.30469    4    diag
    6      0.104D-03      0.255D-04       -92.91458444    111.368468    0.00000    0.00000   -1.30470    5    diag
    7      0.222D-04      0.914D-05       -92.91458452    111.369670    0.00000    0.00000   -1.30477    6    diag
    8      0.734D-05      0.194D-05       -92.91458453    111.369618    0.00000    0.00000   -1.30474    7    diag
    9      0.153D-05      0.223D-06       -92.91458453    111.369627    0.00000    0.00000   -1.30473    8    diag
   10      0.234D-06      0.275D-07       -92.91458453    111.369628    0.00000    0.00000   -1.30473    9    orth
   11      0.268D-07      0.392D-08       -92.91458453    111.369628    0.00000    0.00000   -1.30473    9    diag
   12      0.494D-08      0.381D-09       -92.91458453    111.369628    0.00000    0.00000   -1.30473    9    diag
   13      0.124D-08      0.337D-10       -92.91458453    111.369628    0.00000    0.00000   -1.30473    9    diag
   14      0.856D-10      0.735D-11       -92.91458453    111.369628    0.00000    0.00000   -1.30473    0    orth

 Final occupancy:   5   1   1   0

 !RHF STATE 1.1 Energy                -92.914584526513
 Nuclear energy                        23.78634936
 One-electron energy                 -172.38574773
 Two-electron energy                   55.68481384
 Virial quotient                       -1.00255221
 !RHF STATE 1.1 Dipole moment           0.00000000     0.00000000    -1.30473068
 Dipole moment /Debye                   0.00000000     0.00000000    -3.31607741

 Orbital energies:

         1.1          2.1          3.1          4.1          5.1          6.1          7.1
    -15.599450   -11.293848    -1.233932    -0.808154    -0.582053     0.017496     0.053198

         1.2          2.2          3.2
     -0.495311     0.052475     0.101581

         1.3          2.3          3.3
     -0.495311     0.052475     0.101581

         1.4          2.4
      0.202932     0.327378

 HOMO      1.2    -0.495311 =     -13.4781eV
 LUMO      6.1     0.017496 =       0.4761eV
 LUMO-HOMO         0.512807 =      13.9542eV


 **********************************************************************************************************************************
 DATASETS  * FILE   NREC   LENGTH (MB)   RECORD NAMES
              1      19     3078.62       500      610      700      900      950      970     1000      129      960     1100   
                                          VAR    BASINP    GEOM    SYMINP    ZMAT    AOBASIS   BASIS     P2S    ABASIS      S 
                                         1400     1410     1200     1210     1080     1600     1650     1300     1700   
                                           T        V       H0       H01     AOSYM     SMH    MOLCAS    ERIS     OPER   

              2       4        3.46       700     1000      520     2100   
                                         GEOM     BASIS   MCVARS     RHF  

 PROGRAMS   *        TOTAL        HF       INT
 CPU TIMES  *       113.31     16.35     96.88
 REAL TIME  *       179.89 SEC
 DISK USED  *        10.03 GB      
 **********************************************************************************************************************************


 PROGRAM * CCSD (Closed-shell coupled cluster)     Authors: C. Hampel, H.-J. Werner, 1991, M. Deegan, P.J. Knowles, 1992


 Convergence thresholds:  THRVAR = 1.00D-08  THRDEN = 1.00D-12

 CCSD(T)     terms to be evaluated (factor= 1.000)


 Number of core orbitals:           2 (   2   0   0   0 )
 Number of closed-shell orbitals:   5 (   3   1   1   0 )
 Number of external orbitals:     327 ( 118  80  80  49 )

 Molecular orbitals read from record     2100.2  Type=RHF/CANONICAL (state 1.1)

 Number of N-1 electron functions:               5
 Number of N-2 electron functions:              15
 Number of singly external CSFs:               514
 Number of doubly external CSFs:            345689
 Total number of CSFs:                      346204

 Length of J-op  integral file:               0.00 MB
 Length of K-op  integral file:               2.14 MB
 Length of 3-ext integral record:             0.00 MB

 Memory could be reduced to 68.09 Mwords without degradation in triples

 Integral transformation finished. Total CPU:   3.04 sec, npass=  1  Memory used:   7.20 MW

 Reference energy:                    -92.91458453

 MP2 singlet pair energy:              -0.24543283
 MP2 triplet pair energy:              -0.13338765
 MP2 correlation energy:               -0.37882048
 MP2 total energy:                    -93.29340501

 SCS-MP2 correlation energy:           -0.37751616   (PS=  1.200000  PT=  0.333333)
 SCS-MP2 total energy:                -93.29210068

 ITER.      SQ.NORM     CORR.ENERGY   TOTAL ENERGY   ENERGY CHANGE        DEN1      VAR(S)    VAR(P)  DIIS     TIME  TIME/IT
   1      1.11605833    -0.37490326   -93.28948779     0.00391722     0.01761654  0.27D-02  0.32D-02  1  1     5.97     3.39
   2      1.12543666    -0.37501760   -93.28960213    -0.00011434    -0.01047922  0.69D-04  0.41D-03  2  2     9.00     3.44
   3      1.13054078    -0.37526053   -93.28984506    -0.00024293    -0.00265433  0.15D-04  0.49D-04  3  3    12.05     3.46
   4      1.13274901    -0.37532301   -93.28990754    -0.00006248    -0.00079700  0.70D-06  0.57D-05  4  4    15.08     3.47
   5      1.13334671    -0.37533443   -93.28991895    -0.00001142    -0.00016691  0.84D-07  0.50D-06  5  5    18.05     3.47
   6      1.13347063    -0.37533267   -93.28991720     0.00000176    -0.00003068  0.11D-07  0.42D-07  6  6    21.10     3.48
   7      1.13348103    -0.37533382   -93.28991835    -0.00000115    -0.00000124  0.93D-09  0.36D-08  6  1    24.14     3.48
   8      1.13348410    -0.37533427   -93.28991879    -0.00000044    -0.00000130  0.14D-09  0.32D-09  6  2    27.22     3.48
   9      1.13348420    -0.37533434   -93.28991887    -0.00000007     0.00000001  0.13D-10  0.22D-10  6  3    30.21     3.48
  10      1.13348406    -0.37533439   -93.28991892    -0.00000005     0.00000011  0.13D-11  0.20D-11  6  4    33.27     3.49
  11      1.13348400    -0.37533441   -93.28991894    -0.00000002     0.00000003  0.19D-12  0.18D-12  6  5    36.31     3.49
  12      1.13348393    -0.37533442   -93.28991894    -0.00000001     0.00000003  0.21D-13  0.28D-13  6  6    39.28     3.49
  13      1.13348390    -0.37533442   -93.28991895    -0.00000000     0.00000001  0.21D-14  0.56D-14  6  1    42.32     3.49
  14      1.13348388    -0.37533442   -93.28991895    -0.00000000     0.00000001  0.18D-15  0.85D-15  6  2    45.36     3.49
  15      1.13348387    -0.37533442   -93.28991895    -0.00000000     0.00000000  0.16D-16  0.12D-15  6  3    48.40     3.49
  16      1.13348387    -0.37533442   -93.28991895     0.00000000     0.00000000  0.25D-17  0.16D-16  6  4    51.44     3.49
  17      1.13348387    -0.37533442   -93.28991895     0.00000000     0.00000000  0.79D-18  0.23D-17  6  5    54.48     3.49
  18      1.13348387    -0.37533442   -93.28991895     0.00000000     0.00000000  0.20D-18  0.41D-18  6  6    57.50     3.49
  19      1.13348387    -0.37533442   -93.28991895     0.00000000    -0.00000000  0.56D-19  0.17D-18  6  1    60.58     3.49
  20      1.13348387    -0.37533442   -93.28991895     0.00000000     0.00000000  0.28D-19  0.75D-19  6  3    63.61     3.49
  21      1.13348387    -0.37533442   -93.28991895    -0.00000000     0.00000000  0.24D-19  0.43D-19  6  2    66.65     3.49

 Norm of t1 vector:      0.06542457      S-energy:    -0.00000000      T1 diagnostic:  0.01462938
                                                                       D1 diagnostic:  0.02946267


 Total CPU time for triples:     20.91 sec


 RESULTS
 =======

  Reference energy                    -92.914584526513
  CCSD singlet pair energy             -0.263910795472
  CCSD triplet pair energy             -0.111423624089
  CCSD correlation energy              -0.375334419565

  Triples (T) contribution             -0.020191216717
  Total correlation energy             -0.395525636282

  CCSD total energy                   -93.289918946078
  CCSD[T] energy                      -93.310978072710
  CCSD-T energy                       -93.309728292217
 !CCSD(T) total energy                -93.310110162795

 Timing summary (sec):

 STEP                 CPU(USER)    SYS     CPU(TOT)    WALL
 Transformation          3.05      0.70      3.75      3.86
 CCSD iterations        63.61      9.79     73.40     73.40
 Triples                20.91      0.65     21.56     21.57

 Program statistics:

 Available memory in ccsd:               994999800
 Min. memory needed in ccsd:               1363289
 Max. memory used in ccsd:                 1637718
 Max. memory used in cckext:               2695008 (21 integral passes)



 **********************************************************************************************************************************
 DATASETS  * FILE   NREC   LENGTH (MB)   RECORD NAMES
              1      20     3262.84       500      610      700      900      950      970     1000      129      960     1100   
                                          VAR    BASINP    GEOM    SYMINP    ZMAT    AOBASIS   BASIS     P2S    ABASIS      S 
                                         1400     1410     1200     1210     1080     1600     1650     1300     1700     1380   
                                           T        V       H0       H01     AOSYM     SMH    MOLCAS    ERIS     OPER     JKOP   

              2       4        3.46       700     1000      520     2100   
                                         GEOM     BASIS   MCVARS     RHF  

 PROGRAMS   *        TOTAL   CCSD(T)        HF       INT
 CPU TIMES  *       200.91     87.59     16.35     96.88
 REAL TIME  *       278.92 SEC
 DISK USED  *        10.03 GB      
 **********************************************************************************************************************************

 CCSD(T)/aug-cc-pV5Z energy=    -93.310110162795

        CCSD(T)         HF-SCF  
    -93.31011016    -92.91458453
 **********************************************************************************************************************************
 Molpro calculation terminated
 Variable memory released
