
 Primary working directories    : /tmp/r2666/232408.maple
 Secondary working directories  : /tmp/r2666/232408.maple
 Wavefunction directory         : /ddn/home4/r2666/wfu/
 Main file repository           : /tmp/r2666/232408.maple/

 SHA1      : d5ffa45e93fdbca01ffc919aa182cfdae0147319
 NAME      : 2015.1.35
 ARCHNAME  : linux/x86_64
 FC        : /opt/intel/composer_xe_2015.1.133/bin/intel64/ifort
 BLASLIB   : -Wl,-_start-group /opt/intel/mkl/lib/intel64/libmkl_intel_ilp64.a /opt/intel/mkl/lib/intel64/libmkl_intel_thread.a /opt/intel/mkl/lib/intel64/libmkl_core.a -Wl,-_end-group
 id        : olemiss

 Nodes     nprocs
 cn093        1

 Using customized tuning parameters: mindgm=1; mindgv=20; mindgc=4; mindgr=1; noblas=0; minvec=7
 default implementation of scratch files=df  

 ***,hcn CCSD(T)/TZ-F12 QFF
 memory, 995, m;
 gthresh,energy=1.d-12,zero=1.d-22,oneint=1.d-22,twoint=1.d-22;
 gthresh,optgrad=1.d-8,optstep=1.d-8;
 nocompress;
 geomtyp=xyz
 bohr
 geometry={
 3
         17        17
 N        0.0000000000        0.0000000000        1.1215518477
 C        0.0000000000        0.0000000000       -1.0478491894
 H        0.0000000000        0.0000000000       -3.0707726403
 }
 
 basis=av5z
   {hf,maxit=500;accu,20;}
 {ccsd(t),nocheck,maxit=250;orbital,IGNORE_ERROR;}

 Variables initialized (889), CPU time= 0.00 sec
 Commands  initialized (702), CPU time= 0.02 sec, 572 directives.
 Default parameters read. Elapsed time= 0.04 sec

 Checking input...
 Passed
1


                                         ***  PROGRAM SYSTEM MOLPRO  ***
                                       Copyright, TTI GmbH Stuttgart, 2015
                                    Version 2015.1 linked Jul  9 2018 13:16:40


 **********************************************************************************************************************************
 LABEL *   hcn CCSD(T)/TZ-F12 QFF                                                        
  64 bit serial version                                                                  DATE: 06-Feb-20          TIME: 09:49:40  
 **********************************************************************************************************************************

 SHA1:             d5ffa45e93fdbca01ffc919aa182cfdae0147319
 **********************************************************************************************************************************

 THRESHOLDS:

 ZERO    =  1.00D-22  ONEINT  =  1.00D-22  TWOINT  =  1.00D-22  PREFAC  =  1.00D-14  LOCALI  =  1.00D-09  EORDER  =  1.00D-04
 ENERGY  =  1.00D-12  ETEST   =  0.00D+00  EDENS   =  0.00D+00  THRDEDEF=  1.00D-06  GRADIENT=  1.00D-02  STEP    =  1.00D-03
 ORBITAL =  1.00D-05  CIVEC   =  1.00D-05  COEFF   =  1.00D-04  PRINTCI =  5.00D-02  PUNCHCI =  9.90D+01  OPTGRAD =  3.00D-04
 OPTENERG=  1.00D-06  OPTSTEP =  3.00D-04  THRGRAD =  1.00D-10  COMPRESS=  1.00D-11  VARMIN  =  1.00D-07  VARMAX  =  1.00D-03
 THRDOUB =  0.00D+00  THRDIV  =  1.00D-05  THRRED  =  1.00D-07  THRPSP  =  1.00D+00  THRDC   =  1.00D-10  THRCS   =  1.00D-10
 THRNRM  =  1.00D-08  THREQ   =  0.00D+00  THRDE   =  1.00D+00  THRREF  =  1.00D-05  SPARFAC =  1.00D+00  THRDLP  =  1.00D-07
 THRDIA  =  1.00D-10  THRDLS  =  1.00D-07  THRGPS  =  0.00D+00  THRKEX  =  0.00D+00  THRDIS  =  2.00D-01  THRVAR  =  1.00D-10
 THRLOC  =  1.00D-06  THRGAP  =  1.00D-06  THRLOCT = -1.00D+00  THRGAPT = -1.00D+00  THRORB  =  1.00D-06  THRMLTP =  0.00D+00
 THRCPQCI=  1.00D-10  KEXTA   =  0.00D+00  THRCOARS=  0.00D+00  SYMTOL  =  1.00D-06  GRADTOL =  1.00D-06  THROVL  =  1.00D-08
 THRORTH =  1.00D-08  GRID    =  1.00D-06  GRIDMAX =  1.00D-03  DTMAX   =  0.00D+00  THROCCDE=  1.00D-01  THROCCDE=  1.00D-01



 THRESHOLDS:

 ZERO    =  1.00D-22  ONEINT  =  1.00D-22  TWOINT  =  1.00D-22  PREFAC  =  1.00D-14  LOCALI  =  1.00D-09  EORDER  =  1.00D-04
 ENERGY  =  1.00D-12  ETEST   =  0.00D+00  EDENS   =  0.00D+00  THRDEDEF=  1.00D-06  GRADIENT=  1.00D-02  STEP    =  1.00D-03
 ORBITAL =  1.00D-05  CIVEC   =  1.00D-05  COEFF   =  1.00D-04  PRINTCI =  5.00D-02  PUNCHCI =  9.90D+01  OPTGRAD =  1.00D-08
 OPTENERG=  1.00D-06  OPTSTEP =  1.00D-08  THRGRAD =  1.00D-10  COMPRESS=  1.00D-11  VARMIN  =  1.00D-07  VARMAX  =  1.00D-03
 THRDOUB =  0.00D+00  THRDIV  =  1.00D-05  THRRED  =  1.00D-07  THRPSP  =  1.00D+00  THRDC   =  1.00D-10  THRCS   =  1.00D-10
 THRNRM  =  1.00D-08  THREQ   =  0.00D+00  THRDE   =  1.00D+00  THRREF  =  1.00D-05  SPARFAC =  1.00D+00  THRDLP  =  1.00D-07
 THRDIA  =  1.00D-10  THRDLS  =  1.00D-07  THRGPS  =  0.00D+00  THRKEX  =  0.00D+00  THRDIS  =  2.00D-01  THRVAR  =  1.00D-10
 THRLOC  =  1.00D-06  THRGAP  =  1.00D-06  THRLOCT = -1.00D+00  THRGAPT = -1.00D+00  THRORB  =  1.00D-06  THRMLTP =  0.00D+00
 THRCPQCI=  1.00D-10  KEXTA   =  0.00D+00  THRCOARS=  0.00D+00  SYMTOL  =  1.00D-06  GRADTOL =  1.00D-06  THROVL  =  1.00D-08
 THRORTH =  1.00D-08  GRID    =  1.00D-06  GRIDMAX =  1.00D-03  DTMAX   =  0.00D+00  THROCCDE=  1.00D-01  THROCCDE=  1.00D-01



 Input parameters for SORTINT:

 COMPRESS =    0.000000
 C_FINAL  =    1.000000
 DEBUG    =   -1.000000
 C_SORT1  =    0.000000
 C_SEWARD =    0.000000
 THRESH   =    0.000000
 IO       =  molpro                                                          
 SPRI     =    0.000000
 SETTING GEOMTYP        =    XYZ
 ZUNIT=BOHR
 

 Variable memory set to  995000000 words,  buffer space   230000 words

 SETTING BASIS          =    AV5Z


 Recomputing integrals since basis changed


 Using spherical harmonics

 Library entry N      S aug-cc-pV5Z          selected for orbital group  1
 Library entry N      P aug-cc-pV5Z          selected for orbital group  1
 Library entry N      D aug-cc-pV5Z          selected for orbital group  1
 Library entry N      F aug-cc-pV5Z          selected for orbital group  1
 Library entry N      G aug-cc-pV5Z          selected for orbital group  1
 Library entry N      H aug-cc-pV5Z          selected for orbital group  1
 Library entry C      S aug-cc-pV5Z          selected for orbital group  2
 Library entry C      P aug-cc-pV5Z          selected for orbital group  2
 Library entry C      D aug-cc-pV5Z          selected for orbital group  2
 Library entry C      F aug-cc-pV5Z          selected for orbital group  2
 Library entry C      G aug-cc-pV5Z          selected for orbital group  2
 Library entry C      H aug-cc-pV5Z          selected for orbital group  2
 Library entry H      S aug-cc-pV5Z          selected for orbital group  3
 Library entry H      P aug-cc-pV5Z          selected for orbital group  3
 Library entry H      D aug-cc-pV5Z          selected for orbital group  3
 Library entry H      F aug-cc-pV5Z          selected for orbital group  3
 Library entry H      G aug-cc-pV5Z          selected for orbital group  3


 PROGRAM * SEWARD (Integral evaluation for generally contracted gaussian basis sets)     Author: Roland Lindh, 1990

 Geometry written to block  1 of record 700


 Point group  C2v 



 ATOMIC COORDINATES

 NR  ATOM    CHARGE       X              Y              Z

   1  N       7.00    0.000000000    0.000000000    1.121551848
   2  C       6.00    0.000000000    0.000000000   -1.047849189
   3  H       1.00    0.000000000    0.000000000   -3.070772640

 Bond lengths in Bohr (Angstrom)

 1-2  2.169401037  2-3  2.022923451
     ( 1.147997590)     ( 1.070484990)

 Bond angles

  1-2-3  179.99999809

 NUCLEAR CHARGE:                   14
 NUMBER OF PRIMITIVE AOS:         506
 NUMBER OF SYMMETRY AOS:          371
 NUMBER OF CONTRACTIONS:          334   ( 123A1  +  81B1  +  81B2  +  49A2  )
 NUMBER OF CORE ORBITALS:           2   (   2A1  +   0B1  +   0B2  +   0A2  )
 NUMBER OF VALENCE ORBITALS:        9   (   5A1  +   2B1  +   2B2  +   0A2  )


 NUCLEAR REPULSION ENERGY   23.99590506

 EXTRA SYMMETRY OF AOS IN SYMMETRY 1:   1 1 1 1 1 1 1 1 1 1   1 1 1 1 2 1 2 1 2 1   2 1 2 1 2 1 2 1 2 1   2 1 3 2 1 3 2 1 3 2
                                        2 3 1 2 3 1 1 1 1 1   1 1 1 1 1 1 1 1 1 1   2 1 2 1 2 1 2 1 2 1   2 1 2 1 2 1 2 1 3 2
                                        1 3 2 1 3 2 2 3 1 2   3 1 1 1 1 1 1 1 1 1   1 1 1 1 2 1 2 1 2 1   2 1 2 1 2 1 2 1 3 2
                                        1 3 2
 EXTRA SYMMETRY OF AOS IN SYMMETRY 2:   1 1 1 1 1 1 1 1 1 1   1 1 2 1 2 1 2 1 2 1   2 1 2 1 2 1 2 3 1 2   3 1 1 1 1 1 1 1 1 1
                                        1 1 1 2 1 2 1 2 1 2   1 2 1 2 1 2 1 2 3 1   2 3 1 1 1 1 1 1 1 1   1 1 2 1 2 1 2 1 2 1
                                        2
 EXTRA SYMMETRY OF AOS IN SYMMETRY 3:   1 1 1 1 1 1 1 1 1 1   1 1 2 1 2 1 2 1 2 1   2 1 2 1 2 1 2 3 1 2   3 1 1 1 1 1 1 1 1 1
                                        1 1 1 2 1 2 1 2 1 2   1 2 1 2 1 2 1 2 3 1   2 3 1 1 1 1 1 1 1 1   1 1 2 1 2 1 2 1 2 1
                                        2
 EXTRA SYMMETRY OF AOS IN SYMMETRY 4:   1 1 1 1 1 1 1 1 1 1   2 1 2 1 2 2 1 2 1 1   1 1 1 1 1 1 1 1 1 2   1 2 1 2 2 1 2 1 1 1
                                        1 1 1 1 1 1 2 1 2

 Eigenvalues of metric

         1 0.246E-05 0.552E-05 0.146E-04 0.355E-04 0.576E-04 0.693E-04 0.172E-03 0.221E-03
         2 0.556E-04 0.185E-03 0.369E-03 0.700E-03 0.926E-03 0.154E-02 0.185E-02 0.368E-02
         3 0.556E-04 0.185E-03 0.369E-03 0.700E-03 0.926E-03 0.154E-02 0.185E-02 0.368E-02
         4 0.756E-03 0.221E-02 0.479E-02 0.704E-02 0.168E-01 0.233E-01 0.251E-01 0.640E-01


 Contracted 2-electron integrals neglected if value below      1.0D-22

      355258162. INTEGRALS WRITTEN OUT IN   86755 BLOCKS ON RECORD 1290 OF FILE 1


 NUMBER OF SORTED TWO-ELECTRON INTEGRALS:  396972178.     BUFFER LENGTH:  32768
 NUMBER OF SEGMENTS:  13  SEGMENT LENGTH:   31999071      RECORD LENGTH: 524288

 Memory used in sort:      32.56 MW

 SORT1 READ   355258162. AND WROTE   358432418. INTEGRALS IN   1032 RECORDS. CPU TIME:    11.13 SEC, REAL TIME:    14.97 SEC
 SORT2 READ   358432418. AND WROTE   396972178. INTEGRALS IN     13 RECORDS. CPU TIME:     5.85 SEC, REAL TIME:     8.45 SEC

 FILE SIZES:   FILE 1:  5707.9 MBYTE,  FILE 4:  4328.6 MBYTE,   TOTAL:  10036.5 MBYTE

 OPERATOR DM      FOR CENTER  0  COORDINATES:    0.000000    0.000000    0.000000


 **********************************************************************************************************************************
 DATASETS  * FILE   NREC   LENGTH (MB)   RECORD NAMES
              1      19     3079.75       500      610      700      900      950      970     1000      129      960     1100   
                                          VAR    BASINP    GEOM    SYMINP    ZMAT    AOBASIS   BASIS     P2S    ABASIS      S 
                                         1400     1410     1200     1210     1080     1600     1650     1300     1700   
                                           T        V       H0       H01     AOSYM     SMH    MOLCAS    ERIS     OPER   

 PROGRAMS   *        TOTAL       INT
 CPU TIMES  *       102.55    102.46
 REAL TIME  *       113.97 SEC
 DISK USED  *        10.04 GB      
 **********************************************************************************************************************************


 PROGRAM * RHF-SCF (CLOSED SHELL)       Authors: W. Meyer, H.-J. Werner


 NUMBER OF ELECTRONS:       7+    7-
 CONVERGENCE THRESHOLDS:    1.00E-10 (Density)    1.00E-13 (Energy)
 MAX. NUMBER OF ITERATIONS:      500
 INTERPOLATION TYPE:            DIIS
 INTERPOLATION STEPS:              2 (START)      1 (STEP)
 LEVEL SHIFTS:                  0.00 (CLOSED)  0.00 (OPEN) 



 Orbital guess generated from atomic densities. Full valence occupancy:    7   2   2   0

 Molecular orbital dump at record        2100.2

 Initial occupancy:   5   1   1   0

 ITERATION    DDIFF          GRAD             ENERGY        2-EL.EN.            DIPOLE MOMENTS         DIIS   ORB.
    1      0.000D+00      0.000D+00       -92.89165977    112.169583    0.00000    0.00000   -1.78604    0    start
    2      0.000D+00      0.568D-02       -92.90091277    111.248723    0.00000    0.00000   -0.90480    1    diag
    3      0.436D-02      0.500D-02       -92.91610345    111.800323    0.00000    0.00000   -1.31016    2    diag
    4      0.223D-02      0.418D-03       -92.91633037    111.766142    0.00000    0.00000   -1.29809    3    diag
    5      0.417D-03      0.880D-04       -92.91634356    111.773686    0.00000    0.00000   -1.29658    4    diag
    6      0.103D-03      0.234D-04       -92.91634428    111.769357    0.00000    0.00000   -1.29670    5    diag
    7      0.196D-04      0.820D-05       -92.91634435    111.770585    0.00000    0.00000   -1.29674    6    diag
    8      0.654D-05      0.179D-05       -92.91634435    111.770519    0.00000    0.00000   -1.29671    7    diag
    9      0.140D-05      0.208D-06       -92.91634435    111.770528    0.00000    0.00000   -1.29670    8    diag
   10      0.218D-06      0.267D-07       -92.91634435    111.770529    0.00000    0.00000   -1.29670    9    orth
   11      0.261D-07      0.392D-08       -92.91634435    111.770529    0.00000    0.00000   -1.29670    9    diag
   12      0.466D-08      0.375D-09       -92.91634435    111.770529    0.00000    0.00000   -1.29670    9    diag
   13      0.120D-08      0.328D-10       -92.91634435    111.770529    0.00000    0.00000   -1.29670    9    diag
   14      0.119D-09      0.576D-11       -92.91634435    111.770529    0.00000    0.00000   -1.29670    9    diag
   15      0.141D-09      0.113D-11       -92.91634435    111.770529    0.00000    0.00000   -1.29670    9    diag
   16      0.684D-10      0.792D-12       -92.91634435    111.770529    0.00000    0.00000   -1.29670    9    diag
   17      0.350D-10      0.541D-12       -92.91634435    111.770529    0.00000    0.00000   -1.29670    9    diag
   18      0.289D-10      0.450D-12       -92.91634435    111.770529    0.00000    0.00000   -1.29670    9    diag
   19      0.173D-10      0.460D-12       -92.91634435    111.770529    0.00000    0.00000   -1.29670    9    fixocc
   20      0.152D-10      0.631D-12       -92.91634435    111.770529    0.00000    0.00000   -1.29670    9    orth
   21      0.166D-10      0.338D-12       -92.91634435    111.770529    0.00000    0.00000   -1.29670    9    diag
   22      0.448D-11      0.492D-12       -92.91634435    111.770529    0.00000    0.00000   -1.29670    9    diag
   23      0.456D-11      0.502D-12       -92.91634435    111.770529    0.00000    0.00000   -1.29670    9    diag
   24      0.312D-11      0.463D-12       -92.91634435    111.770529    0.00000    0.00000   -1.29670    9    diag
   25      0.213D-11      0.379D-12       -92.91634435    111.770529    0.00000    0.00000   -1.29670    0    orth

 Final occupancy:   5   1   1   0

 !RHF STATE 1.1 Energy                -92.916344352939
 Nuclear energy                        23.99590506
 One-electron energy                 -172.79751405
 Two-electron energy                   55.88526464
 Virial quotient                       -1.00180582
 !RHF STATE 1.1 Dipole moment           0.00000000     0.00000000    -1.29670227
 Dipole moment /Debye                   0.00000000     0.00000000    -3.29567256

 Orbital energies:

         1.1          2.1          3.1          4.1          5.1          6.1          7.1
    -15.596017   -11.289421    -1.238745    -0.810504    -0.581865     0.017575     0.053230

         1.2          2.2          3.2
     -0.498470     0.052444     0.101896

         1.3          2.3          3.3
     -0.498470     0.052444     0.101896

         1.4          2.4
      0.202666     0.326996

 HOMO      1.2    -0.498470 =     -13.5641eV
 LUMO      6.1     0.017575 =       0.4782eV
 LUMO-HOMO         0.516045 =      14.0423eV


 **********************************************************************************************************************************
 DATASETS  * FILE   NREC   LENGTH (MB)   RECORD NAMES
              1      19     3079.75       500      610      700      900      950      970     1000      129      960     1100   
                                          VAR    BASINP    GEOM    SYMINP    ZMAT    AOBASIS   BASIS     P2S    ABASIS      S 
                                         1400     1410     1200     1210     1080     1600     1650     1300     1700   
                                           T        V       H0       H01     AOSYM     SMH    MOLCAS    ERIS     OPER   

              2       4        3.46       700     1000      520     2100   
                                         GEOM     BASIS   MCVARS     RHF  

 PROGRAMS   *        TOTAL        HF       INT
 CPU TIMES  *       132.97     30.41    102.46
 REAL TIME  *       151.95 SEC
 DISK USED  *        10.04 GB      
 **********************************************************************************************************************************


 PROGRAM * CCSD (Closed-shell coupled cluster)     Authors: C. Hampel, H.-J. Werner, 1991, M. Deegan, P.J. Knowles, 1992


 Convergence thresholds:  THRVAR = 1.00D-08  THRDEN = 1.00D-12

 CCSD(T)     terms to be evaluated (factor= 1.000)


 Number of core orbitals:           2 (   2   0   0   0 )
 Number of closed-shell orbitals:   5 (   3   1   1   0 )
 Number of external orbitals:     327 ( 118  80  80  49 )

 Molecular orbitals read from record     2100.2  Type=RHF/CANONICAL (state 1.1)

 Number of N-1 electron functions:               5
 Number of N-2 electron functions:              15
 Number of singly external CSFs:               514
 Number of doubly external CSFs:            345689
 Total number of CSFs:                      346204

 Length of J-op  integral file:               0.00 MB
 Length of K-op  integral file:               2.14 MB
 Length of 3-ext integral record:             0.00 MB

 Memory could be reduced to 68.09 Mwords without degradation in triples

 Integral transformation finished. Total CPU:   4.32 sec, npass=  1  Memory used:   7.20 MW

 Reference energy:                    -92.91634435

 MP2 singlet pair energy:              -0.24431216
 MP2 triplet pair energy:              -0.13250223
 MP2 correlation energy:               -0.37681439
 MP2 total energy:                    -93.29315874

 SCS-MP2 correlation energy:           -0.37562042   (PS=  1.200000  PT=  0.333333)
 SCS-MP2 total energy:                -93.29196477

 ITER.      SQ.NORM     CORR.ENERGY   TOTAL ENERGY   ENERGY CHANGE        DEN1      VAR(S)    VAR(P)  DIIS     TIME  TIME/IT
   1      1.11464960    -0.37343969   -93.28978405     0.00337469     0.01661928  0.26D-02  0.31D-02  1  1     7.91     4.22
   2      1.12374006    -0.37363299   -93.28997734    -0.00019330    -0.01020501  0.65D-04  0.40D-03  2  2    11.55     4.30
   3      1.12863777    -0.37386267   -93.29020702    -0.00022968    -0.00257934  0.14D-04  0.46D-04  3  3    15.29     4.36
   4      1.13072664    -0.37392000   -93.29026435    -0.00005733    -0.00076405  0.67D-06  0.52D-05  4  4    18.95     4.32
   5      1.13128306    -0.37393022   -93.29027457    -0.00001022    -0.00015694  0.78D-07  0.45D-06  5  5    22.62     4.32
   6      1.13139440    -0.37392866   -93.29027301     0.00000156    -0.00002764  0.92D-08  0.37D-07  6  6    26.35     4.32
   7      1.13140375    -0.37392968   -93.29027403    -0.00000102    -0.00000119  0.87D-09  0.31D-08  6  1    30.14     4.33
   8      1.13140644    -0.37393009   -93.29027444    -0.00000041    -0.00000113  0.13D-09  0.28D-09  6  2    33.82     4.33
   9      1.13140654    -0.37393016   -93.29027451    -0.00000007     0.00000000  0.12D-10  0.19D-10  6  3    37.48     4.33
  10      1.13140642    -0.37393021   -93.29027456    -0.00000005     0.00000010  0.12D-11  0.17D-11  6  4    41.23     4.33
  11      1.13140636    -0.37393022   -93.29027457    -0.00000002     0.00000003  0.17D-12  0.16D-12  6  5    44.91     4.33
  12      1.13140630    -0.37393023   -93.29027458    -0.00000000     0.00000003  0.19D-13  0.26D-13  6  6    48.63     4.33
  13      1.13140627    -0.37393023   -93.29027458    -0.00000000     0.00000001  0.21D-14  0.51D-14  6  1    52.39     4.34
  14      1.13140625    -0.37393023   -93.29027458    -0.00000000     0.00000001  0.10D-15  0.79D-15  6  2    56.21     4.35
  15      1.13140625    -0.37393023   -93.29027458    -0.00000000     0.00000000  0.15D-16  0.11D-15  6  3    60.05     4.37
  16      1.13140625    -0.37393023   -93.29027458     0.00000000     0.00000000  0.20D-17  0.15D-16  6  4    63.88     4.38
  17      1.13140625    -0.37393023   -93.29027458     0.00000000     0.00000000  0.72D-18  0.22D-17  6  5    67.68     4.38
  18      1.13140625    -0.37393023   -93.29027458     0.00000000     0.00000000  0.25D-18  0.56D-18  6  6    71.44     4.39
  19      1.13140625    -0.37393023   -93.29027458     0.00000000     0.00000000  0.61D-19  0.18D-18  6  1    75.22     4.40
  20      1.13140625    -0.37393023   -93.29027458     0.00000000     0.00000000  0.28D-19  0.78D-19  6  3    79.14     4.40
  21      1.13140625    -0.37393023   -93.29027458    -0.00000000     0.00000000  0.33D-19  0.49D-19  6  2    82.75     4.39

 Norm of t1 vector:      0.06398467      S-energy:    -0.00000000      T1 diagnostic:  0.01430741
                                                                       D1 diagnostic:  0.02879485


 Total CPU time for triples:     22.00 sec


 RESULTS
 =======

  Reference energy                    -92.916344352940
  CCSD singlet pair energy             -0.262718749458
  CCSD triplet pair energy             -0.111211477963
  CCSD correlation energy              -0.373930227425

  Triples (T) contribution             -0.019835882949
  Total correlation energy             -0.393766110373

  CCSD total energy                   -93.290274580364
  CCSD[T] energy                      -93.310937677048
  CCSD-T energy                       -93.309744660500
 !CCSD(T) total energy                -93.310110463313

 Timing summary (sec):

 STEP                 CPU(USER)    SYS     CPU(TOT)    WALL
 Transformation          4.34      0.85      5.19      9.41
 CCSD iterations        78.42     13.49     91.91     92.29
 Triples                22.00      0.60     22.60     22.62

 Program statistics:

 Available memory in ccsd:               994999800
 Min. memory needed in ccsd:               1363289
 Max. memory used in ccsd:                 1637718
 Max. memory used in cckext:               2695008 (21 integral passes)



 **********************************************************************************************************************************
 DATASETS  * FILE   NREC   LENGTH (MB)   RECORD NAMES
              1      20     3263.97       500      610      700      900      950      970     1000      129      960     1100   
                                          VAR    BASINP    GEOM    SYMINP    ZMAT    AOBASIS   BASIS     P2S    ABASIS      S 
                                         1400     1410     1200     1210     1080     1600     1650     1300     1700     1380   
                                           T        V       H0       H01     AOSYM     SMH    MOLCAS    ERIS     OPER     JKOP   

              2       4        3.46       700     1000      520     2100   
                                         GEOM     BASIS   MCVARS     RHF  

 PROGRAMS   *        TOTAL   CCSD(T)        HF       INT
 CPU TIMES  *       237.75    104.79     30.41    102.46
 REAL TIME  *       276.65 SEC
 DISK USED  *        10.04 GB      
 **********************************************************************************************************************************

 CCSD(T)/aug-cc-pV5Z energy=    -93.310110463313

        CCSD(T)         HF-SCF  
    -93.31011046    -92.91634435
 **********************************************************************************************************************************
 Molpro calculation terminated
 Variable memory released
