
 Primary working directories    : /tmp/r2666/232425.maple
 Secondary working directories  : /tmp/r2666/232425.maple
 Wavefunction directory         : /ddn/home4/r2666/wfu/
 Main file repository           : /tmp/r2666/232425.maple/

 SHA1      : d5ffa45e93fdbca01ffc919aa182cfdae0147319
 NAME      : 2015.1.35
 ARCHNAME  : linux/x86_64
 FC        : /opt/intel/composer_xe_2015.1.133/bin/intel64/ifort
 BLASLIB   : -Wl,-_start-group /opt/intel/mkl/lib/intel64/libmkl_intel_ilp64.a /opt/intel/mkl/lib/intel64/libmkl_intel_thread.a /opt/intel/mkl/lib/intel64/libmkl_core.a -Wl,-_end-group
 id        : olemiss

 Nodes     nprocs
 cn087        1

 Using customized tuning parameters: mindgm=1; mindgv=20; mindgc=4; mindgr=1; noblas=0; minvec=7
 default implementation of scratch files=df  

 ***,hcn CCSD(T)/TZ-F12 QFF
 memory, 995, m;
 gthresh,energy=1.d-12,zero=1.d-22,oneint=1.d-22,twoint=1.d-22;
 gthresh,optgrad=1.d-8,optstep=1.d-8;
 nocompress;
 geomtyp=xyz
 bohr
 geometry={
 3
         34        34
 N        0.0000000000        0.0000000000        1.1341500209
 C        0.0000000000        0.0000000000       -1.0446996461
 H        0.0000000000        0.0000000000       -3.0865203569
 }
 
 basis=av5z
   {hf,maxit=500;accu,20;}
 {ccsd(t),nocheck,maxit=250;orbital,IGNORE_ERROR;}

 Variables initialized (889), CPU time= 0.01 sec
 Commands  initialized (702), CPU time= 0.01 sec, 572 directives.
 Default parameters read. Elapsed time= 0.07 sec

 Checking input...
 Passed
1


                                         ***  PROGRAM SYSTEM MOLPRO  ***
                                       Copyright, TTI GmbH Stuttgart, 2015
                                    Version 2015.1 linked Jul  9 2018 13:16:40


 **********************************************************************************************************************************
 LABEL *   hcn CCSD(T)/TZ-F12 QFF                                                        
  64 bit serial version                                                                  DATE: 06-Feb-20          TIME: 09:49:40  
 **********************************************************************************************************************************

 SHA1:             d5ffa45e93fdbca01ffc919aa182cfdae0147319
 **********************************************************************************************************************************

 THRESHOLDS:

 ZERO    =  1.00D-22  ONEINT  =  1.00D-22  TWOINT  =  1.00D-22  PREFAC  =  1.00D-14  LOCALI  =  1.00D-09  EORDER  =  1.00D-04
 ENERGY  =  1.00D-12  ETEST   =  0.00D+00  EDENS   =  0.00D+00  THRDEDEF=  1.00D-06  GRADIENT=  1.00D-02  STEP    =  1.00D-03
 ORBITAL =  1.00D-05  CIVEC   =  1.00D-05  COEFF   =  1.00D-04  PRINTCI =  5.00D-02  PUNCHCI =  9.90D+01  OPTGRAD =  3.00D-04
 OPTENERG=  1.00D-06  OPTSTEP =  3.00D-04  THRGRAD =  1.00D-10  COMPRESS=  1.00D-11  VARMIN  =  1.00D-07  VARMAX  =  1.00D-03
 THRDOUB =  0.00D+00  THRDIV  =  1.00D-05  THRRED  =  1.00D-07  THRPSP  =  1.00D+00  THRDC   =  1.00D-10  THRCS   =  1.00D-10
 THRNRM  =  1.00D-08  THREQ   =  0.00D+00  THRDE   =  1.00D+00  THRREF  =  1.00D-05  SPARFAC =  1.00D+00  THRDLP  =  1.00D-07
 THRDIA  =  1.00D-10  THRDLS  =  1.00D-07  THRGPS  =  0.00D+00  THRKEX  =  0.00D+00  THRDIS  =  2.00D-01  THRVAR  =  1.00D-10
 THRLOC  =  1.00D-06  THRGAP  =  1.00D-06  THRLOCT = -1.00D+00  THRGAPT = -1.00D+00  THRORB  =  1.00D-06  THRMLTP =  0.00D+00
 THRCPQCI=  1.00D-10  KEXTA   =  0.00D+00  THRCOARS=  0.00D+00  SYMTOL  =  1.00D-06  GRADTOL =  1.00D-06  THROVL  =  1.00D-08
 THRORTH =  1.00D-08  GRID    =  1.00D-06  GRIDMAX =  1.00D-03  DTMAX   =  0.00D+00  THROCCDE=  1.00D-01  THROCCDE=  1.00D-01



 THRESHOLDS:

 ZERO    =  1.00D-22  ONEINT  =  1.00D-22  TWOINT  =  1.00D-22  PREFAC  =  1.00D-14  LOCALI  =  1.00D-09  EORDER  =  1.00D-04
 ENERGY  =  1.00D-12  ETEST   =  0.00D+00  EDENS   =  0.00D+00  THRDEDEF=  1.00D-06  GRADIENT=  1.00D-02  STEP    =  1.00D-03
 ORBITAL =  1.00D-05  CIVEC   =  1.00D-05  COEFF   =  1.00D-04  PRINTCI =  5.00D-02  PUNCHCI =  9.90D+01  OPTGRAD =  1.00D-08
 OPTENERG=  1.00D-06  OPTSTEP =  1.00D-08  THRGRAD =  1.00D-10  COMPRESS=  1.00D-11  VARMIN  =  1.00D-07  VARMAX  =  1.00D-03
 THRDOUB =  0.00D+00  THRDIV  =  1.00D-05  THRRED  =  1.00D-07  THRPSP  =  1.00D+00  THRDC   =  1.00D-10  THRCS   =  1.00D-10
 THRNRM  =  1.00D-08  THREQ   =  0.00D+00  THRDE   =  1.00D+00  THRREF  =  1.00D-05  SPARFAC =  1.00D+00  THRDLP  =  1.00D-07
 THRDIA  =  1.00D-10  THRDLS  =  1.00D-07  THRGPS  =  0.00D+00  THRKEX  =  0.00D+00  THRDIS  =  2.00D-01  THRVAR  =  1.00D-10
 THRLOC  =  1.00D-06  THRGAP  =  1.00D-06  THRLOCT = -1.00D+00  THRGAPT = -1.00D+00  THRORB  =  1.00D-06  THRMLTP =  0.00D+00
 THRCPQCI=  1.00D-10  KEXTA   =  0.00D+00  THRCOARS=  0.00D+00  SYMTOL  =  1.00D-06  GRADTOL =  1.00D-06  THROVL  =  1.00D-08
 THRORTH =  1.00D-08  GRID    =  1.00D-06  GRIDMAX =  1.00D-03  DTMAX   =  0.00D+00  THROCCDE=  1.00D-01  THROCCDE=  1.00D-01



 Input parameters for SORTINT:

 COMPRESS =    0.000000
 C_FINAL  =    1.000000
 DEBUG    =   -1.000000
 C_SORT1  =    0.000000
 C_SEWARD =    0.000000
 THRESH   =    0.000000
 IO       =  molpro                                                          
 SPRI     =    0.000000
 SETTING GEOMTYP        =    XYZ
 ZUNIT=BOHR
 

 Variable memory set to  995000000 words,  buffer space   230000 words

 SETTING BASIS          =    AV5Z


 Recomputing integrals since basis changed


 Using spherical harmonics

 Library entry N      S aug-cc-pV5Z          selected for orbital group  1
 Library entry N      P aug-cc-pV5Z          selected for orbital group  1
 Library entry N      D aug-cc-pV5Z          selected for orbital group  1
 Library entry N      F aug-cc-pV5Z          selected for orbital group  1
 Library entry N      G aug-cc-pV5Z          selected for orbital group  1
 Library entry N      H aug-cc-pV5Z          selected for orbital group  1
 Library entry C      S aug-cc-pV5Z          selected for orbital group  2
 Library entry C      P aug-cc-pV5Z          selected for orbital group  2
 Library entry C      D aug-cc-pV5Z          selected for orbital group  2
 Library entry C      F aug-cc-pV5Z          selected for orbital group  2
 Library entry C      G aug-cc-pV5Z          selected for orbital group  2
 Library entry C      H aug-cc-pV5Z          selected for orbital group  2
 Library entry H      S aug-cc-pV5Z          selected for orbital group  3
 Library entry H      P aug-cc-pV5Z          selected for orbital group  3
 Library entry H      D aug-cc-pV5Z          selected for orbital group  3
 Library entry H      F aug-cc-pV5Z          selected for orbital group  3
 Library entry H      G aug-cc-pV5Z          selected for orbital group  3


 PROGRAM * SEWARD (Integral evaluation for generally contracted gaussian basis sets)     Author: Roland Lindh, 1990

 Geometry written to block  1 of record 700


 Point group  C2v 



 ATOMIC COORDINATES

 NR  ATOM    CHARGE       X              Y              Z

   1  N       7.00    0.000000000    0.000000000    1.134150021
   2  C       6.00    0.000000000    0.000000000   -1.044699646
   3  H       1.00    0.000000000    0.000000000   -3.086520357

 Bond lengths in Bohr (Angstrom)

 1-2  2.178849667  2-3  2.041820711
     ( 1.152997590)     ( 1.080484989)

 Bond angles

  1-2-3  180.00000000

 NUCLEAR CHARGE:                   14
 NUMBER OF PRIMITIVE AOS:         506
 NUMBER OF SYMMETRY AOS:          371
 NUMBER OF CONTRACTIONS:          334   ( 123A1  +  81B1  +  81B2  +  49A2  )
 NUMBER OF CORE ORBITALS:           2   (   2A1  +   0B1  +   0B2  +   0A2  )
 NUMBER OF VALENCE ORBITALS:        9   (   5A1  +   2B1  +   2B2  +   0A2  )


 NUCLEAR REPULSION ENERGY   23.87328474

 EXTRA SYMMETRY OF AOS IN SYMMETRY 1:   1 1 1 1 1 1 1 1 1 1   1 1 1 1 2 1 2 1 2 1   2 1 2 1 2 1 2 1 2 1   2 1 3 2 1 3 2 1 3 2
                                        2 3 1 2 3 1 1 1 1 1   1 1 1 1 1 1 1 1 1 1   2 1 2 1 2 1 2 1 2 1   2 1 2 1 2 1 2 1 3 2
                                        1 3 2 1 3 2 2 3 1 2   3 1 1 1 1 1 1 1 1 1   1 1 1 1 2 1 2 1 2 1   2 1 2 1 2 1 2 1 3 2
                                        1 3 2
 EXTRA SYMMETRY OF AOS IN SYMMETRY 2:   1 1 1 1 1 1 1 1 1 1   1 1 2 1 2 1 2 1 2 1   2 1 2 1 2 1 2 3 1 2   3 1 1 1 1 1 1 1 1 1
                                        1 1 1 2 1 2 1 2 1 2   1 2 1 2 1 2 1 2 3 1   2 3 1 1 1 1 1 1 1 1   1 1 2 1 2 1 2 1 2 1
                                        2
 EXTRA SYMMETRY OF AOS IN SYMMETRY 3:   1 1 1 1 1 1 1 1 1 1   1 1 2 1 2 1 2 1 2 1   2 1 2 1 2 1 2 3 1 2   3 1 1 1 1 1 1 1 1 1
                                        1 1 1 2 1 2 1 2 1 2   1 2 1 2 1 2 1 2 3 1   2 3 1 1 1 1 1 1 1 1   1 1 2 1 2 1 2 1 2 1
                                        2
 EXTRA SYMMETRY OF AOS IN SYMMETRY 4:   1 1 1 1 1 1 1 1 1 1   2 1 2 1 2 2 1 2 1 1   1 1 1 1 1 1 1 1 1 2   1 2 1 2 2 1 2 1 1 1
                                        1 1 1 1 1 1 2 1 2

 Eigenvalues of metric

         1 0.260E-05 0.562E-05 0.150E-04 0.363E-04 0.585E-04 0.707E-04 0.176E-03 0.223E-03
         2 0.571E-04 0.197E-03 0.377E-03 0.717E-03 0.940E-03 0.159E-02 0.187E-02 0.371E-02
         3 0.571E-04 0.197E-03 0.377E-03 0.717E-03 0.940E-03 0.159E-02 0.187E-02 0.371E-02
         4 0.768E-03 0.229E-02 0.485E-02 0.724E-02 0.178E-01 0.239E-01 0.257E-01 0.655E-01


 Contracted 2-electron integrals neglected if value below      1.0D-22

      355125699. INTEGRALS WRITTEN OUT IN   86722 BLOCKS ON RECORD 1290 OF FILE 1


 NUMBER OF SORTED TWO-ELECTRON INTEGRALS:  396972178.     BUFFER LENGTH:  32768
 NUMBER OF SEGMENTS:  13  SEGMENT LENGTH:   31999071      RECORD LENGTH: 524288

 Memory used in sort:      32.56 MW

 SORT1 READ   355125699. AND WROTE   358298806. INTEGRALS IN   1031 RECORDS. CPU TIME:     9.22 SEC, REAL TIME:    11.65 SEC
 SORT2 READ   358298806. AND WROTE   396972178. INTEGRALS IN     13 RECORDS. CPU TIME:     4.83 SEC, REAL TIME:     6.48 SEC

 FILE SIZES:   FILE 1:  5705.8 MBYTE,  FILE 4:  4324.4 MBYTE,   TOTAL:  10030.1 MBYTE

 OPERATOR DM      FOR CENTER  0  COORDINATES:    0.000000    0.000000    0.000000


 **********************************************************************************************************************************
 DATASETS  * FILE   NREC   LENGTH (MB)   RECORD NAMES
              1      19     3078.97       500      610      700      900      950      970     1000      129      960     1100   
                                          VAR    BASINP    GEOM    SYMINP    ZMAT    AOBASIS   BASIS     P2S    ABASIS      S 
                                         1400     1410     1200     1210     1080     1600     1650     1300     1700   
                                           T        V       H0       H01     AOSYM     SMH    MOLCAS    ERIS     OPER   

 PROGRAMS   *        TOTAL       INT
 CPU TIMES  *        82.80     82.70
 REAL TIME  *        90.20 SEC
 DISK USED  *        10.03 GB      
 **********************************************************************************************************************************


 PROGRAM * RHF-SCF (CLOSED SHELL)       Authors: W. Meyer, H.-J. Werner


 NUMBER OF ELECTRONS:       7+    7-
 CONVERGENCE THRESHOLDS:    1.00E-10 (Density)    1.00E-13 (Energy)
 MAX. NUMBER OF ITERATIONS:      500
 INTERPOLATION TYPE:            DIIS
 INTERPOLATION STEPS:              2 (START)      1 (STEP)
 LEVEL SHIFTS:                  0.00 (CLOSED)  0.00 (OPEN) 



 Orbital guess generated from atomic densities. Full valence occupancy:    7   2   2   0

 Molecular orbital dump at record        2100.2

 Initial occupancy:   5   1   1   0

 ITERATION    DDIFF          GRAD             ENERGY        2-EL.EN.            DIPOLE MOMENTS         DIIS   ORB.
    1      0.000D+00      0.000D+00       -92.89032271    111.922080    0.00000    0.00000   -1.80285    0    start
    2      0.000D+00      0.572D-02       -92.89937267    111.020817    0.00000    0.00000   -0.90185    1    diag
    3      0.440D-02      0.509D-02       -92.91514637    111.573412    0.00000    0.00000   -1.31691    2    diag
    4      0.226D-02      0.417D-03       -92.91537452    111.536812    0.00000    0.00000   -1.30493    3    diag
    5      0.417D-03      0.901D-04       -92.91538812    111.546072    0.00000    0.00000   -1.30338    4    diag
    6      0.104D-03      0.246D-04       -92.91538894    111.541229    0.00000    0.00000   -1.30345    5    diag
    7      0.210D-04      0.875D-05       -92.91538902    111.542460    0.00000    0.00000   -1.30350    6    diag
    8      0.701D-05      0.187D-05       -92.91538902    111.542401    0.00000    0.00000   -1.30347    7    diag
    9      0.146D-05      0.216D-06       -92.91538902    111.542409    0.00000    0.00000   -1.30347    8    diag
   10      0.226D-06      0.270D-07       -92.91538902    111.542411    0.00000    0.00000   -1.30347    9    orth
   11      0.264D-07      0.390D-08       -92.91538902    111.542411    0.00000    0.00000   -1.30347    9    diag
   12      0.489D-08      0.379D-09       -92.91538902    111.542411    0.00000    0.00000   -1.30347    9    diag
   13      0.111D-08      0.337D-10       -92.91538902    111.542411    0.00000    0.00000   -1.30347    9    diag
   14      0.160D-09      0.680D-11       -92.91538902    111.542411    0.00000    0.00000   -1.30347    9    diag
   15      0.104D-09      0.132D-11       -92.91538902    111.542411    0.00000    0.00000   -1.30347    9    diag
   16      0.602D-10      0.645D-12       -92.91538902    111.542411    0.00000    0.00000   -1.30347    9    diag
   17      0.414D-10      0.579D-12       -92.91538902    111.542411    0.00000    0.00000   -1.30347    0    orth

 Final occupancy:   5   1   1   0

 !RHF STATE 1.1 Energy                -92.915389021248
 Nuclear energy                        23.87328474
 One-electron energy                 -172.55987904
 Two-electron energy                   55.77120527
 Virial quotient                       -1.00226320
 !RHF STATE 1.1 Dipole moment           0.00000000     0.00000000    -1.30346792
 Dipole moment /Debye                   0.00000000     0.00000000    -3.31286800

 Orbital energies:

         1.1          2.1          3.1          4.1          5.1          6.1          7.1
    -15.597644   -11.292008    -1.236273    -0.807393    -0.581796     0.017516     0.053211

         1.2          2.2          3.2
     -0.496809     0.052466     0.101753

         1.3          2.3          3.3
     -0.496809     0.052466     0.101753

         1.4          2.4
      0.202852     0.327277

 HOMO      1.2    -0.496809 =     -13.5189eV
 LUMO      6.1     0.017516 =       0.4766eV
 LUMO-HOMO         0.514326 =      13.9955eV


 **********************************************************************************************************************************
 DATASETS  * FILE   NREC   LENGTH (MB)   RECORD NAMES
              1      19     3078.97       500      610      700      900      950      970     1000      129      960     1100   
                                          VAR    BASINP    GEOM    SYMINP    ZMAT    AOBASIS   BASIS     P2S    ABASIS      S 
                                         1400     1410     1200     1210     1080     1600     1650     1300     1700   
                                           T        V       H0       H01     AOSYM     SMH    MOLCAS    ERIS     OPER   

              2       4        3.46       700     1000      520     2100   
                                         GEOM     BASIS   MCVARS     RHF  

 PROGRAMS   *        TOTAL        HF       INT
 CPU TIMES  *       101.56     18.76     82.70
 REAL TIME  *       113.45 SEC
 DISK USED  *        10.03 GB      
 **********************************************************************************************************************************


 PROGRAM * CCSD (Closed-shell coupled cluster)     Authors: C. Hampel, H.-J. Werner, 1991, M. Deegan, P.J. Knowles, 1992


 Convergence thresholds:  THRVAR = 1.00D-08  THRDEN = 1.00D-12

 CCSD(T)     terms to be evaluated (factor= 1.000)


 Number of core orbitals:           2 (   2   0   0   0 )
 Number of closed-shell orbitals:   5 (   3   1   1   0 )
 Number of external orbitals:     327 ( 118  80  80  49 )

 Molecular orbitals read from record     2100.2  Type=RHF/CANONICAL (state 1.1)

 Number of N-1 electron functions:               5
 Number of N-2 electron functions:              15
 Number of singly external CSFs:               514
 Number of doubly external CSFs:            345689
 Total number of CSFs:                      346204

 Length of J-op  integral file:               0.00 MB
 Length of K-op  integral file:               2.14 MB
 Length of 3-ext integral record:             0.00 MB

 Memory could be reduced to 68.09 Mwords without degradation in triples

 Integral transformation finished. Total CPU:   3.01 sec, npass=  1  Memory used:   7.20 MW

 Reference energy:                    -92.91538902

 MP2 singlet pair energy:              -0.24490532
 MP2 triplet pair energy:              -0.13295600
 MP2 correlation energy:               -0.37786131
 MP2 total energy:                    -93.29325034

 SCS-MP2 correlation energy:           -0.37661456   (PS=  1.200000  PT=  0.333333)
 SCS-MP2 total energy:                -93.29200358

 ITER.      SQ.NORM     CORR.ENERGY   TOTAL ENERGY   ENERGY CHANGE        DEN1      VAR(S)    VAR(P)  DIIS     TIME  TIME/IT
   1      1.11544575    -0.37421885   -93.28960788     0.00364246     0.01712561  0.26D-02  0.32D-02  1  1     5.86     3.36
   2      1.12469576    -0.37437715   -93.28976617    -0.00015830    -0.01035078  0.67D-04  0.41D-03  2  2     8.75     3.35
   3      1.12971252    -0.37461528   -93.29000430    -0.00023813    -0.00262392  0.14D-04  0.47D-04  3  3    11.63     3.35
   4      1.13186535    -0.37467538   -93.29006441    -0.00006010    -0.00078216  0.69D-06  0.55D-05  4  4    14.53     3.35
   5      1.13244333    -0.37468638   -93.29007540    -0.00001100    -0.00016205  0.84D-07  0.48D-06  5  5    17.40     3.35
   6      1.13256197    -0.37468471   -93.29007373     0.00000167    -0.00002945  0.10D-07  0.40D-07  6  6    20.23     3.35
   7      1.13257202    -0.37468578   -93.29007480    -0.00000107    -0.00000125  0.91D-09  0.33D-08  6  1    23.16     3.36
   8      1.13257494    -0.37468620   -93.29007522    -0.00000042    -0.00000123  0.14D-09  0.30D-09  6  2    26.22     3.39
   9      1.13257506    -0.37468627   -93.29007529    -0.00000007     0.00000001  0.12D-10  0.21D-10  6  3    29.12     3.40
  10      1.13257493    -0.37468632   -93.29007535    -0.00000005     0.00000011  0.13D-11  0.19D-11  6  4    31.97     3.39
  11      1.13257486    -0.37468634   -93.29007536    -0.00000002     0.00000003  0.17D-12  0.18D-12  6  5    34.79     3.39
  12      1.13257480    -0.37468635   -93.29007537    -0.00000001     0.00000003  0.19D-13  0.28D-13  6  6    37.69     3.38
  13      1.13257477    -0.37468635   -93.29007537    -0.00000000     0.00000001  0.21D-14  0.55D-14  6  1    40.55     3.38
  14      1.13257475    -0.37468635   -93.29007537    -0.00000000     0.00000001  0.98D-16  0.87D-15  6  2    43.51     3.37
  15      1.13257474    -0.37468635   -93.29007537    -0.00000000     0.00000000  0.18D-16  0.12D-15  6  3    46.30     3.37
  16      1.13257474    -0.37468635   -93.29007537     0.00000000     0.00000000  0.20D-17  0.16D-16  6  4    49.17     3.37
  17      1.13257474    -0.37468635   -93.29007537     0.00000000     0.00000000  0.73D-18  0.25D-17  6  5    51.98     3.37
  18      1.13257474    -0.37468635   -93.29007537     0.00000000     0.00000000  0.22D-18  0.53D-18  6  6    54.85     3.37
  19      1.13257474    -0.37468635   -93.29007537     0.00000000     0.00000000  0.60D-19  0.19D-18  6  1    57.74     3.37
  20      1.13257474    -0.37468635   -93.29007537     0.00000000     0.00000000  0.35D-19  0.10D-18  6  3    60.67     3.36
  21      1.13257474    -0.37468635   -93.29007537    -0.00000000     0.00000000  0.40D-19  0.82D-19  6  2    63.50     3.36

 Norm of t1 vector:      0.06473632      S-energy:    -0.00000000      T1 diagnostic:  0.01447548
                                                                       D1 diagnostic:  0.02911933


 Total CPU time for triples:     18.76 sec


 RESULTS
 =======

  Reference energy                    -92.915389021248
  CCSD singlet pair energy             -0.263372730027
  CCSD triplet pair energy             -0.111313617609
  CCSD correlation energy              -0.374686347641

  Triples (T) contribution             -0.020026359014
  Total correlation energy             -0.394712706654

  CCSD total energy                   -93.290075368888
  CCSD[T] energy                      -93.310949846185
  CCSD-T energy                       -93.309727756873
 !CCSD(T) total energy                -93.310101727902

 Timing summary (sec):

 STEP                 CPU(USER)    SYS     CPU(TOT)    WALL
 Transformation          3.02      0.75      3.77      3.81
 CCSD iterations        60.48     10.17     70.65     70.66
 Triples                18.76      0.56     19.32     19.32

 Program statistics:

 Available memory in ccsd:               994999800
 Min. memory needed in ccsd:               1363289
 Max. memory used in ccsd:                 1637718
 Max. memory used in cckext:               2695008 (21 integral passes)



 **********************************************************************************************************************************
 DATASETS  * FILE   NREC   LENGTH (MB)   RECORD NAMES
              1      20     3263.19       500      610      700      900      950      970     1000      129      960     1100   
                                          VAR    BASINP    GEOM    SYMINP    ZMAT    AOBASIS   BASIS     P2S    ABASIS      S 
                                         1400     1410     1200     1210     1080     1600     1650     1300     1700     1380   
                                           T        V       H0       H01     AOSYM     SMH    MOLCAS    ERIS     OPER     JKOP   

              2       4        3.46       700     1000      520     2100   
                                         GEOM     BASIS   MCVARS     RHF  

 PROGRAMS   *        TOTAL   CCSD(T)        HF       INT
 CPU TIMES  *       183.84     82.28     18.76     82.70
 REAL TIME  *       207.29 SEC
 DISK USED  *        10.03 GB      
 **********************************************************************************************************************************

 CCSD(T)/aug-cc-pV5Z energy=    -93.310101727902

        CCSD(T)         HF-SCF  
    -93.31010173    -92.91538902
 **********************************************************************************************************************************
 Molpro calculation terminated
 Variable memory released
