
 Primary working directories    : /tmp/r2666/232421.maple
 Secondary working directories  : /tmp/r2666/232421.maple
 Wavefunction directory         : /ddn/home4/r2666/wfu/
 Main file repository           : /tmp/r2666/232421.maple/

 SHA1      : d5ffa45e93fdbca01ffc919aa182cfdae0147319
 NAME      : 2015.1.35
 ARCHNAME  : linux/x86_64
 FC        : /opt/intel/composer_xe_2015.1.133/bin/intel64/ifort
 BLASLIB   : -Wl,-_start-group /opt/intel/mkl/lib/intel64/libmkl_intel_ilp64.a /opt/intel/mkl/lib/intel64/libmkl_intel_thread.a /opt/intel/mkl/lib/intel64/libmkl_core.a -Wl,-_end-group
 id        : olemiss

 Nodes     nprocs
 cn088        1

 Using customized tuning parameters: mindgm=1; mindgv=20; mindgc=4; mindgr=1; noblas=0; minvec=7
 default implementation of scratch files=df  

 ***,hcn CCSD(T)/TZ-F12 QFF
 memory, 995, m;
 gthresh,energy=1.d-12,zero=1.d-22,oneint=1.d-22,twoint=1.d-22;
 gthresh,optgrad=1.d-8,optstep=1.d-8;
 nocompress;
 geomtyp=xyz
 bohr
 geometry={
 3
         30        30
 N        0.0000000000        0.0000000000        1.1278509343
 C        0.0000000000        0.0000000000       -1.0509987327
 H        0.0000000000        0.0000000000       -3.0739221836
 }
 
 basis=av5z
   {hf,maxit=500;accu,20;}
 {ccsd(t),nocheck,maxit=250;orbital,IGNORE_ERROR;}

 Variables initialized (889), CPU time= 0.01 sec
 Commands  initialized (702), CPU time= 0.01 sec, 572 directives.
 Default parameters read. Elapsed time= 0.07 sec

 Checking input...
 Passed
1


                                         ***  PROGRAM SYSTEM MOLPRO  ***
                                       Copyright, TTI GmbH Stuttgart, 2015
                                    Version 2015.1 linked Jul  9 2018 13:16:40


 **********************************************************************************************************************************
 LABEL *   hcn CCSD(T)/TZ-F12 QFF                                                        
  64 bit serial version                                                                  DATE: 06-Feb-20          TIME: 09:49:39  
 **********************************************************************************************************************************

 SHA1:             d5ffa45e93fdbca01ffc919aa182cfdae0147319
 **********************************************************************************************************************************

 THRESHOLDS:

 ZERO    =  1.00D-22  ONEINT  =  1.00D-22  TWOINT  =  1.00D-22  PREFAC  =  1.00D-14  LOCALI  =  1.00D-09  EORDER  =  1.00D-04
 ENERGY  =  1.00D-12  ETEST   =  0.00D+00  EDENS   =  0.00D+00  THRDEDEF=  1.00D-06  GRADIENT=  1.00D-02  STEP    =  1.00D-03
 ORBITAL =  1.00D-05  CIVEC   =  1.00D-05  COEFF   =  1.00D-04  PRINTCI =  5.00D-02  PUNCHCI =  9.90D+01  OPTGRAD =  3.00D-04
 OPTENERG=  1.00D-06  OPTSTEP =  3.00D-04  THRGRAD =  1.00D-10  COMPRESS=  1.00D-11  VARMIN  =  1.00D-07  VARMAX  =  1.00D-03
 THRDOUB =  0.00D+00  THRDIV  =  1.00D-05  THRRED  =  1.00D-07  THRPSP  =  1.00D+00  THRDC   =  1.00D-10  THRCS   =  1.00D-10
 THRNRM  =  1.00D-08  THREQ   =  0.00D+00  THRDE   =  1.00D+00  THRREF  =  1.00D-05  SPARFAC =  1.00D+00  THRDLP  =  1.00D-07
 THRDIA  =  1.00D-10  THRDLS  =  1.00D-07  THRGPS  =  0.00D+00  THRKEX  =  0.00D+00  THRDIS  =  2.00D-01  THRVAR  =  1.00D-10
 THRLOC  =  1.00D-06  THRGAP  =  1.00D-06  THRLOCT = -1.00D+00  THRGAPT = -1.00D+00  THRORB  =  1.00D-06  THRMLTP =  0.00D+00
 THRCPQCI=  1.00D-10  KEXTA   =  0.00D+00  THRCOARS=  0.00D+00  SYMTOL  =  1.00D-06  GRADTOL =  1.00D-06  THROVL  =  1.00D-08
 THRORTH =  1.00D-08  GRID    =  1.00D-06  GRIDMAX =  1.00D-03  DTMAX   =  0.00D+00  THROCCDE=  1.00D-01  THROCCDE=  1.00D-01



 THRESHOLDS:

 ZERO    =  1.00D-22  ONEINT  =  1.00D-22  TWOINT  =  1.00D-22  PREFAC  =  1.00D-14  LOCALI  =  1.00D-09  EORDER  =  1.00D-04
 ENERGY  =  1.00D-12  ETEST   =  0.00D+00  EDENS   =  0.00D+00  THRDEDEF=  1.00D-06  GRADIENT=  1.00D-02  STEP    =  1.00D-03
 ORBITAL =  1.00D-05  CIVEC   =  1.00D-05  COEFF   =  1.00D-04  PRINTCI =  5.00D-02  PUNCHCI =  9.90D+01  OPTGRAD =  1.00D-08
 OPTENERG=  1.00D-06  OPTSTEP =  1.00D-08  THRGRAD =  1.00D-10  COMPRESS=  1.00D-11  VARMIN  =  1.00D-07  VARMAX  =  1.00D-03
 THRDOUB =  0.00D+00  THRDIV  =  1.00D-05  THRRED  =  1.00D-07  THRPSP  =  1.00D+00  THRDC   =  1.00D-10  THRCS   =  1.00D-10
 THRNRM  =  1.00D-08  THREQ   =  0.00D+00  THRDE   =  1.00D+00  THRREF  =  1.00D-05  SPARFAC =  1.00D+00  THRDLP  =  1.00D-07
 THRDIA  =  1.00D-10  THRDLS  =  1.00D-07  THRGPS  =  0.00D+00  THRKEX  =  0.00D+00  THRDIS  =  2.00D-01  THRVAR  =  1.00D-10
 THRLOC  =  1.00D-06  THRGAP  =  1.00D-06  THRLOCT = -1.00D+00  THRGAPT = -1.00D+00  THRORB  =  1.00D-06  THRMLTP =  0.00D+00
 THRCPQCI=  1.00D-10  KEXTA   =  0.00D+00  THRCOARS=  0.00D+00  SYMTOL  =  1.00D-06  GRADTOL =  1.00D-06  THROVL  =  1.00D-08
 THRORTH =  1.00D-08  GRID    =  1.00D-06  GRIDMAX =  1.00D-03  DTMAX   =  0.00D+00  THROCCDE=  1.00D-01  THROCCDE=  1.00D-01



 Input parameters for SORTINT:

 COMPRESS =    0.000000
 C_FINAL  =    1.000000
 DEBUG    =   -1.000000
 C_SORT1  =    0.000000
 C_SEWARD =    0.000000
 THRESH   =    0.000000
 IO       =  molpro                                                          
 SPRI     =    0.000000
 SETTING GEOMTYP        =    XYZ
 ZUNIT=BOHR
 

 Variable memory set to  995000000 words,  buffer space   230000 words

 SETTING BASIS          =    AV5Z


 Recomputing integrals since basis changed


 Using spherical harmonics

 Library entry N      S aug-cc-pV5Z          selected for orbital group  1
 Library entry N      P aug-cc-pV5Z          selected for orbital group  1
 Library entry N      D aug-cc-pV5Z          selected for orbital group  1
 Library entry N      F aug-cc-pV5Z          selected for orbital group  1
 Library entry N      G aug-cc-pV5Z          selected for orbital group  1
 Library entry N      H aug-cc-pV5Z          selected for orbital group  1
 Library entry C      S aug-cc-pV5Z          selected for orbital group  2
 Library entry C      P aug-cc-pV5Z          selected for orbital group  2
 Library entry C      D aug-cc-pV5Z          selected for orbital group  2
 Library entry C      F aug-cc-pV5Z          selected for orbital group  2
 Library entry C      G aug-cc-pV5Z          selected for orbital group  2
 Library entry C      H aug-cc-pV5Z          selected for orbital group  2
 Library entry H      S aug-cc-pV5Z          selected for orbital group  3
 Library entry H      P aug-cc-pV5Z          selected for orbital group  3
 Library entry H      D aug-cc-pV5Z          selected for orbital group  3
 Library entry H      F aug-cc-pV5Z          selected for orbital group  3
 Library entry H      G aug-cc-pV5Z          selected for orbital group  3


 PROGRAM * SEWARD (Integral evaluation for generally contracted gaussian basis sets)     Author: Roland Lindh, 1990

 Geometry written to block  1 of record 700


 Point group  C2v 



 ATOMIC COORDINATES

 NR  ATOM    CHARGE       X              Y              Z

   1  N       7.00    0.000000000    0.000000000    1.127850934
   2  C       6.00    0.000000000    0.000000000   -1.050998733
   3  H       1.00    0.000000000    0.000000000   -3.073922184

 Bond lengths in Bohr (Angstrom)

 1-2  2.178849667  2-3  2.022923451
     ( 1.152997590)     ( 1.070484990)

 Bond angles

  1-2-3  180.00000000

 NUCLEAR CHARGE:                   14
 NUMBER OF PRIMITIVE AOS:         506
 NUMBER OF SYMMETRY AOS:          371
 NUMBER OF CONTRACTIONS:          334   ( 123A1  +  81B1  +  81B2  +  49A2  )
 NUMBER OF CORE ORBITALS:           2   (   2A1  +   0B1  +   0B2  +   0A2  )
 NUMBER OF VALENCE ORBITALS:        9   (   5A1  +   2B1  +   2B2  +   0A2  )


 NUCLEAR REPULSION ENERGY   23.90819446

 EXTRA SYMMETRY OF AOS IN SYMMETRY 1:   1 1 1 1 1 1 1 1 1 1   1 1 1 1 2 1 2 1 2 1   2 1 2 1 2 1 2 1 2 1   2 1 3 2 1 3 2 1 3 2
                                        2 3 1 2 3 1 1 1 1 1   1 1 1 1 1 1 1 1 1 1   2 1 2 1 2 1 2 1 2 1   2 1 2 1 2 1 2 1 3 2
                                        1 3 2 1 3 2 2 3 1 2   3 1 1 1 1 1 1 1 1 1   1 1 1 1 2 1 2 1 2 1   2 1 2 1 2 1 2 1 3 2
                                        1 3 2
 EXTRA SYMMETRY OF AOS IN SYMMETRY 2:   1 1 1 1 1 1 1 1 1 1   1 1 2 1 2 1 2 1 2 1   2 1 2 1 2 1 2 3 1 2   3 1 1 1 1 1 1 1 1 1
                                        1 1 1 2 1 2 1 2 1 2   1 2 1 2 1 2 1 2 3 1   2 3 1 1 1 1 1 1 1 1   1 1 2 1 2 1 2 1 2 1
                                        2
 EXTRA SYMMETRY OF AOS IN SYMMETRY 3:   1 1 1 1 1 1 1 1 1 1   1 1 2 1 2 1 2 1 2 1   2 1 2 1 2 1 2 3 1 2   3 1 1 1 1 1 1 1 1 1
                                        1 1 1 2 1 2 1 2 1 2   1 2 1 2 1 2 1 2 3 1   2 3 1 1 1 1 1 1 1 1   1 1 2 1 2 1 2 1 2 1
                                        2
 EXTRA SYMMETRY OF AOS IN SYMMETRY 4:   1 1 1 1 1 1 1 1 1 1   2 1 2 1 2 2 1 2 1 1   1 1 1 1 1 1 1 1 1 2   1 2 1 2 2 1 2 1 1 1
                                        1 1 1 1 1 1 2 1 2

 Eigenvalues of metric

         1 0.251E-05 0.557E-05 0.147E-04 0.357E-04 0.582E-04 0.697E-04 0.175E-03 0.222E-03
         2 0.565E-04 0.186E-03 0.373E-03 0.705E-03 0.932E-03 0.155E-02 0.186E-02 0.370E-02
         3 0.565E-04 0.186E-03 0.373E-03 0.705E-03 0.932E-03 0.155E-02 0.186E-02 0.370E-02
         4 0.768E-03 0.222E-02 0.486E-02 0.707E-02 0.171E-01 0.236E-01 0.254E-01 0.643E-01


 Contracted 2-electron integrals neglected if value below      1.0D-22

      355205001. INTEGRALS WRITTEN OUT IN   86742 BLOCKS ON RECORD 1290 OF FILE 1


 NUMBER OF SORTED TWO-ELECTRON INTEGRALS:  396972178.     BUFFER LENGTH:  32768
 NUMBER OF SEGMENTS:  13  SEGMENT LENGTH:   31999071      RECORD LENGTH: 524288

 Memory used in sort:      32.56 MW

 SORT1 READ   355205001. AND WROTE   358378653. INTEGRALS IN   1032 RECORDS. CPU TIME:     9.45 SEC, REAL TIME:    12.31 SEC
 SORT2 READ   358378653. AND WROTE   396972178. INTEGRALS IN     13 RECORDS. CPU TIME:     5.10 SEC, REAL TIME:     7.17 SEC

 FILE SIZES:   FILE 1:  5707.1 MBYTE,  FILE 4:  4328.6 MBYTE,   TOTAL:  10035.6 MBYTE

 OPERATOR DM      FOR CENTER  0  COORDINATES:    0.000000    0.000000    0.000000


 **********************************************************************************************************************************
 DATASETS  * FILE   NREC   LENGTH (MB)   RECORD NAMES
              1      19     3079.46       500      610      700      900      950      970     1000      129      960     1100   
                                          VAR    BASINP    GEOM    SYMINP    ZMAT    AOBASIS   BASIS     P2S    ABASIS      S 
                                         1400     1410     1200     1210     1080     1600     1650     1300     1700   
                                           T        V       H0       H01     AOSYM     SMH    MOLCAS    ERIS     OPER   

 PROGRAMS   *        TOTAL       INT
 CPU TIMES  *        85.73     85.63
 REAL TIME  *        94.19 SEC
 DISK USED  *        10.04 GB      
 **********************************************************************************************************************************


 PROGRAM * RHF-SCF (CLOSED SHELL)       Authors: W. Meyer, H.-J. Werner


 NUMBER OF ELECTRONS:       7+    7-
 CONVERGENCE THRESHOLDS:    1.00E-10 (Density)    1.00E-13 (Energy)
 MAX. NUMBER OF ITERATIONS:      500
 INTERPOLATION TYPE:            DIIS
 INTERPOLATION STEPS:              2 (START)      1 (STEP)
 LEVEL SHIFTS:                  0.00 (CLOSED)  0.00 (OPEN) 



 Orbital guess generated from atomic densities. Full valence occupancy:    7   2   2   0

 Molecular orbital dump at record        2100.2

 Initial occupancy:   5   1   1   0

 ITERATION    DDIFF          GRAD             ENERGY        2-EL.EN.            DIPOLE MOMENTS         DIIS   ORB.
    1      0.000D+00      0.000D+00       -92.89096041    111.969531    0.00000    0.00000   -1.78992    0    start
    2      0.000D+00      0.567D-02       -92.89998775    111.080758    0.00000    0.00000   -0.89999    1    diag
    3      0.437D-02      0.503D-02       -92.91540874    111.628262    0.00000    0.00000   -1.31140    2    diag
    4      0.224D-02      0.420D-03       -92.91563848    111.590867    0.00000    0.00000   -1.29938    3    diag
    5      0.420D-03      0.899D-04       -92.91565193    111.600068    0.00000    0.00000   -1.29787    4    diag
    6      0.104D-03      0.243D-04       -92.91565273    111.595245    0.00000    0.00000   -1.29794    5    diag
    7      0.207D-04      0.866D-05       -92.91565281    111.596452    0.00000    0.00000   -1.29799    6    diag
    8      0.693D-05      0.185D-05       -92.91565281    111.596394    0.00000    0.00000   -1.29796    7    diag
    9      0.146D-05      0.215D-06       -92.91565281    111.596403    0.00000    0.00000   -1.29795    8    diag
   10      0.226D-06      0.272D-07       -92.91565281    111.596404    0.00000    0.00000   -1.29795    9    orth
   11      0.266D-07      0.395D-08       -92.91565281    111.596404    0.00000    0.00000   -1.29795    9    diag
   12      0.489D-08      0.378D-09       -92.91565281    111.596404    0.00000    0.00000   -1.29795    9    diag
   13      0.116D-08      0.329D-10       -92.91565281    111.596404    0.00000    0.00000   -1.29795    9    diag
   14      0.227D-09      0.623D-11       -92.91565281    111.596404    0.00000    0.00000   -1.29795    9    diag
   15      0.135D-09      0.123D-11       -92.91565281    111.596404    0.00000    0.00000   -1.29795    9    diag
   16      0.301D-10      0.629D-12       -92.91565281    111.596404    0.00000    0.00000   -1.29795    0    orth

 Final occupancy:   5   1   1   0

 !RHF STATE 1.1 Energy                -92.915652810330
 Nuclear energy                        23.90819446
 One-electron energy                 -172.62204950
 Two-electron energy                   55.79820223
 Virial quotient                       -1.00210116
 !RHF STATE 1.1 Dipole moment           0.00000000     0.00000000    -1.29794998
 Dipole moment /Debye                   0.00000000     0.00000000    -3.29884371

 Orbital energies:

         1.1          2.1          3.1          4.1          5.1          6.1          7.1
    -15.597835   -11.291268    -1.236404    -0.811262    -0.582138     0.017556     0.053218

         1.2          2.2          3.2
     -0.496958     0.052455     0.101729

         1.3          2.3          3.3
     -0.496958     0.052455     0.101729

         1.4          2.4
      0.202746     0.327094

 HOMO      1.2    -0.496958 =     -13.5229eV
 LUMO      6.1     0.017556 =       0.4777eV
 LUMO-HOMO         0.514514 =      14.0006eV


 **********************************************************************************************************************************
 DATASETS  * FILE   NREC   LENGTH (MB)   RECORD NAMES
              1      19     3079.46       500      610      700      900      950      970     1000      129      960     1100   
                                          VAR    BASINP    GEOM    SYMINP    ZMAT    AOBASIS   BASIS     P2S    ABASIS      S 
                                         1400     1410     1200     1210     1080     1600     1650     1300     1700   
                                           T        V       H0       H01     AOSYM     SMH    MOLCAS    ERIS     OPER   

              2       4        3.46       700     1000      520     2100   
                                         GEOM     BASIS   MCVARS     RHF  

 PROGRAMS   *        TOTAL        HF       INT
 CPU TIMES  *       103.89     18.16     85.63
 REAL TIME  *       116.60 SEC
 DISK USED  *        10.04 GB      
 **********************************************************************************************************************************


 PROGRAM * CCSD (Closed-shell coupled cluster)     Authors: C. Hampel, H.-J. Werner, 1991, M. Deegan, P.J. Knowles, 1992


 Convergence thresholds:  THRVAR = 1.00D-08  THRDEN = 1.00D-12

 CCSD(T)     terms to be evaluated (factor= 1.000)


 Number of core orbitals:           2 (   2   0   0   0 )
 Number of closed-shell orbitals:   5 (   3   1   1   0 )
 Number of external orbitals:     327 ( 118  80  80  49 )

 Molecular orbitals read from record     2100.2  Type=RHF/CANONICAL (state 1.1)

 Number of N-1 electron functions:               5
 Number of N-2 electron functions:              15
 Number of singly external CSFs:               514
 Number of doubly external CSFs:            345689
 Total number of CSFs:                      346204

 Length of J-op  integral file:               0.00 MB
 Length of K-op  integral file:               2.14 MB
 Length of 3-ext integral record:             0.00 MB

 Memory could be reduced to 68.09 Mwords without degradation in triples

 Integral transformation finished. Total CPU:   3.77 sec, npass=  1  Memory used:   7.20 MW

 Reference energy:                    -92.91565281

 MP2 singlet pair energy:              -0.24483462
 MP2 triplet pair energy:              -0.13292827
 MP2 correlation energy:               -0.37776289
 MP2 total energy:                    -93.29341570

 SCS-MP2 correlation energy:           -0.37651246   (PS=  1.200000  PT=  0.333333)
 SCS-MP2 total energy:                -93.29216527

 ITER.      SQ.NORM     CORR.ENERGY   TOTAL ENERGY   ENERGY CHANGE        DEN1      VAR(S)    VAR(P)  DIIS     TIME  TIME/IT
   1      1.11525960    -0.37411766   -93.28977047     0.00364523     0.01710105  0.26D-02  0.31D-02  1  1     6.64     3.38
   2      1.12447600    -0.37426876   -93.28992157    -0.00015110    -0.01033090  0.67D-04  0.40D-03  2  2     9.48     3.45
   3      1.12945957    -0.37450319   -93.29015601    -0.00023443    -0.00260944  0.14D-04  0.47D-04  3  3    12.35     3.51
   4      1.13160250    -0.37456282   -93.29021563    -0.00005962    -0.00077863  0.68D-06  0.54D-05  4  4    15.18     3.48
   5      1.13217798    -0.37457342   -93.29022623    -0.00001060    -0.00016167  0.78D-07  0.47D-06  5  5    18.11     3.50
   6      1.13229426    -0.37457179   -93.29022460     0.00000163    -0.00002880  0.98D-08  0.39D-07  6  6    21.00     3.48
   7      1.13230393    -0.37457288   -93.29022569    -0.00000110    -0.00000118  0.88D-09  0.33D-08  6  1    23.83     3.49
   8      1.13230676    -0.37457331   -93.29022612    -0.00000043    -0.00000120  0.13D-09  0.30D-09  6  2    26.78     3.48
   9      1.13230685    -0.37457339   -93.29022620    -0.00000007     0.00000001  0.12D-10  0.20D-10  6  3    29.67     3.48
  10      1.13230672    -0.37457344   -93.29022625    -0.00000005     0.00000011  0.12D-11  0.18D-11  6  4    32.50     3.47
  11      1.13230666    -0.37457345   -93.29022626    -0.00000002     0.00000003  0.18D-12  0.17D-12  6  5    35.34     3.46
  12      1.13230660    -0.37457346   -93.29022627    -0.00000001     0.00000003  0.21D-13  0.26D-13  6  6    38.25     3.46
  13      1.13230657    -0.37457346   -93.29022627    -0.00000000     0.00000001  0.21D-14  0.52D-14  6  1    41.25     3.47
  14      1.13230655    -0.37457346   -93.29022627    -0.00000000     0.00000001  0.18D-15  0.78D-15  6  2    44.30     3.47
  15      1.13230654    -0.37457346   -93.29022627    -0.00000000     0.00000000  0.16D-16  0.11D-15  6  3    47.35     3.48
  16      1.13230654    -0.37457346   -93.29022627     0.00000000     0.00000000  0.26D-17  0.15D-16  6  4    50.35     3.48
  17      1.13230654    -0.37457346   -93.29022627     0.00000000     0.00000000  0.77D-18  0.21D-17  6  5    53.37     3.48
  18      1.13230654    -0.37457346   -93.29022627     0.00000000     0.00000000  0.22D-18  0.46D-18  6  6    56.43     3.48
  19      1.13230654    -0.37457346   -93.29022627     0.00000000    -0.00000000  0.73D-19  0.21D-18  6  1    59.43     3.49
  20      1.13230654    -0.37457346   -93.29022627     0.00000000     0.00000000  0.39D-19  0.92D-19  6  2    62.44     3.49
  21      1.13230654    -0.37457346   -93.29022627     0.00000000     0.00000000  0.24D-19  0.41D-19  6  3    65.43     3.49

 Norm of t1 vector:      0.06466797      S-energy:    -0.00000000      T1 diagnostic:  0.01446020
                                                                       D1 diagnostic:  0.02913577


 Total CPU time for triples:     19.10 sec


 RESULTS
 =======

  Reference energy                    -92.915652810330
  CCSD singlet pair energy             -0.263252357158
  CCSD triplet pair energy             -0.111321103173
  CCSD correlation energy              -0.374573460334

  Triples (T) contribution             -0.019999042686
  Total correlation energy             -0.394572503020

  CCSD total energy                   -93.290226270665
  CCSD[T] energy                      -93.311071886575
  CCSD-T energy                       -93.309851726763
 !CCSD(T) total energy                -93.310225313350

 Timing summary (sec):

 STEP                 CPU(USER)    SYS     CPU(TOT)    WALL
 Transformation          3.78      0.66      4.44      7.28
 CCSD iterations        61.65     10.40     72.05     73.26
 Triples                19.10      0.58     19.68     19.66

 Program statistics:

 Available memory in ccsd:               994999800
 Min. memory needed in ccsd:               1363289
 Max. memory used in ccsd:                 1637718
 Max. memory used in cckext:               2695008 (21 integral passes)



 **********************************************************************************************************************************
 DATASETS  * FILE   NREC   LENGTH (MB)   RECORD NAMES
              1      20     3263.67       500      610      700      900      950      970     1000      129      960     1100   
                                          VAR    BASINP    GEOM    SYMINP    ZMAT    AOBASIS   BASIS     P2S    ABASIS      S 
                                         1400     1410     1200     1210     1080     1600     1650     1300     1700     1380   
                                           T        V       H0       H01     AOSYM     SMH    MOLCAS    ERIS     OPER     JKOP   

              2       4        3.46       700     1000      520     2100   
                                         GEOM     BASIS   MCVARS     RHF  

 PROGRAMS   *        TOTAL   CCSD(T)        HF       INT
 CPU TIMES  *       188.45     84.56     18.16     85.63
 REAL TIME  *       217.11 SEC
 DISK USED  *        10.04 GB      
 **********************************************************************************************************************************

 CCSD(T)/aug-cc-pV5Z energy=    -93.310225313350

        CCSD(T)         HF-SCF  
    -93.31022531    -92.91565281
 **********************************************************************************************************************************
 Molpro calculation terminated
 Variable memory released
