
 Primary working directories    : /tmp/r2666/232404.maple
 Secondary working directories  : /tmp/r2666/232404.maple
 Wavefunction directory         : /ddn/home4/r2666/wfu/
 Main file repository           : /tmp/r2666/232404.maple/

 SHA1      : d5ffa45e93fdbca01ffc919aa182cfdae0147319
 NAME      : 2015.1.35
 ARCHNAME  : linux/x86_64
 FC        : /opt/intel/composer_xe_2015.1.133/bin/intel64/ifort
 BLASLIB   : -Wl,-_start-group /opt/intel/mkl/lib/intel64/libmkl_intel_ilp64.a /opt/intel/mkl/lib/intel64/libmkl_intel_thread.a /opt/intel/mkl/lib/intel64/libmkl_core.a -Wl,-_end-group
 id        : olemiss

 Nodes     nprocs
 cn094        1

 Using customized tuning parameters: mindgm=1; mindgv=20; mindgc=4; mindgr=1; noblas=0; minvec=7
 default implementation of scratch files=df  

 ***,hcn CCSD(T)/TZ-F12 QFF
 memory, 995, m;
 gthresh,energy=1.d-12,zero=1.d-22,oneint=1.d-22,twoint=1.d-22;
 gthresh,optgrad=1.d-8,optstep=1.d-8;
 nocompress;
 geomtyp=xyz
 bohr
 geometry={
 3
         13        13
 N        0.0000000000        0.0000000000        1.1152527611
 C        0.0000000000        0.0000000000       -1.0541482760
 H        0.0000000000        0.0000000000       -3.0581744671
 }
 
 basis=av5z
   {hf,maxit=500;accu,20;}
 {ccsd(t),nocheck,maxit=250;orbital,IGNORE_ERROR;}

 Variables initialized (889), CPU time= 0.01 sec
 Commands  initialized (702), CPU time= 0.01 sec, 572 directives.
 Default parameters read. Elapsed time= 0.05 sec

 Checking input...
 Passed
1


                                         ***  PROGRAM SYSTEM MOLPRO  ***
                                       Copyright, TTI GmbH Stuttgart, 2015
                                    Version 2015.1 linked Jul  9 2018 13:16:40


 **********************************************************************************************************************************
 LABEL *   hcn CCSD(T)/TZ-F12 QFF                                                        
  64 bit serial version                                                                  DATE: 06-Feb-20          TIME: 09:49:39  
 **********************************************************************************************************************************

 SHA1:             d5ffa45e93fdbca01ffc919aa182cfdae0147319
 **********************************************************************************************************************************

 THRESHOLDS:

 ZERO    =  1.00D-22  ONEINT  =  1.00D-22  TWOINT  =  1.00D-22  PREFAC  =  1.00D-14  LOCALI  =  1.00D-09  EORDER  =  1.00D-04
 ENERGY  =  1.00D-12  ETEST   =  0.00D+00  EDENS   =  0.00D+00  THRDEDEF=  1.00D-06  GRADIENT=  1.00D-02  STEP    =  1.00D-03
 ORBITAL =  1.00D-05  CIVEC   =  1.00D-05  COEFF   =  1.00D-04  PRINTCI =  5.00D-02  PUNCHCI =  9.90D+01  OPTGRAD =  3.00D-04
 OPTENERG=  1.00D-06  OPTSTEP =  3.00D-04  THRGRAD =  1.00D-10  COMPRESS=  1.00D-11  VARMIN  =  1.00D-07  VARMAX  =  1.00D-03
 THRDOUB =  0.00D+00  THRDIV  =  1.00D-05  THRRED  =  1.00D-07  THRPSP  =  1.00D+00  THRDC   =  1.00D-10  THRCS   =  1.00D-10
 THRNRM  =  1.00D-08  THREQ   =  0.00D+00  THRDE   =  1.00D+00  THRREF  =  1.00D-05  SPARFAC =  1.00D+00  THRDLP  =  1.00D-07
 THRDIA  =  1.00D-10  THRDLS  =  1.00D-07  THRGPS  =  0.00D+00  THRKEX  =  0.00D+00  THRDIS  =  2.00D-01  THRVAR  =  1.00D-10
 THRLOC  =  1.00D-06  THRGAP  =  1.00D-06  THRLOCT = -1.00D+00  THRGAPT = -1.00D+00  THRORB  =  1.00D-06  THRMLTP =  0.00D+00
 THRCPQCI=  1.00D-10  KEXTA   =  0.00D+00  THRCOARS=  0.00D+00  SYMTOL  =  1.00D-06  GRADTOL =  1.00D-06  THROVL  =  1.00D-08
 THRORTH =  1.00D-08  GRID    =  1.00D-06  GRIDMAX =  1.00D-03  DTMAX   =  0.00D+00  THROCCDE=  1.00D-01  THROCCDE=  1.00D-01



 THRESHOLDS:

 ZERO    =  1.00D-22  ONEINT  =  1.00D-22  TWOINT  =  1.00D-22  PREFAC  =  1.00D-14  LOCALI  =  1.00D-09  EORDER  =  1.00D-04
 ENERGY  =  1.00D-12  ETEST   =  0.00D+00  EDENS   =  0.00D+00  THRDEDEF=  1.00D-06  GRADIENT=  1.00D-02  STEP    =  1.00D-03
 ORBITAL =  1.00D-05  CIVEC   =  1.00D-05  COEFF   =  1.00D-04  PRINTCI =  5.00D-02  PUNCHCI =  9.90D+01  OPTGRAD =  1.00D-08
 OPTENERG=  1.00D-06  OPTSTEP =  1.00D-08  THRGRAD =  1.00D-10  COMPRESS=  1.00D-11  VARMIN  =  1.00D-07  VARMAX  =  1.00D-03
 THRDOUB =  0.00D+00  THRDIV  =  1.00D-05  THRRED  =  1.00D-07  THRPSP  =  1.00D+00  THRDC   =  1.00D-10  THRCS   =  1.00D-10
 THRNRM  =  1.00D-08  THREQ   =  0.00D+00  THRDE   =  1.00D+00  THRREF  =  1.00D-05  SPARFAC =  1.00D+00  THRDLP  =  1.00D-07
 THRDIA  =  1.00D-10  THRDLS  =  1.00D-07  THRGPS  =  0.00D+00  THRKEX  =  0.00D+00  THRDIS  =  2.00D-01  THRVAR  =  1.00D-10
 THRLOC  =  1.00D-06  THRGAP  =  1.00D-06  THRLOCT = -1.00D+00  THRGAPT = -1.00D+00  THRORB  =  1.00D-06  THRMLTP =  0.00D+00
 THRCPQCI=  1.00D-10  KEXTA   =  0.00D+00  THRCOARS=  0.00D+00  SYMTOL  =  1.00D-06  GRADTOL =  1.00D-06  THROVL  =  1.00D-08
 THRORTH =  1.00D-08  GRID    =  1.00D-06  GRIDMAX =  1.00D-03  DTMAX   =  0.00D+00  THROCCDE=  1.00D-01  THROCCDE=  1.00D-01



 Input parameters for SORTINT:

 COMPRESS =    0.000000
 C_FINAL  =    1.000000
 DEBUG    =   -1.000000
 C_SORT1  =    0.000000
 C_SEWARD =    0.000000
 THRESH   =    0.000000
 IO       =  molpro                                                          
 SPRI     =    0.000000
 SETTING GEOMTYP        =    XYZ
 ZUNIT=BOHR
 

 Variable memory set to  995000000 words,  buffer space   230000 words

 SETTING BASIS          =    AV5Z


 Recomputing integrals since basis changed


 Using spherical harmonics

 Library entry N      S aug-cc-pV5Z          selected for orbital group  1
 Library entry N      P aug-cc-pV5Z          selected for orbital group  1
 Library entry N      D aug-cc-pV5Z          selected for orbital group  1
 Library entry N      F aug-cc-pV5Z          selected for orbital group  1
 Library entry N      G aug-cc-pV5Z          selected for orbital group  1
 Library entry N      H aug-cc-pV5Z          selected for orbital group  1
 Library entry C      S aug-cc-pV5Z          selected for orbital group  2
 Library entry C      P aug-cc-pV5Z          selected for orbital group  2
 Library entry C      D aug-cc-pV5Z          selected for orbital group  2
 Library entry C      F aug-cc-pV5Z          selected for orbital group  2
 Library entry C      G aug-cc-pV5Z          selected for orbital group  2
 Library entry C      H aug-cc-pV5Z          selected for orbital group  2
 Library entry H      S aug-cc-pV5Z          selected for orbital group  3
 Library entry H      P aug-cc-pV5Z          selected for orbital group  3
 Library entry H      D aug-cc-pV5Z          selected for orbital group  3
 Library entry H      F aug-cc-pV5Z          selected for orbital group  3
 Library entry H      G aug-cc-pV5Z          selected for orbital group  3


 PROGRAM * SEWARD (Integral evaluation for generally contracted gaussian basis sets)     Author: Roland Lindh, 1990

 Geometry written to block  1 of record 700


 Point group  C2v 



 ATOMIC COORDINATES

 NR  ATOM    CHARGE       X              Y              Z

   1  N       7.00    0.000000000    0.000000000    1.115252761
   2  C       6.00    0.000000000    0.000000000   -1.054148276
   3  H       1.00    0.000000000    0.000000000   -3.058174467

 Bond lengths in Bohr (Angstrom)

 1-2  2.169401037  2-3  2.004026191
     ( 1.147997590)     ( 1.060484990)

 Bond angles

  1-2-3  180.00000000

 NUCLEAR CHARGE:                   14
 NUMBER OF PRIMITIVE AOS:         506
 NUMBER OF SYMMETRY AOS:          371
 NUMBER OF CONTRACTIONS:          334   ( 123A1  +  81B1  +  81B2  +  49A2  )
 NUMBER OF CORE ORBITALS:           2   (   2A1  +   0B1  +   0B2  +   0A2  )
 NUMBER OF VALENCE ORBITALS:        9   (   5A1  +   2B1  +   2B2  +   0A2  )


 NUCLEAR REPULSION ENERGY   24.03143391

 EXTRA SYMMETRY OF AOS IN SYMMETRY 1:   1 1 1 1 1 1 1 1 1 1   1 1 1 1 2 1 2 1 2 1   2 1 2 1 2 1 2 1 2 1   2 1 3 2 1 3 2 1 3 2
                                        2 3 1 2 3 1 1 1 1 1   1 1 1 1 1 1 1 1 1 1   2 1 2 1 2 1 2 1 2 1   2 1 2 1 2 1 2 1 3 2
                                        1 3 2 1 3 2 2 3 1 2   3 1 1 1 1 1 1 1 1 1   1 1 1 1 2 1 2 1 2 1   2 1 2 1 2 1 2 1 3 2
                                        1 3 2
 EXTRA SYMMETRY OF AOS IN SYMMETRY 2:   1 1 1 1 1 1 1 1 1 1   1 1 2 1 2 1 2 1 2 1   2 1 2 1 2 1 2 3 1 2   3 1 1 1 1 1 1 1 1 1
                                        1 1 1 2 1 2 1 2 1 2   1 2 1 2 1 2 1 2 3 1   2 3 1 1 1 1 1 1 1 1   1 1 2 1 2 1 2 1 2 1
                                        2
 EXTRA SYMMETRY OF AOS IN SYMMETRY 3:   1 1 1 1 1 1 1 1 1 1   1 1 2 1 2 1 2 1 2 1   2 1 2 1 2 1 2 3 1 2   3 1 1 1 1 1 1 1 1 1
                                        1 1 1 2 1 2 1 2 1 2   1 2 1 2 1 2 1 2 3 1   2 3 1 1 1 1 1 1 1 1   1 1 2 1 2 1 2 1 2 1
                                        2
 EXTRA SYMMETRY OF AOS IN SYMMETRY 4:   1 1 1 1 1 1 1 1 1 1   2 1 2 1 2 2 1 2 1 1   1 1 1 1 1 1 1 1 1 2   1 2 1 2 2 1 2 1 1 1
                                        1 1 1 1 1 1 2 1 2

 Eigenvalues of metric

         1 0.237E-05 0.547E-05 0.143E-04 0.349E-04 0.572E-04 0.683E-04 0.171E-03 0.220E-03
         2 0.550E-04 0.175E-03 0.366E-03 0.688E-03 0.919E-03 0.150E-02 0.184E-02 0.367E-02
         3 0.550E-04 0.175E-03 0.366E-03 0.688E-03 0.919E-03 0.150E-02 0.184E-02 0.367E-02
         4 0.755E-03 0.214E-02 0.480E-02 0.687E-02 0.161E-01 0.230E-01 0.249E-01 0.627E-01


 Contracted 2-electron integrals neglected if value below      1.0D-22

      355351347. INTEGRALS WRITTEN OUT IN   86777 BLOCKS ON RECORD 1290 OF FILE 1


 NUMBER OF SORTED TWO-ELECTRON INTEGRALS:  396972178.     BUFFER LENGTH:  32768
 NUMBER OF SEGMENTS:  13  SEGMENT LENGTH:   31999071      RECORD LENGTH: 524288

 Memory used in sort:      32.56 MW

 SORT1 READ   355351347. AND WROTE   358526461. INTEGRALS IN   1032 RECORDS. CPU TIME:     9.89 SEC, REAL TIME:    13.38 SEC
 SORT2 READ   358526461. AND WROTE   396972178. INTEGRALS IN     13 RECORDS. CPU TIME:     5.59 SEC, REAL TIME:     7.67 SEC

 FILE SIZES:   FILE 1:  5709.4 MBYTE,  FILE 4:  4328.6 MBYTE,   TOTAL:  10037.9 MBYTE

 OPERATOR DM      FOR CENTER  0  COORDINATES:    0.000000    0.000000    0.000000


 **********************************************************************************************************************************
 DATASETS  * FILE   NREC   LENGTH (MB)   RECORD NAMES
              1      19     3080.30       500      610      700      900      950      970     1000      129      960     1100   
                                          VAR    BASINP    GEOM    SYMINP    ZMAT    AOBASIS   BASIS     P2S    ABASIS      S 
                                         1400     1410     1200     1210     1080     1600     1650     1300     1700   
                                           T        V       H0       H01     AOSYM     SMH    MOLCAS    ERIS     OPER   

 PROGRAMS   *        TOTAL       INT
 CPU TIMES  *        92.39     92.30
 REAL TIME  *       101.68 SEC
 DISK USED  *        10.04 GB      
 **********************************************************************************************************************************


 PROGRAM * RHF-SCF (CLOSED SHELL)       Authors: W. Meyer, H.-J. Werner


 NUMBER OF ELECTRONS:       7+    7-
 CONVERGENCE THRESHOLDS:    1.00E-10 (Density)    1.00E-13 (Energy)
 MAX. NUMBER OF ITERATIONS:      500
 INTERPOLATION TYPE:            DIIS
 INTERPOLATION STEPS:              2 (START)      1 (STEP)
 LEVEL SHIFTS:                  0.00 (CLOSED)  0.00 (OPEN) 



 Orbital guess generated from atomic densities. Full valence occupancy:    7   2   2   0

 Molecular orbital dump at record        2100.2

 Initial occupancy:   5   1   1   0

 ITERATION    DDIFF          GRAD             ENERGY        2-EL.EN.            DIPOLE MOMENTS         DIIS   ORB.
    1      0.000D+00      0.000D+00       -92.89215865    112.217896    0.00000    0.00000   -1.77303    0    start
    2      0.000D+00      0.563D-02       -92.90138221    111.309661    0.00000    0.00000   -0.90302    1    diag
    3      0.433D-02      0.495D-02       -92.91622255    111.856036    0.00000    0.00000   -1.30471    2    diag
    4      0.221D-02      0.421D-03       -92.91645115    111.821055    0.00000    0.00000   -1.29259    3    diag
    5      0.420D-03      0.878D-04       -92.91646418    111.828531    0.00000    0.00000   -1.29111    4    diag
    6      0.103D-03      0.232D-04       -92.91646489    111.824220    0.00000    0.00000   -1.29124    5    diag
    7      0.193D-04      0.811D-05       -92.91646496    111.825426    0.00000    0.00000   -1.29127    6    diag
    8      0.647D-05      0.177D-05       -92.91646496    111.825362    0.00000    0.00000   -1.29124    7    diag
    9      0.139D-05      0.208D-06       -92.91646496    111.825371    0.00000    0.00000   -1.29123    8    diag
   10      0.218D-06      0.269D-07       -92.91646496    111.825372    0.00000    0.00000   -1.29123    9    orth
   11      0.264D-07      0.397D-08       -92.91646496    111.825372    0.00000    0.00000   -1.29123    9    diag
   12      0.472D-08      0.373D-09       -92.91646496    111.825372    0.00000    0.00000   -1.29123    9    diag
   13      0.117D-08      0.320D-10       -92.91646496    111.825372    0.00000    0.00000   -1.29123    9    diag
   14      0.228D-09      0.521D-11       -92.91646496    111.825372    0.00000    0.00000   -1.29123    9    diag
   15      0.123D-09      0.154D-11       -92.91646496    111.825372    0.00000    0.00000   -1.29123    9    diag
   16      0.152D-09      0.111D-11       -92.91646496    111.825372    0.00000    0.00000   -1.29123    9    diag
   17      0.832D-10      0.425D-12       -92.91646496    111.825372    0.00000    0.00000   -1.29123    9    diag
   18      0.249D-10      0.948D-12       -92.91646496    111.825372    0.00000    0.00000   -1.29123    0    orth

 Final occupancy:   5   1   1   0

 !RHF STATE 1.1 Energy                -92.916464962335
 Nuclear energy                        24.03143391
 One-electron energy                 -172.86058489
 Two-electron energy                   55.91268602
 Virial quotient                       -1.00163788
 !RHF STATE 1.1 Dipole moment           0.00000000     0.00000000    -1.29123085
 Dipole moment /Debye                   0.00000000     0.00000000    -3.28176650

 Orbital energies:

         1.1          2.1          3.1          4.1          5.1          6.1          7.1
    -15.596208   -11.288670    -1.238874    -0.814420    -0.582197     0.017611     0.053234

         1.2          2.2          3.2
     -0.498619     0.052432     0.101874

         1.3          2.3          3.3
     -0.498619     0.052432     0.101874

         1.4          2.4
      0.202557     0.326819

 HOMO      1.2    -0.498619 =     -13.5681eV
 LUMO      6.1     0.017611 =       0.4792eV
 LUMO-HOMO         0.516230 =      14.0473eV


 **********************************************************************************************************************************
 DATASETS  * FILE   NREC   LENGTH (MB)   RECORD NAMES
              1      19     3080.30       500      610      700      900      950      970     1000      129      960     1100   
                                          VAR    BASINP    GEOM    SYMINP    ZMAT    AOBASIS   BASIS     P2S    ABASIS      S 
                                         1400     1410     1200     1210     1080     1600     1650     1300     1700   
                                           T        V       H0       H01     AOSYM     SMH    MOLCAS    ERIS     OPER   

              2       4        3.46       700     1000      520     2100   
                                         GEOM     BASIS   MCVARS     RHF  

 PROGRAMS   *        TOTAL        HF       INT
 CPU TIMES  *       113.94     21.55     92.30
 REAL TIME  *       128.17 SEC
 DISK USED  *        10.04 GB      
 **********************************************************************************************************************************


 PROGRAM * CCSD (Closed-shell coupled cluster)     Authors: C. Hampel, H.-J. Werner, 1991, M. Deegan, P.J. Knowles, 1992


 Convergence thresholds:  THRVAR = 1.00D-08  THRDEN = 1.00D-12

 CCSD(T)     terms to be evaluated (factor= 1.000)


 Number of core orbitals:           2 (   2   0   0   0 )
 Number of closed-shell orbitals:   5 (   3   1   1   0 )
 Number of external orbitals:     327 ( 118  80  80  49 )

 Molecular orbitals read from record     2100.2  Type=RHF/CANONICAL (state 1.1)

 Number of N-1 electron functions:               5
 Number of N-2 electron functions:              15
 Number of singly external CSFs:               514
 Number of doubly external CSFs:            345689
 Total number of CSFs:                      346204

 Length of J-op  integral file:               0.00 MB
 Length of K-op  integral file:               2.14 MB
 Length of 3-ext integral record:             0.00 MB

 Memory could be reduced to 68.09 Mwords without degradation in triples

 Integral transformation finished. Total CPU:   3.51 sec, npass=  1  Memory used:   7.20 MW

 Reference energy:                    -92.91646496

 MP2 singlet pair energy:              -0.24424453
 MP2 triplet pair energy:              -0.13247633
 MP2 correlation energy:               -0.37672086
 MP2 total energy:                    -93.29318582

 SCS-MP2 correlation energy:           -0.37552315   (PS=  1.200000  PT=  0.333333)
 SCS-MP2 total energy:                -93.29198812

 ITER.      SQ.NORM     CORR.ENERGY   TOTAL ENERGY   ENERGY CHANGE        DEN1      VAR(S)    VAR(P)  DIIS     TIME  TIME/IT
   1      1.11446692    -0.37334326   -93.28980822     0.00337760     0.01659589  0.26D-02  0.31D-02  1  1     6.77     3.75
   2      1.12352485    -0.37352942   -93.28999438    -0.00018616    -0.01018572  0.66D-04  0.39D-03  2  2    10.07     3.78
   3      1.12839081    -0.37375560   -93.29022056    -0.00022618    -0.00256533  0.14D-04  0.46D-04  3  3    13.39     3.81
   4      1.13047047    -0.37381247   -93.29027743    -0.00005687    -0.00076072  0.66D-06  0.52D-05  4  4    16.72     3.81
   5      1.13102459    -0.37382232   -93.29028728    -0.00000984    -0.00015660  0.73D-07  0.44D-06  5  5    20.06     3.81
   6      1.13113371    -0.37382080   -93.29028576     0.00000152    -0.00002703  0.90D-08  0.36D-07  6  6    23.40     3.82
   7      1.13114273    -0.37382184   -93.29028680    -0.00000104    -0.00000113  0.84D-09  0.31D-08  6  1    26.75     3.83
   8      1.13114533    -0.37382226   -93.29028722    -0.00000042    -0.00000110  0.12D-09  0.28D-09  6  2    30.07     3.83
   9      1.13114541    -0.37382233   -93.29028729    -0.00000007     0.00000001  0.12D-10  0.18D-10  6  3    33.45     3.84
  10      1.13114529    -0.37382238   -93.29028734    -0.00000005     0.00000010  0.12D-11  0.17D-11  6  4    36.69     3.83
  11      1.13114523    -0.37382239   -93.29028735    -0.00000002     0.00000003  0.18D-12  0.15D-12  6  5    39.96     3.82
  12      1.13114517    -0.37382240   -93.29028736    -0.00000000     0.00000003  0.22D-13  0.24D-13  6  6    43.17     3.82
  13      1.13114514    -0.37382240   -93.29028736    -0.00000000     0.00000001  0.22D-14  0.49D-14  6  1    46.51     3.81
  14      1.13114512    -0.37382240   -93.29028736    -0.00000000     0.00000001  0.18D-15  0.73D-15  6  2    49.92     3.81
  15      1.13114512    -0.37382240   -93.29028736    -0.00000000     0.00000000  0.16D-16  0.10D-15  6  3    53.31     3.81
  16      1.13114512    -0.37382240   -93.29028736     0.00000000     0.00000000  0.27D-17  0.14D-16  6  4    56.67     3.82
  17      1.13114512    -0.37382240   -93.29028736     0.00000000     0.00000000  0.79D-18  0.23D-17  6  5    60.09     3.82
  18      1.13114512    -0.37382240   -93.29028736     0.00000000     0.00000000  0.22D-18  0.51D-18  6  6    63.46     3.82
  19      1.13114512    -0.37382240   -93.29028736     0.00000000     0.00000000  0.92D-19  0.23D-18  6  1    66.69     3.82
  20      1.13114512    -0.37382240   -93.29028736    -0.00000000     0.00000000  0.75D-19  0.14D-18  6  2    70.02     3.82
  21      1.13114512    -0.37382240   -93.29028736     0.00000000     0.00000000  0.44D-19  0.72D-19  6  3    73.33     3.81

 Norm of t1 vector:      0.06392103      S-energy:    -0.00000000      T1 diagnostic:  0.01429318
                                                                       D1 diagnostic:  0.02881174


 Total CPU time for triples:     20.91 sec


 RESULTS
 =======

  Reference energy                    -92.916464962336
  CCSD singlet pair energy             -0.262602698747
  CCSD triplet pair energy             -0.111219699148
  CCSD correlation energy              -0.373822397900

  Triples (T) contribution             -0.019809305484
  Total correlation energy             -0.393631703384

  CCSD total energy                   -93.290287360236
  CCSD[T] energy                      -93.310922411564
  CCSD-T energy                       -93.309731227996
 !CCSD(T) total energy                -93.310096665720

 Timing summary (sec):

 STEP                 CPU(USER)    SYS     CPU(TOT)    WALL
 Transformation          3.52      0.70      4.22      4.32
 CCSD iterations        69.81     10.28     80.09     80.10
 Triples                20.91      0.58     21.49     21.48

 Program statistics:

 Available memory in ccsd:               994999800
 Min. memory needed in ccsd:               1363289
 Max. memory used in ccsd:                 1637718
 Max. memory used in cckext:               2695008 (21 integral passes)



 **********************************************************************************************************************************
 DATASETS  * FILE   NREC   LENGTH (MB)   RECORD NAMES
              1      20     3264.52       500      610      700      900      950      970     1000      129      960     1100   
                                          VAR    BASINP    GEOM    SYMINP    ZMAT    AOBASIS   BASIS     P2S    ABASIS      S 
                                         1400     1410     1200     1210     1080     1600     1650     1300     1700     1380   
                                           T        V       H0       H01     AOSYM     SMH    MOLCAS    ERIS     OPER     JKOP   

              2       4        3.46       700     1000      520     2100   
                                         GEOM     BASIS   MCVARS     RHF  

 PROGRAMS   *        TOTAL   CCSD(T)        HF       INT
 CPU TIMES  *       208.22     94.28     21.55     92.30
 REAL TIME  *       234.22 SEC
 DISK USED  *        10.04 GB      
 **********************************************************************************************************************************

 CCSD(T)/aug-cc-pV5Z energy=    -93.310096665720

        CCSD(T)         HF-SCF  
    -93.31009667    -92.91646496
 **********************************************************************************************************************************
 Molpro calculation terminated
 Variable memory released
