
 Primary working directories    : /tmp/r2666/232420.maple
 Secondary working directories  : /tmp/r2666/232420.maple
 Wavefunction directory         : /ddn/home4/r2666/wfu/
 Main file repository           : /tmp/r2666/232420.maple/

 SHA1      : d5ffa45e93fdbca01ffc919aa182cfdae0147319
 NAME      : 2015.1.35
 ARCHNAME  : linux/x86_64
 FC        : /opt/intel/composer_xe_2015.1.133/bin/intel64/ifort
 BLASLIB   : -Wl,-_start-group /opt/intel/mkl/lib/intel64/libmkl_intel_ilp64.a /opt/intel/mkl/lib/intel64/libmkl_intel_thread.a /opt/intel/mkl/lib/intel64/libmkl_core.a -Wl,-_end-group
 id        : olemiss

 Nodes     nprocs
 cn088        1

 Using customized tuning parameters: mindgm=1; mindgv=20; mindgc=4; mindgr=1; noblas=0; minvec=7
 default implementation of scratch files=df  

 ***,hcn CCSD(T)/TZ-F12 QFF
 memory, 995, m;
 gthresh,energy=1.d-12,zero=1.d-22,oneint=1.d-22,twoint=1.d-22;
 gthresh,optgrad=1.d-8,optstep=1.d-8;
 nocompress;
 geomtyp=xyz
 bohr
 geometry={
 3
         29        29
 N       -0.0092326816        0.0000000399        1.1245068543
 C        0.0192234811       -0.0000000010       -1.0541569835
 H       -0.0099907995       -0.0000000388       -3.0674198528
 }
 
 basis=av5z
   {hf,maxit=500;accu,20;}
 {ccsd(t),nocheck,maxit=250;orbital,IGNORE_ERROR;}

 Variables initialized (889), CPU time= 0.01 sec
 Commands  initialized (702), CPU time= 0.01 sec, 572 directives.
 Default parameters read. Elapsed time= 0.05 sec

 Checking input...
 Passed
1


                                         ***  PROGRAM SYSTEM MOLPRO  ***
                                       Copyright, TTI GmbH Stuttgart, 2015
                                    Version 2015.1 linked Jul  9 2018 13:16:40


 **********************************************************************************************************************************
 LABEL *   hcn CCSD(T)/TZ-F12 QFF                                                        
  64 bit serial version                                                                  DATE: 06-Feb-20          TIME: 09:49:39  
 **********************************************************************************************************************************

 SHA1:             d5ffa45e93fdbca01ffc919aa182cfdae0147319
 **********************************************************************************************************************************

 THRESHOLDS:

 ZERO    =  1.00D-22  ONEINT  =  1.00D-22  TWOINT  =  1.00D-22  PREFAC  =  1.00D-14  LOCALI  =  1.00D-09  EORDER  =  1.00D-04
 ENERGY  =  1.00D-12  ETEST   =  0.00D+00  EDENS   =  0.00D+00  THRDEDEF=  1.00D-06  GRADIENT=  1.00D-02  STEP    =  1.00D-03
 ORBITAL =  1.00D-05  CIVEC   =  1.00D-05  COEFF   =  1.00D-04  PRINTCI =  5.00D-02  PUNCHCI =  9.90D+01  OPTGRAD =  3.00D-04
 OPTENERG=  1.00D-06  OPTSTEP =  3.00D-04  THRGRAD =  1.00D-10  COMPRESS=  1.00D-11  VARMIN  =  1.00D-07  VARMAX  =  1.00D-03
 THRDOUB =  0.00D+00  THRDIV  =  1.00D-05  THRRED  =  1.00D-07  THRPSP  =  1.00D+00  THRDC   =  1.00D-10  THRCS   =  1.00D-10
 THRNRM  =  1.00D-08  THREQ   =  0.00D+00  THRDE   =  1.00D+00  THRREF  =  1.00D-05  SPARFAC =  1.00D+00  THRDLP  =  1.00D-07
 THRDIA  =  1.00D-10  THRDLS  =  1.00D-07  THRGPS  =  0.00D+00  THRKEX  =  0.00D+00  THRDIS  =  2.00D-01  THRVAR  =  1.00D-10
 THRLOC  =  1.00D-06  THRGAP  =  1.00D-06  THRLOCT = -1.00D+00  THRGAPT = -1.00D+00  THRORB  =  1.00D-06  THRMLTP =  0.00D+00
 THRCPQCI=  1.00D-10  KEXTA   =  0.00D+00  THRCOARS=  0.00D+00  SYMTOL  =  1.00D-06  GRADTOL =  1.00D-06  THROVL  =  1.00D-08
 THRORTH =  1.00D-08  GRID    =  1.00D-06  GRIDMAX =  1.00D-03  DTMAX   =  0.00D+00  THROCCDE=  1.00D-01  THROCCDE=  1.00D-01



 THRESHOLDS:

 ZERO    =  1.00D-22  ONEINT  =  1.00D-22  TWOINT  =  1.00D-22  PREFAC  =  1.00D-14  LOCALI  =  1.00D-09  EORDER  =  1.00D-04
 ENERGY  =  1.00D-12  ETEST   =  0.00D+00  EDENS   =  0.00D+00  THRDEDEF=  1.00D-06  GRADIENT=  1.00D-02  STEP    =  1.00D-03
 ORBITAL =  1.00D-05  CIVEC   =  1.00D-05  COEFF   =  1.00D-04  PRINTCI =  5.00D-02  PUNCHCI =  9.90D+01  OPTGRAD =  1.00D-08
 OPTENERG=  1.00D-06  OPTSTEP =  1.00D-08  THRGRAD =  1.00D-10  COMPRESS=  1.00D-11  VARMIN  =  1.00D-07  VARMAX  =  1.00D-03
 THRDOUB =  0.00D+00  THRDIV  =  1.00D-05  THRRED  =  1.00D-07  THRPSP  =  1.00D+00  THRDC   =  1.00D-10  THRCS   =  1.00D-10
 THRNRM  =  1.00D-08  THREQ   =  0.00D+00  THRDE   =  1.00D+00  THRREF  =  1.00D-05  SPARFAC =  1.00D+00  THRDLP  =  1.00D-07
 THRDIA  =  1.00D-10  THRDLS  =  1.00D-07  THRGPS  =  0.00D+00  THRKEX  =  0.00D+00  THRDIS  =  2.00D-01  THRVAR  =  1.00D-10
 THRLOC  =  1.00D-06  THRGAP  =  1.00D-06  THRLOCT = -1.00D+00  THRGAPT = -1.00D+00  THRORB  =  1.00D-06  THRMLTP =  0.00D+00
 THRCPQCI=  1.00D-10  KEXTA   =  0.00D+00  THRCOARS=  0.00D+00  SYMTOL  =  1.00D-06  GRADTOL =  1.00D-06  THROVL  =  1.00D-08
 THRORTH =  1.00D-08  GRID    =  1.00D-06  GRIDMAX =  1.00D-03  DTMAX   =  0.00D+00  THROCCDE=  1.00D-01  THROCCDE=  1.00D-01



 Input parameters for SORTINT:

 COMPRESS =    0.000000
 C_FINAL  =    1.000000
 DEBUG    =   -1.000000
 C_SORT1  =    0.000000
 C_SEWARD =    0.000000
 THRESH   =    0.000000
 IO       =  molpro                                                          
 SPRI     =    0.000000
 SETTING GEOMTYP        =    XYZ
 ZUNIT=BOHR
 

 Variable memory set to  995000000 words,  buffer space   230000 words

 SETTING BASIS          =    AV5Z


 Recomputing integrals since basis changed


 Using spherical harmonics

 Library entry N      S aug-cc-pV5Z          selected for orbital group  1
 Library entry N      P aug-cc-pV5Z          selected for orbital group  1
 Library entry N      D aug-cc-pV5Z          selected for orbital group  1
 Library entry N      F aug-cc-pV5Z          selected for orbital group  1
 Library entry N      G aug-cc-pV5Z          selected for orbital group  1
 Library entry N      H aug-cc-pV5Z          selected for orbital group  1
 Library entry C      S aug-cc-pV5Z          selected for orbital group  2
 Library entry C      P aug-cc-pV5Z          selected for orbital group  2
 Library entry C      D aug-cc-pV5Z          selected for orbital group  2
 Library entry C      F aug-cc-pV5Z          selected for orbital group  2
 Library entry C      G aug-cc-pV5Z          selected for orbital group  2
 Library entry C      H aug-cc-pV5Z          selected for orbital group  2
 Library entry H      S aug-cc-pV5Z          selected for orbital group  3
 Library entry H      P aug-cc-pV5Z          selected for orbital group  3
 Library entry H      D aug-cc-pV5Z          selected for orbital group  3
 Library entry H      F aug-cc-pV5Z          selected for orbital group  3
 Library entry H      G aug-cc-pV5Z          selected for orbital group  3


 PROGRAM * SEWARD (Integral evaluation for generally contracted gaussian basis sets)     Author: Roland Lindh, 1990

 Geometry written to block  1 of record 700


 Point group  Cs  



 ATOMIC COORDINATES

 NR  ATOM    CHARGE       X              Y              Z

   1  N       7.00   -0.009232682    0.000000000    1.124506854
   2  C       6.00    0.019223481    0.000000000   -1.054156983
   3  H       1.00   -0.009990799    0.000000000   -3.067419853

 Bond lengths in Bohr (Angstrom)

 1-2  2.178849667  2-3  2.013474821
     ( 1.152997590)     ( 1.065484990)

 Bond angles

  1-2-3  178.42033002

 NUCLEAR CHARGE:                   14
 NUMBER OF PRIMITIVE AOS:         506
 NUMBER OF SYMMETRY AOS:          371
 NUMBER OF CONTRACTIONS:          334   ( 204A'  + 130A"  )
 NUMBER OF CORE ORBITALS:           2   (   2A'  +   0A"  )
 NUMBER OF VALENCE ORBITALS:        9   (   7A'  +   2A"  )


 NUCLEAR REPULSION ENERGY   23.92602617


 Eigenvalues of metric

         1 0.247E-05 0.555E-05 0.146E-04 0.353E-04 0.562E-04 0.581E-04 0.692E-04 0.173E-03
         2 0.563E-04 0.182E-03 0.371E-03 0.698E-03 0.770E-03 0.928E-03 0.153E-02 0.186E-02


 Contracted 2-electron integrals neglected if value below      1.0D-22

      755917244. INTEGRALS WRITTEN OUT IN  184596 BLOCKS ON RECORD 1290 OF FILE 1


 NUMBER OF SORTED TWO-ELECTRON INTEGRALS:  789027325.     BUFFER LENGTH:  32768
 NUMBER OF SEGMENTS:  25  SEGMENT LENGTH:   31997130      RECORD LENGTH: 524288

 Memory used in sort:      32.55 MW

 SORT1 READ   755917244. AND WROTE   759925654. INTEGRALS IN   2189 RECORDS. CPU TIME:    23.56 SEC, REAL TIME:    69.29 SEC
 SORT2 READ   759925654. AND WROTE   789027325. INTEGRALS IN     25 RECORDS. CPU TIME:     8.44 SEC, REAL TIME:    12.28 SEC

 FILE SIZES:   FILE 1: 12120.5 MBYTE,  FILE 4:  9181.4 MBYTE,   TOTAL:  21301.9 MBYTE

 OPERATOR DM      FOR CENTER  0  COORDINATES:    0.000000    0.000000    0.000000


 **********************************************************************************************************************************
 DATASETS  * FILE   NREC   LENGTH (MB)   RECORD NAMES
              1      19     6369.28       500      610      700      900      950      970     1000      129      960     1100   
                                          VAR    BASINP    GEOM    SYMINP    ZMAT    AOBASIS   BASIS     P2S    ABASIS      S 
                                         1400     1410     1200     1210     1080     1600     1650     1300     1700   
                                           T        V       H0       H01     AOSYM     SMH    MOLCAS    ERIS     OPER   

 PROGRAMS   *        TOTAL       INT
 CPU TIMES  *       123.66    123.58
 REAL TIME  *       179.97 SEC
 DISK USED  *        21.30 GB      
 **********************************************************************************************************************************


 PROGRAM * RHF-SCF (CLOSED SHELL)       Authors: W. Meyer, H.-J. Werner


 NUMBER OF ELECTRONS:       7+    7-
 CONVERGENCE THRESHOLDS:    1.00E-10 (Density)    1.00E-13 (Energy)
 MAX. NUMBER OF ITERATIONS:      500
 INTERPOLATION TYPE:            DIIS
 INTERPOLATION STEPS:              2 (START)      1 (STEP)
 LEVEL SHIFTS:                  0.00 (CLOSED)  0.00 (OPEN) 



 Orbital guess generated from atomic densities. Full valence occupancy:    9   2

 Molecular orbital dump at record        2100.2

 Initial occupancy:   6   1

 ITERATION    DDIFF          GRAD             ENERGY        2-EL.EN.            DIPOLE MOMENTS         DIIS   ORB.
    1      0.000D+00      0.000D+00       -92.89119611    111.993865    0.01385    0.00000   -1.78312    0    start
    2      0.000D+00      0.426D-02       -92.90021199    111.111302   -0.00491    0.00000   -0.89892    1    diag
    3      0.316D-02      0.378D-02       -92.91545547    111.656219    0.00295    0.00000   -1.30842    2    diag
    4      0.162D-02      0.318D-03       -92.91568620    111.618423    0.00226    0.00000   -1.29637    3    diag
    5      0.305D-03      0.678D-04       -92.91569960    111.627590    0.00206    0.00000   -1.29487    4    diag
    6      0.752D-04      0.183D-04       -92.91570039    111.622777    0.00204    0.00000   -1.29494    5    diag
    7      0.149D-04      0.650D-05       -92.91570047    111.623974    0.00203    0.00000   -1.29499    6    diag
    8      0.501D-05      0.139D-05       -92.91570047    111.623917    0.00203    0.00000   -1.29496    7    diag
    9      0.106D-05      0.164D-06       -92.91570047    111.623926    0.00203    0.00000   -1.29495    8    diag
   10      0.168D-06      0.253D-07       -92.91570047    111.623927    0.00203    0.00000   -1.29495    9    orth
   11      0.253D-07      0.895D-08       -92.91570047    111.623927    0.00203    0.00000   -1.29495    9    diag
   12      0.121D-07      0.420D-08       -92.91570047    111.623927    0.00203    0.00000   -1.29495    9    diag
   13      0.875D-08      0.119D-08       -92.91570047    111.623927    0.00203    0.00000   -1.29495    9    diag
   14      0.242D-08      0.305D-09       -92.91570047    111.623927    0.00203    0.00000   -1.29495    9    diag
   15      0.493D-09      0.100D-09       -92.91570047    111.623927    0.00203    0.00000   -1.29495    9    diag
   16      0.222D-09      0.194D-10       -92.91570047    111.623927    0.00203    0.00000   -1.29495    9    diag
   17      0.577D-10      0.317D-11       -92.91570047    111.623927    0.00203    0.00000   -1.29495    9    diag
   18      0.788D-10      0.716D-12       -92.91570047    111.623927    0.00203    0.00000   -1.29495    9    diag
   19      0.431D-10      0.323D-12       -92.91570047    111.623927    0.00203    0.00000   -1.29495    9    fixocc
   20      0.154D-10      0.450D-12       -92.91570047    111.623927    0.00203    0.00000   -1.29495    9    orth
   21      0.832D-11      0.369D-12       -92.91570047    111.623927    0.00203    0.00000   -1.29495    9    diag
   22      0.863D-11      0.531D-12       -92.91570047    111.623927    0.00203    0.00000   -1.29495    9    diag
   23      0.872D-11      0.521D-12       -92.91570047    111.623927    0.00203    0.00000   -1.29495    9    diag
   24      0.734D-11      0.317D-12       -92.91570047    111.623927    0.00203    0.00000   -1.29495    9    diag
   25      0.317D-11      0.320D-12       -92.91570047    111.623927    0.00203    0.00000   -1.29495    9    diag
   26      0.576D-11      0.325D-12       -92.91570047    111.623927    0.00203    0.00000   -1.29495    9    diag
   27      0.451D-11      0.273D-12       -92.91570047    111.623927    0.00203    0.00000   -1.29495    0    orth

 Final occupancy:   6   1

 !RHF STATE 1.1 Energy                -92.915700468487
 Nuclear energy                        23.92602617
 One-electron energy                 -172.65369019
 Two-electron energy                   55.81196355
 Virial quotient                       -1.00201700
 !RHF STATE 1.1 Dipole moment           0.00202563     0.00000000    -1.29495166
 Dipole moment /Debye                   0.00514831     0.00000000    -3.29122324

 Orbital energies:

         1.1          2.1          3.1          4.1          5.1          6.1          7.1          8.1
    -15.597944   -11.290886    -1.236481    -0.813183    -0.582315    -0.497031     0.017577     0.052439

         1.2          2.2          3.2
     -0.497041     0.052451     0.101725

 HOMO      6.1    -0.497031 =     -13.5249eV
 LUMO      7.1     0.017577 =       0.4783eV
 LUMO-HOMO         0.514609 =      14.0032eV


 **********************************************************************************************************************************
 DATASETS  * FILE   NREC   LENGTH (MB)   RECORD NAMES
              1      19     6369.28       500      610      700      900      950      970     1000      129      960     1100   
                                          VAR    BASINP    GEOM    SYMINP    ZMAT    AOBASIS   BASIS     P2S    ABASIS      S 
                                         1400     1410     1200     1210     1080     1600     1650     1300     1700   
                                           T        V       H0       H01     AOSYM     SMH    MOLCAS    ERIS     OPER   

              2       4        4.02       700     1000      520     2100   
                                         GEOM     BASIS   MCVARS     RHF  

 PROGRAMS   *        TOTAL        HF       INT
 CPU TIMES  *       212.46     88.80    123.58
 REAL TIME  *       295.04 SEC
 DISK USED  *        21.30 GB      
 **********************************************************************************************************************************


 PROGRAM * CCSD (Closed-shell coupled cluster)     Authors: C. Hampel, H.-J. Werner, 1991, M. Deegan, P.J. Knowles, 1992


 Convergence thresholds:  THRVAR = 1.00D-08  THRDEN = 1.00D-12

 CCSD(T)     terms to be evaluated (factor= 1.000)


 Number of core orbitals:           2 (   2   0 )
 Number of closed-shell orbitals:   5 (   4   1 )
 Number of external orbitals:     327 ( 198 129 )

 Molecular orbitals read from record     2100.2  Type=RHF/CANONICAL (state 1.1)

 Number of N-1 electron functions:               5
 Number of N-2 electron functions:              15
 Number of singly external CSFs:               921
 Number of doubly external CSFs:            679836
 Total number of CSFs:                      680758

 Length of J-op  integral file:               0.00 MB
 Length of K-op  integral file:               4.07 MB
 Length of 3-ext integral record:             0.00 MB

 Memory could be reduced to 134.37 Mwords without degradation in triples

 Integral transformation finished. Total CPU:   9.36 sec, npass=  1  Memory used:  35.82 MW

 Reference energy:                    -92.91570047

 MP2 singlet pair energy:              -0.24480521
 MP2 triplet pair energy:              -0.13291726
 MP2 correlation energy:               -0.37772247
 MP2 total energy:                    -93.29342294

 SCS-MP2 correlation energy:           -0.37647033   (PS=  1.200000  PT=  0.333333)
 SCS-MP2 total energy:                -93.29217079

 ITER.      SQ.NORM     CORR.ENERGY   TOTAL ENERGY   ENERGY CHANGE        DEN1      VAR(S)    VAR(P)  DIIS     TIME  TIME/IT
   1      1.11517371    -0.37407489   -93.28977535     0.00364759     0.01709130  0.26D-02  0.31D-02  1  1    16.53     8.13
   2      1.12437508    -0.37422248   -93.28992295    -0.00014760    -0.01032198  0.67D-04  0.40D-03  2  2    23.76     8.17
   3      1.12934371    -0.37445523   -93.29015570    -0.00023275    -0.00260273  0.14D-04  0.47D-04  3  3    31.45     8.37
   4      1.13148271    -0.37451467   -93.29021514    -0.00005944    -0.00077711  0.68D-06  0.54D-05  4  4    39.24     8.48
   5      1.13205728    -0.37452508   -93.29022555    -0.00001041    -0.00016156  0.75D-07  0.47D-06  5  5    46.90     8.53
   6      1.13217244    -0.37452347   -93.29022394     0.00000161    -0.00002848  0.98D-08  0.39D-07  6  6    54.35     8.53
   7      1.13218195    -0.37452458   -93.29022505    -0.00000111    -0.00000115  0.88D-09  0.33D-08  6  1    61.66     8.49
   8      1.13218474    -0.37452501   -93.29022548    -0.00000043    -0.00000118  0.13D-09  0.30D-09  6  2    68.96     8.45
   9      1.13218482    -0.37452509   -93.29022556    -0.00000007     0.00000001  0.13D-10  0.20D-10  6  3    76.17     8.42
  10      1.13218469    -0.37452514   -93.29022561    -0.00000005     0.00000011  0.13D-11  0.18D-11  6  4    83.28     8.40
  11      1.13218463    -0.37452516   -93.29022562    -0.00000002     0.00000003  0.22D-12  0.17D-12  6  5    90.55     8.38
  12      1.13218456    -0.37452516   -93.29022563    -0.00000001     0.00000003  0.35D-13  0.28D-13  6  6    97.82     8.36
  13      1.13218453    -0.37452516   -93.29022563    -0.00000000     0.00000001  0.53D-14  0.60D-14  6  1   104.74     8.35
  14      1.13218451    -0.37452516   -93.29022563    -0.00000000     0.00000001  0.79D-15  0.93D-15  6  2   111.74     8.33
  15      1.13218450    -0.37452516   -93.29022563    -0.00000000     0.00000000  0.14D-15  0.13D-15  6  3   118.98     8.32
  16      1.13218450    -0.37452516   -93.29022563     0.00000000     0.00000000  0.29D-16  0.21D-16  6  4   126.13     8.31
  17      1.13218450    -0.37452516   -93.29022563     0.00000000     0.00000000  0.90D-17  0.52D-17  6  5   133.27     8.30
  18      1.13218450    -0.37452516   -93.29022563     0.00000000    -0.00000000  0.29D-17  0.15D-17  6  6   140.41     8.30
  19      1.13218450    -0.37452516   -93.29022563     0.00000000    -0.00000000  0.12D-17  0.69D-18  6  1   147.66     8.29
  20      1.13218450    -0.37452516   -93.29022563     0.00000000     0.00000000  0.69D-18  0.43D-18  6  2   154.97     8.28
  21      1.13218450    -0.37452516   -93.29022563     0.00000000    -0.00000000  0.39D-18  0.31D-18  6  3   162.11     8.28

 Norm of t1 vector:      0.06463743      S-energy:    -0.00000000      T1 diagnostic:  0.01445337
                                                                       D1 diagnostic:  0.02914689


 Total CPU time for triples:     51.46 sec


 RESULTS
 =======

  Reference energy                    -92.915700468487
  CCSD singlet pair energy             -0.263199988437
  CCSD triplet pair energy             -0.111325174607
  CCSD correlation energy              -0.374525163053

  Triples (T) contribution             -0.019986749647
  Total correlation energy             -0.394511912701

  CCSD total energy                   -93.290225631541
  CCSD[T] energy                      -93.311058247830
  CCSD-T energy                       -93.309838974269
 !CCSD(T) total energy                -93.310212381188

 Timing summary (sec):

 STEP                 CPU(USER)    SYS     CPU(TOT)    WALL
 Transformation          9.39      1.48     10.87     10.90
 CCSD iterations       152.72     21.14    173.86    173.88
 Triples                51.46      1.03     52.49     52.49

 Program statistics:

 Available memory in ccsd:               994999800
 Min. memory needed in ccsd:               2642580
 Max. memory used in ccsd:                 3176052
 Max. memory used in cckext:               7643882 (21 integral passes)



 **********************************************************************************************************************************
 DATASETS  * FILE   NREC   LENGTH (MB)   RECORD NAMES
              1      20     6733.41       500      610      700      900      950      970     1000      129      960     1100   
                                          VAR    BASINP    GEOM    SYMINP    ZMAT    AOBASIS   BASIS     P2S    ABASIS      S 
                                         1400     1410     1200     1210     1080     1600     1650     1300     1700     1380   
                                           T        V       H0       H01     AOSYM     SMH    MOLCAS    ERIS     OPER     JKOP   

              2       4        4.02       700     1000      520     2100   
                                         GEOM     BASIS   MCVARS     RHF  

 PROGRAMS   *        TOTAL   CCSD(T)        HF       INT
 CPU TIMES  *       426.06    213.59     88.80    123.58
 REAL TIME  *       532.36 SEC
 DISK USED  *        21.30 GB      
 **********************************************************************************************************************************

 CCSD(T)/aug-cc-pV5Z energy=    -93.310212381188

        CCSD(T)         HF-SCF  
    -93.31021238    -92.91570047
 **********************************************************************************************************************************
 Molpro calculation terminated
 Variable memory released
