
 Primary working directories    : /tmp/r2666/232423.maple
 Secondary working directories  : /tmp/r2666/232423.maple
 Wavefunction directory         : /ddn/home4/r2666/wfu/
 Main file repository           : /tmp/r2666/232423.maple/

 SHA1      : d5ffa45e93fdbca01ffc919aa182cfdae0147319
 NAME      : 2015.1.35
 ARCHNAME  : linux/x86_64
 FC        : /opt/intel/composer_xe_2015.1.133/bin/intel64/ifort
 BLASLIB   : -Wl,-_start-group /opt/intel/mkl/lib/intel64/libmkl_intel_ilp64.a /opt/intel/mkl/lib/intel64/libmkl_intel_thread.a /opt/intel/mkl/lib/intel64/libmkl_core.a -Wl,-_end-group
 id        : olemiss

 Nodes     nprocs
 cn088        1

 Using customized tuning parameters: mindgm=1; mindgv=20; mindgc=4; mindgr=1; noblas=0; minvec=7
 default implementation of scratch files=df  

 ***,hcn CCSD(T)/TZ-F12 QFF
 memory, 995, m;
 gthresh,energy=1.d-12,zero=1.d-22,oneint=1.d-22,twoint=1.d-22;
 gthresh,optgrad=1.d-8,optstep=1.d-8;
 nocompress;
 geomtyp=xyz
 bohr
 geometry={
 3
         32        32
 N        0.0000000000        0.0000000000        1.1310004776
 C        0.0000000000        0.0000000000       -1.0478491894
 H        0.0000000000        0.0000000000       -3.0802212703
 }
 
 basis=av5z
   {hf,maxit=500;accu,20;}
 {ccsd(t),nocheck,maxit=250;orbital,IGNORE_ERROR;}

 Variables initialized (889), CPU time= 0.01 sec
 Commands  initialized (702), CPU time= 0.00 sec, 572 directives.
 Default parameters read. Elapsed time= 0.05 sec

 Checking input...
 Passed
1


                                         ***  PROGRAM SYSTEM MOLPRO  ***
                                       Copyright, TTI GmbH Stuttgart, 2015
                                    Version 2015.1 linked Jul  9 2018 13:16:40


 **********************************************************************************************************************************
 LABEL *   hcn CCSD(T)/TZ-F12 QFF                                                        
  64 bit serial version                                                                  DATE: 06-Feb-20          TIME: 09:49:39  
 **********************************************************************************************************************************

 SHA1:             d5ffa45e93fdbca01ffc919aa182cfdae0147319
 **********************************************************************************************************************************

 THRESHOLDS:

 ZERO    =  1.00D-22  ONEINT  =  1.00D-22  TWOINT  =  1.00D-22  PREFAC  =  1.00D-14  LOCALI  =  1.00D-09  EORDER  =  1.00D-04
 ENERGY  =  1.00D-12  ETEST   =  0.00D+00  EDENS   =  0.00D+00  THRDEDEF=  1.00D-06  GRADIENT=  1.00D-02  STEP    =  1.00D-03
 ORBITAL =  1.00D-05  CIVEC   =  1.00D-05  COEFF   =  1.00D-04  PRINTCI =  5.00D-02  PUNCHCI =  9.90D+01  OPTGRAD =  3.00D-04
 OPTENERG=  1.00D-06  OPTSTEP =  3.00D-04  THRGRAD =  1.00D-10  COMPRESS=  1.00D-11  VARMIN  =  1.00D-07  VARMAX  =  1.00D-03
 THRDOUB =  0.00D+00  THRDIV  =  1.00D-05  THRRED  =  1.00D-07  THRPSP  =  1.00D+00  THRDC   =  1.00D-10  THRCS   =  1.00D-10
 THRNRM  =  1.00D-08  THREQ   =  0.00D+00  THRDE   =  1.00D+00  THRREF  =  1.00D-05  SPARFAC =  1.00D+00  THRDLP  =  1.00D-07
 THRDIA  =  1.00D-10  THRDLS  =  1.00D-07  THRGPS  =  0.00D+00  THRKEX  =  0.00D+00  THRDIS  =  2.00D-01  THRVAR  =  1.00D-10
 THRLOC  =  1.00D-06  THRGAP  =  1.00D-06  THRLOCT = -1.00D+00  THRGAPT = -1.00D+00  THRORB  =  1.00D-06  THRMLTP =  0.00D+00
 THRCPQCI=  1.00D-10  KEXTA   =  0.00D+00  THRCOARS=  0.00D+00  SYMTOL  =  1.00D-06  GRADTOL =  1.00D-06  THROVL  =  1.00D-08
 THRORTH =  1.00D-08  GRID    =  1.00D-06  GRIDMAX =  1.00D-03  DTMAX   =  0.00D+00  THROCCDE=  1.00D-01  THROCCDE=  1.00D-01



 THRESHOLDS:

 ZERO    =  1.00D-22  ONEINT  =  1.00D-22  TWOINT  =  1.00D-22  PREFAC  =  1.00D-14  LOCALI  =  1.00D-09  EORDER  =  1.00D-04
 ENERGY  =  1.00D-12  ETEST   =  0.00D+00  EDENS   =  0.00D+00  THRDEDEF=  1.00D-06  GRADIENT=  1.00D-02  STEP    =  1.00D-03
 ORBITAL =  1.00D-05  CIVEC   =  1.00D-05  COEFF   =  1.00D-04  PRINTCI =  5.00D-02  PUNCHCI =  9.90D+01  OPTGRAD =  1.00D-08
 OPTENERG=  1.00D-06  OPTSTEP =  1.00D-08  THRGRAD =  1.00D-10  COMPRESS=  1.00D-11  VARMIN  =  1.00D-07  VARMAX  =  1.00D-03
 THRDOUB =  0.00D+00  THRDIV  =  1.00D-05  THRRED  =  1.00D-07  THRPSP  =  1.00D+00  THRDC   =  1.00D-10  THRCS   =  1.00D-10
 THRNRM  =  1.00D-08  THREQ   =  0.00D+00  THRDE   =  1.00D+00  THRREF  =  1.00D-05  SPARFAC =  1.00D+00  THRDLP  =  1.00D-07
 THRDIA  =  1.00D-10  THRDLS  =  1.00D-07  THRGPS  =  0.00D+00  THRKEX  =  0.00D+00  THRDIS  =  2.00D-01  THRVAR  =  1.00D-10
 THRLOC  =  1.00D-06  THRGAP  =  1.00D-06  THRLOCT = -1.00D+00  THRGAPT = -1.00D+00  THRORB  =  1.00D-06  THRMLTP =  0.00D+00
 THRCPQCI=  1.00D-10  KEXTA   =  0.00D+00  THRCOARS=  0.00D+00  SYMTOL  =  1.00D-06  GRADTOL =  1.00D-06  THROVL  =  1.00D-08
 THRORTH =  1.00D-08  GRID    =  1.00D-06  GRIDMAX =  1.00D-03  DTMAX   =  0.00D+00  THROCCDE=  1.00D-01  THROCCDE=  1.00D-01



 Input parameters for SORTINT:

 COMPRESS =    0.000000
 C_FINAL  =    1.000000
 DEBUG    =   -1.000000
 C_SORT1  =    0.000000
 C_SEWARD =    0.000000
 THRESH   =    0.000000
 IO       =  molpro                                                          
 SPRI     =    0.000000
 SETTING GEOMTYP        =    XYZ
 ZUNIT=BOHR
 

 Variable memory set to  995000000 words,  buffer space   230000 words

 SETTING BASIS          =    AV5Z


 Recomputing integrals since basis changed


 Using spherical harmonics

 Library entry N      S aug-cc-pV5Z          selected for orbital group  1
 Library entry N      P aug-cc-pV5Z          selected for orbital group  1
 Library entry N      D aug-cc-pV5Z          selected for orbital group  1
 Library entry N      F aug-cc-pV5Z          selected for orbital group  1
 Library entry N      G aug-cc-pV5Z          selected for orbital group  1
 Library entry N      H aug-cc-pV5Z          selected for orbital group  1
 Library entry C      S aug-cc-pV5Z          selected for orbital group  2
 Library entry C      P aug-cc-pV5Z          selected for orbital group  2
 Library entry C      D aug-cc-pV5Z          selected for orbital group  2
 Library entry C      F aug-cc-pV5Z          selected for orbital group  2
 Library entry C      G aug-cc-pV5Z          selected for orbital group  2
 Library entry C      H aug-cc-pV5Z          selected for orbital group  2
 Library entry H      S aug-cc-pV5Z          selected for orbital group  3
 Library entry H      P aug-cc-pV5Z          selected for orbital group  3
 Library entry H      D aug-cc-pV5Z          selected for orbital group  3
 Library entry H      F aug-cc-pV5Z          selected for orbital group  3
 Library entry H      G aug-cc-pV5Z          selected for orbital group  3


 PROGRAM * SEWARD (Integral evaluation for generally contracted gaussian basis sets)     Author: Roland Lindh, 1990

 Geometry written to block  1 of record 700


 Point group  C2v 



 ATOMIC COORDINATES

 NR  ATOM    CHARGE       X              Y              Z

   1  N       7.00    0.000000000    0.000000000    1.131000478
   2  C       6.00    0.000000000    0.000000000   -1.047849189
   3  H       1.00    0.000000000    0.000000000   -3.080221270

 Bond lengths in Bohr (Angstrom)

 1-2  2.178849667  2-3  2.032372081
     ( 1.152997590)     ( 1.075484989)

 Bond angles

  1-2-3  180.00000000

 NUCLEAR CHARGE:                   14
 NUMBER OF PRIMITIVE AOS:         506
 NUMBER OF SYMMETRY AOS:          371
 NUMBER OF CONTRACTIONS:          334   ( 123A1  +  81B1  +  81B2  +  49A2  )
 NUMBER OF CORE ORBITALS:           2   (   2A1  +   0B1  +   0B2  +   0A2  )
 NUMBER OF VALENCE ORBITALS:        9   (   5A1  +   2B1  +   2B2  +   0A2  )


 NUCLEAR REPULSION ENERGY   23.89066742

 EXTRA SYMMETRY OF AOS IN SYMMETRY 1:   1 1 1 1 1 1 1 1 1 1   1 1 1 1 2 1 2 1 2 1   2 1 2 1 2 1 2 1 2 1   2 1 3 2 1 3 2 1 3 2
                                        2 3 1 2 3 1 1 1 1 1   1 1 1 1 1 1 1 1 1 1   2 1 2 1 2 1 2 1 2 1   2 1 2 1 2 1 2 1 3 2
                                        1 3 2 1 3 2 2 3 1 2   3 1 1 1 1 1 1 1 1 1   1 1 1 1 2 1 2 1 2 1   2 1 2 1 2 1 2 1 3 2
                                        1 3 2
 EXTRA SYMMETRY OF AOS IN SYMMETRY 2:   1 1 1 1 1 1 1 1 1 1   1 1 2 1 2 1 2 1 2 1   2 1 2 1 2 1 2 3 1 2   3 1 1 1 1 1 1 1 1 1
                                        1 1 1 2 1 2 1 2 1 2   1 2 1 2 1 2 1 2 3 1   2 3 1 1 1 1 1 1 1 1   1 1 2 1 2 1 2 1 2 1
                                        2
 EXTRA SYMMETRY OF AOS IN SYMMETRY 3:   1 1 1 1 1 1 1 1 1 1   1 1 2 1 2 1 2 1 2 1   2 1 2 1 2 1 2 3 1 2   3 1 1 1 1 1 1 1 1 1
                                        1 1 1 2 1 2 1 2 1 2   1 2 1 2 1 2 1 2 3 1   2 3 1 1 1 1 1 1 1 1   1 1 2 1 2 1 2 1 2 1
                                        2
 EXTRA SYMMETRY OF AOS IN SYMMETRY 4:   1 1 1 1 1 1 1 1 1 1   2 1 2 1 2 2 1 2 1 1   1 1 1 1 1 1 1 1 1 2   1 2 1 2 2 1 2 1 1 1
                                        1 1 1 1 1 1 2 1 2

 Eigenvalues of metric

         1 0.255E-05 0.560E-05 0.149E-04 0.360E-04 0.584E-04 0.702E-04 0.175E-03 0.223E-03
         2 0.568E-04 0.191E-03 0.375E-03 0.711E-03 0.936E-03 0.157E-02 0.186E-02 0.370E-02
         3 0.568E-04 0.191E-03 0.375E-03 0.711E-03 0.936E-03 0.157E-02 0.186E-02 0.370E-02
         4 0.768E-03 0.226E-02 0.486E-02 0.716E-02 0.174E-01 0.238E-01 0.256E-01 0.649E-01


 Contracted 2-electron integrals neglected if value below      1.0D-22

      355173507. INTEGRALS WRITTEN OUT IN   86734 BLOCKS ON RECORD 1290 OF FILE 1


 NUMBER OF SORTED TWO-ELECTRON INTEGRALS:  396972178.     BUFFER LENGTH:  32768
 NUMBER OF SEGMENTS:  13  SEGMENT LENGTH:   31999071      RECORD LENGTH: 524288

 Memory used in sort:      32.56 MW

 SORT1 READ   355173507. AND WROTE   358347273. INTEGRALS IN   1031 RECORDS. CPU TIME:     8.99 SEC, REAL TIME:    11.64 SEC
 SORT2 READ   358347273. AND WROTE   396972178. INTEGRALS IN     13 RECORDS. CPU TIME:     4.86 SEC, REAL TIME:     6.76 SEC

 FILE SIZES:   FILE 1:  5706.5 MBYTE,  FILE 4:  4324.4 MBYTE,   TOTAL:  10030.9 MBYTE

 OPERATOR DM      FOR CENTER  0  COORDINATES:    0.000000    0.000000    0.000000


 **********************************************************************************************************************************
 DATASETS  * FILE   NREC   LENGTH (MB)   RECORD NAMES
              1      19     3079.25       500      610      700      900      950      970     1000      129      960     1100   
                                          VAR    BASINP    GEOM    SYMINP    ZMAT    AOBASIS   BASIS     P2S    ABASIS      S 
                                         1400     1410     1200     1210     1080     1600     1650     1300     1700   
                                           T        V       H0       H01     AOSYM     SMH    MOLCAS    ERIS     OPER   

 PROGRAMS   *        TOTAL       INT
 CPU TIMES  *        81.64     81.55
 REAL TIME  *        89.48 SEC
 DISK USED  *        10.03 GB      
 **********************************************************************************************************************************


 PROGRAM * RHF-SCF (CLOSED SHELL)       Authors: W. Meyer, H.-J. Werner


 NUMBER OF ELECTRONS:       7+    7-
 CONVERGENCE THRESHOLDS:    1.00E-10 (Density)    1.00E-13 (Energy)
 MAX. NUMBER OF ITERATIONS:      500
 INTERPOLATION TYPE:            DIIS
 INTERPOLATION STEPS:              2 (START)      1 (STEP)
 LEVEL SHIFTS:                  0.00 (CLOSED)  0.00 (OPEN) 



 Orbital guess generated from atomic densities. Full valence occupancy:    7   2   2   0

 Molecular orbital dump at record        2100.2

 Initial occupancy:   5   1   1   0

 ITERATION    DDIFF          GRAD             ENERGY        2-EL.EN.            DIPOLE MOMENTS         DIIS   ORB.
    1      0.000D+00      0.000D+00       -92.89065828    111.945708    0.00000    0.00000   -1.79640    0    start
    2      0.000D+00      0.569D-02       -92.89969700    111.050671    0.00000    0.00000   -0.90090    1    diag
    3      0.438D-02      0.506D-02       -92.91529523    111.600742    0.00000    0.00000   -1.31415    2    diag
    4      0.225D-02      0.418D-03       -92.91552415    111.563745    0.00000    0.00000   -1.30216    3    diag
    5      0.419D-03      0.900D-04       -92.91553768    111.572977    0.00000    0.00000   -1.30062    4    diag
    6      0.104D-03      0.245D-04       -92.91553849    111.568144    0.00000    0.00000   -1.30069    5    diag
    7      0.208D-04      0.870D-05       -92.91553857    111.569363    0.00000    0.00000   -1.30074    6    diag
    8      0.697D-05      0.186D-05       -92.91553857    111.569305    0.00000    0.00000   -1.30071    7    diag
    9      0.146D-05      0.215D-06       -92.91553857    111.569313    0.00000    0.00000   -1.30071    8    diag
   10      0.226D-06      0.271D-07       -92.91553857    111.569315    0.00000    0.00000   -1.30071    9    orth
   11      0.265D-07      0.392D-08       -92.91553857    111.569315    0.00000    0.00000   -1.30071    9    diag
   12      0.489D-08      0.379D-09       -92.91553857    111.569315    0.00000    0.00000   -1.30071    9    diag
   13      0.111D-08      0.333D-10       -92.91553857    111.569315    0.00000    0.00000   -1.30071    9    diag
   14      0.117D-09      0.649D-11       -92.91553857    111.569315    0.00000    0.00000   -1.30071    9    diag
   15      0.104D-09      0.134D-11       -92.91553857    111.569315    0.00000    0.00000   -1.30071    9    diag
   16      0.746D-10      0.779D-12       -92.91553857    111.569315    0.00000    0.00000   -1.30071    9    diag
   17      0.585D-10      0.526D-12       -92.91553857    111.569315    0.00000    0.00000   -1.30071    9    diag
   18      0.261D-10      0.359D-12       -92.91553857    111.569315    0.00000    0.00000   -1.30071    9    diag
   19      0.125D-10      0.446D-12       -92.91553857    111.569315    0.00000    0.00000   -1.30071    9    fixocc
   20      0.532D-11      0.498D-12       -92.91553857    111.569315    0.00000    0.00000   -1.30071    9    orth
   21      0.505D-11      0.416D-12       -92.91553857    111.569315    0.00000    0.00000   -1.30071    9    diag
   22      0.397D-11      0.316D-12       -92.91553857    111.569315    0.00000    0.00000   -1.30071    9    diag
   23      0.196D-11      0.263D-12       -92.91553857    111.569315    0.00000    0.00000   -1.30071    9    diag
   24      0.914D-12      0.473D-12       -92.91553857    111.569315    0.00000    0.00000   -1.30071    9    diag
   25      0.111D-11      0.441D-12       -92.91553857    111.569315    0.00000    0.00000   -1.30071    9    diag
   26      0.204D-11      0.492D-12       -92.91553857    111.569315    0.00000    0.00000   -1.30071    0    orth

 Final occupancy:   5   1   1   0

 !RHF STATE 1.1 Energy                -92.915538568567
 Nuclear energy                        23.89066742
 One-electron energy                 -172.59086327
 Two-electron energy                   55.78465727
 Virial quotient                       -1.00218291
 !RHF STATE 1.1 Dipole moment           0.00000000     0.00000000    -1.30070545
 Dipole moment /Debye                   0.00000000     0.00000000    -3.30584695

 Orbital energies:

         1.1          2.1          3.1          4.1          5.1          6.1          7.1
    -15.597739   -11.291639    -1.236339    -0.809322    -0.581967     0.017536     0.053215

         1.2          2.2          3.2
     -0.496884     0.052460     0.101741

         1.3          2.3          3.3
     -0.496884     0.052460     0.101741

         1.4          2.4
      0.202800     0.327184

 HOMO      1.2    -0.496884 =     -13.5209eV
 LUMO      6.1     0.017536 =       0.4772eV
 LUMO-HOMO         0.514420 =      13.9981eV


 **********************************************************************************************************************************
 DATASETS  * FILE   NREC   LENGTH (MB)   RECORD NAMES
              1      19     3079.25       500      610      700      900      950      970     1000      129      960     1100   
                                          VAR    BASINP    GEOM    SYMINP    ZMAT    AOBASIS   BASIS     P2S    ABASIS      S 
                                         1400     1410     1200     1210     1080     1600     1650     1300     1700   
                                           T        V       H0       H01     AOSYM     SMH    MOLCAS    ERIS     OPER   

              2       4        3.46       700     1000      520     2100   
                                         GEOM     BASIS   MCVARS     RHF  

 PROGRAMS   *        TOTAL        HF       INT
 CPU TIMES  *       110.00     28.36     81.55
 REAL TIME  *       124.73 SEC
 DISK USED  *        10.03 GB      
 **********************************************************************************************************************************


 PROGRAM * CCSD (Closed-shell coupled cluster)     Authors: C. Hampel, H.-J. Werner, 1991, M. Deegan, P.J. Knowles, 1992


 Convergence thresholds:  THRVAR = 1.00D-08  THRDEN = 1.00D-12

 CCSD(T)     terms to be evaluated (factor= 1.000)


 Number of core orbitals:           2 (   2   0   0   0 )
 Number of closed-shell orbitals:   5 (   3   1   1   0 )
 Number of external orbitals:     327 ( 118  80  80  49 )

 Molecular orbitals read from record     2100.2  Type=RHF/CANONICAL (state 1.1)

 Number of N-1 electron functions:               5
 Number of N-2 electron functions:              15
 Number of singly external CSFs:               514
 Number of doubly external CSFs:            345689
 Total number of CSFs:                      346204

 Length of J-op  integral file:               0.00 MB
 Length of K-op  integral file:               2.14 MB
 Length of 3-ext integral record:             0.00 MB

 Memory could be reduced to 68.09 Mwords without degradation in triples

 Integral transformation finished. Total CPU:   3.68 sec, npass=  1  Memory used:   7.20 MW

 Reference energy:                    -92.91553857

 MP2 singlet pair energy:              -0.24486960
 MP2 triplet pair energy:              -0.13294197
 MP2 correlation energy:               -0.37781157
 MP2 total energy:                    -93.29335014

 SCS-MP2 correlation energy:           -0.37656297   (PS=  1.200000  PT=  0.333333)
 SCS-MP2 total energy:                -93.29210153

 ITER.      SQ.NORM     CORR.ENERGY   TOTAL ENERGY   ENERGY CHANGE        DEN1      VAR(S)    VAR(P)  DIIS     TIME  TIME/IT
   1      1.11535225    -0.37416770   -93.28970627     0.00364387     0.01711325  0.26D-02  0.32D-02  1  1     6.57     3.38
   2      1.12458532    -0.37432238   -93.28986095    -0.00015468    -0.01034077  0.67D-04  0.41D-03  2  2     9.49     3.42
   3      1.12958532    -0.37455864   -93.29009721    -0.00023626    -0.00261662  0.14D-04  0.47D-04  3  3    12.50     3.50
   4      1.13173311    -0.37461850   -93.29015707    -0.00005986    -0.00078037  0.69D-06  0.54D-05  4  4    15.37     3.50
   5      1.13230982    -0.37462930   -93.29016787    -0.00001080    -0.00016186  0.81D-07  0.47D-06  5  5    18.29     3.50
   6      1.13242727    -0.37462765   -93.29016622     0.00000165    -0.00002912  0.99D-08  0.39D-07  6  6    21.18     3.49
   7      1.13243713    -0.37462873   -93.29016730    -0.00000108    -0.00000122  0.90D-09  0.33D-08  6  1    24.03     3.49
   8      1.13244000    -0.37462915   -93.29016772    -0.00000042    -0.00000122  0.13D-09  0.30D-09  6  2    26.97     3.47
   9      1.13244011    -0.37462923   -93.29016779    -0.00000007     0.00000001  0.12D-10  0.20D-10  6  3    29.88     3.47
  10      1.13243998    -0.37462928   -93.29016785    -0.00000005     0.00000011  0.12D-11  0.19D-11  6  4    32.84     3.46
  11      1.13243991    -0.37462929   -93.29016786    -0.00000002     0.00000003  0.18D-12  0.17D-12  6  5    35.75     3.45
  12      1.13243985    -0.37462930   -93.29016787    -0.00000001     0.00000003  0.20D-13  0.27D-13  6  6    38.63     3.44
  13      1.13243982    -0.37462930   -93.29016787    -0.00000000     0.00000001  0.20D-14  0.53D-14  6  1    41.54     3.43
  14      1.13243980    -0.37462930   -93.29016787    -0.00000000     0.00000001  0.13D-15  0.82D-15  6  2    44.45     3.43
  15      1.13243979    -0.37462930   -93.29016787    -0.00000000     0.00000000  0.15D-16  0.11D-15  6  3    47.32     3.42
  16      1.13243979    -0.37462930   -93.29016787     0.00000000     0.00000000  0.21D-17  0.16D-16  6  4    50.21     3.42
  17      1.13243979    -0.37462930   -93.29016787     0.00000000     0.00000000  0.74D-18  0.28D-17  6  5    53.11     3.41
  18      1.13243979    -0.37462930   -93.29016787     0.00000000     0.00000000  0.25D-18  0.57D-18  6  6    56.00     3.41
  19      1.13243979    -0.37462930   -93.29016787     0.00000000    -0.00000000  0.11D-18  0.31D-18  6  1    58.86     3.41
  20      1.13243979    -0.37462930   -93.29016787    -0.00000000     0.00000000  0.64D-19  0.15D-18  6  2    61.65     3.40
  21      1.13243979    -0.37462930   -93.29016787     0.00000000     0.00000000  0.27D-19  0.63D-19  6  6    64.44     3.40

 Norm of t1 vector:      0.06470155      S-energy:    -0.00000000      T1 diagnostic:  0.01446771
                                                                       D1 diagnostic:  0.02912751


 Total CPU time for triples:     18.13 sec


 RESULTS
 =======

  Reference energy                    -92.915538568566
  CCSD singlet pair energy             -0.263311998543
  CCSD triplet pair energy             -0.111317302870
  CCSD correlation energy              -0.374629301417

  Triples (T) contribution             -0.020012633068
  Total correlation energy             -0.394641934485

  CCSD total energy                   -93.290167869984
  CCSD[T] energy                      -93.311027842169
  CCSD-T energy                       -93.309806726184
 !CCSD(T) total energy                -93.310180503051

 Timing summary (sec):

 STEP                 CPU(USER)    SYS     CPU(TOT)    WALL
 Transformation          3.70      0.70      4.40      6.91
 CCSD iterations        60.75      9.58     70.33     71.40
 Triples                18.13      0.54     18.67     18.67

 Program statistics:

 Available memory in ccsd:               994999800
 Min. memory needed in ccsd:               1363289
 Max. memory used in ccsd:                 1637718
 Max. memory used in cckext:               2695008 (21 integral passes)



 **********************************************************************************************************************************
 DATASETS  * FILE   NREC   LENGTH (MB)   RECORD NAMES
              1      20     3263.47       500      610      700      900      950      970     1000      129      960     1100   
                                          VAR    BASINP    GEOM    SYMINP    ZMAT    AOBASIS   BASIS     P2S    ABASIS      S 
                                         1400     1410     1200     1210     1080     1600     1650     1300     1700     1380   
                                           T        V       H0       H01     AOSYM     SMH    MOLCAS    ERIS     OPER     JKOP   

              2       4        3.46       700     1000      520     2100   
                                         GEOM     BASIS   MCVARS     RHF  

 PROGRAMS   *        TOTAL   CCSD(T)        HF       INT
 CPU TIMES  *       192.61     82.60     28.36     81.55
 REAL TIME  *       221.83 SEC
 DISK USED  *        10.03 GB      
 **********************************************************************************************************************************

 CCSD(T)/aug-cc-pV5Z energy=    -93.310180503051

        CCSD(T)         HF-SCF  
    -93.31018050    -92.91553857
 **********************************************************************************************************************************
 Molpro calculation terminated
 Variable memory released
