
 Primary working directories    : /tmp/r2666/232413.maple
 Secondary working directories  : /tmp/r2666/232413.maple
 Wavefunction directory         : /ddn/home4/r2666/wfu/
 Main file repository           : /tmp/r2666/232413.maple/

 SHA1      : d5ffa45e93fdbca01ffc919aa182cfdae0147319
 NAME      : 2015.1.35
 ARCHNAME  : linux/x86_64
 FC        : /opt/intel/composer_xe_2015.1.133/bin/intel64/ifort
 BLASLIB   : -Wl,-_start-group /opt/intel/mkl/lib/intel64/libmkl_intel_ilp64.a /opt/intel/mkl/lib/intel64/libmkl_intel_thread.a /opt/intel/mkl/lib/intel64/libmkl_core.a -Wl,-_end-group
 id        : olemiss

 Nodes     nprocs
 cn090        1

 Using customized tuning parameters: mindgm=1; mindgv=20; mindgc=4; mindgr=1; noblas=0; minvec=7
 default implementation of scratch files=df  

 ***,hcn CCSD(T)/TZ-F12 QFF
 memory, 995, m;
 gthresh,energy=1.d-12,zero=1.d-22,oneint=1.d-22,twoint=1.d-22;
 gthresh,optgrad=1.d-8,optstep=1.d-8;
 nocompress;
 geomtyp=xyz
 bohr
 geometry={
 3
         22        22
 N        0.0000000000        0.0000000000        1.1152527611
 C        0.0000000000        0.0000000000       -1.0635969059
 H        0.0000000000        0.0000000000       -3.0487258371
 }
 
 basis=av5z
   {hf,maxit=500;accu,20;}
 {ccsd(t),nocheck,maxit=250;orbital,IGNORE_ERROR;}

 Variables initialized (889), CPU time= 0.00 sec
 Commands  initialized (702), CPU time= 0.01 sec, 572 directives.
 Default parameters read. Elapsed time= 0.05 sec

 Checking input...
 Passed
1


                                         ***  PROGRAM SYSTEM MOLPRO  ***
                                       Copyright, TTI GmbH Stuttgart, 2015
                                    Version 2015.1 linked Jul  9 2018 13:16:40


 **********************************************************************************************************************************
 LABEL *   hcn CCSD(T)/TZ-F12 QFF                                                        
  64 bit serial version                                                                  DATE: 06-Feb-20          TIME: 09:49:39  
 **********************************************************************************************************************************

 SHA1:             d5ffa45e93fdbca01ffc919aa182cfdae0147319
 **********************************************************************************************************************************

 THRESHOLDS:

 ZERO    =  1.00D-22  ONEINT  =  1.00D-22  TWOINT  =  1.00D-22  PREFAC  =  1.00D-14  LOCALI  =  1.00D-09  EORDER  =  1.00D-04
 ENERGY  =  1.00D-12  ETEST   =  0.00D+00  EDENS   =  0.00D+00  THRDEDEF=  1.00D-06  GRADIENT=  1.00D-02  STEP    =  1.00D-03
 ORBITAL =  1.00D-05  CIVEC   =  1.00D-05  COEFF   =  1.00D-04  PRINTCI =  5.00D-02  PUNCHCI =  9.90D+01  OPTGRAD =  3.00D-04
 OPTENERG=  1.00D-06  OPTSTEP =  3.00D-04  THRGRAD =  1.00D-10  COMPRESS=  1.00D-11  VARMIN  =  1.00D-07  VARMAX  =  1.00D-03
 THRDOUB =  0.00D+00  THRDIV  =  1.00D-05  THRRED  =  1.00D-07  THRPSP  =  1.00D+00  THRDC   =  1.00D-10  THRCS   =  1.00D-10
 THRNRM  =  1.00D-08  THREQ   =  0.00D+00  THRDE   =  1.00D+00  THRREF  =  1.00D-05  SPARFAC =  1.00D+00  THRDLP  =  1.00D-07
 THRDIA  =  1.00D-10  THRDLS  =  1.00D-07  THRGPS  =  0.00D+00  THRKEX  =  0.00D+00  THRDIS  =  2.00D-01  THRVAR  =  1.00D-10
 THRLOC  =  1.00D-06  THRGAP  =  1.00D-06  THRLOCT = -1.00D+00  THRGAPT = -1.00D+00  THRORB  =  1.00D-06  THRMLTP =  0.00D+00
 THRCPQCI=  1.00D-10  KEXTA   =  0.00D+00  THRCOARS=  0.00D+00  SYMTOL  =  1.00D-06  GRADTOL =  1.00D-06  THROVL  =  1.00D-08
 THRORTH =  1.00D-08  GRID    =  1.00D-06  GRIDMAX =  1.00D-03  DTMAX   =  0.00D+00  THROCCDE=  1.00D-01  THROCCDE=  1.00D-01



 THRESHOLDS:

 ZERO    =  1.00D-22  ONEINT  =  1.00D-22  TWOINT  =  1.00D-22  PREFAC  =  1.00D-14  LOCALI  =  1.00D-09  EORDER  =  1.00D-04
 ENERGY  =  1.00D-12  ETEST   =  0.00D+00  EDENS   =  0.00D+00  THRDEDEF=  1.00D-06  GRADIENT=  1.00D-02  STEP    =  1.00D-03
 ORBITAL =  1.00D-05  CIVEC   =  1.00D-05  COEFF   =  1.00D-04  PRINTCI =  5.00D-02  PUNCHCI =  9.90D+01  OPTGRAD =  1.00D-08
 OPTENERG=  1.00D-06  OPTSTEP =  1.00D-08  THRGRAD =  1.00D-10  COMPRESS=  1.00D-11  VARMIN  =  1.00D-07  VARMAX  =  1.00D-03
 THRDOUB =  0.00D+00  THRDIV  =  1.00D-05  THRRED  =  1.00D-07  THRPSP  =  1.00D+00  THRDC   =  1.00D-10  THRCS   =  1.00D-10
 THRNRM  =  1.00D-08  THREQ   =  0.00D+00  THRDE   =  1.00D+00  THRREF  =  1.00D-05  SPARFAC =  1.00D+00  THRDLP  =  1.00D-07
 THRDIA  =  1.00D-10  THRDLS  =  1.00D-07  THRGPS  =  0.00D+00  THRKEX  =  0.00D+00  THRDIS  =  2.00D-01  THRVAR  =  1.00D-10
 THRLOC  =  1.00D-06  THRGAP  =  1.00D-06  THRLOCT = -1.00D+00  THRGAPT = -1.00D+00  THRORB  =  1.00D-06  THRMLTP =  0.00D+00
 THRCPQCI=  1.00D-10  KEXTA   =  0.00D+00  THRCOARS=  0.00D+00  SYMTOL  =  1.00D-06  GRADTOL =  1.00D-06  THROVL  =  1.00D-08
 THRORTH =  1.00D-08  GRID    =  1.00D-06  GRIDMAX =  1.00D-03  DTMAX   =  0.00D+00  THROCCDE=  1.00D-01  THROCCDE=  1.00D-01



 Input parameters for SORTINT:

 COMPRESS =    0.000000
 C_FINAL  =    1.000000
 DEBUG    =   -1.000000
 C_SORT1  =    0.000000
 C_SEWARD =    0.000000
 THRESH   =    0.000000
 IO       =  molpro                                                          
 SPRI     =    0.000000
 SETTING GEOMTYP        =    XYZ
 ZUNIT=BOHR
 

 Variable memory set to  995000000 words,  buffer space   230000 words

 SETTING BASIS          =    AV5Z


 Recomputing integrals since basis changed


 Using spherical harmonics

 Library entry N      S aug-cc-pV5Z          selected for orbital group  1
 Library entry N      P aug-cc-pV5Z          selected for orbital group  1
 Library entry N      D aug-cc-pV5Z          selected for orbital group  1
 Library entry N      F aug-cc-pV5Z          selected for orbital group  1
 Library entry N      G aug-cc-pV5Z          selected for orbital group  1
 Library entry N      H aug-cc-pV5Z          selected for orbital group  1
 Library entry C      S aug-cc-pV5Z          selected for orbital group  2
 Library entry C      P aug-cc-pV5Z          selected for orbital group  2
 Library entry C      D aug-cc-pV5Z          selected for orbital group  2
 Library entry C      F aug-cc-pV5Z          selected for orbital group  2
 Library entry C      G aug-cc-pV5Z          selected for orbital group  2
 Library entry C      H aug-cc-pV5Z          selected for orbital group  2
 Library entry H      S aug-cc-pV5Z          selected for orbital group  3
 Library entry H      P aug-cc-pV5Z          selected for orbital group  3
 Library entry H      D aug-cc-pV5Z          selected for orbital group  3
 Library entry H      F aug-cc-pV5Z          selected for orbital group  3
 Library entry H      G aug-cc-pV5Z          selected for orbital group  3


 PROGRAM * SEWARD (Integral evaluation for generally contracted gaussian basis sets)     Author: Roland Lindh, 1990

 Geometry written to block  1 of record 700


 Point group  C2v 



 ATOMIC COORDINATES

 NR  ATOM    CHARGE       X              Y              Z

   1  N       7.00    0.000000000    0.000000000    1.115252761
   2  C       6.00    0.000000000    0.000000000   -1.063596906
   3  H       1.00    0.000000000    0.000000000   -3.048725837

 Bond lengths in Bohr (Angstrom)

 1-2  2.178849667  2-3  1.985128931
     ( 1.152997590)     ( 1.050484991)

 Bond angles

  1-2-3  179.99999879

 NUCLEAR CHARGE:                   14
 NUMBER OF PRIMITIVE AOS:         506
 NUMBER OF SYMMETRY AOS:          371
 NUMBER OF CONTRACTIONS:          334   ( 123A1  +  81B1  +  81B2  +  49A2  )
 NUMBER OF CORE ORBITALS:           2   (   2A1  +   0B1  +   0B2  +   0A2  )
 NUMBER OF VALENCE ORBITALS:        9   (   5A1  +   2B1  +   2B2  +   0A2  )


 NUCLEAR REPULSION ENERGY   23.97978488

 EXTRA SYMMETRY OF AOS IN SYMMETRY 1:   1 1 1 1 1 1 1 1 1 1   1 1 1 1 2 1 2 1 2 1   2 1 2 1 2 1 2 1 2 1   2 1 3 2 1 3 2 1 3 2
                                        2 3 1 2 3 1 1 1 1 1   1 1 1 1 1 1 1 1 1 1   2 1 2 1 2 1 2 1 2 1   2 1 2 1 2 1 2 1 3 2
                                        1 3 2 1 3 2 2 3 1 2   3 1 1 1 1 1 1 1 1 1   1 1 1 1 2 1 2 1 2 1   2 1 2 1 2 1 2 1 3 2
                                        1 3 2
 EXTRA SYMMETRY OF AOS IN SYMMETRY 2:   1 1 1 1 1 1 1 1 1 1   1 1 2 1 2 1 2 1 2 1   2 1 2 1 2 1 2 3 1 2   3 1 1 1 1 1 1 1 1 1
                                        1 1 1 2 1 2 1 2 1 2   1 2 1 2 1 2 1 2 3 1   2 3 1 1 1 1 1 1 1 1   1 1 2 1 2 1 2 1 2 1
                                        2
 EXTRA SYMMETRY OF AOS IN SYMMETRY 3:   1 1 1 1 1 1 1 1 1 1   1 1 2 1 2 1 2 1 2 1   2 1 2 1 2 1 2 3 1 2   3 1 1 1 1 1 1 1 1 1
                                        1 1 1 2 1 2 1 2 1 2   1 2 1 2 1 2 1 2 3 1   2 3 1 1 1 1 1 1 1 1   1 1 2 1 2 1 2 1 2 1
                                        2
 EXTRA SYMMETRY OF AOS IN SYMMETRY 4:   1 1 1 1 1 1 1 1 1 1   2 1 2 1 2 2 1 2 1 1   1 1 1 1 1 1 1 1 1 2   1 2 1 2 2 1 2 1 1 1
                                        1 1 1 1 1 1 2 1 2

 Eigenvalues of metric

         1 0.234E-05 0.546E-05 0.141E-04 0.345E-04 0.574E-04 0.679E-04 0.173E-03 0.220E-03
         2 0.554E-04 0.168E-03 0.366E-03 0.682E-03 0.918E-03 0.147E-02 0.185E-02 0.369E-02
         3 0.554E-04 0.168E-03 0.366E-03 0.682E-03 0.918E-03 0.147E-02 0.185E-02 0.369E-02
         4 0.767E-03 0.208E-02 0.487E-02 0.673E-02 0.156E-01 0.229E-01 0.249E-01 0.617E-01


 Contracted 2-electron integrals neglected if value below      1.0D-22

      355390029. INTEGRALS WRITTEN OUT IN   86787 BLOCKS ON RECORD 1290 OF FILE 1


 NUMBER OF SORTED TWO-ELECTRON INTEGRALS:  396972178.     BUFFER LENGTH:  32768
 NUMBER OF SEGMENTS:  13  SEGMENT LENGTH:   31999071      RECORD LENGTH: 524288

 Memory used in sort:      32.56 MW

 SORT1 READ   355390029. AND WROTE   358565399. INTEGRALS IN   1032 RECORDS. CPU TIME:    16.15 SEC, REAL TIME:    48.62 SEC
 SORT2 READ   358565399. AND WROTE   396972178. INTEGRALS IN     13 RECORDS. CPU TIME:     5.19 SEC, REAL TIME:     7.51 SEC

 FILE SIZES:   FILE 1:  5710.0 MBYTE,  FILE 4:  4328.6 MBYTE,   TOTAL:  10038.6 MBYTE

 OPERATOR DM      FOR CENTER  0  COORDINATES:    0.000000    0.000000    0.000000


 **********************************************************************************************************************************
 DATASETS  * FILE   NREC   LENGTH (MB)   RECORD NAMES
              1      19     3080.56       500      610      700      900      950      970     1000      129      960     1100   
                                          VAR    BASINP    GEOM    SYMINP    ZMAT    AOBASIS   BASIS     P2S    ABASIS      S 
                                         1400     1410     1200     1210     1080     1600     1650     1300     1700   
                                           T        V       H0       H01     AOSYM     SMH    MOLCAS    ERIS     OPER   

 PROGRAMS   *        TOTAL       INT
 CPU TIMES  *        93.12     93.03
 REAL TIME  *       132.02 SEC
 DISK USED  *        10.04 GB      
 **********************************************************************************************************************************


 PROGRAM * RHF-SCF (CLOSED SHELL)       Authors: W. Meyer, H.-J. Werner


 NUMBER OF ELECTRONS:       7+    7-
 CONVERGENCE THRESHOLDS:    1.00E-10 (Density)    1.00E-13 (Energy)
 MAX. NUMBER OF ITERATIONS:      500
 INTERPOLATION TYPE:            DIIS
 INTERPOLATION STEPS:              2 (START)      1 (STEP)
 LEVEL SHIFTS:                  0.00 (CLOSED)  0.00 (OPEN) 



 Orbital guess generated from atomic densities. Full valence occupancy:    7   2   2   0

 Molecular orbital dump at record        2100.2

 Initial occupancy:   5   1   1   0

 ITERATION    DDIFF          GRAD             ENERGY        2-EL.EN.            DIPOLE MOMENTS         DIIS   ORB.
    1      0.000D+00      0.000D+00       -92.89181391    112.066785    0.00000    0.00000   -1.76356    0    start
    2      0.000D+00      0.557D-02       -92.90079459    111.203486    0.00000    0.00000   -0.89684    1    diag
    3      0.430D-02      0.492D-02       -92.91548920    111.740281    0.00000    0.00000   -1.30054    2    diag
    4      0.219D-02      0.427D-03       -92.91572258    111.701279    0.00000    0.00000   -1.28837    3    diag
    5      0.424D-03      0.895D-04       -92.91573573    111.710308    0.00000    0.00000   -1.28691    4    diag
    6      0.104D-03      0.238D-04       -92.91573649    111.705534    0.00000    0.00000   -1.28700    5    diag
    7      0.201D-04      0.845D-05       -92.91573656    111.706696    0.00000    0.00000   -1.28704    6    diag
    8      0.677D-05      0.182D-05       -92.91573657    111.706642    0.00000    0.00000   -1.28700    7    diag
    9      0.145D-05      0.214D-06       -92.91573657    111.706651    0.00000    0.00000   -1.28700    8    diag
   10      0.226D-06      0.276D-07       -92.91573657    111.706652    0.00000    0.00000   -1.28700    9    orth
   11      0.270D-07      0.405D-08       -92.91573657    111.706652    0.00000    0.00000   -1.28700    9    diag
   12      0.483D-08      0.375D-09       -92.91573657    111.706652    0.00000    0.00000   -1.28700    9    diag
   13      0.117D-08      0.313D-10       -92.91573657    111.706652    0.00000    0.00000   -1.28700    9    diag
   14      0.112D-09      0.517D-11       -92.91573657    111.706652    0.00000    0.00000   -1.28700    9    diag
   15      0.119D-09      0.997D-12       -92.91573657    111.706652    0.00000    0.00000   -1.28700    9    diag
   16      0.367D-10      0.763D-12       -92.91573657    111.706652    0.00000    0.00000   -1.28700    9    diag
   17      0.476D-10      0.425D-12       -92.91573657    111.706652    0.00000    0.00000   -1.28700    9    diag
   18      0.232D-10      0.575D-12       -92.91573657    111.706652    0.00000    0.00000   -1.28700    9    diag
   19      0.178D-10      0.391D-12       -92.91573657    111.706652    0.00000    0.00000   -1.28700    9    fixocc
   20      0.153D-10      0.649D-12       -92.91573657    111.706652    0.00000    0.00000   -1.28700    9    orth
   21      0.228D-11      0.439D-12       -92.91573657    111.706652    0.00000    0.00000   -1.28700    9    diag
   22      0.250D-11      0.389D-12       -92.91573657    111.706652    0.00000    0.00000   -1.28700    9    diag
   23      0.808D-11      0.516D-12       -92.91573657    111.706652    0.00000    0.00000   -1.28700    0    orth

 Final occupancy:   5   1   1   0

 !RHF STATE 1.1 Energy                -92.915736566355
 Nuclear energy                        23.97978488
 One-electron energy                 -172.74884754
 Two-electron energy                   55.85332610
 Virial quotient                       -1.00175894
 !RHF STATE 1.1 Dipole moment           0.00000000     0.00000000    -1.28699706
 Dipole moment /Debye                   0.00000000     0.00000000    -3.27100598

 Orbital energies:

         1.1          2.1          3.1          4.1          5.1          6.1          7.1
    -15.598220   -11.289760    -1.236667    -0.819128    -0.582808     0.017627     0.053224

         1.2          2.2          3.2
     -0.497258     0.052433     0.101684

         1.3          2.3          3.3
     -0.497258     0.052433     0.101684

         1.4          2.4
      0.202520     0.326748

 HOMO      1.2    -0.497258 =     -13.5311eV
 LUMO      6.1     0.017627 =       0.4797eV
 LUMO-HOMO         0.514885 =      14.0107eV


 **********************************************************************************************************************************
 DATASETS  * FILE   NREC   LENGTH (MB)   RECORD NAMES
              1      19     3080.56       500      610      700      900      950      970     1000      129      960     1100   
                                          VAR    BASINP    GEOM    SYMINP    ZMAT    AOBASIS   BASIS     P2S    ABASIS      S 
                                         1400     1410     1200     1210     1080     1600     1650     1300     1700   
                                           T        V       H0       H01     AOSYM     SMH    MOLCAS    ERIS     OPER   

              2       4        3.46       700     1000      520     2100   
                                         GEOM     BASIS   MCVARS     RHF  

 PROGRAMS   *        TOTAL        HF       INT
 CPU TIMES  *       119.02     25.90     93.03
 REAL TIME  *       164.29 SEC
 DISK USED  *        10.04 GB      
 **********************************************************************************************************************************


 PROGRAM * CCSD (Closed-shell coupled cluster)     Authors: C. Hampel, H.-J. Werner, 1991, M. Deegan, P.J. Knowles, 1992


 Convergence thresholds:  THRVAR = 1.00D-08  THRDEN = 1.00D-12

 CCSD(T)     terms to be evaluated (factor= 1.000)


 Number of core orbitals:           2 (   2   0   0   0 )
 Number of closed-shell orbitals:   5 (   3   1   1   0 )
 Number of external orbitals:     327 ( 118  80  80  49 )

 Molecular orbitals read from record     2100.2  Type=RHF/CANONICAL (state 1.1)

 Number of N-1 electron functions:               5
 Number of N-2 electron functions:              15
 Number of singly external CSFs:               514
 Number of doubly external CSFs:            345689
 Total number of CSFs:                      346204

 Length of J-op  integral file:               0.00 MB
 Length of K-op  integral file:               2.14 MB
 Length of 3-ext integral record:             0.00 MB

 Memory could be reduced to 68.09 Mwords without degradation in triples

 Integral transformation finished. Total CPU:   3.26 sec, npass=  1  Memory used:   7.20 MW

 Reference energy:                    -92.91573657

 MP2 singlet pair energy:              -0.24470222
 MP2 triplet pair energy:              -0.13287673
 MP2 correlation energy:               -0.37757896
 MP2 total energy:                    -93.29331552

 SCS-MP2 correlation energy:           -0.37632152   (PS=  1.200000  PT=  0.333333)
 SCS-MP2 total energy:                -93.29205809

 ITER.      SQ.NORM     CORR.ENERGY   TOTAL ENERGY   ENERGY CHANGE        DEN1      VAR(S)    VAR(P)  DIIS     TIME  TIME/IT
   1      1.11489750    -0.37392868   -93.28966525     0.00365028     0.01705394  0.26D-02  0.31D-02  1  1     6.25     3.46
   2      1.12404992    -0.37406593   -93.28980250    -0.00013725    -0.01029275  0.67D-04  0.40D-03  2  2     9.18     3.43
   3      1.12897095    -0.37429348   -93.29003005    -0.00022755    -0.00258180  0.14D-04  0.47D-04  3  3    12.04     3.41
   4      1.13109603    -0.37435221   -93.29008878    -0.00005873    -0.00077214  0.66D-06  0.53D-05  4  4    15.09     3.44
   5      1.13166699    -0.37436206   -93.29009863    -0.00000985    -0.00016102  0.68D-07  0.46D-06  5  5    18.18     3.46
   6      1.13177877    -0.37436052   -93.29009708     0.00000155    -0.00002754  0.96D-08  0.38D-07  6  6    21.28     3.48
   7      1.13178778    -0.37436167   -93.29009823    -0.00000115    -0.00000105  0.85D-09  0.32D-08  6  1    24.34     3.48
   8      1.13179045    -0.37436211   -93.29009867    -0.00000044    -0.00000114  0.12D-09  0.29D-09  6  2    27.43     3.49
   9      1.13179050    -0.37436218   -93.29009875    -0.00000008     0.00000002  0.12D-10  0.19D-10  6  3    30.45     3.50
  10      1.13179037    -0.37436223   -93.29009880    -0.00000005     0.00000010  0.12D-11  0.17D-11  6  4    33.59     3.50
  11      1.13179031    -0.37436225   -93.29009882    -0.00000002     0.00000003  0.21D-12  0.15D-12  6  5    36.62     3.50
  12      1.13179025    -0.37436226   -93.29009882    -0.00000001     0.00000003  0.31D-13  0.24D-13  6  6    39.68     3.51
  13      1.13179021    -0.37436226   -93.29009882    -0.00000000     0.00000001  0.33D-14  0.54D-14  6  1    42.74     3.51
  14      1.13179019    -0.37436226   -93.29009882    -0.00000000     0.00000001  0.38D-15  0.75D-15  6  2    45.84     3.51
  15      1.13179019    -0.37436226   -93.29009882    -0.00000000     0.00000000  0.26D-16  0.11D-15  6  3    48.85     3.51
  16      1.13179019    -0.37436226   -93.29009882     0.00000000     0.00000000  0.46D-17  0.15D-16  6  4    51.92     3.51
  17      1.13179019    -0.37436226   -93.29009882     0.00000000     0.00000000  0.11D-17  0.26D-17  6  5    54.95     3.51
  18      1.13179019    -0.37436226   -93.29009882     0.00000000     0.00000000  0.29D-18  0.58D-18  6  6    58.03     3.51
  19      1.13179019    -0.37436226   -93.29009882     0.00000000    -0.00000000  0.90D-19  0.22D-18  6  1    61.13     3.51
  20      1.13179019    -0.37436226   -93.29009882     0.00000000     0.00000000  0.50D-19  0.11D-18  6  2    64.16     3.51
  21      1.13179019    -0.37436226   -93.29009882     0.00000000     0.00000000  0.38D-19  0.65D-19  6  3    67.25     3.51

 Norm of t1 vector:      0.06454513      S-energy:    -0.00000000      T1 diagnostic:  0.01443273
                                                                       D1 diagnostic:  0.02916968


 Total CPU time for triples:     21.21 sec


 RESULTS
 =======

  Reference energy                    -92.915736566355
  CCSD singlet pair energy             -0.263024756917
  CCSD triplet pair energy             -0.111337500436
  CCSD correlation energy              -0.374362257358

  Triples (T) contribution             -0.019946034297
  Total correlation energy             -0.394308291656

  CCSD total energy                   -93.290098823713
  CCSD[T] energy                      -93.310888501989
  CCSD-T energy                       -93.309671992705
 !CCSD(T) total energy                -93.310044858011

 Timing summary (sec):

 STEP                 CPU(USER)    SYS     CPU(TOT)    WALL
 Transformation          3.27      0.69      3.96      4.10
 CCSD iterations        63.99      9.83     73.82     73.82
 Triples                21.21      0.66     21.87     21.88

 Program statistics:

 Available memory in ccsd:               994999800
 Min. memory needed in ccsd:               1363289
 Max. memory used in ccsd:                 1637718
 Max. memory used in cckext:               2695008 (21 integral passes)



 **********************************************************************************************************************************
 DATASETS  * FILE   NREC   LENGTH (MB)   RECORD NAMES
              1      20     3264.78       500      610      700      900      950      970     1000      129      960     1100   
                                          VAR    BASINP    GEOM    SYMINP    ZMAT    AOBASIS   BASIS     P2S    ABASIS      S 
                                         1400     1410     1200     1210     1080     1600     1650     1300     1700     1380   
                                           T        V       H0       H01     AOSYM     SMH    MOLCAS    ERIS     OPER     JKOP   

              2       4        3.46       700     1000      520     2100   
                                         GEOM     BASIS   MCVARS     RHF  

 PROGRAMS   *        TOTAL   CCSD(T)        HF       INT
 CPU TIMES  *       207.52     88.49     25.90     93.03
 REAL TIME  *       264.13 SEC
 DISK USED  *        10.04 GB      
 **********************************************************************************************************************************

 CCSD(T)/aug-cc-pV5Z energy=    -93.310044858011

        CCSD(T)         HF-SCF  
    -93.31004486    -92.91573657
 **********************************************************************************************************************************
 Molpro calculation terminated
 Variable memory released
