
 Primary working directories    : /tmp/r2666/232428.maple
 Secondary working directories  : /tmp/r2666/232428.maple
 Wavefunction directory         : /ddn/home4/r2666/wfu/
 Main file repository           : /tmp/r2666/232428.maple/

 SHA1      : d5ffa45e93fdbca01ffc919aa182cfdae0147319
 NAME      : 2015.1.35
 ARCHNAME  : linux/x86_64
 FC        : /opt/intel/composer_xe_2015.1.133/bin/intel64/ifort
 BLASLIB   : -Wl,-_start-group /opt/intel/mkl/lib/intel64/libmkl_intel_ilp64.a /opt/intel/mkl/lib/intel64/libmkl_intel_thread.a /opt/intel/mkl/lib/intel64/libmkl_core.a -Wl,-_end-group
 id        : olemiss

 Nodes     nprocs
 cn084        1

 Using customized tuning parameters: mindgm=1; mindgv=20; mindgc=4; mindgr=1; noblas=0; minvec=7
 default implementation of scratch files=df  

 ***,hcn CCSD(T)/TZ-F12 QFF
 memory, 995, m;
 gthresh,energy=1.d-12,zero=1.d-22,oneint=1.d-22,twoint=1.d-22;
 gthresh,optgrad=1.d-8,optstep=1.d-8;
 nocompress;
 geomtyp=xyz
 bohr
 geometry={
 3
         37        37
 N        0.0000000000        0.0000000000        1.1247013910
 C        0.0000000000        0.0000000000       -1.0635969059
 H        0.0000000000        0.0000000000       -3.0581744671
 }
 
 basis=av5z
   {hf,maxit=500;accu,20;}
 {ccsd(t),nocheck,maxit=250;orbital,IGNORE_ERROR;}

 Variables initialized (889), CPU time= 0.01 sec
 Commands  initialized (702), CPU time= 0.02 sec, 572 directives.
 Default parameters read. Elapsed time= 0.07 sec

 Checking input...
 Passed
1


                                         ***  PROGRAM SYSTEM MOLPRO  ***
                                       Copyright, TTI GmbH Stuttgart, 2015
                                    Version 2015.1 linked Jul  9 2018 13:16:40


 **********************************************************************************************************************************
 LABEL *   hcn CCSD(T)/TZ-F12 QFF                                                        
  64 bit serial version                                                                  DATE: 06-Feb-20          TIME: 09:49:40  
 **********************************************************************************************************************************

 SHA1:             d5ffa45e93fdbca01ffc919aa182cfdae0147319
 **********************************************************************************************************************************

 THRESHOLDS:

 ZERO    =  1.00D-22  ONEINT  =  1.00D-22  TWOINT  =  1.00D-22  PREFAC  =  1.00D-14  LOCALI  =  1.00D-09  EORDER  =  1.00D-04
 ENERGY  =  1.00D-12  ETEST   =  0.00D+00  EDENS   =  0.00D+00  THRDEDEF=  1.00D-06  GRADIENT=  1.00D-02  STEP    =  1.00D-03
 ORBITAL =  1.00D-05  CIVEC   =  1.00D-05  COEFF   =  1.00D-04  PRINTCI =  5.00D-02  PUNCHCI =  9.90D+01  OPTGRAD =  3.00D-04
 OPTENERG=  1.00D-06  OPTSTEP =  3.00D-04  THRGRAD =  1.00D-10  COMPRESS=  1.00D-11  VARMIN  =  1.00D-07  VARMAX  =  1.00D-03
 THRDOUB =  0.00D+00  THRDIV  =  1.00D-05  THRRED  =  1.00D-07  THRPSP  =  1.00D+00  THRDC   =  1.00D-10  THRCS   =  1.00D-10
 THRNRM  =  1.00D-08  THREQ   =  0.00D+00  THRDE   =  1.00D+00  THRREF  =  1.00D-05  SPARFAC =  1.00D+00  THRDLP  =  1.00D-07
 THRDIA  =  1.00D-10  THRDLS  =  1.00D-07  THRGPS  =  0.00D+00  THRKEX  =  0.00D+00  THRDIS  =  2.00D-01  THRVAR  =  1.00D-10
 THRLOC  =  1.00D-06  THRGAP  =  1.00D-06  THRLOCT = -1.00D+00  THRGAPT = -1.00D+00  THRORB  =  1.00D-06  THRMLTP =  0.00D+00
 THRCPQCI=  1.00D-10  KEXTA   =  0.00D+00  THRCOARS=  0.00D+00  SYMTOL  =  1.00D-06  GRADTOL =  1.00D-06  THROVL  =  1.00D-08
 THRORTH =  1.00D-08  GRID    =  1.00D-06  GRIDMAX =  1.00D-03  DTMAX   =  0.00D+00  THROCCDE=  1.00D-01  THROCCDE=  1.00D-01



 THRESHOLDS:

 ZERO    =  1.00D-22  ONEINT  =  1.00D-22  TWOINT  =  1.00D-22  PREFAC  =  1.00D-14  LOCALI  =  1.00D-09  EORDER  =  1.00D-04
 ENERGY  =  1.00D-12  ETEST   =  0.00D+00  EDENS   =  0.00D+00  THRDEDEF=  1.00D-06  GRADIENT=  1.00D-02  STEP    =  1.00D-03
 ORBITAL =  1.00D-05  CIVEC   =  1.00D-05  COEFF   =  1.00D-04  PRINTCI =  5.00D-02  PUNCHCI =  9.90D+01  OPTGRAD =  1.00D-08
 OPTENERG=  1.00D-06  OPTSTEP =  1.00D-08  THRGRAD =  1.00D-10  COMPRESS=  1.00D-11  VARMIN  =  1.00D-07  VARMAX  =  1.00D-03
 THRDOUB =  0.00D+00  THRDIV  =  1.00D-05  THRRED  =  1.00D-07  THRPSP  =  1.00D+00  THRDC   =  1.00D-10  THRCS   =  1.00D-10
 THRNRM  =  1.00D-08  THREQ   =  0.00D+00  THRDE   =  1.00D+00  THRREF  =  1.00D-05  SPARFAC =  1.00D+00  THRDLP  =  1.00D-07
 THRDIA  =  1.00D-10  THRDLS  =  1.00D-07  THRGPS  =  0.00D+00  THRKEX  =  0.00D+00  THRDIS  =  2.00D-01  THRVAR  =  1.00D-10
 THRLOC  =  1.00D-06  THRGAP  =  1.00D-06  THRLOCT = -1.00D+00  THRGAPT = -1.00D+00  THRORB  =  1.00D-06  THRMLTP =  0.00D+00
 THRCPQCI=  1.00D-10  KEXTA   =  0.00D+00  THRCOARS=  0.00D+00  SYMTOL  =  1.00D-06  GRADTOL =  1.00D-06  THROVL  =  1.00D-08
 THRORTH =  1.00D-08  GRID    =  1.00D-06  GRIDMAX =  1.00D-03  DTMAX   =  0.00D+00  THROCCDE=  1.00D-01  THROCCDE=  1.00D-01



 Input parameters for SORTINT:

 COMPRESS =    0.000000
 C_FINAL  =    1.000000
 DEBUG    =   -1.000000
 C_SORT1  =    0.000000
 C_SEWARD =    0.000000
 THRESH   =    0.000000
 IO       =  molpro                                                          
 SPRI     =    0.000000
 SETTING GEOMTYP        =    XYZ
 ZUNIT=BOHR
 

 Variable memory set to  995000000 words,  buffer space   230000 words

 SETTING BASIS          =    AV5Z


 Recomputing integrals since basis changed


 Using spherical harmonics

 Library entry N      S aug-cc-pV5Z          selected for orbital group  1
 Library entry N      P aug-cc-pV5Z          selected for orbital group  1
 Library entry N      D aug-cc-pV5Z          selected for orbital group  1
 Library entry N      F aug-cc-pV5Z          selected for orbital group  1
 Library entry N      G aug-cc-pV5Z          selected for orbital group  1
 Library entry N      H aug-cc-pV5Z          selected for orbital group  1
 Library entry C      S aug-cc-pV5Z          selected for orbital group  2
 Library entry C      P aug-cc-pV5Z          selected for orbital group  2
 Library entry C      D aug-cc-pV5Z          selected for orbital group  2
 Library entry C      F aug-cc-pV5Z          selected for orbital group  2
 Library entry C      G aug-cc-pV5Z          selected for orbital group  2
 Library entry C      H aug-cc-pV5Z          selected for orbital group  2
 Library entry H      S aug-cc-pV5Z          selected for orbital group  3
 Library entry H      P aug-cc-pV5Z          selected for orbital group  3
 Library entry H      D aug-cc-pV5Z          selected for orbital group  3
 Library entry H      F aug-cc-pV5Z          selected for orbital group  3
 Library entry H      G aug-cc-pV5Z          selected for orbital group  3


 PROGRAM * SEWARD (Integral evaluation for generally contracted gaussian basis sets)     Author: Roland Lindh, 1990

 Geometry written to block  1 of record 700


 Point group  C2v 



 ATOMIC COORDINATES

 NR  ATOM    CHARGE       X              Y              Z

   1  N       7.00    0.000000000    0.000000000    1.124701391
   2  C       6.00    0.000000000    0.000000000   -1.063596906
   3  H       1.00    0.000000000    0.000000000   -3.058174467

 Bond lengths in Bohr (Angstrom)

 1-2  2.188298297  2-3  1.994577561
     ( 1.157997589)     ( 1.055484991)

 Bond angles

  1-2-3  179.99999829

 NUCLEAR CHARGE:                   14
 NUMBER OF PRIMITIVE AOS:         506
 NUMBER OF SYMMETRY AOS:          371
 NUMBER OF CONTRACTIONS:          334   ( 123A1  +  81B1  +  81B2  +  49A2  )
 NUMBER OF CORE ORBITALS:           2   (   2A1  +   0B1  +   0B2  +   0A2  )
 NUMBER OF VALENCE ORBITALS:        9   (   5A1  +   2B1  +   2B2  +   0A2  )


 NUCLEAR REPULSION ENERGY   23.87464134

 EXTRA SYMMETRY OF AOS IN SYMMETRY 1:   1 1 1 1 1 1 1 1 1 1   1 1 1 1 2 1 2 1 2 1   2 1 2 1 2 1 2 1 2 1   2 1 3 2 1 3 2 1 3 2
                                        2 3 1 2 3 1 1 1 1 1   1 1 1 1 1 1 1 1 1 1   2 1 2 1 2 1 2 1 2 1   2 1 2 1 2 1 2 1 3 2
                                        1 3 2 1 3 2 2 3 1 2   3 1 1 1 1 1 1 1 1 1   1 1 1 1 2 1 2 1 2 1   2 1 2 1 2 1 2 1 3 2
                                        1 3 2
 EXTRA SYMMETRY OF AOS IN SYMMETRY 2:   1 1 1 1 1 1 1 1 1 1   1 1 2 1 2 1 2 1 2 1   2 1 2 1 2 1 2 3 1 2   3 1 1 1 1 1 1 1 1 1
                                        1 1 1 2 1 2 1 2 1 2   1 2 1 2 1 2 1 2 3 1   2 3 1 1 1 1 1 1 1 1   1 1 2 1 2 1 2 1 2 1
                                        2
 EXTRA SYMMETRY OF AOS IN SYMMETRY 3:   1 1 1 1 1 1 1 1 1 1   1 1 2 1 2 1 2 1 2 1   2 1 2 1 2 1 2 3 1 2   3 1 1 1 1 1 1 1 1 1
                                        1 1 1 2 1 2 1 2 1 2   1 2 1 2 1 2 1 2 3 1   2 3 1 1 1 1 1 1 1 1   1 1 2 1 2 1 2 1 2 1
                                        2
 EXTRA SYMMETRY OF AOS IN SYMMETRY 4:   1 1 1 1 1 1 1 1 1 1   2 1 2 1 2 2 1 2 1 1   1 1 1 1 1 1 1 1 1 2   1 2 1 2 2 1 2 1 1 1
                                        1 1 1 1 1 1 2 1 2

 Eigenvalues of metric

         1 0.243E-05 0.554E-05 0.144E-04 0.350E-04 0.582E-04 0.687E-04 0.176E-03 0.222E-03
         2 0.567E-04 0.173E-03 0.371E-03 0.693E-03 0.928E-03 0.149E-02 0.187E-02 0.371E-02
         3 0.567E-04 0.173E-03 0.371E-03 0.693E-03 0.928E-03 0.149E-02 0.187E-02 0.371E-02
         4 0.780E-03 0.212E-02 0.494E-02 0.685E-02 0.162E-01 0.233E-01 0.253E-01 0.626E-01


 Contracted 2-electron integrals neglected if value below      1.0D-22

      355296882. INTEGRALS WRITTEN OUT IN   86764 BLOCKS ON RECORD 1290 OF FILE 1


 NUMBER OF SORTED TWO-ELECTRON INTEGRALS:  396972178.     BUFFER LENGTH:  32768
 NUMBER OF SEGMENTS:  13  SEGMENT LENGTH:   31999071      RECORD LENGTH: 524288

 Memory used in sort:      32.56 MW

 SORT1 READ   355296882. AND WROTE   358471318. INTEGRALS IN   1032 RECORDS. CPU TIME:    14.79 SEC, REAL TIME:    56.85 SEC
 SORT2 READ   358471318. AND WROTE   396972178. INTEGRALS IN     13 RECORDS. CPU TIME:     9.03 SEC, REAL TIME:    58.16 SEC

 FILE SIZES:   FILE 1:  5708.5 MBYTE,  FILE 4:  4328.6 MBYTE,   TOTAL:  10037.1 MBYTE

 OPERATOR DM      FOR CENTER  0  COORDINATES:    0.000000    0.000000    0.000000


 **********************************************************************************************************************************
 DATASETS  * FILE   NREC   LENGTH (MB)   RECORD NAMES
              1      19     3080.02       500      610      700      900      950      970     1000      129      960     1100   
                                          VAR    BASINP    GEOM    SYMINP    ZMAT    AOBASIS   BASIS     P2S    ABASIS      S 
                                         1400     1410     1200     1210     1080     1600     1650     1300     1700   
                                           T        V       H0       H01     AOSYM     SMH    MOLCAS    ERIS     OPER   

 PROGRAMS   *        TOTAL       INT
 CPU TIMES  *        92.76     92.64
 REAL TIME  *       187.68 SEC
 DISK USED  *        10.04 GB      
 **********************************************************************************************************************************


 PROGRAM * RHF-SCF (CLOSED SHELL)       Authors: W. Meyer, H.-J. Werner


 NUMBER OF ELECTRONS:       7+    7-
 CONVERGENCE THRESHOLDS:    1.00E-10 (Density)    1.00E-13 (Energy)
 MAX. NUMBER OF ITERATIONS:      500
 INTERPOLATION TYPE:            DIIS
 INTERPOLATION STEPS:              2 (START)      1 (STEP)
 LEVEL SHIFTS:                  0.00 (CLOSED)  0.00 (OPEN) 



 Orbital guess generated from atomic densities. Full valence occupancy:    7   2   2   0

 Molecular orbital dump at record        2100.2

 Initial occupancy:   5   1   1   0

 ITERATION    DDIFF          GRAD             ENERGY        2-EL.EN.            DIPOLE MOMENTS         DIIS   ORB.
    1      0.000D+00      0.000D+00       -92.89083496    111.843709    0.00000    0.00000   -1.77398    0    start
    2      0.000D+00      0.558D-02       -92.89961292    111.005435    0.00000    0.00000   -0.89280    1    diag
    3      0.432D-02      0.497D-02       -92.91471426    111.541084    0.00000    0.00000   -1.30449    2    diag
    4      0.222D-02      0.428D-03       -92.91494970    111.499209    0.00000    0.00000   -1.29237    3    diag
    5      0.425D-03      0.917D-04       -92.91496321    111.509873    0.00000    0.00000   -1.29091    4    diag
    6      0.104D-03      0.247D-04       -92.91496406    111.504668    0.00000    0.00000   -1.29093    5    diag
    7      0.214D-04      0.887D-05       -92.91496414    111.505814    0.00000    0.00000   -1.29098    6    diag
    8      0.712D-05      0.189D-05       -92.91496414    111.505765    0.00000    0.00000   -1.29095    7    diag
    9      0.152D-05      0.221D-06       -92.91496414    111.505774    0.00000    0.00000   -1.29094    8    diag
   10      0.233D-06      0.280D-07       -92.91496414    111.505775    0.00000    0.00000   -1.29094    9    orth
   11      0.274D-07      0.405D-08       -92.91496414    111.505775    0.00000    0.00000   -1.29094    9    diag
   12      0.494D-08      0.379D-09       -92.91496414    111.505775    0.00000    0.00000   -1.29094    9    diag
   13      0.126D-08      0.318D-10       -92.91496414    111.505775    0.00000    0.00000   -1.29094    9    diag
   14      0.157D-09      0.600D-11       -92.91496414    111.505775    0.00000    0.00000   -1.29094    9    diag
   15      0.110D-09      0.119D-11       -92.91496414    111.505775    0.00000    0.00000   -1.29094    9    diag
   16      0.462D-10      0.704D-12       -92.91496414    111.505775    0.00000    0.00000   -1.29094    9    diag
   17      0.426D-10      0.268D-12       -92.91496414    111.505775    0.00000    0.00000   -1.29094    9    diag
   18      0.711D-11      0.786D-12       -92.91496414    111.505775    0.00000    0.00000   -1.29094    9    diag
   19      0.160D-10      0.448D-12       -92.91496414    111.505775    0.00000    0.00000   -1.29094    9    fixocc
   20      0.115D-10      0.381D-12       -92.91496414    111.505775    0.00000    0.00000   -1.29094    0    orth

 Final occupancy:   5   1   1   0

 !RHF STATE 1.1 Energy                -92.914964143457
 Nuclear energy                        23.87464134
 One-electron energy                 -172.54249303
 Two-electron energy                   55.75288755
 Virial quotient                       -1.00213565
 !RHF STATE 1.1 Dipole moment           0.00000000     0.00000000    -1.29094129
 Dipole moment /Debye                   0.00000000     0.00000000    -3.28103057

 Orbital energies:

         1.1          2.1          3.1          4.1          5.1          6.1          7.1
    -15.599931   -11.291982    -1.234267    -0.817896    -0.582910     0.017592     0.053213

         1.2          2.2          3.2
     -0.495686     0.052449     0.101521

         1.3          2.3          3.3
     -0.495686     0.052449     0.101521

         1.4          2.4
      0.202656     0.326934

 HOMO      1.2    -0.495686 =     -13.4883eV
 LUMO      6.1     0.017592 =       0.4787eV
 LUMO-HOMO         0.513277 =      13.9670eV


 **********************************************************************************************************************************
 DATASETS  * FILE   NREC   LENGTH (MB)   RECORD NAMES
              1      19     3080.02       500      610      700      900      950      970     1000      129      960     1100   
                                          VAR    BASINP    GEOM    SYMINP    ZMAT    AOBASIS   BASIS     P2S    ABASIS      S 
                                         1400     1410     1200     1210     1080     1600     1650     1300     1700   
                                           T        V       H0       H01     AOSYM     SMH    MOLCAS    ERIS     OPER   

              2       4        3.46       700     1000      520     2100   
                                         GEOM     BASIS   MCVARS     RHF  

 PROGRAMS   *        TOTAL        HF       INT
 CPU TIMES  *       114.46     21.70     92.64
 REAL TIME  *       214.62 SEC
 DISK USED  *        10.04 GB      
 **********************************************************************************************************************************


 PROGRAM * CCSD (Closed-shell coupled cluster)     Authors: C. Hampel, H.-J. Werner, 1991, M. Deegan, P.J. Knowles, 1992


 Convergence thresholds:  THRVAR = 1.00D-08  THRDEN = 1.00D-12

 CCSD(T)     terms to be evaluated (factor= 1.000)


 Number of core orbitals:           2 (   2   0   0   0 )
 Number of closed-shell orbitals:   5 (   3   1   1   0 )
 Number of external orbitals:     327 ( 118  80  80  49 )

 Molecular orbitals read from record     2100.2  Type=RHF/CANONICAL (state 1.1)

 Number of N-1 electron functions:               5
 Number of N-2 electron functions:              15
 Number of singly external CSFs:               514
 Number of doubly external CSFs:            345689
 Total number of CSFs:                      346204

 Length of J-op  integral file:               0.00 MB
 Length of K-op  integral file:               2.14 MB
 Length of 3-ext integral record:             0.00 MB

 Memory could be reduced to 68.09 Mwords without degradation in triples

 Integral transformation finished. Total CPU:   3.37 sec, npass=  1  Memory used:   7.20 MW

 Reference energy:                    -92.91496414

 MP2 singlet pair energy:              -0.24526148
 MP2 triplet pair energy:              -0.13331946
 MP2 correlation energy:               -0.37858094
 MP2 total energy:                    -93.29354508

 SCS-MP2 correlation energy:           -0.37726811   (PS=  1.200000  PT=  0.333333)
 SCS-MP2 total energy:                -93.29223225

 ITER.      SQ.NORM     CORR.ENERGY   TOTAL ENERGY   ENERGY CHANGE        DEN1      VAR(S)    VAR(P)  DIIS     TIME  TIME/IT
   1      1.11559920    -0.37465787   -93.28962201     0.00392307     0.01755512  0.27D-02  0.32D-02  1  1     6.19     3.24
   2      1.12489554    -0.37475488   -93.28971902    -0.00009701    -0.01043039  0.69D-04  0.41D-03  2  2     9.24     3.32
   3      1.12991870    -0.37498883   -93.28995298    -0.00023395    -0.00261891  0.14D-04  0.48D-04  3  3    12.21     3.36
   4      1.13210336    -0.37505016   -93.29001430    -0.00006133    -0.00078850  0.68D-06  0.56D-05  4  4    15.16     3.36
   5      1.13269504    -0.37506059   -93.29002473    -0.00001043    -0.00016603  0.71D-07  0.48D-06  5  5    18.07     3.36
   6      1.13281300    -0.37505893   -93.29002308     0.00000165    -0.00002904  0.10D-07  0.40D-07  6  6    20.91     3.35
   7      1.13282250    -0.37506016   -93.29002430    -0.00000123    -0.00000107  0.88D-09  0.35D-08  6  1    23.69     3.34
   8      1.13282536    -0.37506062   -93.29002476    -0.00000046    -0.00000122  0.13D-09  0.31D-09  6  2    26.51     3.33
   9      1.13282540    -0.37506070   -93.29002484    -0.00000008     0.00000003  0.13D-10  0.20D-10  6  3    29.45     3.33
  10      1.13282527    -0.37506075   -93.29002489    -0.00000005     0.00000011  0.13D-11  0.19D-11  6  4    32.34     3.33
  11      1.13282520    -0.37506077   -93.29002491    -0.00000002     0.00000003  0.24D-12  0.16D-12  6  5    35.19     3.33
  12      1.13282514    -0.37506077   -93.29002492    -0.00000001     0.00000003  0.35D-13  0.26D-13  6  6    38.09     3.33
  13      1.13282510    -0.37506077   -93.29002492    -0.00000000     0.00000001  0.38D-14  0.58D-14  6  1    40.95     3.33
  14      1.13282508    -0.37506077   -93.29002492    -0.00000000     0.00000001  0.47D-15  0.80D-15  6  2    43.84     3.33
  15      1.13282507    -0.37506077   -93.29002492    -0.00000000     0.00000000  0.30D-16  0.12D-15  6  3    46.71     3.33
  16      1.13282507    -0.37506077   -93.29002492     0.00000000     0.00000000  0.52D-17  0.16D-16  6  4    49.60     3.32
  17      1.13282507    -0.37506077   -93.29002492     0.00000000     0.00000000  0.13D-17  0.31D-17  6  5    52.49     3.32
  18      1.13282507    -0.37506077   -93.29002492     0.00000000     0.00000000  0.27D-18  0.59D-18  6  6    55.37     3.32
  19      1.13282507    -0.37506077   -93.29002492     0.00000000    -0.00000000  0.95D-19  0.27D-18  6  1    58.22     3.32
  20      1.13282507    -0.37506077   -93.29002492     0.00000000     0.00000000  0.36D-19  0.89D-19  6  2    61.04     3.32
  21      1.13282507    -0.37506077   -93.29002492     0.00000000     0.00000000  0.22D-19  0.43D-19  6  3    63.96     3.32

 Norm of t1 vector:      0.06526228      S-energy:    -0.00000000      T1 diagnostic:  0.01459309
                                                                       D1 diagnostic:  0.02950414


 Total CPU time for triples:     17.83 sec


 RESULTS
 =======

  Reference energy                    -92.914964143457
  CCSD singlet pair energy             -0.263618219469
  CCSD triplet pair energy             -0.111442555441
  CCSD correlation energy              -0.375060774915

  Triples (T) contribution             -0.020123443228
  Total correlation energy             -0.395184218143

  CCSD total energy                   -93.290024918372
  CCSD[T] energy                      -93.311012448113
  CCSD-T energy                       -93.309767431520
 !CCSD(T) total energy                -93.310148361600

 Timing summary (sec):

 STEP                 CPU(USER)    SYS     CPU(TOT)    WALL
 Transformation          3.38      0.63      4.01      5.84
 CCSD iterations        60.58      9.12     69.70     69.73
 Triples                17.83      0.50     18.33     18.33

 Program statistics:

 Available memory in ccsd:               994999800
 Min. memory needed in ccsd:               1363289
 Max. memory used in ccsd:                 1637718
 Max. memory used in cckext:               2695008 (21 integral passes)



 **********************************************************************************************************************************
 DATASETS  * FILE   NREC   LENGTH (MB)   RECORD NAMES
              1      20     3264.24       500      610      700      900      950      970     1000      129      960     1100   
                                          VAR    BASINP    GEOM    SYMINP    ZMAT    AOBASIS   BASIS     P2S    ABASIS      S 
                                         1400     1410     1200     1210     1080     1600     1650     1300     1700     1380   
                                           T        V       H0       H01     AOSYM     SMH    MOLCAS    ERIS     OPER     JKOP   

              2       4        3.46       700     1000      520     2100   
                                         GEOM     BASIS   MCVARS     RHF  

 PROGRAMS   *        TOTAL   CCSD(T)        HF       INT
 CPU TIMES  *       196.30     81.83     21.70     92.64
 REAL TIME  *       310.28 SEC
 DISK USED  *        10.04 GB      
 **********************************************************************************************************************************

 CCSD(T)/aug-cc-pV5Z energy=    -93.310148361600

        CCSD(T)         HF-SCF  
    -93.31014836    -92.91496414
 **********************************************************************************************************************************
 Molpro calculation terminated
 Variable memory released
