
 Primary working directories    : /tmp/r2666/232403.maple
 Secondary working directories  : /tmp/r2666/232403.maple
 Wavefunction directory         : /ddn/home4/r2666/wfu/
 Main file repository           : /tmp/r2666/232403.maple/

 SHA1      : d5ffa45e93fdbca01ffc919aa182cfdae0147319
 NAME      : 2015.1.35
 ARCHNAME  : linux/x86_64
 FC        : /opt/intel/composer_xe_2015.1.133/bin/intel64/ifort
 BLASLIB   : -Wl,-_start-group /opt/intel/mkl/lib/intel64/libmkl_intel_ilp64.a /opt/intel/mkl/lib/intel64/libmkl_intel_thread.a /opt/intel/mkl/lib/intel64/libmkl_core.a -Wl,-_end-group
 id        : olemiss

 Nodes     nprocs
 cn094        1

 Using customized tuning parameters: mindgm=1; mindgv=20; mindgc=4; mindgr=1; noblas=0; minvec=7
 default implementation of scratch files=df  

 ***,hcn CCSD(T)/TZ-F12 QFF
 memory, 995, m;
 gthresh,energy=1.d-12,zero=1.d-22,oneint=1.d-22,twoint=1.d-22;
 gthresh,optgrad=1.d-8,optstep=1.d-8;
 nocompress;
 geomtyp=xyz
 bohr
 geometry={
 3
         12        12
 N        0.0000000000        0.0000000000        1.1121032177
 C        0.0000000000        0.0000000000       -1.0572978193
 H        0.0000000000        0.0000000000       -3.0518753804
 }
 
 basis=av5z
   {hf,maxit=500;accu,20;}
 {ccsd(t),nocheck,maxit=250;orbital,IGNORE_ERROR;}

 Variables initialized (889), CPU time= 0.01 sec
 Commands  initialized (702), CPU time= 0.01 sec, 572 directives.
 Default parameters read. Elapsed time= 0.04 sec

 Checking input...
 Passed
1


                                         ***  PROGRAM SYSTEM MOLPRO  ***
                                       Copyright, TTI GmbH Stuttgart, 2015
                                    Version 2015.1 linked Jul  9 2018 13:16:40


 **********************************************************************************************************************************
 LABEL *   hcn CCSD(T)/TZ-F12 QFF                                                        
  64 bit serial version                                                                  DATE: 06-Feb-20          TIME: 09:49:39  
 **********************************************************************************************************************************

 SHA1:             d5ffa45e93fdbca01ffc919aa182cfdae0147319
 **********************************************************************************************************************************

 THRESHOLDS:

 ZERO    =  1.00D-22  ONEINT  =  1.00D-22  TWOINT  =  1.00D-22  PREFAC  =  1.00D-14  LOCALI  =  1.00D-09  EORDER  =  1.00D-04
 ENERGY  =  1.00D-12  ETEST   =  0.00D+00  EDENS   =  0.00D+00  THRDEDEF=  1.00D-06  GRADIENT=  1.00D-02  STEP    =  1.00D-03
 ORBITAL =  1.00D-05  CIVEC   =  1.00D-05  COEFF   =  1.00D-04  PRINTCI =  5.00D-02  PUNCHCI =  9.90D+01  OPTGRAD =  3.00D-04
 OPTENERG=  1.00D-06  OPTSTEP =  3.00D-04  THRGRAD =  1.00D-10  COMPRESS=  1.00D-11  VARMIN  =  1.00D-07  VARMAX  =  1.00D-03
 THRDOUB =  0.00D+00  THRDIV  =  1.00D-05  THRRED  =  1.00D-07  THRPSP  =  1.00D+00  THRDC   =  1.00D-10  THRCS   =  1.00D-10
 THRNRM  =  1.00D-08  THREQ   =  0.00D+00  THRDE   =  1.00D+00  THRREF  =  1.00D-05  SPARFAC =  1.00D+00  THRDLP  =  1.00D-07
 THRDIA  =  1.00D-10  THRDLS  =  1.00D-07  THRGPS  =  0.00D+00  THRKEX  =  0.00D+00  THRDIS  =  2.00D-01  THRVAR  =  1.00D-10
 THRLOC  =  1.00D-06  THRGAP  =  1.00D-06  THRLOCT = -1.00D+00  THRGAPT = -1.00D+00  THRORB  =  1.00D-06  THRMLTP =  0.00D+00
 THRCPQCI=  1.00D-10  KEXTA   =  0.00D+00  THRCOARS=  0.00D+00  SYMTOL  =  1.00D-06  GRADTOL =  1.00D-06  THROVL  =  1.00D-08
 THRORTH =  1.00D-08  GRID    =  1.00D-06  GRIDMAX =  1.00D-03  DTMAX   =  0.00D+00  THROCCDE=  1.00D-01  THROCCDE=  1.00D-01



 THRESHOLDS:

 ZERO    =  1.00D-22  ONEINT  =  1.00D-22  TWOINT  =  1.00D-22  PREFAC  =  1.00D-14  LOCALI  =  1.00D-09  EORDER  =  1.00D-04
 ENERGY  =  1.00D-12  ETEST   =  0.00D+00  EDENS   =  0.00D+00  THRDEDEF=  1.00D-06  GRADIENT=  1.00D-02  STEP    =  1.00D-03
 ORBITAL =  1.00D-05  CIVEC   =  1.00D-05  COEFF   =  1.00D-04  PRINTCI =  5.00D-02  PUNCHCI =  9.90D+01  OPTGRAD =  1.00D-08
 OPTENERG=  1.00D-06  OPTSTEP =  1.00D-08  THRGRAD =  1.00D-10  COMPRESS=  1.00D-11  VARMIN  =  1.00D-07  VARMAX  =  1.00D-03
 THRDOUB =  0.00D+00  THRDIV  =  1.00D-05  THRRED  =  1.00D-07  THRPSP  =  1.00D+00  THRDC   =  1.00D-10  THRCS   =  1.00D-10
 THRNRM  =  1.00D-08  THREQ   =  0.00D+00  THRDE   =  1.00D+00  THRREF  =  1.00D-05  SPARFAC =  1.00D+00  THRDLP  =  1.00D-07
 THRDIA  =  1.00D-10  THRDLS  =  1.00D-07  THRGPS  =  0.00D+00  THRKEX  =  0.00D+00  THRDIS  =  2.00D-01  THRVAR  =  1.00D-10
 THRLOC  =  1.00D-06  THRGAP  =  1.00D-06  THRLOCT = -1.00D+00  THRGAPT = -1.00D+00  THRORB  =  1.00D-06  THRMLTP =  0.00D+00
 THRCPQCI=  1.00D-10  KEXTA   =  0.00D+00  THRCOARS=  0.00D+00  SYMTOL  =  1.00D-06  GRADTOL =  1.00D-06  THROVL  =  1.00D-08
 THRORTH =  1.00D-08  GRID    =  1.00D-06  GRIDMAX =  1.00D-03  DTMAX   =  0.00D+00  THROCCDE=  1.00D-01  THROCCDE=  1.00D-01



 Input parameters for SORTINT:

 COMPRESS =    0.000000
 C_FINAL  =    1.000000
 DEBUG    =   -1.000000
 C_SORT1  =    0.000000
 C_SEWARD =    0.000000
 THRESH   =    0.000000
 IO       =  molpro                                                          
 SPRI     =    0.000000
 SETTING GEOMTYP        =    XYZ
 ZUNIT=BOHR
 

 Variable memory set to  995000000 words,  buffer space   230000 words

 SETTING BASIS          =    AV5Z


 Recomputing integrals since basis changed


 Using spherical harmonics

 Library entry N      S aug-cc-pV5Z          selected for orbital group  1
 Library entry N      P aug-cc-pV5Z          selected for orbital group  1
 Library entry N      D aug-cc-pV5Z          selected for orbital group  1
 Library entry N      F aug-cc-pV5Z          selected for orbital group  1
 Library entry N      G aug-cc-pV5Z          selected for orbital group  1
 Library entry N      H aug-cc-pV5Z          selected for orbital group  1
 Library entry C      S aug-cc-pV5Z          selected for orbital group  2
 Library entry C      P aug-cc-pV5Z          selected for orbital group  2
 Library entry C      D aug-cc-pV5Z          selected for orbital group  2
 Library entry C      F aug-cc-pV5Z          selected for orbital group  2
 Library entry C      G aug-cc-pV5Z          selected for orbital group  2
 Library entry C      H aug-cc-pV5Z          selected for orbital group  2
 Library entry H      S aug-cc-pV5Z          selected for orbital group  3
 Library entry H      P aug-cc-pV5Z          selected for orbital group  3
 Library entry H      D aug-cc-pV5Z          selected for orbital group  3
 Library entry H      F aug-cc-pV5Z          selected for orbital group  3
 Library entry H      G aug-cc-pV5Z          selected for orbital group  3


 PROGRAM * SEWARD (Integral evaluation for generally contracted gaussian basis sets)     Author: Roland Lindh, 1990

 Geometry written to block  1 of record 700


 Point group  C2v 



 ATOMIC COORDINATES

 NR  ATOM    CHARGE       X              Y              Z

   1  N       7.00    0.000000000    0.000000000    1.112103218
   2  C       6.00    0.000000000    0.000000000   -1.057297819
   3  H       1.00    0.000000000    0.000000000   -3.051875380

 Bond lengths in Bohr (Angstrom)

 1-2  2.169401037  2-3  1.994577561
     ( 1.147997590)     ( 1.055484991)

 Bond angles

  1-2-3  179.99999879

 NUCLEAR CHARGE:                   14
 NUMBER OF PRIMITIVE AOS:         506
 NUMBER OF SYMMETRY AOS:          371
 NUMBER OF CONTRACTIONS:          334   ( 123A1  +  81B1  +  81B2  +  49A2  )
 NUMBER OF CORE ORBITALS:           2   (   2A1  +   0B1  +   0B2  +   0A2  )
 NUMBER OF VALENCE ORBITALS:        9   (   5A1  +   2B1  +   2B2  +   0A2  )


 NUCLEAR REPULSION ENERGY   24.04942280

 EXTRA SYMMETRY OF AOS IN SYMMETRY 1:   1 1 1 1 1 1 1 1 1 1   1 1 1 1 2 1 2 1 2 1   2 1 2 1 2 1 2 1 2 1   2 1 3 2 1 3 2 1 3 2
                                        2 3 1 2 3 1 1 1 1 1   1 1 1 1 1 1 1 1 1 1   2 1 2 1 2 1 2 1 2 1   2 1 2 1 2 1 2 1 3 2
                                        1 3 2 1 3 2 2 3 1 2   3 1 1 1 1 1 1 1 1 1   1 1 1 1 2 1 2 1 2 1   2 1 2 1 2 1 2 1 3 2
                                        1 3 2
 EXTRA SYMMETRY OF AOS IN SYMMETRY 2:   1 1 1 1 1 1 1 1 1 1   1 1 2 1 2 1 2 1 2 1   2 1 2 1 2 1 2 3 1 2   3 1 1 1 1 1 1 1 1 1
                                        1 1 1 2 1 2 1 2 1 2   1 2 1 2 1 2 1 2 3 1   2 3 1 1 1 1 1 1 1 1   1 1 2 1 2 1 2 1 2 1
                                        2
 EXTRA SYMMETRY OF AOS IN SYMMETRY 3:   1 1 1 1 1 1 1 1 1 1   1 1 2 1 2 1 2 1 2 1   2 1 2 1 2 1 2 3 1 2   3 1 1 1 1 1 1 1 1 1
                                        1 1 1 2 1 2 1 2 1 2   1 2 1 2 1 2 1 2 3 1   2 3 1 1 1 1 1 1 1 1   1 1 2 1 2 1 2 1 2 1
                                        2
 EXTRA SYMMETRY OF AOS IN SYMMETRY 4:   1 1 1 1 1 1 1 1 1 1   2 1 2 1 2 2 1 2 1 1   1 1 1 1 1 1 1 1 1 2   1 2 1 2 2 1 2 1 1 1
                                        1 1 1 1 1 1 2 1 2

 Eigenvalues of metric

         1 0.233E-05 0.544E-05 0.142E-04 0.346E-04 0.570E-04 0.679E-04 0.171E-03 0.219E-03
         2 0.547E-04 0.171E-03 0.364E-03 0.683E-03 0.915E-03 0.148E-02 0.184E-02 0.367E-02
         3 0.547E-04 0.171E-03 0.364E-03 0.683E-03 0.915E-03 0.148E-02 0.184E-02 0.367E-02
         4 0.755E-03 0.211E-02 0.480E-02 0.678E-02 0.157E-01 0.228E-01 0.248E-01 0.621E-01


 Contracted 2-electron integrals neglected if value below      1.0D-22

      355389383. INTEGRALS WRITTEN OUT IN   86787 BLOCKS ON RECORD 1290 OF FILE 1


 NUMBER OF SORTED TWO-ELECTRON INTEGRALS:  396972178.     BUFFER LENGTH:  32768
 NUMBER OF SEGMENTS:  13  SEGMENT LENGTH:   31999071      RECORD LENGTH: 524288

 Memory used in sort:      32.56 MW

 SORT1 READ   355389383. AND WROTE   358564919. INTEGRALS IN   1032 RECORDS. CPU TIME:     9.90 SEC, REAL TIME:    13.22 SEC
 SORT2 READ   358564919. AND WROTE   396972178. INTEGRALS IN     13 RECORDS. CPU TIME:     5.63 SEC, REAL TIME:     7.90 SEC

 FILE SIZES:   FILE 1:  5710.0 MBYTE,  FILE 4:  4328.6 MBYTE,   TOTAL:  10038.6 MBYTE

 OPERATOR DM      FOR CENTER  0  COORDINATES:    0.000000    0.000000    0.000000


 **********************************************************************************************************************************
 DATASETS  * FILE   NREC   LENGTH (MB)   RECORD NAMES
              1      19     3080.54       500      610      700      900      950      970     1000      129      960     1100   
                                          VAR    BASINP    GEOM    SYMINP    ZMAT    AOBASIS   BASIS     P2S    ABASIS      S 
                                         1400     1410     1200     1210     1080     1600     1650     1300     1700   
                                           T        V       H0       H01     AOSYM     SMH    MOLCAS    ERIS     OPER   

 PROGRAMS   *        TOTAL       INT
 CPU TIMES  *        91.97     91.87
 REAL TIME  *       101.62 SEC
 DISK USED  *        10.04 GB      
 **********************************************************************************************************************************


 PROGRAM * RHF-SCF (CLOSED SHELL)       Authors: W. Meyer, H.-J. Werner


 NUMBER OF ELECTRONS:       7+    7-
 CONVERGENCE THRESHOLDS:    1.00E-10 (Density)    1.00E-13 (Energy)
 MAX. NUMBER OF ITERATIONS:      500
 INTERPOLATION TYPE:            DIIS
 INTERPOLATION STEPS:              2 (START)      1 (STEP)
 LEVEL SHIFTS:                  0.00 (CLOSED)  0.00 (OPEN) 



 Orbital guess generated from atomic densities. Full valence occupancy:    7   2   2   0

 Molecular orbital dump at record        2100.2

 Initial occupancy:   5   1   1   0

 ITERATION    DDIFF          GRAD             ENERGY        2-EL.EN.            DIPOLE MOMENTS         DIIS   ORB.
    1      0.000D+00      0.000D+00       -92.89235379    112.242350    0.00000    0.00000   -1.76646    0    start
    2      0.000D+00      0.561D-02       -92.90156246    111.340489    0.00000    0.00000   -0.90220    1    diag
    3      0.432D-02      0.492D-02       -92.91622506    111.884186    0.00000    0.00000   -1.30200    2    diag
    4      0.220D-02      0.422D-03       -92.91645455    111.848801    0.00000    0.00000   -1.28985    3    diag
    5      0.421D-03      0.877D-04       -92.91646751    111.856237    0.00000    0.00000   -1.28838    4    diag
    6      0.103D-03      0.230D-04       -92.91646821    111.851937    0.00000    0.00000   -1.28852    5    diag
    7      0.192D-04      0.807D-05       -92.91646828    111.853131    0.00000    0.00000   -1.28854    6    diag
    8      0.643D-05      0.176D-05       -92.91646828    111.853068    0.00000    0.00000   -1.28851    7    diag
    9      0.139D-05      0.207D-06       -92.91646828    111.853077    0.00000    0.00000   -1.28851    8    diag
   10      0.218D-06      0.270D-07       -92.91646828    111.853078    0.00000    0.00000   -1.28851    9    orth
   11      0.265D-07      0.400D-08       -92.91646828    111.853078    0.00000    0.00000   -1.28851    9    diag
   12      0.471D-08      0.372D-09       -92.91646828    111.853078    0.00000    0.00000   -1.28851    9    diag
   13      0.119D-08      0.316D-10       -92.91646828    111.853078    0.00000    0.00000   -1.28851    9    diag
   14      0.175D-09      0.497D-11       -92.91646828    111.853078    0.00000    0.00000   -1.28851    9    diag
   15      0.106D-09      0.106D-11       -92.91646828    111.853078    0.00000    0.00000   -1.28851    9    diag
   16      0.779D-10      0.594D-12       -92.91646828    111.853078    0.00000    0.00000   -1.28851    9    diag
   17      0.452D-10      0.497D-12       -92.91646828    111.853078    0.00000    0.00000   -1.28851    9    diag
   18      0.270D-10      0.504D-12       -92.91646828    111.853078    0.00000    0.00000   -1.28851    9    diag
   19      0.152D-10      0.745D-12       -92.91646828    111.853078    0.00000    0.00000   -1.28851    9    fixocc
   20      0.155D-10      0.872D-12       -92.91646828    111.853078    0.00000    0.00000   -1.28851    0    orth

 Final occupancy:   5   1   1   0

 !RHF STATE 1.1 Energy                -92.916468279479
 Nuclear energy                        24.04942280
 One-electron energy                 -172.89243027
 Two-electron energy                   55.92653919
 Virial quotient                       -1.00155161
 !RHF STATE 1.1 Dipole moment           0.00000000     0.00000000    -1.28850537
 Dipole moment /Debye                   0.00000000     0.00000000    -3.27483948

 Orbital energies:

         1.1          2.1          3.1          4.1          5.1          6.1          7.1
    -15.596304   -11.288292    -1.238938    -0.816393    -0.582362     0.017629     0.053234

         1.2          2.2          3.2
     -0.498693     0.052427     0.101863

         1.3          2.3          3.3
     -0.498693     0.052427     0.101863

         1.4          2.4
      0.202500     0.326734

 HOMO      1.2    -0.498693 =     -13.5701eV
 LUMO      6.1     0.017629 =       0.4797eV
 LUMO-HOMO         0.516322 =      14.0498eV


 **********************************************************************************************************************************
 DATASETS  * FILE   NREC   LENGTH (MB)   RECORD NAMES
              1      19     3080.54       500      610      700      900      950      970     1000      129      960     1100   
                                          VAR    BASINP    GEOM    SYMINP    ZMAT    AOBASIS   BASIS     P2S    ABASIS      S 
                                         1400     1410     1200     1210     1080     1600     1650     1300     1700   
                                           T        V       H0       H01     AOSYM     SMH    MOLCAS    ERIS     OPER   

              2       4        3.46       700     1000      520     2100   
                                         GEOM     BASIS   MCVARS     RHF  

 PROGRAMS   *        TOTAL        HF       INT
 CPU TIMES  *       115.38     23.41     91.87
 REAL TIME  *       130.80 SEC
 DISK USED  *        10.04 GB      
 **********************************************************************************************************************************


 PROGRAM * CCSD (Closed-shell coupled cluster)     Authors: C. Hampel, H.-J. Werner, 1991, M. Deegan, P.J. Knowles, 1992


 Convergence thresholds:  THRVAR = 1.00D-08  THRDEN = 1.00D-12

 CCSD(T)     terms to be evaluated (factor= 1.000)


 Number of core orbitals:           2 (   2   0   0   0 )
 Number of closed-shell orbitals:   5 (   3   1   1   0 )
 Number of external orbitals:     327 ( 118  80  80  49 )

 Molecular orbitals read from record     2100.2  Type=RHF/CANONICAL (state 1.1)

 Number of N-1 electron functions:               5
 Number of N-2 electron functions:              15
 Number of singly external CSFs:               514
 Number of doubly external CSFs:            345689
 Total number of CSFs:                      346204

 Length of J-op  integral file:               0.00 MB
 Length of K-op  integral file:               2.14 MB
 Length of 3-ext integral record:             0.00 MB

 Memory could be reduced to 68.09 Mwords without degradation in triples

 Integral transformation finished. Total CPU:   3.56 sec, npass=  1  Memory used:   7.20 MW

 Reference energy:                    -92.91646828

 MP2 singlet pair energy:              -0.24421185
 MP2 triplet pair energy:              -0.13246387
 MP2 correlation energy:               -0.37667572
 MP2 total energy:                    -93.29314400

 SCS-MP2 correlation energy:           -0.37547618   (PS=  1.200000  PT=  0.333333)
 SCS-MP2 total energy:                -93.29194446

 ITER.      SQ.NORM     CORR.ENERGY   TOTAL ENERGY   ENERGY CHANGE        DEN1      VAR(S)    VAR(P)  DIIS     TIME  TIME/IT
   1      1.11437684    -0.37329673   -93.28976501     0.00337899     0.01658444  0.26D-02  0.31D-02  1  1     6.89     3.75
   2      1.12341892    -0.37347939   -93.28994767    -0.00018266    -0.01017627  0.66D-04  0.39D-03  2  2    10.29     3.82
   3      1.12826948    -0.37370388   -93.29017215    -0.00022449    -0.00255848  0.14D-04  0.46D-04  3  3    13.69     3.81
   4      1.13034477    -0.37376053   -93.29022881    -0.00005665    -0.00075912  0.66D-06  0.51D-05  4  4    17.06     3.82
   5      1.13089779    -0.37377019   -93.29023847    -0.00000966    -0.00015644  0.70D-07  0.44D-06  5  5    20.46     3.83
   6      1.13100583    -0.37376869   -93.29023697     0.00000150    -0.00002672  0.90D-08  0.36D-07  6  6    23.90     3.84
   7      1.13101469    -0.37376975   -93.29023803    -0.00000105    -0.00000110  0.84D-09  0.30D-08  6  1    27.34     3.84
   8      1.13101725    -0.37377017   -93.29023845    -0.00000042    -0.00000109  0.12D-09  0.27D-09  6  2    30.76     3.85
   9      1.13101732    -0.37377024   -93.29023852    -0.00000007     0.00000001  0.12D-10  0.18D-10  6  3    34.12     3.85
  10      1.13101720    -0.37377029   -93.29023857    -0.00000005     0.00000010  0.12D-11  0.16D-11  6  4    37.41     3.84
  11      1.13101714    -0.37377030   -93.29023858    -0.00000002     0.00000003  0.18D-12  0.15D-12  6  5    40.63     3.83
  12      1.13101708    -0.37377031   -93.29023859    -0.00000000     0.00000003  0.24D-13  0.24D-13  6  6    43.99     3.83
  13      1.13101705    -0.37377031   -93.29023859    -0.00000000     0.00000001  0.24D-14  0.49D-14  6  1    47.32     3.83
  14      1.13101703    -0.37377031   -93.29023859    -0.00000000     0.00000001  0.23D-15  0.71D-15  6  2    50.65     3.83
  15      1.13101703    -0.37377031   -93.29023859    -0.00000000     0.00000000  0.18D-16  0.10D-15  6  3    54.09     3.83
  16      1.13101703    -0.37377031   -93.29023859     0.00000000     0.00000000  0.32D-17  0.13D-16  6  4    57.47     3.83
  17      1.13101703    -0.37377031   -93.29023859     0.00000000     0.00000000  0.84D-18  0.20D-17  6  5    60.80     3.83
  18      1.13101703    -0.37377031   -93.29023859     0.00000000     0.00000000  0.31D-18  0.71D-18  6  6    64.12     3.83
  19      1.13101703    -0.37377031   -93.29023859     0.00000000     0.00000000  0.95D-19  0.23D-18  6  1    67.41     3.83
  20      1.13101703    -0.37377031   -93.29023859    -0.00000000     0.00000000  0.71D-19  0.14D-18  6  2    70.70     3.82
  21      1.13101703    -0.37377031   -93.29023859     0.00000000     0.00000000  0.42D-19  0.73D-19  6  3    74.06     3.83

 Norm of t1 vector:      0.06389092      S-energy:    -0.00000000      T1 diagnostic:  0.01428644
                                                                       D1 diagnostic:  0.02882031


 Total CPU time for triples:     20.75 sec


 RESULTS
 =======

  Reference energy                    -92.916468279479
  CCSD singlet pair energy             -0.262546319273
  CCSD triplet pair energy             -0.111223990922
  CCSD correlation energy              -0.373770310200

  Triples (T) contribution             -0.019796217425
  Total correlation energy             -0.393566527625

  CCSD total energy                   -93.290238589679
  CCSD[T] energy                      -93.310859838866
  CCSD-T energy                       -93.309669545964
 !CCSD(T) total energy                -93.310034807104

 Timing summary (sec):

 STEP                 CPU(USER)    SYS     CPU(TOT)    WALL
 Transformation          3.57      0.69      4.26      4.56
 CCSD iterations        70.50      9.86     80.36     80.37
 Triples                20.75      0.58     21.33     21.33

 Program statistics:

 Available memory in ccsd:               994999800
 Min. memory needed in ccsd:               1363289
 Max. memory used in ccsd:                 1637718
 Max. memory used in cckext:               2695008 (21 integral passes)



 **********************************************************************************************************************************
 DATASETS  * FILE   NREC   LENGTH (MB)   RECORD NAMES
              1      20     3264.76       500      610      700      900      950      970     1000      129      960     1100   
                                          VAR    BASINP    GEOM    SYMINP    ZMAT    AOBASIS   BASIS     P2S    ABASIS      S 
                                         1400     1410     1200     1210     1080     1600     1650     1300     1700     1380   
                                           T        V       H0       H01     AOSYM     SMH    MOLCAS    ERIS     OPER     JKOP   

              2       4        3.46       700     1000      520     2100   
                                         GEOM     BASIS   MCVARS     RHF  

 PROGRAMS   *        TOTAL   CCSD(T)        HF       INT
 CPU TIMES  *       210.23     94.85     23.41     91.87
 REAL TIME  *       237.24 SEC
 DISK USED  *        10.04 GB      
 **********************************************************************************************************************************

 CCSD(T)/aug-cc-pV5Z energy=    -93.310034807104

        CCSD(T)         HF-SCF  
    -93.31003481    -92.91646828
 **********************************************************************************************************************************
 Molpro calculation terminated
 Variable memory released
