
 Primary working directories    : /tmp/r2666/232416.maple
 Secondary working directories  : /tmp/r2666/232416.maple
 Wavefunction directory         : /ddn/home4/r2666/wfu/
 Main file repository           : /tmp/r2666/232416.maple/

 SHA1      : d5ffa45e93fdbca01ffc919aa182cfdae0147319
 NAME      : 2015.1.35
 ARCHNAME  : linux/x86_64
 FC        : /opt/intel/composer_xe_2015.1.133/bin/intel64/ifort
 BLASLIB   : -Wl,-_start-group /opt/intel/mkl/lib/intel64/libmkl_intel_ilp64.a /opt/intel/mkl/lib/intel64/libmkl_intel_thread.a /opt/intel/mkl/lib/intel64/libmkl_core.a -Wl,-_end-group
 id        : olemiss

 Nodes     nprocs
 cn089        1

 Using customized tuning parameters: mindgm=1; mindgv=20; mindgc=4; mindgr=1; noblas=0; minvec=7
 default implementation of scratch files=df  

 ***,hcn CCSD(T)/TZ-F12 QFF
 memory, 995, m;
 gthresh,energy=1.d-12,zero=1.d-22,oneint=1.d-22,twoint=1.d-22;
 gthresh,optgrad=1.d-8,optstep=1.d-8;
 nocompress;
 geomtyp=xyz
 bohr
 geometry={
 3
         25        25
 N        0.0000000000        0.0000000000        1.1215518477
 C        0.0000000000        0.0000000000       -1.0572978193
 H        0.0000000000        0.0000000000       -3.0613240104
 }
 
 basis=av5z
   {hf,maxit=500;accu,20;}
 {ccsd(t),nocheck,maxit=250;orbital,IGNORE_ERROR;}

 Variables initialized (889), CPU time= 0.01 sec
 Commands  initialized (702), CPU time= 0.01 sec, 572 directives.
 Default parameters read. Elapsed time= 0.08 sec

 Checking input...
 Passed
1


                                         ***  PROGRAM SYSTEM MOLPRO  ***
                                       Copyright, TTI GmbH Stuttgart, 2015
                                    Version 2015.1 linked Jul  9 2018 13:16:40


 **********************************************************************************************************************************
 LABEL *   hcn CCSD(T)/TZ-F12 QFF                                                        
  64 bit serial version                                                                  DATE: 06-Feb-20          TIME: 09:49:39  
 **********************************************************************************************************************************

 SHA1:             d5ffa45e93fdbca01ffc919aa182cfdae0147319
 **********************************************************************************************************************************

 THRESHOLDS:

 ZERO    =  1.00D-22  ONEINT  =  1.00D-22  TWOINT  =  1.00D-22  PREFAC  =  1.00D-14  LOCALI  =  1.00D-09  EORDER  =  1.00D-04
 ENERGY  =  1.00D-12  ETEST   =  0.00D+00  EDENS   =  0.00D+00  THRDEDEF=  1.00D-06  GRADIENT=  1.00D-02  STEP    =  1.00D-03
 ORBITAL =  1.00D-05  CIVEC   =  1.00D-05  COEFF   =  1.00D-04  PRINTCI =  5.00D-02  PUNCHCI =  9.90D+01  OPTGRAD =  3.00D-04
 OPTENERG=  1.00D-06  OPTSTEP =  3.00D-04  THRGRAD =  1.00D-10  COMPRESS=  1.00D-11  VARMIN  =  1.00D-07  VARMAX  =  1.00D-03
 THRDOUB =  0.00D+00  THRDIV  =  1.00D-05  THRRED  =  1.00D-07  THRPSP  =  1.00D+00  THRDC   =  1.00D-10  THRCS   =  1.00D-10
 THRNRM  =  1.00D-08  THREQ   =  0.00D+00  THRDE   =  1.00D+00  THRREF  =  1.00D-05  SPARFAC =  1.00D+00  THRDLP  =  1.00D-07
 THRDIA  =  1.00D-10  THRDLS  =  1.00D-07  THRGPS  =  0.00D+00  THRKEX  =  0.00D+00  THRDIS  =  2.00D-01  THRVAR  =  1.00D-10
 THRLOC  =  1.00D-06  THRGAP  =  1.00D-06  THRLOCT = -1.00D+00  THRGAPT = -1.00D+00  THRORB  =  1.00D-06  THRMLTP =  0.00D+00
 THRCPQCI=  1.00D-10  KEXTA   =  0.00D+00  THRCOARS=  0.00D+00  SYMTOL  =  1.00D-06  GRADTOL =  1.00D-06  THROVL  =  1.00D-08
 THRORTH =  1.00D-08  GRID    =  1.00D-06  GRIDMAX =  1.00D-03  DTMAX   =  0.00D+00  THROCCDE=  1.00D-01  THROCCDE=  1.00D-01



 THRESHOLDS:

 ZERO    =  1.00D-22  ONEINT  =  1.00D-22  TWOINT  =  1.00D-22  PREFAC  =  1.00D-14  LOCALI  =  1.00D-09  EORDER  =  1.00D-04
 ENERGY  =  1.00D-12  ETEST   =  0.00D+00  EDENS   =  0.00D+00  THRDEDEF=  1.00D-06  GRADIENT=  1.00D-02  STEP    =  1.00D-03
 ORBITAL =  1.00D-05  CIVEC   =  1.00D-05  COEFF   =  1.00D-04  PRINTCI =  5.00D-02  PUNCHCI =  9.90D+01  OPTGRAD =  1.00D-08
 OPTENERG=  1.00D-06  OPTSTEP =  1.00D-08  THRGRAD =  1.00D-10  COMPRESS=  1.00D-11  VARMIN  =  1.00D-07  VARMAX  =  1.00D-03
 THRDOUB =  0.00D+00  THRDIV  =  1.00D-05  THRRED  =  1.00D-07  THRPSP  =  1.00D+00  THRDC   =  1.00D-10  THRCS   =  1.00D-10
 THRNRM  =  1.00D-08  THREQ   =  0.00D+00  THRDE   =  1.00D+00  THRREF  =  1.00D-05  SPARFAC =  1.00D+00  THRDLP  =  1.00D-07
 THRDIA  =  1.00D-10  THRDLS  =  1.00D-07  THRGPS  =  0.00D+00  THRKEX  =  0.00D+00  THRDIS  =  2.00D-01  THRVAR  =  1.00D-10
 THRLOC  =  1.00D-06  THRGAP  =  1.00D-06  THRLOCT = -1.00D+00  THRGAPT = -1.00D+00  THRORB  =  1.00D-06  THRMLTP =  0.00D+00
 THRCPQCI=  1.00D-10  KEXTA   =  0.00D+00  THRCOARS=  0.00D+00  SYMTOL  =  1.00D-06  GRADTOL =  1.00D-06  THROVL  =  1.00D-08
 THRORTH =  1.00D-08  GRID    =  1.00D-06  GRIDMAX =  1.00D-03  DTMAX   =  0.00D+00  THROCCDE=  1.00D-01  THROCCDE=  1.00D-01



 Input parameters for SORTINT:

 COMPRESS =    0.000000
 C_FINAL  =    1.000000
 DEBUG    =   -1.000000
 C_SORT1  =    0.000000
 C_SEWARD =    0.000000
 THRESH   =    0.000000
 IO       =  molpro                                                          
 SPRI     =    0.000000
 SETTING GEOMTYP        =    XYZ
 ZUNIT=BOHR
 

 Variable memory set to  995000000 words,  buffer space   230000 words

 SETTING BASIS          =    AV5Z


 Recomputing integrals since basis changed


 Using spherical harmonics

 Library entry N      S aug-cc-pV5Z          selected for orbital group  1
 Library entry N      P aug-cc-pV5Z          selected for orbital group  1
 Library entry N      D aug-cc-pV5Z          selected for orbital group  1
 Library entry N      F aug-cc-pV5Z          selected for orbital group  1
 Library entry N      G aug-cc-pV5Z          selected for orbital group  1
 Library entry N      H aug-cc-pV5Z          selected for orbital group  1
 Library entry C      S aug-cc-pV5Z          selected for orbital group  2
 Library entry C      P aug-cc-pV5Z          selected for orbital group  2
 Library entry C      D aug-cc-pV5Z          selected for orbital group  2
 Library entry C      F aug-cc-pV5Z          selected for orbital group  2
 Library entry C      G aug-cc-pV5Z          selected for orbital group  2
 Library entry C      H aug-cc-pV5Z          selected for orbital group  2
 Library entry H      S aug-cc-pV5Z          selected for orbital group  3
 Library entry H      P aug-cc-pV5Z          selected for orbital group  3
 Library entry H      D aug-cc-pV5Z          selected for orbital group  3
 Library entry H      F aug-cc-pV5Z          selected for orbital group  3
 Library entry H      G aug-cc-pV5Z          selected for orbital group  3


 PROGRAM * SEWARD (Integral evaluation for generally contracted gaussian basis sets)     Author: Roland Lindh, 1990

 Geometry written to block  1 of record 700


 Point group  C2v 



 ATOMIC COORDINATES

 NR  ATOM    CHARGE       X              Y              Z

   1  N       7.00    0.000000000    0.000000000    1.121551848
   2  C       6.00    0.000000000    0.000000000   -1.057297819
   3  H       1.00    0.000000000    0.000000000   -3.061324010

 Bond lengths in Bohr (Angstrom)

 1-2  2.178849667  2-3  2.004026191
     ( 1.152997590)     ( 1.060484990)

 Bond angles

  1-2-3  180.00000000

 NUCLEAR CHARGE:                   14
 NUMBER OF PRIMITIVE AOS:         506
 NUMBER OF SYMMETRY AOS:          371
 NUMBER OF CONTRACTIONS:          334   ( 123A1  +  81B1  +  81B2  +  49A2  )
 NUMBER OF CORE ORBITALS:           2   (   2A1  +   0B1  +   0B2  +   0A2  )
 NUMBER OF VALENCE ORBITALS:        9   (   5A1  +   2B1  +   2B2  +   0A2  )


 NUCLEAR REPULSION ENERGY   23.94368927

 EXTRA SYMMETRY OF AOS IN SYMMETRY 1:   1 1 1 1 1 1 1 1 1 1   1 1 1 1 2 1 2 1 2 1   2 1 2 1 2 1 2 1 2 1   2 1 3 2 1 3 2 1 3 2
                                        2 3 1 2 3 1 1 1 1 1   1 1 1 1 1 1 1 1 1 1   2 1 2 1 2 1 2 1 2 1   2 1 2 1 2 1 2 1 3 2
                                        1 3 2 1 3 2 2 3 1 2   3 1 1 1 1 1 1 1 1 1   1 1 1 1 2 1 2 1 2 1   2 1 2 1 2 1 2 1 3 2
                                        1 3 2
 EXTRA SYMMETRY OF AOS IN SYMMETRY 2:   1 1 1 1 1 1 1 1 1 1   1 1 2 1 2 1 2 1 2 1   2 1 2 1 2 1 2 3 1 2   3 1 1 1 1 1 1 1 1 1
                                        1 1 1 2 1 2 1 2 1 2   1 2 1 2 1 2 1 2 3 1   2 3 1 1 1 1 1 1 1 1   1 1 2 1 2 1 2 1 2 1
                                        2
 EXTRA SYMMETRY OF AOS IN SYMMETRY 3:   1 1 1 1 1 1 1 1 1 1   1 1 2 1 2 1 2 1 2 1   2 1 2 1 2 1 2 3 1 2   3 1 1 1 1 1 1 1 1 1
                                        1 1 1 2 1 2 1 2 1 2   1 2 1 2 1 2 1 2 3 1   2 3 1 1 1 1 1 1 1 1   1 1 2 1 2 1 2 1 2 1
                                        2
 EXTRA SYMMETRY OF AOS IN SYMMETRY 4:   1 1 1 1 1 1 1 1 1 1   2 1 2 1 2 2 1 2 1 1   1 1 1 1 1 1 1 1 1 2   1 2 1 2 2 1 2 1 1 1
                                        1 1 1 1 1 1 2 1 2

 Eigenvalues of metric

         1 0.242E-05 0.552E-05 0.144E-04 0.351E-04 0.578E-04 0.688E-04 0.174E-03 0.221E-03
         2 0.560E-04 0.177E-03 0.369E-03 0.694E-03 0.925E-03 0.151E-02 0.186E-02 0.369E-02
         3 0.560E-04 0.177E-03 0.369E-03 0.694E-03 0.925E-03 0.151E-02 0.186E-02 0.369E-02
         4 0.767E-03 0.215E-02 0.486E-02 0.690E-02 0.163E-01 0.232E-01 0.252E-01 0.630E-01


 Contracted 2-electron integrals neglected if value below      1.0D-22

      355299294. INTEGRALS WRITTEN OUT IN   86765 BLOCKS ON RECORD 1290 OF FILE 1


 NUMBER OF SORTED TWO-ELECTRON INTEGRALS:  396972178.     BUFFER LENGTH:  32768
 NUMBER OF SEGMENTS:  13  SEGMENT LENGTH:   31999071      RECORD LENGTH: 524288

 Memory used in sort:      32.56 MW

 SORT1 READ   355299294. AND WROTE   358473744. INTEGRALS IN   1032 RECORDS. CPU TIME:    24.11 SEC, REAL TIME:   119.31 SEC
 SORT2 READ   358473744. AND WROTE   396972178. INTEGRALS IN     13 RECORDS. CPU TIME:     9.97 SEC, REAL TIME:    71.65 SEC

 FILE SIZES:   FILE 1:  5708.6 MBYTE,  FILE 4:  4328.6 MBYTE,   TOTAL:  10037.1 MBYTE

 OPERATOR DM      FOR CENTER  0  COORDINATES:    0.000000    0.000000    0.000000


 **********************************************************************************************************************************
 DATASETS  * FILE   NREC   LENGTH (MB)   RECORD NAMES
              1      19     3080.01       500      610      700      900      950      970     1000      129      960     1100   
                                          VAR    BASINP    GEOM    SYMINP    ZMAT    AOBASIS   BASIS     P2S    ABASIS      S 
                                         1400     1410     1200     1210     1080     1600     1650     1300     1700   
                                           T        V       H0       H01     AOSYM     SMH    MOLCAS    ERIS     OPER   

 PROGRAMS   *        TOTAL       INT
 CPU TIMES  *       106.02    105.91
 REAL TIME  *       268.46 SEC
 DISK USED  *        10.04 GB      
 **********************************************************************************************************************************


 PROGRAM * RHF-SCF (CLOSED SHELL)       Authors: W. Meyer, H.-J. Werner


 NUMBER OF ELECTRONS:       7+    7-
 CONVERGENCE THRESHOLDS:    1.00E-10 (Density)    1.00E-13 (Energy)
 MAX. NUMBER OF ITERATIONS:      500
 INTERPOLATION TYPE:            DIIS
 INTERPOLATION STEPS:              2 (START)      1 (STEP)
 LEVEL SHIFTS:                  0.00 (CLOSED)  0.00 (OPEN) 



 Orbital guess generated from atomic densities. Full valence occupancy:    7   2   2   0

 Molecular orbital dump at record        2100.2

 Initial occupancy:   5   1   1   0

 ITERATION    DDIFF          GRAD             ENERGY        2-EL.EN.            DIPOLE MOMENTS         DIIS   ORB.
    1      0.000D+00      0.000D+00       -92.89146028    112.017762    0.00000    0.00000   -1.77682    0    start
    2      0.000D+00      0.562D-02       -92.90046449    111.141642    0.00000    0.00000   -0.89832    1    diag
    3      0.434D-02      0.498D-02       -92.91552576    111.683880    0.00000    0.00000   -1.30594    2    diag
    4      0.222D-02      0.423D-03       -92.91575724    111.645686    0.00000    0.00000   -1.29386    3    diag
    5      0.422D-03      0.897D-04       -92.91577054    111.654809    0.00000    0.00000   -1.29238    4    diag
    6      0.104D-03      0.241D-04       -92.91577132    111.650009    0.00000    0.00000   -1.29245    5    diag
    7      0.204D-04      0.856D-05       -92.91577139    111.651193    0.00000    0.00000   -1.29250    6    diag
    8      0.685D-05      0.184D-05       -92.91577140    111.651138    0.00000    0.00000   -1.29247    7    diag
    9      0.146D-05      0.214D-06       -92.91577140    111.651147    0.00000    0.00000   -1.29246    8    diag
   10      0.226D-06      0.274D-07       -92.91577140    111.651148    0.00000    0.00000   -1.29246    9    orth
   11      0.268D-07      0.400D-08       -92.91577140    111.651148    0.00000    0.00000   -1.29246    9    diag
   12      0.484D-08      0.376D-09       -92.91577140    111.651148    0.00000    0.00000   -1.29246    9    diag
   13      0.118D-08      0.321D-10       -92.91577140    111.651148    0.00000    0.00000   -1.29246    9    diag
   14      0.133D-09      0.566D-11       -92.91577140    111.651148    0.00000    0.00000   -1.29246    9    diag
   15      0.671D-10      0.138D-11       -92.91577140    111.651148    0.00000    0.00000   -1.29246    9    diag
   16      0.775D-10      0.650D-12       -92.91577140    111.651148    0.00000    0.00000   -1.29246    9    diag
   17      0.307D-10      0.465D-12       -92.91577140    111.651148    0.00000    0.00000   -1.29246    9    diag
   18      0.229D-10      0.639D-12       -92.91577140    111.651148    0.00000    0.00000   -1.29246    0    orth

 Final occupancy:   5   1   1   0

 !RHF STATE 1.1 Energy                -92.915771398066
 Nuclear energy                        23.94368927
 One-electron energy                 -172.68503455
 Two-electron energy                   55.82557389
 Virial quotient                       -1.00193314
 !RHF STATE 1.1 Dipole moment           0.00000000     0.00000000    -1.29245984
 Dipole moment /Debye                   0.00000000     0.00000000    -3.28489009

 Orbital energies:

         1.1          2.1          3.1          4.1          5.1          6.1          7.1
    -15.598027   -11.290518    -1.236535    -0.815174    -0.582475     0.017593     0.053223

         1.2          2.2          3.2
     -0.497108     0.052444     0.101706

         1.3          2.3          3.3
     -0.497108     0.052444     0.101706

         1.4          2.4
      0.202636     0.326918

 HOMO      1.2    -0.497108 =     -13.5270eV
 LUMO      6.1     0.017593 =       0.4787eV
 LUMO-HOMO         0.514700 =      14.0057eV


 **********************************************************************************************************************************
 DATASETS  * FILE   NREC   LENGTH (MB)   RECORD NAMES
              1      19     3080.01       500      610      700      900      950      970     1000      129      960     1100   
                                          VAR    BASINP    GEOM    SYMINP    ZMAT    AOBASIS   BASIS     P2S    ABASIS      S 
                                         1400     1410     1200     1210     1080     1600     1650     1300     1700   
                                           T        V       H0       H01     AOSYM     SMH    MOLCAS    ERIS     OPER   

              2       4        3.46       700     1000      520     2100   
                                         GEOM     BASIS   MCVARS     RHF  

 PROGRAMS   *        TOTAL        HF       INT
 CPU TIMES  *       125.79     19.77    105.91
 REAL TIME  *       293.59 SEC
 DISK USED  *        10.04 GB      
 **********************************************************************************************************************************


 PROGRAM * CCSD (Closed-shell coupled cluster)     Authors: C. Hampel, H.-J. Werner, 1991, M. Deegan, P.J. Knowles, 1992


 Convergence thresholds:  THRVAR = 1.00D-08  THRDEN = 1.00D-12

 CCSD(T)     terms to be evaluated (factor= 1.000)


 Number of core orbitals:           2 (   2   0   0   0 )
 Number of closed-shell orbitals:   5 (   3   1   1   0 )
 Number of external orbitals:     327 ( 118  80  80  49 )

 Molecular orbitals read from record     2100.2  Type=RHF/CANONICAL (state 1.1)

 Number of N-1 electron functions:               5
 Number of N-2 electron functions:              15
 Number of singly external CSFs:               514
 Number of doubly external CSFs:            345689
 Total number of CSFs:                      346204

 Length of J-op  integral file:               0.00 MB
 Length of K-op  integral file:               2.14 MB
 Length of 3-ext integral record:             0.00 MB

 Memory could be reduced to 68.09 Mwords without degradation in triples

 Integral transformation finished. Total CPU:   3.73 sec, npass=  1  Memory used:   7.20 MW

 Reference energy:                    -92.91577140

 MP2 singlet pair energy:              -0.24476691
 MP2 triplet pair energy:              -0.13290184
 MP2 correlation energy:               -0.37766875
 MP2 total energy:                    -93.29344014

 SCS-MP2 correlation energy:           -0.37641477   (PS=  1.200000  PT=  0.333333)
 SCS-MP2 total energy:                -93.29218616

 ITER.      SQ.NORM     CORR.ENERGY   TOTAL ENERGY   ENERGY CHANGE        DEN1      VAR(S)    VAR(P)  DIIS     TIME  TIME/IT
   1      1.11507685    -0.37402091   -93.28979231     0.00364783     0.01707715  0.26D-02  0.31D-02  1  1     6.54     3.41
   2      1.12426074    -0.37416500   -93.28993640    -0.00014409    -0.01031155  0.67D-04  0.40D-03  2  2     9.38     3.49
   3      1.12921240    -0.37439591   -93.29016731    -0.00023091    -0.00259540  0.14D-04  0.47D-04  3  3    12.31     3.54
   4      1.13134609    -0.37445508   -93.29022648    -0.00005917    -0.00077529  0.67D-06  0.54D-05  4  4    15.07     3.52
   5      1.13191924    -0.37446530   -93.29023670    -0.00001022    -0.00016133  0.73D-07  0.46D-06  5  5    17.84     3.50
   6      1.13203323    -0.37446371   -93.29023511     0.00000159    -0.00002816  0.97D-08  0.38D-07  6  6    20.71     3.52
   7      1.13204256    -0.37446483   -93.29023623    -0.00000112    -0.00000111  0.86D-09  0.33D-08  6  1    23.49     3.50
   8      1.13204531    -0.37446527   -93.29023666    -0.00000043    -0.00000117  0.13D-09  0.29D-09  6  2    26.44     3.53
   9      1.13204538    -0.37446534   -93.29023674    -0.00000008     0.00000002  0.12D-10  0.19D-10  6  3    29.41     3.53
  10      1.13204525    -0.37446539   -93.29023679    -0.00000005     0.00000011  0.12D-11  0.18D-11  6  4    32.50     3.53
  11      1.13204518    -0.37446541   -93.29023681    -0.00000002     0.00000003  0.19D-12  0.16D-12  6  5    35.55     3.54
  12      1.13204512    -0.37446541   -93.29023681    -0.00000001     0.00000003  0.26D-13  0.25D-13  6  6    38.45     3.53
  13      1.13204509    -0.37446541   -93.29023681    -0.00000000     0.00000001  0.26D-14  0.52D-14  6  1    41.32     3.53
  14      1.13204507    -0.37446542   -93.29023681    -0.00000000     0.00000001  0.29D-15  0.75D-15  6  2    44.12     3.51
  15      1.13204506    -0.37446542   -93.29023681    -0.00000000     0.00000000  0.21D-16  0.11D-15  6  3    47.16     3.52
  16      1.13204506    -0.37446542   -93.29023681     0.00000000     0.00000000  0.38D-17  0.14D-16  6  4    50.08     3.52
  17      1.13204506    -0.37446542   -93.29023681     0.00000000     0.00000000  0.95D-18  0.22D-17  6  5    53.10     3.52
  18      1.13204506    -0.37446542   -93.29023681     0.00000000     0.00000000  0.25D-18  0.54D-18  6  6    56.16     3.52
  19      1.13204506    -0.37446542   -93.29023681     0.00000000     0.00000000  0.83D-19  0.21D-18  6  1    59.16     3.52
  20      1.13204506    -0.37446542   -93.29023681     0.00000000     0.00000000  0.52D-19  0.11D-18  6  2    62.16     3.52
  21      1.13204506    -0.37446542   -93.29023681    -0.00000000     0.00000000  0.48D-19  0.84D-19  6  3    65.19     3.52

 Norm of t1 vector:      0.06460428      S-energy:    -0.00000000      T1 diagnostic:  0.01444596
                                                                       D1 diagnostic:  0.02915256


 Total CPU time for triples:     19.51 sec


 RESULTS
 =======

  Reference energy                    -92.915771398066
  CCSD singlet pair energy             -0.263136357478
  CCSD triplet pair energy             -0.111329057943
  CCSD correlation energy              -0.374465415427

  Triples (T) contribution             -0.019972268074
  Total correlation energy             -0.394437683501

  CCSD total energy                   -93.290236813493
  CCSD[T] energy                      -93.311054163145
  CCSD-T energy                       -93.309835863691
 !CCSD(T) total energy                -93.310209081567

 Timing summary (sec):

 STEP                 CPU(USER)    SYS     CPU(TOT)    WALL
 Transformation          3.75      0.70      4.45      7.12
 CCSD iterations        61.44     10.79     72.23     73.90
 Triples                19.51      0.50     20.01     20.01

 Program statistics:

 Available memory in ccsd:               994999800
 Min. memory needed in ccsd:               1363289
 Max. memory used in ccsd:                 1637718
 Max. memory used in cckext:               2695008 (21 integral passes)



 **********************************************************************************************************************************
 DATASETS  * FILE   NREC   LENGTH (MB)   RECORD NAMES
              1      20     3264.22       500      610      700      900      950      970     1000      129      960     1100   
                                          VAR    BASINP    GEOM    SYMINP    ZMAT    AOBASIS   BASIS     P2S    ABASIS      S 
                                         1400     1410     1200     1210     1080     1600     1650     1300     1700     1380   
                                           T        V       H0       H01     AOSYM     SMH    MOLCAS    ERIS     OPER     JKOP   

              2       4        3.46       700     1000      520     2100   
                                         GEOM     BASIS   MCVARS     RHF  

 PROGRAMS   *        TOTAL   CCSD(T)        HF       INT
 CPU TIMES  *       210.52     84.73     19.77    105.91
 REAL TIME  *       394.92 SEC
 DISK USED  *        10.04 GB      
 **********************************************************************************************************************************

 CCSD(T)/aug-cc-pV5Z energy=    -93.310209081567

        CCSD(T)         HF-SCF  
    -93.31020908    -92.91577140
 **********************************************************************************************************************************
 Molpro calculation terminated
 Variable memory released
