
 Primary working directories    : /tmp/r2666/232419.maple
 Secondary working directories  : /tmp/r2666/232419.maple
 Wavefunction directory         : /ddn/home4/r2666/wfu/
 Main file repository           : /tmp/r2666/232419.maple/

 SHA1      : d5ffa45e93fdbca01ffc919aa182cfdae0147319
 NAME      : 2015.1.35
 ARCHNAME  : linux/x86_64
 FC        : /opt/intel/composer_xe_2015.1.133/bin/intel64/ifort
 BLASLIB   : -Wl,-_start-group /opt/intel/mkl/lib/intel64/libmkl_intel_ilp64.a /opt/intel/mkl/lib/intel64/libmkl_intel_thread.a /opt/intel/mkl/lib/intel64/libmkl_core.a -Wl,-_end-group
 id        : olemiss

 Nodes     nprocs
 cn089        1

 Using customized tuning parameters: mindgm=1; mindgv=20; mindgc=4; mindgr=1; noblas=0; minvec=7
 default implementation of scratch files=df  

 ***,hcn CCSD(T)/TZ-F12 QFF
 memory, 995, m;
 gthresh,energy=1.d-12,zero=1.d-22,oneint=1.d-22,twoint=1.d-22;
 gthresh,optgrad=1.d-8,optstep=1.d-8;
 nocompress;
 geomtyp=xyz
 bohr
 geometry={
 3
         28        28
 N       -0.0046162072        0.0000000025        1.1246527606
 C        0.0096115372       -0.0000000001       -1.0541504528
 H       -0.0049953300       -0.0000000024       -3.0675722899
 }
 
 basis=av5z
   {hf,maxit=500;accu,20;}
 {ccsd(t),nocheck,maxit=250;orbital,IGNORE_ERROR;}

 Variables initialized (889), CPU time= 0.01 sec
 Commands  initialized (702), CPU time= 0.01 sec, 572 directives.
 Default parameters read. Elapsed time= 0.05 sec

 Checking input...
 Passed
1


                                         ***  PROGRAM SYSTEM MOLPRO  ***
                                       Copyright, TTI GmbH Stuttgart, 2015
                                    Version 2015.1 linked Jul  9 2018 13:16:40


 **********************************************************************************************************************************
 LABEL *   hcn CCSD(T)/TZ-F12 QFF                                                        
  64 bit serial version                                                                  DATE: 06-Feb-20          TIME: 09:49:39  
 **********************************************************************************************************************************

 SHA1:             d5ffa45e93fdbca01ffc919aa182cfdae0147319
 **********************************************************************************************************************************

 THRESHOLDS:

 ZERO    =  1.00D-22  ONEINT  =  1.00D-22  TWOINT  =  1.00D-22  PREFAC  =  1.00D-14  LOCALI  =  1.00D-09  EORDER  =  1.00D-04
 ENERGY  =  1.00D-12  ETEST   =  0.00D+00  EDENS   =  0.00D+00  THRDEDEF=  1.00D-06  GRADIENT=  1.00D-02  STEP    =  1.00D-03
 ORBITAL =  1.00D-05  CIVEC   =  1.00D-05  COEFF   =  1.00D-04  PRINTCI =  5.00D-02  PUNCHCI =  9.90D+01  OPTGRAD =  3.00D-04
 OPTENERG=  1.00D-06  OPTSTEP =  3.00D-04  THRGRAD =  1.00D-10  COMPRESS=  1.00D-11  VARMIN  =  1.00D-07  VARMAX  =  1.00D-03
 THRDOUB =  0.00D+00  THRDIV  =  1.00D-05  THRRED  =  1.00D-07  THRPSP  =  1.00D+00  THRDC   =  1.00D-10  THRCS   =  1.00D-10
 THRNRM  =  1.00D-08  THREQ   =  0.00D+00  THRDE   =  1.00D+00  THRREF  =  1.00D-05  SPARFAC =  1.00D+00  THRDLP  =  1.00D-07
 THRDIA  =  1.00D-10  THRDLS  =  1.00D-07  THRGPS  =  0.00D+00  THRKEX  =  0.00D+00  THRDIS  =  2.00D-01  THRVAR  =  1.00D-10
 THRLOC  =  1.00D-06  THRGAP  =  1.00D-06  THRLOCT = -1.00D+00  THRGAPT = -1.00D+00  THRORB  =  1.00D-06  THRMLTP =  0.00D+00
 THRCPQCI=  1.00D-10  KEXTA   =  0.00D+00  THRCOARS=  0.00D+00  SYMTOL  =  1.00D-06  GRADTOL =  1.00D-06  THROVL  =  1.00D-08
 THRORTH =  1.00D-08  GRID    =  1.00D-06  GRIDMAX =  1.00D-03  DTMAX   =  0.00D+00  THROCCDE=  1.00D-01  THROCCDE=  1.00D-01



 THRESHOLDS:

 ZERO    =  1.00D-22  ONEINT  =  1.00D-22  TWOINT  =  1.00D-22  PREFAC  =  1.00D-14  LOCALI  =  1.00D-09  EORDER  =  1.00D-04
 ENERGY  =  1.00D-12  ETEST   =  0.00D+00  EDENS   =  0.00D+00  THRDEDEF=  1.00D-06  GRADIENT=  1.00D-02  STEP    =  1.00D-03
 ORBITAL =  1.00D-05  CIVEC   =  1.00D-05  COEFF   =  1.00D-04  PRINTCI =  5.00D-02  PUNCHCI =  9.90D+01  OPTGRAD =  1.00D-08
 OPTENERG=  1.00D-06  OPTSTEP =  1.00D-08  THRGRAD =  1.00D-10  COMPRESS=  1.00D-11  VARMIN  =  1.00D-07  VARMAX  =  1.00D-03
 THRDOUB =  0.00D+00  THRDIV  =  1.00D-05  THRRED  =  1.00D-07  THRPSP  =  1.00D+00  THRDC   =  1.00D-10  THRCS   =  1.00D-10
 THRNRM  =  1.00D-08  THREQ   =  0.00D+00  THRDE   =  1.00D+00  THRREF  =  1.00D-05  SPARFAC =  1.00D+00  THRDLP  =  1.00D-07
 THRDIA  =  1.00D-10  THRDLS  =  1.00D-07  THRGPS  =  0.00D+00  THRKEX  =  0.00D+00  THRDIS  =  2.00D-01  THRVAR  =  1.00D-10
 THRLOC  =  1.00D-06  THRGAP  =  1.00D-06  THRLOCT = -1.00D+00  THRGAPT = -1.00D+00  THRORB  =  1.00D-06  THRMLTP =  0.00D+00
 THRCPQCI=  1.00D-10  KEXTA   =  0.00D+00  THRCOARS=  0.00D+00  SYMTOL  =  1.00D-06  GRADTOL =  1.00D-06  THROVL  =  1.00D-08
 THRORTH =  1.00D-08  GRID    =  1.00D-06  GRIDMAX =  1.00D-03  DTMAX   =  0.00D+00  THROCCDE=  1.00D-01  THROCCDE=  1.00D-01



 Input parameters for SORTINT:

 COMPRESS =    0.000000
 C_FINAL  =    1.000000
 DEBUG    =   -1.000000
 C_SORT1  =    0.000000
 C_SEWARD =    0.000000
 THRESH   =    0.000000
 IO       =  molpro                                                          
 SPRI     =    0.000000
 SETTING GEOMTYP        =    XYZ
 ZUNIT=BOHR
 

 Variable memory set to  995000000 words,  buffer space   230000 words

 SETTING BASIS          =    AV5Z


 Recomputing integrals since basis changed


 Using spherical harmonics

 Library entry N      S aug-cc-pV5Z          selected for orbital group  1
 Library entry N      P aug-cc-pV5Z          selected for orbital group  1
 Library entry N      D aug-cc-pV5Z          selected for orbital group  1
 Library entry N      F aug-cc-pV5Z          selected for orbital group  1
 Library entry N      G aug-cc-pV5Z          selected for orbital group  1
 Library entry N      H aug-cc-pV5Z          selected for orbital group  1
 Library entry C      S aug-cc-pV5Z          selected for orbital group  2
 Library entry C      P aug-cc-pV5Z          selected for orbital group  2
 Library entry C      D aug-cc-pV5Z          selected for orbital group  2
 Library entry C      F aug-cc-pV5Z          selected for orbital group  2
 Library entry C      G aug-cc-pV5Z          selected for orbital group  2
 Library entry C      H aug-cc-pV5Z          selected for orbital group  2
 Library entry H      S aug-cc-pV5Z          selected for orbital group  3
 Library entry H      P aug-cc-pV5Z          selected for orbital group  3
 Library entry H      D aug-cc-pV5Z          selected for orbital group  3
 Library entry H      F aug-cc-pV5Z          selected for orbital group  3
 Library entry H      G aug-cc-pV5Z          selected for orbital group  3


 PROGRAM * SEWARD (Integral evaluation for generally contracted gaussian basis sets)     Author: Roland Lindh, 1990

 Geometry written to block  1 of record 700


 Point group  Cs  



 ATOMIC COORDINATES

 NR  ATOM    CHARGE       X              Y              Z

   1  N       7.00   -0.004616207    0.000000000    1.124652761
   2  C       6.00    0.009611537    0.000000000   -1.054150453
   3  H       1.00   -0.004995330    0.000000000   -3.067572290

 Bond lengths in Bohr (Angstrom)

 1-2  2.178849667  2-3  2.013474821
     ( 1.152997590)     ( 1.065484990)

 Bond angles

  1-2-3  179.21020056

 NUCLEAR CHARGE:                   14
 NUMBER OF PRIMITIVE AOS:         506
 NUMBER OF SYMMETRY AOS:          371
 NUMBER OF CONTRACTIONS:          334   ( 204A'  + 130A"  )
 NUMBER OF CORE ORBITALS:           2   (   2A'  +   0A"  )
 NUMBER OF VALENCE ORBITALS:        9   (   7A'  +   2A"  )


 NUCLEAR REPULSION ENERGY   23.92590736


 Eigenvalues of metric

         1 0.246E-05 0.554E-05 0.146E-04 0.354E-04 0.563E-04 0.580E-04 0.692E-04 0.174E-03
         2 0.563E-04 0.182E-03 0.371E-03 0.699E-03 0.768E-03 0.928E-03 0.153E-02 0.186E-02


 Contracted 2-electron integrals neglected if value below      1.0D-22

      755693603. INTEGRALS WRITTEN OUT IN  184541 BLOCKS ON RECORD 1290 OF FILE 1


 NUMBER OF SORTED TWO-ELECTRON INTEGRALS:  789027325.     BUFFER LENGTH:  32768
 NUMBER OF SEGMENTS:  25  SEGMENT LENGTH:   31997130      RECORD LENGTH: 524288

 Memory used in sort:      32.55 MW

 SORT1 READ   755693603. AND WROTE   759700451. INTEGRALS IN   2188 RECORDS. CPU TIME:    36.34 SEC, REAL TIME:   173.92 SEC
 SORT2 READ   759700451. AND WROTE   789027325. INTEGRALS IN     25 RECORDS. CPU TIME:     9.52 SEC, REAL TIME:    23.12 SEC

 FILE SIZES:   FILE 1: 12116.9 MBYTE,  FILE 4:  9177.2 MBYTE,   TOTAL:  21294.1 MBYTE

 OPERATOR DM      FOR CENTER  0  COORDINATES:    0.000000    0.000000    0.000000


 **********************************************************************************************************************************
 DATASETS  * FILE   NREC   LENGTH (MB)   RECORD NAMES
              1      19     6368.12       500      610      700      900      950      970     1000      129      960     1100   
                                          VAR    BASINP    GEOM    SYMINP    ZMAT    AOBASIS   BASIS     P2S    ABASIS      S 
                                         1400     1410     1200     1210     1080     1600     1650     1300     1700   
                                           T        V       H0       H01     AOSYM     SMH    MOLCAS    ERIS     OPER   

 PROGRAMS   *        TOTAL       INT
 CPU TIMES  *       153.11    153.02
 REAL TIME  *       354.37 SEC
 DISK USED  *        21.29 GB      
 **********************************************************************************************************************************


 PROGRAM * RHF-SCF (CLOSED SHELL)       Authors: W. Meyer, H.-J. Werner


 NUMBER OF ELECTRONS:       7+    7-
 CONVERGENCE THRESHOLDS:    1.00E-10 (Density)    1.00E-13 (Energy)
 MAX. NUMBER OF ITERATIONS:      500
 INTERPOLATION TYPE:            DIIS
 INTERPOLATION STEPS:              2 (START)      1 (STEP)
 LEVEL SHIFTS:                  0.00 (CLOSED)  0.00 (OPEN) 



 Orbital guess generated from atomic densities. Full valence occupancy:    9   2

 Molecular orbital dump at record        2100.2

 Initial occupancy:   6   1

 ITERATION    DDIFF          GRAD             ENERGY        2-EL.EN.            DIPOLE MOMENTS         DIIS   ORB.
    1      0.000D+00      0.000D+00       -92.89122009    111.993627    0.00693    0.00000   -1.78332    0    start
    2      0.000D+00      0.426D-02       -92.90023594    111.111136   -0.00246    0.00000   -0.89908    1    diag
    3      0.316D-02      0.378D-02       -92.91547831    111.656035    0.00148    0.00000   -1.30860    2    diag
    4      0.162D-02      0.318D-03       -92.91570893    111.618241    0.00113    0.00000   -1.29656    3    diag
    5      0.305D-03      0.678D-04       -92.91572232    111.627406    0.00103    0.00000   -1.29505    4    diag
    6      0.752D-04      0.183D-04       -92.91572311    111.622594    0.00102    0.00000   -1.29513    5    diag
    7      0.149D-04      0.650D-05       -92.91572318    111.623789    0.00101    0.00000   -1.29518    6    diag
    8      0.500D-05      0.139D-05       -92.91572319    111.623733    0.00101    0.00000   -1.29515    7    diag
    9      0.106D-05      0.162D-06       -92.91572319    111.623742    0.00101    0.00000   -1.29514    8    diag
   10      0.164D-06      0.211D-07       -92.91572319    111.623743    0.00101    0.00000   -1.29514    9    orth
   11      0.200D-07      0.391D-08       -92.91572319    111.623743    0.00101    0.00000   -1.29514    9    diag
   12      0.449D-08      0.138D-08       -92.91572319    111.623743    0.00101    0.00000   -1.29514    9    diag
   13      0.205D-08      0.682D-09       -92.91572319    111.623743    0.00101    0.00000   -1.29514    9    diag
   14      0.142D-08      0.162D-09       -92.91572319    111.623743    0.00101    0.00000   -1.29514    9    diag
   15      0.368D-09      0.618D-10       -92.91572319    111.623743    0.00101    0.00000   -1.29514    9    diag
   16      0.156D-09      0.803D-11       -92.91572319    111.623743    0.00101    0.00000   -1.29514    9    diag
   17      0.776D-10      0.178D-11       -92.91572319    111.623743    0.00101    0.00000   -1.29514    9    diag
   18      0.359D-10      0.605D-12       -92.91572319    111.623743    0.00101    0.00000   -1.29514    0    orth

 Final occupancy:   6   1

 !RHF STATE 1.1 Energy                -92.915723186142
 Nuclear energy                        23.92590736
 One-electron energy                 -172.65350207
 Two-electron energy                   55.81187153
 Virial quotient                       -1.00201768
 !RHF STATE 1.1 Dipole moment           0.00101366     0.00000000    -1.29513902
 Dipole moment /Debye                   0.00257630     0.00000000    -3.29169942

 Orbital energies:

         1.1          2.1          3.1          4.1          5.1          6.1          7.1          8.1
    -15.597934   -11.290892    -1.236473    -0.813205    -0.582309    -0.497032     0.017575     0.052447

         1.2          2.2          3.2
     -0.497035     0.052450     0.101720

 HOMO      6.1    -0.497032 =     -13.5249eV
 LUMO      7.1     0.017575 =       0.4782eV
 LUMO-HOMO         0.514608 =      14.0032eV


 **********************************************************************************************************************************
 DATASETS  * FILE   NREC   LENGTH (MB)   RECORD NAMES
              1      19     6368.12       500      610      700      900      950      970     1000      129      960     1100   
                                          VAR    BASINP    GEOM    SYMINP    ZMAT    AOBASIS   BASIS     P2S    ABASIS      S 
                                         1400     1410     1200     1210     1080     1600     1650     1300     1700   
                                           T        V       H0       H01     AOSYM     SMH    MOLCAS    ERIS     OPER   

              2       4        4.02       700     1000      520     2100   
                                         GEOM     BASIS   MCVARS     RHF  

 PROGRAMS   *        TOTAL        HF       INT
 CPU TIMES  *       212.66     59.55    153.02
 REAL TIME  *       433.47 SEC
 DISK USED  *        21.29 GB      
 **********************************************************************************************************************************


 PROGRAM * CCSD (Closed-shell coupled cluster)     Authors: C. Hampel, H.-J. Werner, 1991, M. Deegan, P.J. Knowles, 1992


 Convergence thresholds:  THRVAR = 1.00D-08  THRDEN = 1.00D-12

 CCSD(T)     terms to be evaluated (factor= 1.000)


 Number of core orbitals:           2 (   2   0 )
 Number of closed-shell orbitals:   5 (   4   1 )
 Number of external orbitals:     327 ( 198 129 )

 Molecular orbitals read from record     2100.2  Type=RHF/CANONICAL (state 1.1)

 Number of N-1 electron functions:               5
 Number of N-2 electron functions:              15
 Number of singly external CSFs:               921
 Number of doubly external CSFs:            679836
 Total number of CSFs:                      680758

 Length of J-op  integral file:               0.00 MB
 Length of K-op  integral file:               4.07 MB
 Length of 3-ext integral record:             0.00 MB

 Memory could be reduced to 134.37 Mwords without degradation in triples

 Integral transformation finished. Total CPU:   9.34 sec, npass=  1  Memory used:  35.82 MW

 Reference energy:                    -92.91572319

 MP2 singlet pair energy:              -0.24480159
 MP2 triplet pair energy:              -0.13291548
 MP2 correlation energy:               -0.37771707
 MP2 total energy:                    -93.29344026

 SCS-MP2 correlation energy:           -0.37646488   (PS=  1.200000  PT=  0.333333)
 SCS-MP2 total energy:                -93.29218806

 ITER.      SQ.NORM     CORR.ENERGY   TOTAL ENERGY   ENERGY CHANGE        DEN1      VAR(S)    VAR(P)  DIIS     TIME  TIME/IT
   1      1.11516928    -0.37407027   -93.28979345     0.00364681     0.01708959  0.26D-02  0.31D-02  1  1    16.57     8.26
   2      1.12436963    -0.37421785   -93.28994103    -0.00014758    -0.01032136  0.67D-04  0.40D-03  2  2    23.88     8.35
   3      1.12933737    -0.37445052   -93.29017371    -0.00023268    -0.00260246  0.14D-04  0.47D-04  3  3    31.17     8.37
   4      1.13147580    -0.37450992   -93.29023311    -0.00005940    -0.00077698  0.68D-06  0.54D-05  4  4    38.54     8.37
   5      1.13205016    -0.37452034   -93.29024352    -0.00001041    -0.00016151  0.75D-07  0.47D-06  5  5    45.85     8.37
   6      1.13216530    -0.37451872   -93.29024191     0.00000161    -0.00002848  0.97D-08  0.39D-07  6  6    53.25     8.38
   7      1.13217480    -0.37451983   -93.29024302    -0.00000111    -0.00000115  0.87D-09  0.33D-08  6  1    60.79     8.41
   8      1.13217759    -0.37452026   -93.29024345    -0.00000043    -0.00000118  0.13D-09  0.30D-09  6  2    68.11     8.42
   9      1.13217767    -0.37452034   -93.29024353    -0.00000007     0.00000001  0.12D-10  0.20D-10  6  3    75.50     8.42
  10      1.13217754    -0.37452039   -93.29024358    -0.00000005     0.00000011  0.12D-11  0.18D-11  6  4    82.96     8.43
  11      1.13217747    -0.37452041   -93.29024359    -0.00000002     0.00000003  0.19D-12  0.16D-12  6  5    90.37     8.43
  12      1.13217741    -0.37452041   -93.29024360    -0.00000001     0.00000003  0.26D-13  0.26D-13  6  6    97.76     8.44
  13      1.13217738    -0.37452041   -93.29024360    -0.00000000     0.00000001  0.31D-14  0.54D-14  6  1   105.14     8.44
  14      1.13217736    -0.37452041   -93.29024360    -0.00000000     0.00000001  0.40D-15  0.80D-15  6  2   112.56     8.44
  15      1.13217735    -0.37452041   -93.29024360    -0.00000000     0.00000000  0.61D-16  0.12D-15  6  3   120.02     8.45
  16      1.13217735    -0.37452041   -93.29024360     0.00000000     0.00000000  0.13D-16  0.16D-16  6  4   127.35     8.45
  17      1.13217735    -0.37452041   -93.29024360     0.00000000     0.00000000  0.45D-17  0.34D-17  6  5   134.79     8.45
  18      1.13217735    -0.37452041   -93.29024360     0.00000000     0.00000000  0.16D-17  0.82D-18  6  6   142.28     8.45
  19      1.13217735    -0.37452041   -93.29024360     0.00000000    -0.00000000  0.81D-18  0.41D-18  6  1   149.57     8.45
  20      1.13217735    -0.37452041   -93.29024360     0.00000000     0.00000000  0.46D-18  0.23D-18  6  2   157.06     8.45
  21      1.13217735    -0.37452041   -93.29024360     0.00000000     0.00000000  0.28D-18  0.13D-18  6  3   164.53     8.46

 Norm of t1 vector:      0.06463602      S-energy:    -0.00000000      T1 diagnostic:  0.01445305
                                                                       D1 diagnostic:  0.02914481


 Total CPU time for triples:     53.10 sec


 RESULTS
 =======

  Reference energy                    -92.915723186142
  CCSD singlet pair energy             -0.263195354070
  CCSD triplet pair energy             -0.111325059210
  CCSD correlation energy              -0.374520413287

  Triples (T) contribution             -0.019985878227
  Total correlation energy             -0.394506291513

  CCSD total energy                   -93.290243599428
  CCSD[T] energy                      -93.311075309821
  CCSD-T energy                       -93.309856075741
 !CCSD(T) total energy                -93.310229477655

 Timing summary (sec):

 STEP                 CPU(USER)    SYS     CPU(TOT)    WALL
 Transformation          9.37      1.47     10.84     11.10
 CCSD iterations       155.17     22.41    177.58    177.58
 Triples                53.10      0.95     54.05     54.06

 Program statistics:

 Available memory in ccsd:               994999800
 Min. memory needed in ccsd:               2642580
 Max. memory used in ccsd:                 3176052
 Max. memory used in cckext:               7643882 (21 integral passes)



 **********************************************************************************************************************************
 DATASETS  * FILE   NREC   LENGTH (MB)   RECORD NAMES
              1      20     6732.26       500      610      700      900      950      970     1000      129      960     1100   
                                          VAR    BASINP    GEOM    SYMINP    ZMAT    AOBASIS   BASIS     P2S    ABASIS      S 
                                         1400     1410     1200     1210     1080     1600     1650     1300     1700     1380   
                                           T        V       H0       H01     AOSYM     SMH    MOLCAS    ERIS     OPER     JKOP   

              2       4        4.02       700     1000      520     2100   
                                         GEOM     BASIS   MCVARS     RHF  

 PROGRAMS   *        TOTAL   CCSD(T)        HF       INT
 CPU TIMES  *       430.33    217.66     59.55    153.02
 REAL TIME  *       676.45 SEC
 DISK USED  *        21.29 GB      
 **********************************************************************************************************************************

 CCSD(T)/aug-cc-pV5Z energy=    -93.310229477655

        CCSD(T)         HF-SCF  
    -93.31022948    -92.91572319
 **********************************************************************************************************************************
 Molpro calculation terminated
 Variable memory released
