
 Primary working directories    : /tmp/r2666/232392.maple
 Secondary working directories  : /tmp/r2666/232392.maple
 Wavefunction directory         : /ddn/home4/r2666/wfu/
 Main file repository           : /tmp/r2666/232392.maple/

 SHA1      : d5ffa45e93fdbca01ffc919aa182cfdae0147319
 NAME      : 2015.1.35
 ARCHNAME  : linux/x86_64
 FC        : /opt/intel/composer_xe_2015.1.133/bin/intel64/ifort
 BLASLIB   : -Wl,-_start-group /opt/intel/mkl/lib/intel64/libmkl_intel_ilp64.a /opt/intel/mkl/lib/intel64/libmkl_intel_thread.a /opt/intel/mkl/lib/intel64/libmkl_core.a -Wl,-_end-group
 id        : olemiss

 Nodes     nprocs
 cn064        1

 Using customized tuning parameters: mindgm=1; mindgv=20; mindgc=4; mindgr=1; noblas=0; minvec=7
 default implementation of scratch files=df  

 ***,hcn CCSD(T)/TZ-F12 QFF
 memory, 995, m;
 gthresh,energy=1.d-12,zero=1.d-22,oneint=1.d-22,twoint=1.d-22;
 gthresh,optgrad=1.d-8,optstep=1.d-8;
 nocompress;
 geomtyp=xyz
 bohr
 geometry={
 3
          1         1
 N        0.0000000000        0.0000000000        1.0995050445
 C        0.0000000000        0.0000000000       -1.0415501027
 H        0.0000000000        0.0000000000       -3.0550249237
 }
 
 basis=av5z
   {hf,maxit=500;accu,20;}
 {ccsd(t),nocheck,maxit=250;orbital,IGNORE_ERROR;}

 Variables initialized (889), CPU time= 0.00 sec
 Commands  initialized (702), CPU time= 0.01 sec, 572 directives.
 Default parameters read. Elapsed time= 0.15 sec

 Checking input...
 Passed
1


                                         ***  PROGRAM SYSTEM MOLPRO  ***
                                       Copyright, TTI GmbH Stuttgart, 2015
                                    Version 2015.1 linked Jul  9 2018 13:16:40


 **********************************************************************************************************************************
 LABEL *   hcn CCSD(T)/TZ-F12 QFF                                                        
  64 bit serial version                                                                  DATE: 06-Feb-20          TIME: 09:49:38  
 **********************************************************************************************************************************

 SHA1:             d5ffa45e93fdbca01ffc919aa182cfdae0147319
 **********************************************************************************************************************************

 THRESHOLDS:

 ZERO    =  1.00D-22  ONEINT  =  1.00D-22  TWOINT  =  1.00D-22  PREFAC  =  1.00D-14  LOCALI  =  1.00D-09  EORDER  =  1.00D-04
 ENERGY  =  1.00D-12  ETEST   =  0.00D+00  EDENS   =  0.00D+00  THRDEDEF=  1.00D-06  GRADIENT=  1.00D-02  STEP    =  1.00D-03
 ORBITAL =  1.00D-05  CIVEC   =  1.00D-05  COEFF   =  1.00D-04  PRINTCI =  5.00D-02  PUNCHCI =  9.90D+01  OPTGRAD =  3.00D-04
 OPTENERG=  1.00D-06  OPTSTEP =  3.00D-04  THRGRAD =  1.00D-10  COMPRESS=  1.00D-11  VARMIN  =  1.00D-07  VARMAX  =  1.00D-03
 THRDOUB =  0.00D+00  THRDIV  =  1.00D-05  THRRED  =  1.00D-07  THRPSP  =  1.00D+00  THRDC   =  1.00D-10  THRCS   =  1.00D-10
 THRNRM  =  1.00D-08  THREQ   =  0.00D+00  THRDE   =  1.00D+00  THRREF  =  1.00D-05  SPARFAC =  1.00D+00  THRDLP  =  1.00D-07
 THRDIA  =  1.00D-10  THRDLS  =  1.00D-07  THRGPS  =  0.00D+00  THRKEX  =  0.00D+00  THRDIS  =  2.00D-01  THRVAR  =  1.00D-10
 THRLOC  =  1.00D-06  THRGAP  =  1.00D-06  THRLOCT = -1.00D+00  THRGAPT = -1.00D+00  THRORB  =  1.00D-06  THRMLTP =  0.00D+00
 THRCPQCI=  1.00D-10  KEXTA   =  0.00D+00  THRCOARS=  0.00D+00  SYMTOL  =  1.00D-06  GRADTOL =  1.00D-06  THROVL  =  1.00D-08
 THRORTH =  1.00D-08  GRID    =  1.00D-06  GRIDMAX =  1.00D-03  DTMAX   =  0.00D+00  THROCCDE=  1.00D-01  THROCCDE=  1.00D-01



 THRESHOLDS:

 ZERO    =  1.00D-22  ONEINT  =  1.00D-22  TWOINT  =  1.00D-22  PREFAC  =  1.00D-14  LOCALI  =  1.00D-09  EORDER  =  1.00D-04
 ENERGY  =  1.00D-12  ETEST   =  0.00D+00  EDENS   =  0.00D+00  THRDEDEF=  1.00D-06  GRADIENT=  1.00D-02  STEP    =  1.00D-03
 ORBITAL =  1.00D-05  CIVEC   =  1.00D-05  COEFF   =  1.00D-04  PRINTCI =  5.00D-02  PUNCHCI =  9.90D+01  OPTGRAD =  1.00D-08
 OPTENERG=  1.00D-06  OPTSTEP =  1.00D-08  THRGRAD =  1.00D-10  COMPRESS=  1.00D-11  VARMIN  =  1.00D-07  VARMAX  =  1.00D-03
 THRDOUB =  0.00D+00  THRDIV  =  1.00D-05  THRRED  =  1.00D-07  THRPSP  =  1.00D+00  THRDC   =  1.00D-10  THRCS   =  1.00D-10
 THRNRM  =  1.00D-08  THREQ   =  0.00D+00  THRDE   =  1.00D+00  THRREF  =  1.00D-05  SPARFAC =  1.00D+00  THRDLP  =  1.00D-07
 THRDIA  =  1.00D-10  THRDLS  =  1.00D-07  THRGPS  =  0.00D+00  THRKEX  =  0.00D+00  THRDIS  =  2.00D-01  THRVAR  =  1.00D-10
 THRLOC  =  1.00D-06  THRGAP  =  1.00D-06  THRLOCT = -1.00D+00  THRGAPT = -1.00D+00  THRORB  =  1.00D-06  THRMLTP =  0.00D+00
 THRCPQCI=  1.00D-10  KEXTA   =  0.00D+00  THRCOARS=  0.00D+00  SYMTOL  =  1.00D-06  GRADTOL =  1.00D-06  THROVL  =  1.00D-08
 THRORTH =  1.00D-08  GRID    =  1.00D-06  GRIDMAX =  1.00D-03  DTMAX   =  0.00D+00  THROCCDE=  1.00D-01  THROCCDE=  1.00D-01



 Input parameters for SORTINT:

 COMPRESS =    0.000000
 C_FINAL  =    1.000000
 DEBUG    =   -1.000000
 C_SORT1  =    0.000000
 C_SEWARD =    0.000000
 THRESH   =    0.000000
 IO       =  molpro                                                          
 SPRI     =    0.000000
 SETTING GEOMTYP        =    XYZ
 ZUNIT=BOHR
 

 Variable memory set to  995000000 words,  buffer space   230000 words

 SETTING BASIS          =    AV5Z


 Recomputing integrals since basis changed


 Using spherical harmonics

 Library entry N      S aug-cc-pV5Z          selected for orbital group  1
 Library entry N      P aug-cc-pV5Z          selected for orbital group  1
 Library entry N      D aug-cc-pV5Z          selected for orbital group  1
 Library entry N      F aug-cc-pV5Z          selected for orbital group  1
 Library entry N      G aug-cc-pV5Z          selected for orbital group  1
 Library entry N      H aug-cc-pV5Z          selected for orbital group  1
 Library entry C      S aug-cc-pV5Z          selected for orbital group  2
 Library entry C      P aug-cc-pV5Z          selected for orbital group  2
 Library entry C      D aug-cc-pV5Z          selected for orbital group  2
 Library entry C      F aug-cc-pV5Z          selected for orbital group  2
 Library entry C      G aug-cc-pV5Z          selected for orbital group  2
 Library entry C      H aug-cc-pV5Z          selected for orbital group  2
 Library entry H      S aug-cc-pV5Z          selected for orbital group  3
 Library entry H      P aug-cc-pV5Z          selected for orbital group  3
 Library entry H      D aug-cc-pV5Z          selected for orbital group  3
 Library entry H      F aug-cc-pV5Z          selected for orbital group  3
 Library entry H      G aug-cc-pV5Z          selected for orbital group  3


 PROGRAM * SEWARD (Integral evaluation for generally contracted gaussian basis sets)     Author: Roland Lindh, 1990

 Geometry written to block  1 of record 700


 Point group  C2v 



 ATOMIC COORDINATES

 NR  ATOM    CHARGE       X              Y              Z

   1  N       7.00    0.000000000    0.000000000    1.099505045
   2  C       6.00    0.000000000    0.000000000   -1.041550103
   3  H       1.00    0.000000000    0.000000000   -3.055024924

 Bond lengths in Bohr (Angstrom)

 1-2  2.141055147  2-3  2.013474821
     ( 1.132997591)     ( 1.065484990)

 Bond angles

  1-2-3  180.00000000

 NUCLEAR CHARGE:                   14
 NUMBER OF PRIMITIVE AOS:         506
 NUMBER OF SYMMETRY AOS:          371
 NUMBER OF CONTRACTIONS:          334   ( 123A1  +  81B1  +  81B2  +  49A2  )
 NUMBER OF CORE ORBITALS:           2   (   2A1  +   0B1  +   0B2  +   0A2  )
 NUMBER OF VALENCE ORBITALS:        9   (   5A1  +   2B1  +   2B2  +   0A2  )


 NUCLEAR REPULSION ENERGY   24.28132697

 EXTRA SYMMETRY OF AOS IN SYMMETRY 1:   1 1 1 1 1 1 1 1 1 1   1 1 1 1 2 1 2 1 2 1   2 1 2 1 2 1 2 1 2 1   2 1 3 2 1 3 2 1 3 2
                                        2 3 1 2 3 1 1 1 1 1   1 1 1 1 1 1 1 1 1 1   2 1 2 1 2 1 2 1 2 1   2 1 2 1 2 1 2 1 3 2
                                        1 3 2 1 3 2 2 3 1 2   3 1 1 1 1 1 1 1 1 1   1 1 1 1 2 1 2 1 2 1   2 1 2 1 2 1 2 1 3 2
                                        1 3 2
 EXTRA SYMMETRY OF AOS IN SYMMETRY 2:   1 1 1 1 1 1 1 1 1 1   1 1 2 1 2 1 2 1 2 1   2 1 2 1 2 1 2 3 1 2   3 1 1 1 1 1 1 1 1 1
                                        1 1 1 2 1 2 1 2 1 2   1 2 1 2 1 2 1 2 3 1   2 3 1 1 1 1 1 1 1 1   1 1 2 1 2 1 2 1 2 1
                                        2
 EXTRA SYMMETRY OF AOS IN SYMMETRY 3:   1 1 1 1 1 1 1 1 1 1   1 1 2 1 2 1 2 1 2 1   2 1 2 1 2 1 2 3 1 2   3 1 1 1 1 1 1 1 1 1
                                        1 1 1 2 1 2 1 2 1 2   1 2 1 2 1 2 1 2 3 1   2 3 1 1 1 1 1 1 1 1   1 1 2 1 2 1 2 1 2 1
                                        2
 EXTRA SYMMETRY OF AOS IN SYMMETRY 4:   1 1 1 1 1 1 1 1 1 1   2 1 2 1 2 2 1 2 1 1   1 1 1 1 1 1 1 1 1 2   1 2 1 2 2 1 2 1 1 1
                                        1 1 1 1 1 1 2 1 2

 Eigenvalues of metric

         1 0.226E-05 0.536E-05 0.141E-04 0.347E-04 0.556E-04 0.676E-04 0.163E-03 0.215E-03
         2 0.526E-04 0.176E-03 0.358E-03 0.677E-03 0.904E-03 0.151E-02 0.181E-02 0.359E-02
         3 0.526E-04 0.176E-03 0.358E-03 0.677E-03 0.904E-03 0.151E-02 0.181E-02 0.359E-02
         4 0.720E-03 0.216E-02 0.458E-02 0.684E-02 0.157E-01 0.223E-01 0.243E-01 0.626E-01


 Contracted 2-electron integrals neglected if value below      1.0D-22

      355446418. INTEGRALS WRITTEN OUT IN   86801 BLOCKS ON RECORD 1290 OF FILE 1


 NUMBER OF SORTED TWO-ELECTRON INTEGRALS:  396972178.     BUFFER LENGTH:  32768
 NUMBER OF SEGMENTS:  13  SEGMENT LENGTH:   31999071      RECORD LENGTH: 524288

 Memory used in sort:      32.56 MW

 SORT1 READ   355446418. AND WROTE   358622135. INTEGRALS IN   1032 RECORDS. CPU TIME:    14.91 SEC, REAL TIME:    18.34 SEC
 SORT2 READ   358622135. AND WROTE   396972178. INTEGRALS IN     13 RECORDS. CPU TIME:     7.04 SEC, REAL TIME:     9.68 SEC

 FILE SIZES:   FILE 1:  5710.9 MBYTE,  FILE 4:  4328.6 MBYTE,   TOTAL:  10039.5 MBYTE

 OPERATOR DM      FOR CENTER  0  COORDINATES:    0.000000    0.000000    0.000000


 **********************************************************************************************************************************
 DATASETS  * FILE   NREC   LENGTH (MB)   RECORD NAMES
              1      19     3080.87       500      610      700      900      950      970     1000      129      960     1100   
                                          VAR    BASINP    GEOM    SYMINP    ZMAT    AOBASIS   BASIS     P2S    ABASIS      S 
                                         1400     1410     1200     1210     1080     1600     1650     1300     1700   
                                           T        V       H0       H01     AOSYM     SMH    MOLCAS    ERIS     OPER   

 PROGRAMS   *        TOTAL       INT
 CPU TIMES  *       109.45    109.37
 REAL TIME  *       120.90 SEC
 DISK USED  *        10.04 GB      
 **********************************************************************************************************************************


 PROGRAM * RHF-SCF (CLOSED SHELL)       Authors: W. Meyer, H.-J. Werner


 NUMBER OF ELECTRONS:       7+    7-
 CONVERGENCE THRESHOLDS:    1.00E-10 (Density)    1.00E-13 (Energy)
 MAX. NUMBER OF ITERATIONS:      500
 INTERPOLATION TYPE:            DIIS
 INTERPOLATION STEPS:              2 (START)      1 (STEP)
 LEVEL SHIFTS:                  0.00 (CLOSED)  0.00 (OPEN) 



 Orbital guess generated from atomic densities. Full valence occupancy:    7   2   2   0

 Molecular orbital dump at record        2100.2

 Initial occupancy:   5   1   1   0

 ITERATION    DDIFF          GRAD             ENERGY        2-EL.EN.            DIPOLE MOMENTS         DIIS   ORB.
    1      0.000D+00      0.000D+00       -92.89324440    112.804373    0.00000    0.00000   -1.76814    0    start
    2      0.000D+00      0.571D-02       -92.90316286    111.789339    0.00000    0.00000   -0.91749    1    diag
    3      0.435D-02      0.489D-02       -92.91754112    112.352372    0.00000    0.00000   -1.30389    2    diag
    4      0.219D-02      0.414D-03       -92.91776091    112.326980    0.00000    0.00000   -1.29141    3    diag
    5      0.411D-03      0.832D-04       -92.91777334    112.329279    0.00000    0.00000   -1.29004    4    diag
    6      0.102D-03      0.207D-04       -92.91777390    112.326945    0.00000    0.00000   -1.29027    5    diag
    7      0.177D-04      0.608D-05       -92.91777394    112.328055    0.00000    0.00000   -1.29026    6    diag
    8      0.471D-05      0.152D-05       -92.91777394    112.327942    0.00000    0.00000   -1.29023    7    diag
    9      0.114D-05      0.186D-06       -92.91777394    112.327953    0.00000    0.00000   -1.29022    8    diag
   10      0.195D-06      0.253D-07       -92.91777394    112.327954    0.00000    0.00000   -1.29022    9    orth
   11      0.251D-07      0.385D-08       -92.91777394    112.327954    0.00000    0.00000   -1.29022    9    diag
   12      0.433D-08      0.366D-09       -92.91777394    112.327954    0.00000    0.00000   -1.29022    9    diag
   13      0.119D-08      0.320D-10       -92.91777394    112.327954    0.00000    0.00000   -1.29022    9    diag
   14      0.185D-09      0.456D-11       -92.91777394    112.327954    0.00000    0.00000   -1.29022    9    diag
   15      0.117D-09      0.115D-11       -92.91777394    112.327954    0.00000    0.00000   -1.29022    9    diag
   16      0.802D-10      0.647D-12       -92.91777394    112.327954    0.00000    0.00000   -1.29022    9    diag
   17      0.451D-10      0.612D-12       -92.91777394    112.327954    0.00000    0.00000   -1.29022    9    diag
   18      0.393D-10      0.413D-12       -92.91777394    112.327954    0.00000    0.00000   -1.29022    9    diag
   19      0.130D-10      0.578D-12       -92.91777394    112.327954    0.00000    0.00000   -1.29022    9    fixocc
   20      0.123D-10      0.526D-12       -92.91777394    112.327954    0.00000    0.00000   -1.29022    9    orth
   21      0.278D-11      0.265D-12       -92.91777394    112.327954    0.00000    0.00000   -1.29022    9    diag
   22      0.751D-11      0.688D-12       -92.91777394    112.327954    0.00000    0.00000   -1.29022    9    diag
   23      0.616D-11      0.393D-12       -92.91777394    112.327954    0.00000    0.00000   -1.29022    9    diag
   24      0.133D-10      0.386D-12       -92.91777394    112.327954    0.00000    0.00000   -1.29022    9    diag
   25      0.530D-11      0.364D-12       -92.91777394    112.327954    0.00000    0.00000   -1.29022    9    diag
   26      0.541D-11      0.459D-12       -92.91777394    112.327954    0.00000    0.00000   -1.29022    9    diag
   27      0.324D-11      0.398D-12       -92.91777394    112.327954    0.00000    0.00000   -1.29022    9    diag
   28      0.358D-11      0.526D-12       -92.91777394    112.327954    0.00000    0.00000   -1.29022    9    diag
   29      0.192D-11      0.449D-12       -92.91777394    112.327954    0.00000    0.00000   -1.29022    9    diag
   30      0.228D-11      0.605D-12       -92.91777394    112.327954    0.00000    0.00000   -1.29022    9    orth
   31      0.334D-11      0.569D-12       -92.91777394    112.327954    0.00000    0.00000   -1.29022    9    diag
   32      0.150D-11      0.564D-12       -92.91777394    112.327954    0.00000    0.00000   -1.29022    9    diag
   33      0.154D-11      0.529D-12       -92.91777394    112.327954    0.00000    0.00000   -1.29022    9    diag
   34      0.172D-11      0.416D-12       -92.91777394    112.327954    0.00000    0.00000   -1.29022    9    diag
   35      0.293D-11      0.375D-12       -92.91777394    112.327954    0.00000    0.00000   -1.29022    0    orth

 Final occupancy:   5   1   1   0

 !RHF STATE 1.1 Energy                -92.917773938466
 Nuclear energy                        24.28132697
 One-electron energy                 -173.36307802
 Two-electron energy                   56.16397711
 Virial quotient                       -1.00079719
 !RHF STATE 1.1 Dipole moment           0.00000000     0.00000000    -1.29022430
 Dipole moment /Debye                   0.00000000     0.00000000    -3.27920828

 Orbital energies:

         1.1          2.1          3.1          4.1          5.1          6.1          7.1
    -15.590595   -11.283468    -1.245840    -0.810185    -0.581142     0.017650     0.053264

         1.2          2.2          3.2
     -0.503165     0.052395     0.102357

         1.3          2.3          3.3
     -0.503165     0.052395     0.102357

         1.4          2.4
      0.202362     0.326633

 HOMO      1.2    -0.503165 =     -13.6918eV
 LUMO      6.1     0.017650 =       0.4803eV
 LUMO-HOMO         0.520815 =      14.1721eV


 **********************************************************************************************************************************
 DATASETS  * FILE   NREC   LENGTH (MB)   RECORD NAMES
              1      19     3080.87       500      610      700      900      950      970     1000      129      960     1100   
                                          VAR    BASINP    GEOM    SYMINP    ZMAT    AOBASIS   BASIS     P2S    ABASIS      S 
                                         1400     1410     1200     1210     1080     1600     1650     1300     1700   
                                           T        V       H0       H01     AOSYM     SMH    MOLCAS    ERIS     OPER   

              2       4        3.46       700     1000      520     2100   
                                         GEOM     BASIS   MCVARS     RHF  

 PROGRAMS   *        TOTAL        HF       INT
 CPU TIMES  *       154.89     45.44    109.37
 REAL TIME  *       184.91 SEC
 DISK USED  *        10.04 GB      
 **********************************************************************************************************************************


 PROGRAM * CCSD (Closed-shell coupled cluster)     Authors: C. Hampel, H.-J. Werner, 1991, M. Deegan, P.J. Knowles, 1992


 Convergence thresholds:  THRVAR = 1.00D-08  THRDEN = 1.00D-12

 CCSD(T)     terms to be evaluated (factor= 1.000)


 Number of core orbitals:           2 (   2   0   0   0 )
 Number of closed-shell orbitals:   5 (   3   1   1   0 )
 Number of external orbitals:     327 ( 118  80  80  49 )

 Molecular orbitals read from record     2100.2  Type=RHF/CANONICAL (state 1.1)

 Number of N-1 electron functions:               5
 Number of N-2 electron functions:              15
 Number of singly external CSFs:               514
 Number of doubly external CSFs:            345689
 Total number of CSFs:                      346204

 Length of J-op  integral file:               0.00 MB
 Length of K-op  integral file:               2.14 MB
 Length of 3-ext integral record:             0.00 MB

 Memory could be reduced to 68.09 Mwords without degradation in triples

 Integral transformation finished. Total CPU:   4.47 sec, npass=  1  Memory used:   7.20 MW

 Reference energy:                    -92.91777394

 MP2 singlet pair energy:              -0.24274040
 MP2 triplet pair energy:              -0.13124217
 MP2 correlation energy:               -0.37398257
 MP2 total energy:                    -93.29175651

 SCS-MP2 correlation energy:           -0.37295027   (PS=  1.200000  PT=  0.333333)
 SCS-MP2 total energy:                -93.29072421

 ITER.      SQ.NORM     CORR.ENERGY   TOTAL ENERGY   ENERGY CHANGE        DEN1      VAR(S)    VAR(P)  DIIS     TIME  TIME/IT
   1      1.11274367    -0.37139422   -93.28916816     0.00258835     0.01521364  0.24D-02  0.28D-02  1  1     8.61     4.93
   2      1.12145365    -0.37170097   -93.28947491    -0.00030675    -0.00983221  0.60D-04  0.37D-03  2  2    12.85     4.98
   3      1.12608597    -0.37191482   -93.28968876    -0.00021385    -0.00248379  0.13D-04  0.42D-04  3  3    17.11     5.00
   4      1.12801566    -0.37196555   -93.28973949    -0.00005073    -0.00072007  0.64D-06  0.46D-05  4  4    21.48     5.02
   5      1.12851739    -0.37197455   -93.28974849    -0.00000900    -0.00014330  0.74D-07  0.38D-06  5  5    25.79     5.03
   6      1.12861429    -0.37197321   -93.28974715     0.00000134    -0.00002421  0.76D-08  0.31D-07  6  6    30.09     5.03
   7      1.12862261    -0.37197402   -93.28974796    -0.00000081    -0.00000119  0.82D-09  0.25D-08  6  1    34.40     5.03
   8      1.12862490    -0.37197438   -93.28974832    -0.00000036    -0.00000095  0.12D-09  0.23D-09  6  2    38.61     5.04
   9      1.12862504    -0.37197444   -93.28974838    -0.00000006    -0.00000001  0.11D-10  0.16D-10  6  3    42.89     5.04
  10      1.12862494    -0.37197448   -93.28974842    -0.00000004     0.00000010  0.14D-11  0.15D-11  6  4    47.20     5.04
  11      1.12862489    -0.37197450   -93.28974844    -0.00000001     0.00000003  0.19D-12  0.16D-12  6  5    51.47     5.04
  12      1.12862484    -0.37197450   -93.28974844    -0.00000000     0.00000002  0.22D-13  0.29D-13  6  6    55.80     5.04
  13      1.12862481    -0.37197450   -93.28974844    -0.00000000     0.00000001  0.28D-14  0.54D-14  6  1    60.05     5.04
  14      1.12862480    -0.37197450   -93.28974844    -0.00000000     0.00000000  0.83D-16  0.69D-15  6  3    64.24     5.04
  15      1.12862479    -0.37197450   -93.28974844    -0.00000000     0.00000000  0.18D-16  0.48D-16  6  2    68.49     5.04
  16      1.12862479    -0.37197450   -93.28974844     0.00000000     0.00000000  0.24D-17  0.61D-17  6  4    72.65     5.04
  17      1.12862479    -0.37197450   -93.28974844     0.00000000     0.00000000  0.73D-18  0.15D-17  6  5    76.88     5.04
  18      1.12862479    -0.37197450   -93.28974844    -0.00000000     0.00000000  0.26D-18  0.36D-18  6  6    81.15     5.04
  19      1.12862479    -0.37197450   -93.28974844     0.00000000     0.00000000  0.10D-18  0.13D-18  6  1    85.43     5.04

 Norm of t1 vector:      0.06193200      S-energy:    -0.00000000      T1 diagnostic:  0.01384842
                                                                       D1 diagnostic:  0.02779433


 Total CPU time for triples:     27.93 sec


 RESULTS
 =======

  Reference energy                    -92.917773938466
  CCSD singlet pair energy             -0.261086357586
  CCSD triplet pair energy             -0.110888144918
  CCSD correlation energy              -0.371974502509

  Triples (T) contribution             -0.019342266549
  Total correlation energy             -0.391316769058

  CCSD total energy                   -93.289748440975
  CCSD[T] energy                      -93.309861513194
  CCSD-T energy                       -93.308747761340
 !CCSD(T) total energy                -93.309090707524

 Timing summary (sec):

 STEP                 CPU(USER)    SYS     CPU(TOT)    WALL
 Transformation          4.49      0.92      5.41      5.41
 CCSD iterations        80.95     14.91     95.86     95.87
 Triples                27.93      0.70     28.63     28.64

 Program statistics:

 Available memory in ccsd:               994999800
 Min. memory needed in ccsd:               1363289
 Max. memory used in ccsd:                 1637718
 Max. memory used in cckext:               2695008 (19 integral passes)



 **********************************************************************************************************************************
 DATASETS  * FILE   NREC   LENGTH (MB)   RECORD NAMES
              1      20     3265.09       500      610      700      900      950      970     1000      129      960     1100   
                                          VAR    BASINP    GEOM    SYMINP    ZMAT    AOBASIS   BASIS     P2S    ABASIS      S 
                                         1400     1410     1200     1210     1080     1600     1650     1300     1700     1380   
                                           T        V       H0       H01     AOSYM     SMH    MOLCAS    ERIS     OPER     JKOP   

              2       4        3.46       700     1000      520     2100   
                                         GEOM     BASIS   MCVARS     RHF  

 PROGRAMS   *        TOTAL   CCSD(T)        HF       INT
 CPU TIMES  *       268.28    113.39     45.44    109.37
 REAL TIME  *       314.86 SEC
 DISK USED  *        10.04 GB      
 **********************************************************************************************************************************

 CCSD(T)/aug-cc-pV5Z energy=    -93.309090707524

        CCSD(T)         HF-SCF  
    -93.30909071    -92.91777394
 **********************************************************************************************************************************
 Molpro calculation terminated
 Variable memory released
