
 Primary working directories    : /tmp/r2666/232400.maple
 Secondary working directories  : /tmp/r2666/232400.maple
 Wavefunction directory         : /ddn/home4/r2666/wfu/
 Main file repository           : /tmp/r2666/232400.maple/

 SHA1      : d5ffa45e93fdbca01ffc919aa182cfdae0147319
 NAME      : 2015.1.35
 ARCHNAME  : linux/x86_64
 FC        : /opt/intel/composer_xe_2015.1.133/bin/intel64/ifort
 BLASLIB   : -Wl,-_start-group /opt/intel/mkl/lib/intel64/libmkl_intel_ilp64.a /opt/intel/mkl/lib/intel64/libmkl_intel_thread.a /opt/intel/mkl/lib/intel64/libmkl_core.a -Wl,-_end-group
 id        : olemiss

 Nodes     nprocs
 cn095        1

 Using customized tuning parameters: mindgm=1; mindgv=20; mindgc=4; mindgr=1; noblas=0; minvec=7
 default implementation of scratch files=df  

 ***,hcn CCSD(T)/TZ-F12 QFF
 memory, 995, m;
 gthresh,energy=1.d-12,zero=1.d-22,oneint=1.d-22,twoint=1.d-22;
 gthresh,optgrad=1.d-8,optstep=1.d-8;
 nocompress;
 geomtyp=xyz
 bohr
 geometry={
 3
          9         9
 N        0.0000000000        0.0000000000        1.1152527611
 C        0.0000000000        0.0000000000       -1.0446996461
 H        0.0000000000        0.0000000000       -3.0676230970
 }
 
 basis=av5z
   {hf,maxit=500;accu,20;}
 {ccsd(t),nocheck,maxit=250;orbital,IGNORE_ERROR;}

 Variables initialized (889), CPU time= 0.00 sec
 Commands  initialized (702), CPU time= 0.01 sec, 572 directives.
 Default parameters read. Elapsed time= 0.07 sec

 Checking input...
 Passed
1


                                         ***  PROGRAM SYSTEM MOLPRO  ***
                                       Copyright, TTI GmbH Stuttgart, 2015
                                    Version 2015.1 linked Jul  9 2018 13:16:40


 **********************************************************************************************************************************
 LABEL *   hcn CCSD(T)/TZ-F12 QFF                                                        
  64 bit serial version                                                                  DATE: 06-Feb-20          TIME: 09:49:38  
 **********************************************************************************************************************************

 SHA1:             d5ffa45e93fdbca01ffc919aa182cfdae0147319
 **********************************************************************************************************************************

 THRESHOLDS:

 ZERO    =  1.00D-22  ONEINT  =  1.00D-22  TWOINT  =  1.00D-22  PREFAC  =  1.00D-14  LOCALI  =  1.00D-09  EORDER  =  1.00D-04
 ENERGY  =  1.00D-12  ETEST   =  0.00D+00  EDENS   =  0.00D+00  THRDEDEF=  1.00D-06  GRADIENT=  1.00D-02  STEP    =  1.00D-03
 ORBITAL =  1.00D-05  CIVEC   =  1.00D-05  COEFF   =  1.00D-04  PRINTCI =  5.00D-02  PUNCHCI =  9.90D+01  OPTGRAD =  3.00D-04
 OPTENERG=  1.00D-06  OPTSTEP =  3.00D-04  THRGRAD =  1.00D-10  COMPRESS=  1.00D-11  VARMIN  =  1.00D-07  VARMAX  =  1.00D-03
 THRDOUB =  0.00D+00  THRDIV  =  1.00D-05  THRRED  =  1.00D-07  THRPSP  =  1.00D+00  THRDC   =  1.00D-10  THRCS   =  1.00D-10
 THRNRM  =  1.00D-08  THREQ   =  0.00D+00  THRDE   =  1.00D+00  THRREF  =  1.00D-05  SPARFAC =  1.00D+00  THRDLP  =  1.00D-07
 THRDIA  =  1.00D-10  THRDLS  =  1.00D-07  THRGPS  =  0.00D+00  THRKEX  =  0.00D+00  THRDIS  =  2.00D-01  THRVAR  =  1.00D-10
 THRLOC  =  1.00D-06  THRGAP  =  1.00D-06  THRLOCT = -1.00D+00  THRGAPT = -1.00D+00  THRORB  =  1.00D-06  THRMLTP =  0.00D+00
 THRCPQCI=  1.00D-10  KEXTA   =  0.00D+00  THRCOARS=  0.00D+00  SYMTOL  =  1.00D-06  GRADTOL =  1.00D-06  THROVL  =  1.00D-08
 THRORTH =  1.00D-08  GRID    =  1.00D-06  GRIDMAX =  1.00D-03  DTMAX   =  0.00D+00  THROCCDE=  1.00D-01  THROCCDE=  1.00D-01



 THRESHOLDS:

 ZERO    =  1.00D-22  ONEINT  =  1.00D-22  TWOINT  =  1.00D-22  PREFAC  =  1.00D-14  LOCALI  =  1.00D-09  EORDER  =  1.00D-04
 ENERGY  =  1.00D-12  ETEST   =  0.00D+00  EDENS   =  0.00D+00  THRDEDEF=  1.00D-06  GRADIENT=  1.00D-02  STEP    =  1.00D-03
 ORBITAL =  1.00D-05  CIVEC   =  1.00D-05  COEFF   =  1.00D-04  PRINTCI =  5.00D-02  PUNCHCI =  9.90D+01  OPTGRAD =  1.00D-08
 OPTENERG=  1.00D-06  OPTSTEP =  1.00D-08  THRGRAD =  1.00D-10  COMPRESS=  1.00D-11  VARMIN  =  1.00D-07  VARMAX  =  1.00D-03
 THRDOUB =  0.00D+00  THRDIV  =  1.00D-05  THRRED  =  1.00D-07  THRPSP  =  1.00D+00  THRDC   =  1.00D-10  THRCS   =  1.00D-10
 THRNRM  =  1.00D-08  THREQ   =  0.00D+00  THRDE   =  1.00D+00  THRREF  =  1.00D-05  SPARFAC =  1.00D+00  THRDLP  =  1.00D-07
 THRDIA  =  1.00D-10  THRDLS  =  1.00D-07  THRGPS  =  0.00D+00  THRKEX  =  0.00D+00  THRDIS  =  2.00D-01  THRVAR  =  1.00D-10
 THRLOC  =  1.00D-06  THRGAP  =  1.00D-06  THRLOCT = -1.00D+00  THRGAPT = -1.00D+00  THRORB  =  1.00D-06  THRMLTP =  0.00D+00
 THRCPQCI=  1.00D-10  KEXTA   =  0.00D+00  THRCOARS=  0.00D+00  SYMTOL  =  1.00D-06  GRADTOL =  1.00D-06  THROVL  =  1.00D-08
 THRORTH =  1.00D-08  GRID    =  1.00D-06  GRIDMAX =  1.00D-03  DTMAX   =  0.00D+00  THROCCDE=  1.00D-01  THROCCDE=  1.00D-01



 Input parameters for SORTINT:

 COMPRESS =    0.000000
 C_FINAL  =    1.000000
 DEBUG    =   -1.000000
 C_SORT1  =    0.000000
 C_SEWARD =    0.000000
 THRESH   =    0.000000
 IO       =  molpro                                                          
 SPRI     =    0.000000
 SETTING GEOMTYP        =    XYZ
 ZUNIT=BOHR
 

 Variable memory set to  995000000 words,  buffer space   230000 words

 SETTING BASIS          =    AV5Z


 Recomputing integrals since basis changed


 Using spherical harmonics

 Library entry N      S aug-cc-pV5Z          selected for orbital group  1
 Library entry N      P aug-cc-pV5Z          selected for orbital group  1
 Library entry N      D aug-cc-pV5Z          selected for orbital group  1
 Library entry N      F aug-cc-pV5Z          selected for orbital group  1
 Library entry N      G aug-cc-pV5Z          selected for orbital group  1
 Library entry N      H aug-cc-pV5Z          selected for orbital group  1
 Library entry C      S aug-cc-pV5Z          selected for orbital group  2
 Library entry C      P aug-cc-pV5Z          selected for orbital group  2
 Library entry C      D aug-cc-pV5Z          selected for orbital group  2
 Library entry C      F aug-cc-pV5Z          selected for orbital group  2
 Library entry C      G aug-cc-pV5Z          selected for orbital group  2
 Library entry C      H aug-cc-pV5Z          selected for orbital group  2
 Library entry H      S aug-cc-pV5Z          selected for orbital group  3
 Library entry H      P aug-cc-pV5Z          selected for orbital group  3
 Library entry H      D aug-cc-pV5Z          selected for orbital group  3
 Library entry H      F aug-cc-pV5Z          selected for orbital group  3
 Library entry H      G aug-cc-pV5Z          selected for orbital group  3


 PROGRAM * SEWARD (Integral evaluation for generally contracted gaussian basis sets)     Author: Roland Lindh, 1990

 Geometry written to block  1 of record 700


 Point group  C2v 



 ATOMIC COORDINATES

 NR  ATOM    CHARGE       X              Y              Z

   1  N       7.00    0.000000000    0.000000000    1.115252761
   2  C       6.00    0.000000000    0.000000000   -1.044699646
   3  H       1.00    0.000000000    0.000000000   -3.067623097

 Bond lengths in Bohr (Angstrom)

 1-2  2.159952407  2-3  2.022923451
     ( 1.142997591)     ( 1.070484990)

 Bond angles

  1-2-3  180.00000000

 NUCLEAR CHARGE:                   14
 NUMBER OF PRIMITIVE AOS:         506
 NUMBER OF SYMMETRY AOS:          371
 NUMBER OF CONTRACTIONS:          334   ( 123A1  +  81B1  +  81B2  +  49A2  )
 NUMBER OF CORE ORBITALS:           2   (   2A1  +   0B1  +   0B2  +   0A2  )
 NUMBER OF VALENCE ORBITALS:        9   (   5A1  +   2B1  +   2B2  +   0A2  )


 NUCLEAR REPULSION ENERGY   24.08436714

 EXTRA SYMMETRY OF AOS IN SYMMETRY 1:   1 1 1 1 1 1 1 1 1 1   1 1 1 1 2 1 2 1 2 1   2 1 2 1 2 1 2 1 2 1   2 1 3 2 1 3 2 1 3 2
                                        2 3 1 2 3 1 1 1 1 1   1 1 1 1 1 1 1 1 1 1   2 1 2 1 2 1 2 1 2 1   2 1 2 1 2 1 2 1 3 2
                                        1 3 2 1 3 2 2 3 1 2   3 1 1 1 1 1 1 1 1 1   1 1 1 1 2 1 2 1 2 1   2 1 2 1 2 1 2 1 3 2
                                        1 3 2
 EXTRA SYMMETRY OF AOS IN SYMMETRY 2:   1 1 1 1 1 1 1 1 1 1   1 1 2 1 2 1 2 1 2 1   2 1 2 1 2 1 2 3 1 2   3 1 1 1 1 1 1 1 1 1
                                        1 1 1 2 1 2 1 2 1 2   1 2 1 2 1 2 1 2 3 1   2 3 1 1 1 1 1 1 1 1   1 1 2 1 2 1 2 1 2 1
                                        2
 EXTRA SYMMETRY OF AOS IN SYMMETRY 3:   1 1 1 1 1 1 1 1 1 1   1 1 2 1 2 1 2 1 2 1   2 1 2 1 2 1 2 3 1 2   3 1 1 1 1 1 1 1 1 1
                                        1 1 1 2 1 2 1 2 1 2   1 2 1 2 1 2 1 2 3 1   2 3 1 1 1 1 1 1 1 1   1 1 2 1 2 1 2 1 2 1
                                        2
 EXTRA SYMMETRY OF AOS IN SYMMETRY 4:   1 1 1 1 1 1 1 1 1 1   2 1 2 1 2 2 1 2 1 1   1 1 1 1 1 1 1 1 1 2   1 2 1 2 2 1 2 1 1 1
                                        1 1 1 1 1 1 2 1 2

 Eigenvalues of metric

         1 0.240E-05 0.548E-05 0.145E-04 0.353E-04 0.570E-04 0.689E-04 0.169E-03 0.219E-03
         2 0.546E-04 0.183E-03 0.366E-03 0.694E-03 0.920E-03 0.154E-02 0.184E-02 0.365E-02
         3 0.546E-04 0.183E-03 0.366E-03 0.694E-03 0.920E-03 0.154E-02 0.184E-02 0.365E-02
         4 0.744E-03 0.221E-02 0.472E-02 0.700E-02 0.165E-01 0.231E-01 0.249E-01 0.638E-01


 Contracted 2-electron integrals neglected if value below      1.0D-22

      355296177. INTEGRALS WRITTEN OUT IN   86764 BLOCKS ON RECORD 1290 OF FILE 1


 NUMBER OF SORTED TWO-ELECTRON INTEGRALS:  396972178.     BUFFER LENGTH:  32768
 NUMBER OF SEGMENTS:  13  SEGMENT LENGTH:   31999071      RECORD LENGTH: 524288

 Memory used in sort:      32.56 MW

 SORT1 READ   355296177. AND WROTE   358470663. INTEGRALS IN   1032 RECORDS. CPU TIME:     9.45 SEC, REAL TIME:    11.93 SEC
 SORT2 READ   358470663. AND WROTE   396972178. INTEGRALS IN     13 RECORDS. CPU TIME:     5.00 SEC, REAL TIME:     6.69 SEC

 FILE SIZES:   FILE 1:  5708.5 MBYTE,  FILE 4:  4328.6 MBYTE,   TOTAL:  10037.1 MBYTE

 OPERATOR DM      FOR CENTER  0  COORDINATES:    0.000000    0.000000    0.000000


 **********************************************************************************************************************************
 DATASETS  * FILE   NREC   LENGTH (MB)   RECORD NAMES
              1      19     3079.97       500      610      700      900      950      970     1000      129      960     1100   
                                          VAR    BASINP    GEOM    SYMINP    ZMAT    AOBASIS   BASIS     P2S    ABASIS      S 
                                         1400     1410     1200     1210     1080     1600     1650     1300     1700   
                                           T        V       H0       H01     AOSYM     SMH    MOLCAS    ERIS     OPER   

 PROGRAMS   *        TOTAL       INT
 CPU TIMES  *        86.54     86.44
 REAL TIME  *        94.26 SEC
 DISK USED  *        10.04 GB      
 **********************************************************************************************************************************


 PROGRAM * RHF-SCF (CLOSED SHELL)       Authors: W. Meyer, H.-J. Werner


 NUMBER OF ELECTRONS:       7+    7-
 CONVERGENCE THRESHOLDS:    1.00E-10 (Density)    1.00E-13 (Energy)
 MAX. NUMBER OF ITERATIONS:      500
 INTERPOLATION TYPE:            DIIS
 INTERPOLATION STEPS:              2 (START)      1 (STEP)
 LEVEL SHIFTS:                  0.00 (CLOSED)  0.00 (OPEN) 



 Orbital guess generated from atomic densities. Full valence occupancy:    7   2   2   0

 Molecular orbital dump at record        2100.2

 Initial occupancy:   5   1   1   0

 ITERATION    DDIFF          GRAD             ENERGY        2-EL.EN.            DIPOLE MOMENTS         DIIS   ORB.
    1      0.000D+00      0.000D+00       -92.89223198    112.371366    0.00000    0.00000   -1.78218    0    start
    2      0.000D+00      0.570D-02       -92.90171237    111.417729    0.00000    0.00000   -0.90949    1    diag
    3      0.436D-02      0.498D-02       -92.91667940    111.973701    0.00000    0.00000   -1.30896    2    diag
    4      0.222D-02      0.415D-03       -92.91690361    111.942665    0.00000    0.00000   -1.29679    3    diag
    5      0.415D-03      0.862D-04       -92.91691655    111.948499    0.00000    0.00000   -1.29529    4    diag
    6      0.103D-03      0.225D-04       -92.91691721    111.944742    0.00000    0.00000   -1.29547    5    diag
    7      0.188D-04      0.765D-05       -92.91691727    111.945975    0.00000    0.00000   -1.29549    6    diag
    8      0.605D-05      0.172D-05       -92.91691727    111.945899    0.00000    0.00000   -1.29546    7    diag
    9      0.133D-05      0.201D-06       -92.91691727    111.945908    0.00000    0.00000   -1.29545    8    diag
   10      0.211D-06      0.262D-07       -92.91691727    111.945909    0.00000    0.00000   -1.29545    9    orth
   11      0.257D-07      0.390D-08       -92.91691727    111.945909    0.00000    0.00000   -1.29545    9    diag
   12      0.461D-08      0.373D-09       -92.91691727    111.945909    0.00000    0.00000   -1.29545    9    diag
   13      0.106D-08      0.327D-10       -92.91691727    111.945909    0.00000    0.00000   -1.29545    9    diag
   14      0.212D-09      0.526D-11       -92.91691727    111.945909    0.00000    0.00000   -1.29545    9    diag
   15      0.530D-10      0.108D-11       -92.91691727    111.945909    0.00000    0.00000   -1.29545    9    diag
   16      0.517D-10      0.636D-12       -92.91691727    111.945909    0.00000    0.00000   -1.29545    9    diag
   17      0.333D-10      0.635D-12       -92.91691727    111.945909    0.00000    0.00000   -1.29545    9    diag
   18      0.245D-10      0.399D-12       -92.91691727    111.945909    0.00000    0.00000   -1.29545    9    diag
   19      0.152D-10      0.321D-12       -92.91691727    111.945909    0.00000    0.00000   -1.29545    9    fixocc
   20      0.878D-11      0.495D-12       -92.91691727    111.945909    0.00000    0.00000   -1.29545    9    orth
   21      0.105D-10      0.428D-12       -92.91691727    111.945909    0.00000    0.00000   -1.29545    9    diag
   22      0.587D-11      0.543D-12       -92.91691727    111.945909    0.00000    0.00000   -1.29545    9    diag
   23      0.467D-11      0.558D-12       -92.91691727    111.945909    0.00000    0.00000   -1.29545    9    diag
   24      0.344D-11      0.374D-12       -92.91691727    111.945909    0.00000    0.00000   -1.29545    9    diag
   25      0.319D-11      0.583D-12       -92.91691727    111.945909    0.00000    0.00000   -1.29545    9    diag
   26      0.284D-11      0.468D-12       -92.91691727    111.945909    0.00000    0.00000   -1.29545    9    diag
   27      0.287D-11      0.329D-12       -92.91691727    111.945909    0.00000    0.00000   -1.29545    9    diag
   28      0.508D-11      0.449D-12       -92.91691727    111.945909    0.00000    0.00000   -1.29545    9    diag
   29      0.709D-11      0.474D-12       -92.91691727    111.945909    0.00000    0.00000   -1.29545    9    diag
   30      0.676D-11      0.860D-12       -92.91691727    111.945909    0.00000    0.00000   -1.29545    9    orth
   31      0.236D-11      0.694D-12       -92.91691727    111.945909    0.00000    0.00000   -1.29545    9    diag
   32      0.104D-10      0.376D-12       -92.91691727    111.945909    0.00000    0.00000   -1.29545    9    diag
   33      0.859D-11      0.497D-12       -92.91691727    111.945909    0.00000    0.00000   -1.29545    9    diag
   34      0.436D-11      0.456D-12       -92.91691727    111.945909    0.00000    0.00000   -1.29545    9    diag
   35      0.735D-11      0.799D-12       -92.91691727    111.945909    0.00000    0.00000   -1.29545    9    diag
   36      0.123D-11      0.455D-12       -92.91691727    111.945909    0.00000    0.00000   -1.29545    0    orth

 Final occupancy:   5   1   1   0

 !RHF STATE 1.1 Energy                -92.916917268076
 Nuclear energy                        24.08436714
 One-electron energy                 -172.97423887
 Two-electron energy                   55.97295447
 Virial quotient                       -1.00150397
 !RHF STATE 1.1 Dipole moment           0.00000000     0.00000000    -1.29545068
 Dipole moment /Debye                   0.00000000     0.00000000    -3.29249153

 Orbital energies:

         1.1          2.1          3.1          4.1          5.1          6.1          7.1
    -15.594189   -11.287567    -1.241089    -0.809746    -0.581582     0.017594     0.053241

         1.2          2.2          3.2
     -0.499996     0.052431     0.102058

         1.3          2.3          3.3
     -0.499996     0.052431     0.102058

         1.4          2.4
      0.202584     0.326901

 HOMO      1.2    -0.499996 =     -13.6056eV
 LUMO      6.1     0.017594 =       0.4788eV
 LUMO-HOMO         0.517590 =      14.0843eV


 **********************************************************************************************************************************
 DATASETS  * FILE   NREC   LENGTH (MB)   RECORD NAMES
              1      19     3079.97       500      610      700      900      950      970     1000      129      960     1100   
                                          VAR    BASINP    GEOM    SYMINP    ZMAT    AOBASIS   BASIS     P2S    ABASIS      S 
                                         1400     1410     1200     1210     1080     1600     1650     1300     1700   
                                           T        V       H0       H01     AOSYM     SMH    MOLCAS    ERIS     OPER   

              2       4        3.46       700     1000      520     2100   
                                         GEOM     BASIS   MCVARS     RHF  

 PROGRAMS   *        TOTAL        HF       INT
 CPU TIMES  *       126.68     40.14     86.44
 REAL TIME  *       143.85 SEC
 DISK USED  *        10.04 GB      
 **********************************************************************************************************************************


 PROGRAM * CCSD (Closed-shell coupled cluster)     Authors: C. Hampel, H.-J. Werner, 1991, M. Deegan, P.J. Knowles, 1992


 Convergence thresholds:  THRVAR = 1.00D-08  THRDEN = 1.00D-12

 CCSD(T)     terms to be evaluated (factor= 1.000)


 Number of core orbitals:           2 (   2   0   0   0 )
 Number of closed-shell orbitals:   5 (   3   1   1   0 )
 Number of external orbitals:     327 ( 118  80  80  49 )

 Molecular orbitals read from record     2100.2  Type=RHF/CANONICAL (state 1.1)

 Number of N-1 electron functions:               5
 Number of N-2 electron functions:              15
 Number of singly external CSFs:               514
 Number of doubly external CSFs:            345689
 Total number of CSFs:                      346204

 Length of J-op  integral file:               0.00 MB
 Length of K-op  integral file:               2.14 MB
 Length of 3-ext integral record:             0.00 MB

 Memory could be reduced to 68.09 Mwords without degradation in triples

 Integral transformation finished. Total CPU:   3.28 sec, npass=  1  Memory used:   7.20 MW

 Reference energy:                    -92.91691727

 MP2 singlet pair energy:              -0.24379464
 MP2 triplet pair energy:              -0.13208127
 MP2 correlation energy:               -0.37587591
 MP2 total energy:                    -93.29279318

 SCS-MP2 correlation energy:           -0.37473747   (PS=  1.200000  PT=  0.333333)
 SCS-MP2 total energy:                -93.29165474

 ITER.      SQ.NORM     CORR.ENERGY   TOTAL ENERGY   ENERGY CHANGE        DEN1      VAR(S)    VAR(P)  DIIS     TIME  TIME/IT
   1      1.11404219    -0.37276785   -93.28968512     0.00310806     0.01614604  0.25D-02  0.30D-02  1  1     6.35     3.49
   2      1.12300902    -0.37300175   -93.28991902    -0.00023390    -0.01008157  0.64D-04  0.39D-03  2  2     9.46     3.52
   3      1.12782221    -0.37322670   -93.29014397    -0.00022495    -0.00254954  0.14D-04  0.44D-04  3  3    12.47     3.52
   4      1.12985831    -0.37328183   -93.29019910    -0.00005513    -0.00074971  0.66D-06  0.50D-05  4  4    15.56     3.53
   5      1.13039629    -0.37329168   -93.29020895    -0.00000985    -0.00015233  0.77D-07  0.42D-06  5  5    18.68     3.53
   6      1.13050293    -0.37329020   -93.29020746     0.00000148    -0.00002654  0.87D-08  0.35D-07  6  6    21.82     3.53
   7      1.13051197    -0.37329113   -93.29020840    -0.00000094    -0.00000120  0.85D-09  0.29D-08  6  1    24.86     3.54
   8      1.13051453    -0.37329153   -93.29020879    -0.00000039    -0.00000107  0.13D-09  0.26D-09  6  2    27.91     3.54
   9      1.13051465    -0.37329159   -93.29020886    -0.00000007    -0.00000000  0.11D-10  0.18D-10  6  3    31.02     3.54
  10      1.13051453    -0.37329164   -93.29020891    -0.00000005     0.00000010  0.13D-11  0.16D-11  6  4    34.07     3.54
  11      1.13051448    -0.37329165   -93.29020892    -0.00000001     0.00000003  0.17D-12  0.16D-12  6  5    37.16     3.54
  12      1.13051442    -0.37329166   -93.29020893    -0.00000000     0.00000003  0.19D-13  0.27D-13  6  6    40.24     3.54
  13      1.13051439    -0.37329166   -93.29020893    -0.00000000     0.00000001  0.23D-14  0.52D-14  6  1    43.33     3.54
  14      1.13051438    -0.37329166   -93.29020893    -0.00000000     0.00000001  0.68D-16  0.82D-15  6  2    46.40     3.55
  15      1.13051437    -0.37329166   -93.29020893    -0.00000000     0.00000000  0.20D-16  0.11D-15  6  3    49.50     3.55
  16      1.13051437    -0.37329166   -93.29020893     0.00000000     0.00000000  0.23D-17  0.14D-16  6  4    52.60     3.55
  17      1.13051437    -0.37329166   -93.29020893     0.00000000     0.00000000  0.81D-18  0.21D-17  6  5    55.64     3.55
  18      1.13051437    -0.37329166   -93.29020893     0.00000000     0.00000000  0.24D-18  0.58D-18  6  6    58.66     3.55
  19      1.13051437    -0.37329166   -93.29020893     0.00000000     0.00000000  0.56D-19  0.13D-18  6  1    61.69     3.55
  20      1.13051437    -0.37329166   -93.29020893     0.00000000     0.00000000  0.32D-19  0.68D-19  6  3    64.72     3.55
  21      1.13051437    -0.37329166   -93.29020893    -0.00000000     0.00000000  0.35D-19  0.46D-19  6  2    67.65     3.54

 Norm of t1 vector:      0.06330627      S-energy:    -0.00000000      T1 diagnostic:  0.01415571
                                                                       D1 diagnostic:  0.02845621


 Total CPU time for triples:     18.95 sec


 RESULTS
 =======

  Reference energy                    -92.916917268076
  CCSD singlet pair energy             -0.262189652127
  CCSD triplet pair energy             -0.111102007508
  CCSD correlation energy              -0.373291659637

  Triples (T) contribution             -0.019674213275
  Total correlation energy             -0.392965872913

  CCSD total energy                   -93.290208927713
  CCSD[T] energy                      -93.310691395593
  CCSD-T energy                       -93.309525009748
 !CCSD(T) total energy                -93.309883140989

 Timing summary (sec):

 STEP                 CPU(USER)    SYS     CPU(TOT)    WALL
 Transformation          3.29      0.70      3.99      5.22
 CCSD iterations        64.37     10.02     74.39     74.40
 Triples                18.95      0.57     19.52     19.53

 Program statistics:

 Available memory in ccsd:               994999800
 Min. memory needed in ccsd:               1363289
 Max. memory used in ccsd:                 1637718
 Max. memory used in cckext:               2695008 (21 integral passes)



 **********************************************************************************************************************************
 DATASETS  * FILE   NREC   LENGTH (MB)   RECORD NAMES
              1      20     3264.19       500      610      700      900      950      970     1000      129      960     1100   
                                          VAR    BASINP    GEOM    SYMINP    ZMAT    AOBASIS   BASIS     P2S    ABASIS      S 
                                         1400     1410     1200     1210     1080     1600     1650     1300     1700     1380   
                                           T        V       H0       H01     AOSYM     SMH    MOLCAS    ERIS     OPER     JKOP   

              2       4        3.46       700     1000      520     2100   
                                         GEOM     BASIS   MCVARS     RHF  

 PROGRAMS   *        TOTAL   CCSD(T)        HF       INT
 CPU TIMES  *       213.32     86.63     40.14     86.44
 REAL TIME  *       243.98 SEC
 DISK USED  *        10.04 GB      
 **********************************************************************************************************************************

 CCSD(T)/aug-cc-pV5Z energy=    -93.309883140989

        CCSD(T)         HF-SCF  
    -93.30988314    -92.91691727
 **********************************************************************************************************************************
 Molpro calculation terminated
 Variable memory released
