
 Primary working directories    : /tmp/r2666/232431.maple
 Secondary working directories  : /tmp/r2666/232431.maple
 Wavefunction directory         : /ddn/home4/r2666/wfu/
 Main file repository           : /tmp/r2666/232431.maple/

 SHA1      : d5ffa45e93fdbca01ffc919aa182cfdae0147319
 NAME      : 2015.1.35
 ARCHNAME  : linux/x86_64
 FC        : /opt/intel/composer_xe_2015.1.133/bin/intel64/ifort
 BLASLIB   : -Wl,-_start-group /opt/intel/mkl/lib/intel64/libmkl_intel_ilp64.a /opt/intel/mkl/lib/intel64/libmkl_intel_thread.a /opt/intel/mkl/lib/intel64/libmkl_core.a -Wl,-_end-group
 id        : olemiss

 Nodes     nprocs
 cn084        1

 Using customized tuning parameters: mindgm=1; mindgv=20; mindgc=4; mindgr=1; noblas=0; minvec=7
 default implementation of scratch files=df  

 ***,hcn CCSD(T)/TZ-F12 QFF
 memory, 995, m;
 gthresh,energy=1.d-12,zero=1.d-22,oneint=1.d-22,twoint=1.d-22;
 gthresh,optgrad=1.d-8,optstep=1.d-8;
 nocompress;
 geomtyp=xyz
 bohr
 geometry={
 3
         40        40
 N        0.0000000000        0.0000000000        1.1310004776
 C        0.0000000000        0.0000000000       -1.0572978193
 H        0.0000000000        0.0000000000       -3.0707726403
 }
 
 basis=av5z
   {hf,maxit=500;accu,20;}
 {ccsd(t),nocheck,maxit=250;orbital,IGNORE_ERROR;}

 Variables initialized (889), CPU time= 0.00 sec
 Commands  initialized (702), CPU time= 0.01 sec, 572 directives.
 Default parameters read. Elapsed time= 0.07 sec

 Checking input...
 Passed
1


                                         ***  PROGRAM SYSTEM MOLPRO  ***
                                       Copyright, TTI GmbH Stuttgart, 2015
                                    Version 2015.1 linked Jul  9 2018 13:16:40


 **********************************************************************************************************************************
 LABEL *   hcn CCSD(T)/TZ-F12 QFF                                                        
  64 bit serial version                                                                  DATE: 06-Feb-20          TIME: 09:49:40  
 **********************************************************************************************************************************

 SHA1:             d5ffa45e93fdbca01ffc919aa182cfdae0147319
 **********************************************************************************************************************************

 THRESHOLDS:

 ZERO    =  1.00D-22  ONEINT  =  1.00D-22  TWOINT  =  1.00D-22  PREFAC  =  1.00D-14  LOCALI  =  1.00D-09  EORDER  =  1.00D-04
 ENERGY  =  1.00D-12  ETEST   =  0.00D+00  EDENS   =  0.00D+00  THRDEDEF=  1.00D-06  GRADIENT=  1.00D-02  STEP    =  1.00D-03
 ORBITAL =  1.00D-05  CIVEC   =  1.00D-05  COEFF   =  1.00D-04  PRINTCI =  5.00D-02  PUNCHCI =  9.90D+01  OPTGRAD =  3.00D-04
 OPTENERG=  1.00D-06  OPTSTEP =  3.00D-04  THRGRAD =  1.00D-10  COMPRESS=  1.00D-11  VARMIN  =  1.00D-07  VARMAX  =  1.00D-03
 THRDOUB =  0.00D+00  THRDIV  =  1.00D-05  THRRED  =  1.00D-07  THRPSP  =  1.00D+00  THRDC   =  1.00D-10  THRCS   =  1.00D-10
 THRNRM  =  1.00D-08  THREQ   =  0.00D+00  THRDE   =  1.00D+00  THRREF  =  1.00D-05  SPARFAC =  1.00D+00  THRDLP  =  1.00D-07
 THRDIA  =  1.00D-10  THRDLS  =  1.00D-07  THRGPS  =  0.00D+00  THRKEX  =  0.00D+00  THRDIS  =  2.00D-01  THRVAR  =  1.00D-10
 THRLOC  =  1.00D-06  THRGAP  =  1.00D-06  THRLOCT = -1.00D+00  THRGAPT = -1.00D+00  THRORB  =  1.00D-06  THRMLTP =  0.00D+00
 THRCPQCI=  1.00D-10  KEXTA   =  0.00D+00  THRCOARS=  0.00D+00  SYMTOL  =  1.00D-06  GRADTOL =  1.00D-06  THROVL  =  1.00D-08
 THRORTH =  1.00D-08  GRID    =  1.00D-06  GRIDMAX =  1.00D-03  DTMAX   =  0.00D+00  THROCCDE=  1.00D-01  THROCCDE=  1.00D-01



 THRESHOLDS:

 ZERO    =  1.00D-22  ONEINT  =  1.00D-22  TWOINT  =  1.00D-22  PREFAC  =  1.00D-14  LOCALI  =  1.00D-09  EORDER  =  1.00D-04
 ENERGY  =  1.00D-12  ETEST   =  0.00D+00  EDENS   =  0.00D+00  THRDEDEF=  1.00D-06  GRADIENT=  1.00D-02  STEP    =  1.00D-03
 ORBITAL =  1.00D-05  CIVEC   =  1.00D-05  COEFF   =  1.00D-04  PRINTCI =  5.00D-02  PUNCHCI =  9.90D+01  OPTGRAD =  1.00D-08
 OPTENERG=  1.00D-06  OPTSTEP =  1.00D-08  THRGRAD =  1.00D-10  COMPRESS=  1.00D-11  VARMIN  =  1.00D-07  VARMAX  =  1.00D-03
 THRDOUB =  0.00D+00  THRDIV  =  1.00D-05  THRRED  =  1.00D-07  THRPSP  =  1.00D+00  THRDC   =  1.00D-10  THRCS   =  1.00D-10
 THRNRM  =  1.00D-08  THREQ   =  0.00D+00  THRDE   =  1.00D+00  THRREF  =  1.00D-05  SPARFAC =  1.00D+00  THRDLP  =  1.00D-07
 THRDIA  =  1.00D-10  THRDLS  =  1.00D-07  THRGPS  =  0.00D+00  THRKEX  =  0.00D+00  THRDIS  =  2.00D-01  THRVAR  =  1.00D-10
 THRLOC  =  1.00D-06  THRGAP  =  1.00D-06  THRLOCT = -1.00D+00  THRGAPT = -1.00D+00  THRORB  =  1.00D-06  THRMLTP =  0.00D+00
 THRCPQCI=  1.00D-10  KEXTA   =  0.00D+00  THRCOARS=  0.00D+00  SYMTOL  =  1.00D-06  GRADTOL =  1.00D-06  THROVL  =  1.00D-08
 THRORTH =  1.00D-08  GRID    =  1.00D-06  GRIDMAX =  1.00D-03  DTMAX   =  0.00D+00  THROCCDE=  1.00D-01  THROCCDE=  1.00D-01



 Input parameters for SORTINT:

 COMPRESS =    0.000000
 C_FINAL  =    1.000000
 DEBUG    =   -1.000000
 C_SORT1  =    0.000000
 C_SEWARD =    0.000000
 THRESH   =    0.000000
 IO       =  molpro                                                          
 SPRI     =    0.000000
 SETTING GEOMTYP        =    XYZ
 ZUNIT=BOHR
 

 Variable memory set to  995000000 words,  buffer space   230000 words

 SETTING BASIS          =    AV5Z


 Recomputing integrals since basis changed


 Using spherical harmonics

 Library entry N      S aug-cc-pV5Z          selected for orbital group  1
 Library entry N      P aug-cc-pV5Z          selected for orbital group  1
 Library entry N      D aug-cc-pV5Z          selected for orbital group  1
 Library entry N      F aug-cc-pV5Z          selected for orbital group  1
 Library entry N      G aug-cc-pV5Z          selected for orbital group  1
 Library entry N      H aug-cc-pV5Z          selected for orbital group  1
 Library entry C      S aug-cc-pV5Z          selected for orbital group  2
 Library entry C      P aug-cc-pV5Z          selected for orbital group  2
 Library entry C      D aug-cc-pV5Z          selected for orbital group  2
 Library entry C      F aug-cc-pV5Z          selected for orbital group  2
 Library entry C      G aug-cc-pV5Z          selected for orbital group  2
 Library entry C      H aug-cc-pV5Z          selected for orbital group  2
 Library entry H      S aug-cc-pV5Z          selected for orbital group  3
 Library entry H      P aug-cc-pV5Z          selected for orbital group  3
 Library entry H      D aug-cc-pV5Z          selected for orbital group  3
 Library entry H      F aug-cc-pV5Z          selected for orbital group  3
 Library entry H      G aug-cc-pV5Z          selected for orbital group  3


 PROGRAM * SEWARD (Integral evaluation for generally contracted gaussian basis sets)     Author: Roland Lindh, 1990

 Geometry written to block  1 of record 700


 Point group  C2v 



 ATOMIC COORDINATES

 NR  ATOM    CHARGE       X              Y              Z

   1  N       7.00    0.000000000    0.000000000    1.131000478
   2  C       6.00    0.000000000    0.000000000   -1.057297819
   3  H       1.00    0.000000000    0.000000000   -3.070772640

 Bond lengths in Bohr (Angstrom)

 1-2  2.188298297  2-3  2.013474821
     ( 1.157997589)     ( 1.065484990)

 Bond angles

  1-2-3  180.00000000

 NUCLEAR CHARGE:                   14
 NUMBER OF PRIMITIVE AOS:         506
 NUMBER OF SYMMETRY AOS:          371
 NUMBER OF CONTRACTIONS:          334   ( 123A1  +  81B1  +  81B2  +  49A2  )
 NUMBER OF CORE ORBITALS:           2   (   2A1  +   0B1  +   0B2  +   0A2  )
 NUMBER OF VALENCE ORBITALS:        9   (   5A1  +   2B1  +   2B2  +   0A2  )


 NUCLEAR REPULSION ENERGY   23.83888217

 EXTRA SYMMETRY OF AOS IN SYMMETRY 1:   1 1 1 1 1 1 1 1 1 1   1 1 1 1 2 1 2 1 2 1   2 1 2 1 2 1 2 1 2 1   2 1 3 2 1 3 2 1 3 2
                                        2 3 1 2 3 1 1 1 1 1   1 1 1 1 1 1 1 1 1 1   2 1 2 1 2 1 2 1 2 1   2 1 2 1 2 1 2 1 3 2
                                        1 3 2 1 3 2 2 3 1 2   3 1 1 1 1 1 1 1 1 1   1 1 1 1 2 1 2 1 2 1   2 1 2 1 2 1 2 1 3 2
                                        1 3 2
 EXTRA SYMMETRY OF AOS IN SYMMETRY 2:   1 1 1 1 1 1 1 1 1 1   1 1 2 1 2 1 2 1 2 1   2 1 2 1 2 1 2 3 1 2   3 1 1 1 1 1 1 1 1 1
                                        1 1 1 2 1 2 1 2 1 2   1 2 1 2 1 2 1 2 3 1   2 3 1 1 1 1 1 1 1 1   1 1 2 1 2 1 2 1 2 1
                                        2
 EXTRA SYMMETRY OF AOS IN SYMMETRY 3:   1 1 1 1 1 1 1 1 1 1   1 1 2 1 2 1 2 1 2 1   2 1 2 1 2 1 2 3 1 2   3 1 1 1 1 1 1 1 1 1
                                        1 1 1 2 1 2 1 2 1 2   1 2 1 2 1 2 1 2 3 1   2 3 1 1 1 1 1 1 1 1   1 1 2 1 2 1 2 1 2 1
                                        2
 EXTRA SYMMETRY OF AOS IN SYMMETRY 4:   1 1 1 1 1 1 1 1 1 1   2 1 2 1 2 2 1 2 1 1   1 1 1 1 1 1 1 1 1 2   1 2 1 2 2 1 2 1 1 1
                                        1 1 1 1 1 1 2 1 2

 Eigenvalues of metric

         1 0.252E-05 0.559E-05 0.147E-04 0.355E-04 0.586E-04 0.697E-04 0.177E-03 0.223E-03
         2 0.573E-04 0.183E-03 0.375E-03 0.705E-03 0.935E-03 0.153E-02 0.187E-02 0.372E-02
         3 0.573E-04 0.183E-03 0.375E-03 0.705E-03 0.935E-03 0.153E-02 0.187E-02 0.372E-02
         4 0.780E-03 0.219E-02 0.493E-02 0.702E-02 0.170E-01 0.236E-01 0.256E-01 0.639E-01


 Contracted 2-electron integrals neglected if value below      1.0D-22

      355210436. INTEGRALS WRITTEN OUT IN   86743 BLOCKS ON RECORD 1290 OF FILE 1


 NUMBER OF SORTED TWO-ELECTRON INTEGRALS:  396972178.     BUFFER LENGTH:  32768
 NUMBER OF SEGMENTS:  13  SEGMENT LENGTH:   31999071      RECORD LENGTH: 524288

 Memory used in sort:      32.56 MW

 SORT1 READ   355210436. AND WROTE   358383643. INTEGRALS IN   1032 RECORDS. CPU TIME:    17.69 SEC, REAL TIME:    70.91 SEC
 SORT2 READ   358383643. AND WROTE   396972178. INTEGRALS IN     13 RECORDS. CPU TIME:     8.90 SEC, REAL TIME:    51.26 SEC

 FILE SIZES:   FILE 1:  5707.1 MBYTE,  FILE 4:  4328.6 MBYTE,   TOTAL:  10035.7 MBYTE

 OPERATOR DM      FOR CENTER  0  COORDINATES:    0.000000    0.000000    0.000000


 **********************************************************************************************************************************
 DATASETS  * FILE   NREC   LENGTH (MB)   RECORD NAMES
              1      19     3079.48       500      610      700      900      950      970     1000      129      960     1100   
                                          VAR    BASINP    GEOM    SYMINP    ZMAT    AOBASIS   BASIS     P2S    ABASIS      S 
                                         1400     1410     1200     1210     1080     1600     1650     1300     1700   
                                           T        V       H0       H01     AOSYM     SMH    MOLCAS    ERIS     OPER   

 PROGRAMS   *        TOTAL       INT
 CPU TIMES  *        98.00     97.90
 REAL TIME  *       197.41 SEC
 DISK USED  *        10.04 GB      
 **********************************************************************************************************************************


 PROGRAM * RHF-SCF (CLOSED SHELL)       Authors: W. Meyer, H.-J. Werner


 NUMBER OF ELECTRONS:       7+    7-
 CONVERGENCE THRESHOLDS:    1.00E-10 (Density)    1.00E-13 (Energy)
 MAX. NUMBER OF ITERATIONS:      500
 INTERPOLATION TYPE:            DIIS
 INTERPOLATION STEPS:              2 (START)      1 (STEP)
 LEVEL SHIFTS:                  0.00 (CLOSED)  0.00 (OPEN) 



 Orbital guess generated from atomic densities. Full valence occupancy:    7   2   2   0

 Molecular orbital dump at record        2100.2

 Initial occupancy:   5   1   1   0

 ITERATION    DDIFF          GRAD             ENERGY        2-EL.EN.            DIPOLE MOMENTS         DIIS   ORB.
    1      0.000D+00      0.000D+00       -92.89040607    111.795167    0.00000    0.00000   -1.78724    0    start
    2      0.000D+00      0.563D-02       -92.89920084    110.944124    0.00000    0.00000   -0.89427    1    diag
    3      0.435D-02      0.504D-02       -92.91467510    111.485171    0.00000    0.00000   -1.30992    2    diag
    4      0.224D-02      0.424D-03       -92.91490863    111.444098    0.00000    0.00000   -1.29789    3    diag
    5      0.423D-03      0.919D-04       -92.91492230    111.454857    0.00000    0.00000   -1.29640    4    diag
    6      0.104D-03      0.250D-04       -92.91492317    111.449624    0.00000    0.00000   -1.29642    5    diag
    7      0.217D-04      0.898D-05       -92.91492326    111.450792    0.00000    0.00000   -1.29647    6    diag
    8      0.721D-05      0.191D-05       -92.91492326    111.450742    0.00000    0.00000   -1.29644    7    diag
    9      0.152D-05      0.222D-06       -92.91492326    111.450751    0.00000    0.00000   -1.29644    8    diag
   10      0.234D-06      0.278D-07       -92.91492326    111.450752    0.00000    0.00000   -1.29644    9    orth
   11      0.271D-07      0.400D-08       -92.91492326    111.450752    0.00000    0.00000   -1.29644    9    diag
   12      0.490D-08      0.380D-09       -92.91492326    111.450752    0.00000    0.00000   -1.29644    9    diag
   13      0.126D-08      0.325D-10       -92.91492326    111.450752    0.00000    0.00000   -1.29644    9    diag
   14      0.161D-09      0.650D-11       -92.91492326    111.450752    0.00000    0.00000   -1.29644    9    diag
   15      0.108D-09      0.125D-11       -92.91492326    111.450752    0.00000    0.00000   -1.29644    9    diag
   16      0.523D-10      0.780D-12       -92.91492326    111.450752    0.00000    0.00000   -1.29644    9    diag
   17      0.453D-10      0.476D-12       -92.91492326    111.450752    0.00000    0.00000   -1.29644    9    diag
   18      0.433D-10      0.510D-12       -92.91492326    111.450752    0.00000    0.00000   -1.29644    9    diag
   19      0.270D-10      0.712D-12       -92.91492326    111.450752    0.00000    0.00000   -1.29644    9    fixocc
   20      0.141D-10      0.380D-12       -92.91492326    111.450752    0.00000    0.00000   -1.29644    9    orth
   21      0.423D-11      0.326D-12       -92.91492326    111.450752    0.00000    0.00000   -1.29644    9    diag
   22      0.422D-11      0.532D-12       -92.91492326    111.450752    0.00000    0.00000   -1.29644    0    orth

 Final occupancy:   5   1   1   0

 !RHF STATE 1.1 Energy                -92.914923259908
 Nuclear energy                        23.83888217
 One-electron energy                 -172.47918130
 Two-electron energy                   55.72537587
 Virial quotient                       -1.00230681
 !RHF STATE 1.1 Dipole moment           0.00000000     0.00000000    -1.29643620
 Dipole moment /Debye                   0.00000000     0.00000000    -3.29499632

 Orbital energies:

         1.1          2.1          3.1          4.1          5.1          6.1          7.1
    -15.599738   -11.292735    -1.234133    -0.813967    -0.582571     0.017555     0.053209

         1.2          2.2          3.2
     -0.495535     0.052460     0.101545

         1.3          2.3          3.3
     -0.495535     0.052460     0.101545

         1.4          2.4
      0.202770     0.327107

 HOMO      1.2    -0.495535 =     -13.4842eV
 LUMO      6.1     0.017555 =       0.4777eV
 LUMO-HOMO         0.513091 =      13.9619eV


 **********************************************************************************************************************************
 DATASETS  * FILE   NREC   LENGTH (MB)   RECORD NAMES
              1      19     3079.48       500      610      700      900      950      970     1000      129      960     1100   
                                          VAR    BASINP    GEOM    SYMINP    ZMAT    AOBASIS   BASIS     P2S    ABASIS      S 
                                         1400     1410     1200     1210     1080     1600     1650     1300     1700   
                                           T        V       H0       H01     AOSYM     SMH    MOLCAS    ERIS     OPER   

              2       4        3.46       700     1000      520     2100   
                                         GEOM     BASIS   MCVARS     RHF  

 PROGRAMS   *        TOTAL        HF       INT
 CPU TIMES  *       121.90     23.90     97.90
 REAL TIME  *       227.85 SEC
 DISK USED  *        10.04 GB      
 **********************************************************************************************************************************


 PROGRAM * CCSD (Closed-shell coupled cluster)     Authors: C. Hampel, H.-J. Werner, 1991, M. Deegan, P.J. Knowles, 1992


 Convergence thresholds:  THRVAR = 1.00D-08  THRDEN = 1.00D-12

 CCSD(T)     terms to be evaluated (factor= 1.000)


 Number of core orbitals:           2 (   2   0   0   0 )
 Number of closed-shell orbitals:   5 (   3   1   1   0 )
 Number of external orbitals:     327 ( 118  80  80  49 )

 Molecular orbitals read from record     2100.2  Type=RHF/CANONICAL (state 1.1)

 Number of N-1 electron functions:               5
 Number of N-2 electron functions:              15
 Number of singly external CSFs:               514
 Number of doubly external CSFs:            345689
 Total number of CSFs:                      346204

 Length of J-op  integral file:               0.00 MB
 Length of K-op  integral file:               2.14 MB
 Length of 3-ext integral record:             0.00 MB

 Memory could be reduced to 68.09 Mwords without degradation in triples

 Integral transformation finished. Total CPU:   3.12 sec, npass=  1  Memory used:   7.20 MW

 Reference energy:                    -92.91492326

 MP2 singlet pair energy:              -0.24532776
 MP2 triplet pair energy:              -0.13334575
 MP2 correlation energy:               -0.37867351
 MP2 total energy:                    -93.29359677

 SCS-MP2 correlation energy:           -0.37736400   (PS=  1.200000  PT=  0.333333)
 SCS-MP2 total energy:                -93.29228726

 ITER.      SQ.NORM     CORR.ENERGY   TOTAL ENERGY   ENERGY CHANGE        DEN1      VAR(S)    VAR(P)  DIIS     TIME  TIME/IT
   1      1.11578030    -0.37475266   -93.28967592     0.00392085     0.01757917  0.27D-02  0.32D-02  1  1     6.16     3.44
   2      1.12510863    -0.37485648   -93.28977974    -0.00010381    -0.01044952  0.69D-04  0.41D-03  2  2     9.17     3.49
   3      1.13016320    -0.37509389   -93.29001715    -0.00023742    -0.00263275  0.14D-04  0.49D-04  3  3    12.17     3.49
   4      1.13235680    -0.37515566   -93.29007892    -0.00006177    -0.00079175  0.69D-06  0.56D-05  4  4    15.21     3.49
   5      1.13295077    -0.37516648   -93.29008974    -0.00001081    -0.00016636  0.76D-07  0.49D-06  5  5    18.18     3.49
   6      1.13307105    -0.37516478   -93.29008804     0.00000170    -0.00002969  0.10D-07  0.41D-07  6  6    21.18     3.49
   7      1.13308089    -0.37516598   -93.29008924    -0.00000120    -0.00000113  0.90D-09  0.35D-08  6  1    24.15     3.49
   8      1.13308383    -0.37516643   -93.29008969    -0.00000045    -0.00000125  0.13D-09  0.32D-09  6  2    27.20     3.50
   9      1.13308390    -0.37516651   -93.29008977    -0.00000008     0.00000002  0.13D-10  0.21D-10  6  3    30.25     3.51
  10      1.13308376    -0.37516656   -93.29008982    -0.00000005     0.00000011  0.13D-11  0.19D-11  6  4    33.25     3.51
  11      1.13308369    -0.37516658   -93.29008984    -0.00000002     0.00000003  0.21D-12  0.17D-12  6  5    36.23     3.51
  12      1.13308363    -0.37516658   -93.29008984    -0.00000001     0.00000003  0.29D-13  0.26D-13  6  6    39.22     3.50
  13      1.13308359    -0.37516658   -93.29008984    -0.00000000     0.00000001  0.30D-14  0.56D-14  6  1    42.20     3.50
  14      1.13308357    -0.37516658   -93.29008984    -0.00000000     0.00000001  0.37D-15  0.79D-15  6  2    45.20     3.50
  15      1.13308357    -0.37516658   -93.29008984    -0.00000000     0.00000000  0.25D-16  0.12D-15  6  3    48.22     3.50
  16      1.13308356    -0.37516658   -93.29008984     0.00000000     0.00000000  0.44D-17  0.16D-16  6  4    51.18     3.50
  17      1.13308356    -0.37516658   -93.29008984     0.00000000     0.00000000  0.10D-17  0.23D-17  6  5    54.21     3.50
  18      1.13308356    -0.37516658   -93.29008984     0.00000000     0.00000000  0.29D-18  0.63D-18  6  6    57.17     3.50
  19      1.13308356    -0.37516658   -93.29008984     0.00000000     0.00000000  0.12D-18  0.28D-18  6  1    60.13     3.50
  20      1.13308356    -0.37516658   -93.29008984     0.00000000     0.00000000  0.34D-19  0.76D-19  6  2    63.17     3.50
  21      1.13308356    -0.37516658   -93.29008984     0.00000000     0.00000000  0.22D-19  0.43D-19  6  3    66.20     3.50

 Norm of t1 vector:      0.06532372      S-energy:    -0.00000000      T1 diagnostic:  0.01460683
                                                                       D1 diagnostic:  0.02948729


 Total CPU time for triples:     19.27 sec


 RESULTS
 =======

  Reference energy                    -92.914923259908
  CCSD singlet pair energy             -0.263731959543
  CCSD triplet pair energy             -0.111434625346
  CCSD correlation energy              -0.375166584892

  Triples (T) contribution             -0.020150142197
  Total correlation energy             -0.395316727089

  CCSD total energy                   -93.290089844800
  CCSD[T] energy                      -93.311105561920
  CCSD-T energy                       -93.309858692748
 !CCSD(T) total energy                -93.310239986997

 Timing summary (sec):

 STEP                 CPU(USER)    SYS     CPU(TOT)    WALL
 Transformation          3.13      0.69      3.82      4.08
 CCSD iterations        63.08     10.51     73.59     73.58
 Triples                19.27      0.52     19.79     19.81

 Program statistics:

 Available memory in ccsd:               994999800
 Min. memory needed in ccsd:               1363289
 Max. memory used in ccsd:                 1637718
 Max. memory used in cckext:               2695008 (21 integral passes)



 **********************************************************************************************************************************
 DATASETS  * FILE   NREC   LENGTH (MB)   RECORD NAMES
              1      20     3263.70       500      610      700      900      950      970     1000      129      960     1100   
                                          VAR    BASINP    GEOM    SYMINP    ZMAT    AOBASIS   BASIS     P2S    ABASIS      S 
                                         1400     1410     1200     1210     1080     1600     1650     1300     1700     1380   
                                           T        V       H0       H01     AOSYM     SMH    MOLCAS    ERIS     OPER     JKOP   

              2       4        3.46       700     1000      520     2100   
                                         GEOM     BASIS   MCVARS     RHF  

 PROGRAMS   *        TOTAL   CCSD(T)        HF       INT
 CPU TIMES  *       207.40     85.50     23.90     97.90
 REAL TIME  *       325.43 SEC
 DISK USED  *        10.04 GB      
 **********************************************************************************************************************************

 CCSD(T)/aug-cc-pV5Z energy=    -93.310239986997

        CCSD(T)         HF-SCF  
    -93.31023999    -92.91492326
 **********************************************************************************************************************************
 Molpro calculation terminated
 Variable memory released
