
 Primary working directories    : /tmp/r2666/232641.maple
 Secondary working directories  : /tmp/r2666/232641.maple
 Wavefunction directory         : /ddn/home4/r2666/wfu/
 Main file repository           : /tmp/r2666/232641.maple/

 SHA1      : d5ffa45e93fdbca01ffc919aa182cfdae0147319
 NAME      : 2015.1.35
 ARCHNAME  : linux/x86_64
 FC        : /opt/intel/composer_xe_2015.1.133/bin/intel64/ifort
 BLASLIB   : -Wl,-_start-group /opt/intel/mkl/lib/intel64/libmkl_intel_ilp64.a /opt/intel/mkl/lib/intel64/libmkl_intel_thread.a /opt/intel/mkl/lib/intel64/libmkl_core.a -Wl,-_end-group
 id        : olemiss

 Nodes     nprocs
 cn083        1

 Using customized tuning parameters: mindgm=1; mindgv=20; mindgc=4; mindgr=1; noblas=0; minvec=7
 default implementation of scratch files=df  

 ***,hcn CCSD(T)/TZ-F12 QFF
 memory, 995, m;
 gthresh,energy=1.d-12,zero=1.d-22,oneint=1.d-22,twoint=1.d-22;
 gthresh,optgrad=1.d-8,optstep=1.d-8;
 nocompress;
 geomtyp=xyz
 bohr
 geometry={
 3
         30        30
 N        0.0000000000        0.0000000000        1.1278509343
 C        0.0000000000        0.0000000000       -1.0509987327
 H        0.0000000000        0.0000000000       -3.0739221836
 }
 
 basis=vtz-dk
 dkroll=1
   {hf,maxit=500;accu,20;}
 {ccsd(t),nocheck,maxit=250;orbital,IGNORE_ERROR;}

 Variables initialized (889), CPU time= 0.00 sec
 Commands  initialized (702), CPU time= 0.01 sec, 572 directives.
 Default parameters read. Elapsed time= 0.08 sec

 Checking input...
 Passed
1


                                         ***  PROGRAM SYSTEM MOLPRO  ***
                                       Copyright, TTI GmbH Stuttgart, 2015
                                    Version 2015.1 linked Jul  9 2018 13:16:40


 **********************************************************************************************************************************
 LABEL *   hcn CCSD(T)/TZ-F12 QFF                                                        
  64 bit serial version                                                                  DATE: 06-Feb-20          TIME: 09:54:41  
 **********************************************************************************************************************************

 SHA1:             d5ffa45e93fdbca01ffc919aa182cfdae0147319
 **********************************************************************************************************************************

 THRESHOLDS:

 ZERO    =  1.00D-22  ONEINT  =  1.00D-22  TWOINT  =  1.00D-22  PREFAC  =  1.00D-14  LOCALI  =  1.00D-09  EORDER  =  1.00D-04
 ENERGY  =  1.00D-12  ETEST   =  0.00D+00  EDENS   =  0.00D+00  THRDEDEF=  1.00D-06  GRADIENT=  1.00D-02  STEP    =  1.00D-03
 ORBITAL =  1.00D-05  CIVEC   =  1.00D-05  COEFF   =  1.00D-04  PRINTCI =  5.00D-02  PUNCHCI =  9.90D+01  OPTGRAD =  3.00D-04
 OPTENERG=  1.00D-06  OPTSTEP =  3.00D-04  THRGRAD =  1.00D-10  COMPRESS=  1.00D-11  VARMIN  =  1.00D-07  VARMAX  =  1.00D-03
 THRDOUB =  0.00D+00  THRDIV  =  1.00D-05  THRRED  =  1.00D-07  THRPSP  =  1.00D+00  THRDC   =  1.00D-10  THRCS   =  1.00D-10
 THRNRM  =  1.00D-08  THREQ   =  0.00D+00  THRDE   =  1.00D+00  THRREF  =  1.00D-05  SPARFAC =  1.00D+00  THRDLP  =  1.00D-07
 THRDIA  =  1.00D-10  THRDLS  =  1.00D-07  THRGPS  =  0.00D+00  THRKEX  =  0.00D+00  THRDIS  =  2.00D-01  THRVAR  =  1.00D-10
 THRLOC  =  1.00D-06  THRGAP  =  1.00D-06  THRLOCT = -1.00D+00  THRGAPT = -1.00D+00  THRORB  =  1.00D-06  THRMLTP =  0.00D+00
 THRCPQCI=  1.00D-10  KEXTA   =  0.00D+00  THRCOARS=  0.00D+00  SYMTOL  =  1.00D-06  GRADTOL =  1.00D-06  THROVL  =  1.00D-08
 THRORTH =  1.00D-08  GRID    =  1.00D-06  GRIDMAX =  1.00D-03  DTMAX   =  0.00D+00  THROCCDE=  1.00D-01  THROCCDE=  1.00D-01



 THRESHOLDS:

 ZERO    =  1.00D-22  ONEINT  =  1.00D-22  TWOINT  =  1.00D-22  PREFAC  =  1.00D-14  LOCALI  =  1.00D-09  EORDER  =  1.00D-04
 ENERGY  =  1.00D-12  ETEST   =  0.00D+00  EDENS   =  0.00D+00  THRDEDEF=  1.00D-06  GRADIENT=  1.00D-02  STEP    =  1.00D-03
 ORBITAL =  1.00D-05  CIVEC   =  1.00D-05  COEFF   =  1.00D-04  PRINTCI =  5.00D-02  PUNCHCI =  9.90D+01  OPTGRAD =  1.00D-08
 OPTENERG=  1.00D-06  OPTSTEP =  1.00D-08  THRGRAD =  1.00D-10  COMPRESS=  1.00D-11  VARMIN  =  1.00D-07  VARMAX  =  1.00D-03
 THRDOUB =  0.00D+00  THRDIV  =  1.00D-05  THRRED  =  1.00D-07  THRPSP  =  1.00D+00  THRDC   =  1.00D-10  THRCS   =  1.00D-10
 THRNRM  =  1.00D-08  THREQ   =  0.00D+00  THRDE   =  1.00D+00  THRREF  =  1.00D-05  SPARFAC =  1.00D+00  THRDLP  =  1.00D-07
 THRDIA  =  1.00D-10  THRDLS  =  1.00D-07  THRGPS  =  0.00D+00  THRKEX  =  0.00D+00  THRDIS  =  2.00D-01  THRVAR  =  1.00D-10
 THRLOC  =  1.00D-06  THRGAP  =  1.00D-06  THRLOCT = -1.00D+00  THRGAPT = -1.00D+00  THRORB  =  1.00D-06  THRMLTP =  0.00D+00
 THRCPQCI=  1.00D-10  KEXTA   =  0.00D+00  THRCOARS=  0.00D+00  SYMTOL  =  1.00D-06  GRADTOL =  1.00D-06  THROVL  =  1.00D-08
 THRORTH =  1.00D-08  GRID    =  1.00D-06  GRIDMAX =  1.00D-03  DTMAX   =  0.00D+00  THROCCDE=  1.00D-01  THROCCDE=  1.00D-01



 Input parameters for SORTINT:

 COMPRESS =    0.000000
 C_FINAL  =    1.000000
 DEBUG    =   -1.000000
 C_SORT1  =    0.000000
 C_SEWARD =    0.000000
 THRESH   =    0.000000
 IO       =  molpro                                                          
 SPRI     =    0.000000
 SETTING GEOMTYP        =    XYZ
 ZUNIT=BOHR
 

 Variable memory set to  995000000 words,  buffer space   230000 words

 SETTING BASIS          =    VTZ-DK
 SETTING DKROLL         =         1.00000000                                  


 Recomputing integrals since basis changed


 Using spherical harmonics

 Library entry N      S cc-pVTZ-DK           selected for orbital group  1
 Library entry N      P cc-pVTZ-DK           selected for orbital group  1
 Library entry N      D cc-pVTZ-DK           selected for orbital group  1
 Library entry N      F cc-pVTZ-DK           selected for orbital group  1
 Library entry C      S cc-pVTZ-DK           selected for orbital group  2
 Library entry C      P cc-pVTZ-DK           selected for orbital group  2
 Library entry C      D cc-pVTZ-DK           selected for orbital group  2
 Library entry C      F cc-pVTZ-DK           selected for orbital group  2
 Library entry H      S cc-pVTZ-DK           selected for orbital group  3
 Library entry H      P cc-pVTZ-DK           selected for orbital group  3
 Library entry H      D cc-pVTZ-DK           selected for orbital group  3


 PROGRAM * SEWARD (Integral evaluation for generally contracted gaussian basis sets)     Author: Roland Lindh, 1990

 Geometry written to block  1 of record 700


 Point group  C2v 



 ATOMIC COORDINATES

 NR  ATOM    CHARGE       X              Y              Z

   1  N       7.00    0.000000000    0.000000000    1.127850934
   2  C       6.00    0.000000000    0.000000000   -1.050998733
   3  H       1.00    0.000000000    0.000000000   -3.073922184

 Bond lengths in Bohr (Angstrom)

 1-2  2.178849667  2-3  2.022923451
     ( 1.152997590)     ( 1.070484990)

 Bond angles

  1-2-3  180.00000000

 NUCLEAR CHARGE:                   14
 NUMBER OF PRIMITIVE AOS:         111
 NUMBER OF SYMMETRY AOS:          100
 NUMBER OF CONTRACTIONS:           74   (  33A1  +  17B1  +  17B2  +   7A2  )
 NUMBER OF CORE ORBITALS:           2   (   2A1  +   0B1  +   0B2  +   0A2  )
 NUMBER OF VALENCE ORBITALS:        9   (   5A1  +   2B1  +   2B2  +   0A2  )


 NUCLEAR REPULSION ENERGY   23.90819446

 One-electron integrals computed with SEWARD

 2nd-order Douglas-Kroll-Hess method activated. Optimal DKH parametrization is used.

 Computing Douglas-Kroll / X2C integrals


         874963. INTEGRALS WRITTEN OUT IN     214 BLOCKS ON RECORD 1290 OF FILE 1


 NUMBER OF SORTED TWO-ELECTRON INTEGRALS:    1039939.     BUFFER LENGTH:  32768
 NUMBER OF SEGMENTS:   1  SEGMENT LENGTH:    1039939      RECORD LENGTH: 524288

 Memory used in sort:       1.60 MW

 SORT1 READ      874963. AND WROTE      911297. INTEGRALS IN      3 RECORDS. CPU TIME:     0.03 SEC, REAL TIME:     0.03 SEC
 SORT2 READ      911297. AND WROTE     1039939. INTEGRALS IN      1 RECORDS. CPU TIME:     0.04 SEC, REAL TIME:     0.05 SEC

 FILE SIZES:   FILE 1:    34.2 MBYTE,  FILE 4:    12.6 MBYTE,   TOTAL:     46.8 MBYTE

 OPERATOR DM      FOR CENTER  0  COORDINATES:    0.000000    0.000000    0.000000

 EXTRA SYMMETRY OF AOS IN SYMMETRY 1:   1 1 1 1 1 1 1 1 2 1   2 1 2 1 1 1 1 1 1 1   1 2 1 2 1 2 1 1 1 1   1 1 2
 EXTRA SYMMETRY OF AOS IN SYMMETRY 2:   1 1 1 1 1 1 2 1 1 1   1 1 1 2 1 1 1
 EXTRA SYMMETRY OF AOS IN SYMMETRY 3:   1 1 1 1 1 1 2 1 1 1   1 1 1 2 1 1 1

 Eigenvalues of metric

         1 0.109E-02 0.146E-02 0.246E-02 0.640E-02 0.110E-01 0.191E-01 0.293E-01 0.474E-01
         2 0.154E-01 0.365E-01 0.610E-01 0.895E-01 0.133E+00 0.286E+00 0.378E+00 0.431E+00
         3 0.154E-01 0.365E-01 0.610E-01 0.895E-01 0.133E+00 0.286E+00 0.378E+00 0.431E+00
         4 0.292E+00 0.454E+00 0.575E+00 0.847E+00 0.125E+01 0.155E+01 0.203E+01


 **********************************************************************************************************************************
 DATASETS  * FILE   NREC   LENGTH (MB)   RECORD NAMES
              1      23       27.68       500      610      700      900      950      970     1000      129      960     1700   
                                          VAR    BASINP    GEOM    SYMINP    ZMAT    AOBASIS   BASIS     P2S    ABASIS    OPER   
                                         1101     1401     1411     1412     1650     1100     1400     1410     1200     1210   
                                          SR      EKINR    POTR     PVPR    MOLCAS      S      EKIN      POT      H0       H01  
                                         1300     1080     1600   
                                         ERIS     AOSYM     SMH  

 PROGRAMS   *        TOTAL       INT
 CPU TIMES  *         0.69      0.58
 REAL TIME  *         1.21 SEC
 DISK USED  *        47.10 MB      
 **********************************************************************************************************************************


 PROGRAM * RHF-SCF (CLOSED SHELL)       Authors: W. Meyer, H.-J. Werner


 NUMBER OF ELECTRONS:       7+    7-
 CONVERGENCE THRESHOLDS:    1.00E-10 (Density)    1.00E-13 (Energy)
 MAX. NUMBER OF ITERATIONS:      500
 INTERPOLATION TYPE:            DIIS
 INTERPOLATION STEPS:              2 (START)      1 (STEP)
 LEVEL SHIFTS:                  0.00 (CLOSED)  0.00 (OPEN) 



 Orbital guess generated from atomic densities. Full valence occupancy:    7   2   2   0

 Molecular orbital dump at record        2100.2

 Initial occupancy:   5   1   1   0

 ITERATION    DDIFF          GRAD             ENERGY        2-EL.EN.            DIPOLE MOMENTS         DIIS   ORB.
    1      0.000D+00      0.000D+00       -92.92734203    112.002484    0.00000    0.00000   -1.77305    0    start
    2      0.000D+00      0.116D-01       -92.93635298    111.148066    0.00000    0.00000   -0.88473    1    diag
    3      0.191D-01      0.104D-01       -92.95150802    111.671358    0.00000    0.00000   -1.29202    2    diag
    4      0.957D-02      0.825D-03       -92.95172592    111.637466    0.00000    0.00000   -1.28347    3    diag
    5      0.150D-02      0.180D-03       -92.95173815    111.647233    0.00000    0.00000   -1.28208    4    diag
    6      0.405D-03      0.501D-04       -92.95173889    111.642510    0.00000    0.00000   -1.28217    5    diag
    7      0.916D-04      0.181D-04       -92.95173897    111.643642    0.00000    0.00000   -1.28230    6    diag
    8      0.317D-04      0.347D-05       -92.95173897    111.643587    0.00000    0.00000   -1.28228    7    diag
    9      0.582D-05      0.379D-06       -92.95173897    111.643594    0.00000    0.00000   -1.28228    8    diag
   10      0.819D-06      0.380D-07       -92.95173897    111.643594    0.00000    0.00000   -1.28228    9    orth
   11      0.738D-07      0.440D-08       -92.95173897    111.643594    0.00000    0.00000   -1.28228    9    diag
   12      0.127D-07      0.388D-09       -92.95173897    111.643594    0.00000    0.00000   -1.28228    9    diag
   13      0.165D-08      0.422D-10       -92.95173897    111.643594    0.00000    0.00000   -1.28228    9    diag
   14      0.241D-09      0.918D-11       -92.95173897    111.643594    0.00000    0.00000   -1.28228    9    diag
   15      0.430D-10      0.120D-11       -92.95173897    111.643594    0.00000    0.00000   -1.28228    9    diag
   16      0.282D-11      0.245D-12       -92.95173897    111.643594    0.00000    0.00000   -1.28228    0    orth

 Final occupancy:   5   1   1   0

 !RHF STATE 1.1 Energy                -92.951738968776
 Nuclear energy                        23.90819446
 One-electron energy                 -172.68173035
 Two-electron energy                   55.82179692
 Virial quotient                       -0.99898318
 !RHF STATE 1.1 Dipole moment           0.00000000     0.00000000    -1.28227579
 Dipole moment /Debye                   0.00000000     0.00000000    -3.25900651

 Orbital energies:

         1.1          2.1          3.1          4.1          5.1          6.1          7.1
    -15.606259   -11.294971    -1.236172    -0.810060    -0.580936     0.141370     0.240421

         1.2          2.2          3.2
     -0.495335     0.167112     0.446652

         1.3          2.3          3.3
     -0.495335     0.167112     0.446652

         1.4          2.4
      0.810616     1.420296

 HOMO      1.2    -0.495335 =     -13.4788eV
 LUMO      6.1     0.141370 =       3.8469eV
 LUMO-HOMO         0.636705 =      17.3256eV


 **********************************************************************************************************************************
 DATASETS  * FILE   NREC   LENGTH (MB)   RECORD NAMES
              1      23       27.68       500      610      700      900      950      970     1000      129      960     1700   
                                          VAR    BASINP    GEOM    SYMINP    ZMAT    AOBASIS   BASIS     P2S    ABASIS    OPER   
                                         1101     1401     1411     1412     1650     1100     1400     1410     1200     1210   
                                          SR      EKINR    POTR     PVPR    MOLCAS      S      EKIN      POT      H0       H01  
                                         1300     1080     1600   
                                         ERIS     AOSYM     SMH  

              2       4        2.82       700     1000      520     2100   
                                         GEOM     BASIS   MCVARS     RHF  

 PROGRAMS   *        TOTAL        HF       INT
 CPU TIMES  *         0.77      0.08      0.58
 REAL TIME  *         1.40 SEC
 DISK USED  *        47.10 MB      
 **********************************************************************************************************************************


 PROGRAM * CCSD (Closed-shell coupled cluster)     Authors: C. Hampel, H.-J. Werner, 1991, M. Deegan, P.J. Knowles, 1992


 Convergence thresholds:  THRVAR = 1.00D-08  THRDEN = 1.00D-12

 CCSD(T)     terms to be evaluated (factor= 1.000)


 Number of core orbitals:           2 (   2   0   0   0 )
 Number of closed-shell orbitals:   5 (   3   1   1   0 )
 Number of external orbitals:      67 (  28  16  16   7 )

 Molecular orbitals read from record     2100.2  Type=RHF/CANONICAL (state 1.1)

 Number of N-1 electron functions:               5
 Number of N-2 electron functions:              15
 Number of singly external CSFs:               116
 Number of doubly external CSFs:             15189
 Total number of CSFs:                       15306

 Length of J-op  integral file:               0.00 MB
 Length of K-op  integral file:               0.15 MB
 Length of 3-ext integral record:             0.00 MB

 Memory could be reduced to 0.93 Mwords without degradation in triples

 Integral transformation finished. Total CPU:   0.01 sec, npass=  1  Memory used:   0.18 MW

 Reference energy:                    -92.95173897

 MP2 singlet pair energy:              -0.21807766
 MP2 triplet pair energy:              -0.12725308
 MP2 correlation energy:               -0.34533074
 MP2 total energy:                    -93.29706971

 SCS-MP2 correlation energy:           -0.34087289   (PS=  1.200000  PT=  0.333333)
 SCS-MP2 total energy:                -93.29261186

 ITER.      SQ.NORM     CORR.ENERGY   TOTAL ENERGY   ENERGY CHANGE        DEN1      VAR(S)    VAR(P)  DIIS     TIME  TIME/IT
   1      1.11474665    -0.34865896   -93.30039793    -0.00332822     0.00948025  0.25D-02  0.30D-02  1  1     0.04     0.03
   2      1.12431622    -0.34903089   -93.30076986    -0.00037193    -0.01005666  0.49D-04  0.41D-03  2  2     0.05     0.02
   3      1.12935549    -0.34925555   -93.30099452    -0.00022467    -0.00252944  0.12D-04  0.41D-04  3  3     0.07     0.02
   4      1.13144474    -0.34935121   -93.30109018    -0.00009565    -0.00075794  0.29D-06  0.44D-05  4  4     0.08     0.02
   5      1.13190033    -0.34934773   -93.30108670     0.00000348    -0.00012762  0.10D-06  0.39D-06  5  5     0.09     0.02
   6      1.13199667    -0.34934667   -93.30108564     0.00000106    -0.00002541  0.86D-08  0.29D-07  6  6     0.10     0.02
   7      1.13200445    -0.34934891   -93.30108788    -0.00000225    -0.00000231  0.60D-09  0.24D-08  6  1     0.12     0.02
   8      1.13200494    -0.34934939   -93.30108836    -0.00000048     0.00000065  0.45D-10  0.14D-09  6  2     0.13     0.02
   9      1.13200560    -0.34934943   -93.30108839    -0.00000003    -0.00000037  0.39D-11  0.98D-11  6  3     0.15     0.02
  10      1.13200555    -0.34934944   -93.30108841    -0.00000002     0.00000009  0.30D-12  0.10D-11  6  4     0.16     0.02
  11      1.13200551    -0.34934945   -93.30108841    -0.00000000     0.00000001  0.56D-13  0.10D-12  6  5     0.18     0.02
  12      1.13200546    -0.34934945   -93.30108842    -0.00000000     0.00000002  0.32D-14  0.21D-13  6  6     0.19     0.02
  13      1.13200542    -0.34934945   -93.30108842    -0.00000000     0.00000001  0.12D-14  0.20D-14  6  2     0.20     0.02
  14      1.13200541    -0.34934945   -93.30108842    -0.00000000     0.00000000  0.20D-16  0.99D-16  6  1     0.21     0.02
  15      1.13200541    -0.34934945   -93.30108842    -0.00000000     0.00000000  0.46D-17  0.74D-17  6  4     0.22     0.02
  16      1.13200541    -0.34934945   -93.30108842    -0.00000000     0.00000000  0.20D-18  0.52D-18  6  3     0.24     0.02
  17      1.13200541    -0.34934945   -93.30108842    -0.00000000     0.00000000  0.85D-19  0.68D-19  6  5     0.26     0.02
  18      1.13200541    -0.34934945   -93.30108842    -0.00000000     0.00000000  0.50D-20  0.73D-20  6  6     0.27     0.02
  19      1.13200541    -0.34934945   -93.30108842     0.00000000    -0.00000000  0.17D-20  0.44D-21  6  2     0.29     0.02
  20      1.13200541    -0.34934945   -93.30108842     0.00000000    -0.00000000  0.82D-22  0.10D-21  6  1     0.30     0.02

 Norm of t1 vector:      0.06369055      S-energy:    -0.00000000      T1 diagnostic:  0.01424164
                                                                       D1 diagnostic:  0.02864010

 Doubles amplitudes (print threshold =  0.500E-01):

         I         J         SYM. A    SYM. B    A         B      T(IJ, AB)

         4         4         2         2         1         1     -0.08688394
         5         5         3         3         1         1     -0.08688394
         5         4         3         2         1         1     -0.05446692


 Total CPU time for triples:      0.06 sec


 RESULTS
 =======

  Reference energy                    -92.951738968776
  CCSD singlet pair energy             -0.242896025696
  CCSD triplet pair energy             -0.106453425188
  CCSD correlation energy              -0.349349450884

  Triples (T) contribution             -0.017887962699
  Total correlation energy             -0.367237413583

  CCSD total energy                   -93.301088419660
  CCSD[T] energy                      -93.319797529286
  CCSD-T energy                       -93.318566601481
 !CCSD(T) total energy                -93.318976382359

 Timing summary (sec):

 STEP                 CPU(USER)    SYS     CPU(TOT)    WALL
 Transformation          0.01      0.00      0.01      0.05
 CCSD iterations         0.29      0.08      0.37      0.35
 Triples                 0.06      0.00      0.06      0.06

 Program statistics:

 Available memory in ccsd:               994999800
 Min. memory needed in ccsd:                 67993
 Max. memory used in ccsd:                   79450
 Max. memory used in cckext:                107513 (20 integral passes)



 **********************************************************************************************************************************
 DATASETS  * FILE   NREC   LENGTH (MB)   RECORD NAMES
              1      24       29.62       500      610      700      900      950      970     1000      129      960     1700   
                                          VAR    BASINP    GEOM    SYMINP    ZMAT    AOBASIS   BASIS     P2S    ABASIS    OPER   
                                         1101     1401     1411     1412     1650     1100     1400     1410     1200     1210   
                                          SR      EKINR    POTR     PVPR    MOLCAS      S      EKIN      POT      H0       H01  
                                         1300     1080     1600     1380   
                                         ERIS     AOSYM     SMH     JKOP   

              2       4        2.82       700     1000      520     2100   
                                         GEOM     BASIS   MCVARS     RHF  

 PROGRAMS   *        TOTAL   CCSD(T)        HF       INT
 CPU TIMES  *         1.17      0.39      0.08      0.58
 REAL TIME  *         1.90 SEC
 DISK USED  *        47.10 MB      
 **********************************************************************************************************************************

 CCSD(T)/cc-pVTZ-DK energy=    -93.318976382359

        CCSD(T)         HF-SCF  
    -93.31897638    -92.95173897
 **********************************************************************************************************************************
 Molpro calculation terminated
 Variable memory released
