
 Primary working directories    : /tmp/r2666/232615.maple
 Secondary working directories  : /tmp/r2666/232615.maple
 Wavefunction directory         : /ddn/home4/r2666/wfu/
 Main file repository           : /tmp/r2666/232615.maple/

 SHA1      : d5ffa45e93fdbca01ffc919aa182cfdae0147319
 NAME      : 2015.1.35
 ARCHNAME  : linux/x86_64
 FC        : /opt/intel/composer_xe_2015.1.133/bin/intel64/ifort
 BLASLIB   : -Wl,-_start-group /opt/intel/mkl/lib/intel64/libmkl_intel_ilp64.a /opt/intel/mkl/lib/intel64/libmkl_intel_thread.a /opt/intel/mkl/lib/intel64/libmkl_core.a -Wl,-_end-group
 id        : olemiss

 Nodes     nprocs
 cn083        1

 Using customized tuning parameters: mindgm=1; mindgv=20; mindgc=4; mindgr=1; noblas=0; minvec=7
 default implementation of scratch files=df  

 ***,hcn CCSD(T)/TZ-F12 QFF
 memory, 995, m;
 gthresh,energy=1.d-12,zero=1.d-22,oneint=1.d-22,twoint=1.d-22;
 gthresh,optgrad=1.d-8,optstep=1.d-8;
 nocompress;
 geomtyp=xyz
 bohr
 geometry={
 3
          4         4
 N        0.0000000000        0.0000000000        1.1089536744
 C        0.0000000000        0.0000000000       -1.0415501027
 H        0.0000000000        0.0000000000       -3.0644735537
 }
 
 basis=vtz-dk
 dkroll=1
   {hf,maxit=500;accu,20;}
 {ccsd(t),nocheck,maxit=250;orbital,IGNORE_ERROR;}

 Variables initialized (889), CPU time= 0.00 sec
 Commands  initialized (702), CPU time= 0.01 sec, 572 directives.
 Default parameters read. Elapsed time= 0.05 sec

 Checking input...
 Passed
1


                                         ***  PROGRAM SYSTEM MOLPRO  ***
                                       Copyright, TTI GmbH Stuttgart, 2015
                                    Version 2015.1 linked Jul  9 2018 13:16:40


 **********************************************************************************************************************************
 LABEL *   hcn CCSD(T)/TZ-F12 QFF                                                        
  64 bit serial version                                                                  DATE: 06-Feb-20          TIME: 09:54:38  
 **********************************************************************************************************************************

 SHA1:             d5ffa45e93fdbca01ffc919aa182cfdae0147319
 **********************************************************************************************************************************

 THRESHOLDS:

 ZERO    =  1.00D-22  ONEINT  =  1.00D-22  TWOINT  =  1.00D-22  PREFAC  =  1.00D-14  LOCALI  =  1.00D-09  EORDER  =  1.00D-04
 ENERGY  =  1.00D-12  ETEST   =  0.00D+00  EDENS   =  0.00D+00  THRDEDEF=  1.00D-06  GRADIENT=  1.00D-02  STEP    =  1.00D-03
 ORBITAL =  1.00D-05  CIVEC   =  1.00D-05  COEFF   =  1.00D-04  PRINTCI =  5.00D-02  PUNCHCI =  9.90D+01  OPTGRAD =  3.00D-04
 OPTENERG=  1.00D-06  OPTSTEP =  3.00D-04  THRGRAD =  1.00D-10  COMPRESS=  1.00D-11  VARMIN  =  1.00D-07  VARMAX  =  1.00D-03
 THRDOUB =  0.00D+00  THRDIV  =  1.00D-05  THRRED  =  1.00D-07  THRPSP  =  1.00D+00  THRDC   =  1.00D-10  THRCS   =  1.00D-10
 THRNRM  =  1.00D-08  THREQ   =  0.00D+00  THRDE   =  1.00D+00  THRREF  =  1.00D-05  SPARFAC =  1.00D+00  THRDLP  =  1.00D-07
 THRDIA  =  1.00D-10  THRDLS  =  1.00D-07  THRGPS  =  0.00D+00  THRKEX  =  0.00D+00  THRDIS  =  2.00D-01  THRVAR  =  1.00D-10
 THRLOC  =  1.00D-06  THRGAP  =  1.00D-06  THRLOCT = -1.00D+00  THRGAPT = -1.00D+00  THRORB  =  1.00D-06  THRMLTP =  0.00D+00
 THRCPQCI=  1.00D-10  KEXTA   =  0.00D+00  THRCOARS=  0.00D+00  SYMTOL  =  1.00D-06  GRADTOL =  1.00D-06  THROVL  =  1.00D-08
 THRORTH =  1.00D-08  GRID    =  1.00D-06  GRIDMAX =  1.00D-03  DTMAX   =  0.00D+00  THROCCDE=  1.00D-01  THROCCDE=  1.00D-01



 THRESHOLDS:

 ZERO    =  1.00D-22  ONEINT  =  1.00D-22  TWOINT  =  1.00D-22  PREFAC  =  1.00D-14  LOCALI  =  1.00D-09  EORDER  =  1.00D-04
 ENERGY  =  1.00D-12  ETEST   =  0.00D+00  EDENS   =  0.00D+00  THRDEDEF=  1.00D-06  GRADIENT=  1.00D-02  STEP    =  1.00D-03
 ORBITAL =  1.00D-05  CIVEC   =  1.00D-05  COEFF   =  1.00D-04  PRINTCI =  5.00D-02  PUNCHCI =  9.90D+01  OPTGRAD =  1.00D-08
 OPTENERG=  1.00D-06  OPTSTEP =  1.00D-08  THRGRAD =  1.00D-10  COMPRESS=  1.00D-11  VARMIN  =  1.00D-07  VARMAX  =  1.00D-03
 THRDOUB =  0.00D+00  THRDIV  =  1.00D-05  THRRED  =  1.00D-07  THRPSP  =  1.00D+00  THRDC   =  1.00D-10  THRCS   =  1.00D-10
 THRNRM  =  1.00D-08  THREQ   =  0.00D+00  THRDE   =  1.00D+00  THRREF  =  1.00D-05  SPARFAC =  1.00D+00  THRDLP  =  1.00D-07
 THRDIA  =  1.00D-10  THRDLS  =  1.00D-07  THRGPS  =  0.00D+00  THRKEX  =  0.00D+00  THRDIS  =  2.00D-01  THRVAR  =  1.00D-10
 THRLOC  =  1.00D-06  THRGAP  =  1.00D-06  THRLOCT = -1.00D+00  THRGAPT = -1.00D+00  THRORB  =  1.00D-06  THRMLTP =  0.00D+00
 THRCPQCI=  1.00D-10  KEXTA   =  0.00D+00  THRCOARS=  0.00D+00  SYMTOL  =  1.00D-06  GRADTOL =  1.00D-06  THROVL  =  1.00D-08
 THRORTH =  1.00D-08  GRID    =  1.00D-06  GRIDMAX =  1.00D-03  DTMAX   =  0.00D+00  THROCCDE=  1.00D-01  THROCCDE=  1.00D-01



 Input parameters for SORTINT:

 COMPRESS =    0.000000
 C_FINAL  =    1.000000
 DEBUG    =   -1.000000
 C_SORT1  =    0.000000
 C_SEWARD =    0.000000
 THRESH   =    0.000000
 IO       =  molpro                                                          
 SPRI     =    0.000000
 SETTING GEOMTYP        =    XYZ
 ZUNIT=BOHR
 

 Variable memory set to  995000000 words,  buffer space   230000 words

 SETTING BASIS          =    VTZ-DK
 SETTING DKROLL         =         1.00000000                                  


 Recomputing integrals since basis changed


 Using spherical harmonics

 Library entry N      S cc-pVTZ-DK           selected for orbital group  1
 Library entry N      P cc-pVTZ-DK           selected for orbital group  1
 Library entry N      D cc-pVTZ-DK           selected for orbital group  1
 Library entry N      F cc-pVTZ-DK           selected for orbital group  1
 Library entry C      S cc-pVTZ-DK           selected for orbital group  2
 Library entry C      P cc-pVTZ-DK           selected for orbital group  2
 Library entry C      D cc-pVTZ-DK           selected for orbital group  2
 Library entry C      F cc-pVTZ-DK           selected for orbital group  2
 Library entry H      S cc-pVTZ-DK           selected for orbital group  3
 Library entry H      P cc-pVTZ-DK           selected for orbital group  3
 Library entry H      D cc-pVTZ-DK           selected for orbital group  3


 PROGRAM * SEWARD (Integral evaluation for generally contracted gaussian basis sets)     Author: Roland Lindh, 1990

 Geometry written to block  1 of record 700


 Point group  C2v 



 ATOMIC COORDINATES

 NR  ATOM    CHARGE       X              Y              Z

   1  N       7.00    0.000000000    0.000000000    1.108953674
   2  C       6.00    0.000000000    0.000000000   -1.041550103
   3  H       1.00    0.000000000    0.000000000   -3.064473554

 Bond lengths in Bohr (Angstrom)

 1-2  2.150503777  2-3  2.022923451
     ( 1.137997591)     ( 1.070484990)

 Bond angles

  1-2-3  179.99999879

 NUCLEAR CHARGE:                   14
 NUMBER OF PRIMITIVE AOS:         111
 NUMBER OF SYMMETRY AOS:          100
 NUMBER OF CONTRACTIONS:           74   (  33A1  +  17B1  +  17B2  +   7A2  )
 NUMBER OF CORE ORBITALS:           2   (   2A1  +   0B1  +   0B2  +   0A2  )
 NUMBER OF VALENCE ORBITALS:        9   (   5A1  +   2B1  +   2B2  +   0A2  )


 NUCLEAR REPULSION ENERGY   24.17359051

 One-electron integrals computed with SEWARD

 2nd-order Douglas-Kroll-Hess method activated. Optimal DKH parametrization is used.

 Computing Douglas-Kroll / X2C integrals


         875086. INTEGRALS WRITTEN OUT IN     214 BLOCKS ON RECORD 1290 OF FILE 1


 NUMBER OF SORTED TWO-ELECTRON INTEGRALS:    1039939.     BUFFER LENGTH:  32768
 NUMBER OF SEGMENTS:   1  SEGMENT LENGTH:    1039939      RECORD LENGTH: 524288

 Memory used in sort:       1.60 MW

 SORT1 READ      875086. AND WROTE      911393. INTEGRALS IN      3 RECORDS. CPU TIME:     0.02 SEC, REAL TIME:     0.02 SEC
 SORT2 READ      911393. AND WROTE     1039939. INTEGRALS IN      1 RECORDS. CPU TIME:     0.03 SEC, REAL TIME:     0.05 SEC

 FILE SIZES:   FILE 1:    34.2 MBYTE,  FILE 4:    12.6 MBYTE,   TOTAL:     46.8 MBYTE

 OPERATOR DM      FOR CENTER  0  COORDINATES:    0.000000    0.000000    0.000000

 EXTRA SYMMETRY OF AOS IN SYMMETRY 1:   1 1 1 1 1 1 1 1 2 1   2 1 2 1 1 1 1 1 1 1   1 2 1 2 1 2 1 1 1 1   1 1 2
 EXTRA SYMMETRY OF AOS IN SYMMETRY 2:   1 1 1 1 1 1 2 1 1 1   1 1 1 2 1 1 1
 EXTRA SYMMETRY OF AOS IN SYMMETRY 3:   1 1 1 1 1 1 2 1 1 1   1 1 1 2 1 1 1

 Eigenvalues of metric

         1 0.108E-02 0.143E-02 0.242E-02 0.634E-02 0.110E-01 0.182E-01 0.290E-01 0.469E-01
         2 0.146E-01 0.363E-01 0.609E-01 0.871E-01 0.130E+00 0.280E+00 0.373E+00 0.430E+00
         3 0.146E-01 0.363E-01 0.609E-01 0.871E-01 0.130E+00 0.280E+00 0.373E+00 0.430E+00
         4 0.285E+00 0.449E+00 0.573E+00 0.843E+00 0.125E+01 0.155E+01 0.205E+01


 **********************************************************************************************************************************
 DATASETS  * FILE   NREC   LENGTH (MB)   RECORD NAMES
              1      23       27.68       500      610      700      900      950      970     1000      129      960     1700   
                                          VAR    BASINP    GEOM    SYMINP    ZMAT    AOBASIS   BASIS     P2S    ABASIS    OPER   
                                         1101     1401     1411     1412     1650     1100     1400     1410     1200     1210   
                                          SR      EKINR    POTR     PVPR    MOLCAS      S      EKIN      POT      H0       H01  
                                         1300     1080     1600   
                                         ERIS     AOSYM     SMH  

 PROGRAMS   *        TOTAL       INT
 CPU TIMES  *         0.61      0.54
 REAL TIME  *         1.13 SEC
 DISK USED  *        47.10 MB      
 **********************************************************************************************************************************


 PROGRAM * RHF-SCF (CLOSED SHELL)       Authors: W. Meyer, H.-J. Werner


 NUMBER OF ELECTRONS:       7+    7-
 CONVERGENCE THRESHOLDS:    1.00E-10 (Density)    1.00E-13 (Energy)
 MAX. NUMBER OF ITERATIONS:      500
 INTERPOLATION TYPE:            DIIS
 INTERPOLATION STEPS:              2 (START)      1 (STEP)
 LEVEL SHIFTS:                  0.00 (CLOSED)  0.00 (OPEN) 



 Orbital guess generated from atomic densities. Full valence occupancy:    7   2   2   0

 Molecular orbital dump at record        2100.2

 Initial occupancy:   5   1   1   0

 ITERATION    DDIFF          GRAD             ENERGY        2-EL.EN.            DIPOLE MOMENTS         DIIS   ORB.
    1      0.000D+00      0.000D+00       -92.92897864    112.602806    0.00000    0.00000   -1.76211    0    start
    2      0.000D+00      0.117D-01       -92.93865579    111.654762    0.00000    0.00000   -0.89911    1    diag
    3      0.191D-01      0.102D-01       -92.95313933    112.189128    0.00000    0.00000   -1.28861    2    diag
    4      0.946D-02      0.810D-03       -92.95334925    112.164691    0.00000    0.00000   -1.27998    3    diag
    5      0.148D-02      0.169D-03       -92.95336073    112.169593    0.00000    0.00000   -1.27858    4    diag
    6      0.400D-03      0.450D-04       -92.95336128    112.166325    0.00000    0.00000   -1.27884    5    diag
    7      0.801D-04      0.150D-04       -92.95336133    112.167503    0.00000    0.00000   -1.27891    6    diag
    8      0.258D-04      0.310D-05       -92.95336133    112.167426    0.00000    0.00000   -1.27889    7    diag
    9      0.504D-05      0.346D-06       -92.95336133    112.167433    0.00000    0.00000   -1.27889    8    diag
   10      0.745D-06      0.366D-07       -92.95336133    112.167434    0.00000    0.00000   -1.27889    9    orth
   11      0.712D-07      0.440D-08       -92.95336133    112.167434    0.00000    0.00000   -1.27889    9    diag
   12      0.122D-07      0.426D-09       -92.95336133    112.167434    0.00000    0.00000   -1.27889    9    diag
   13      0.176D-08      0.488D-10       -92.95336133    112.167434    0.00000    0.00000   -1.27889    9    diag
   14      0.238D-09      0.982D-11       -92.95336133    112.167434    0.00000    0.00000   -1.27889    9    diag
   15      0.501D-10      0.164D-11       -92.95336133    112.167434    0.00000    0.00000   -1.27889    9    diag
   16      0.464D-11      0.323D-12       -92.95336133    112.167434    0.00000    0.00000   -1.27889    9    diag
   17      0.614D-12      0.706D-13       -92.95336133    112.167434    0.00000    0.00000   -1.27889    0    orth

 Final occupancy:   5   1   1   0

 !RHF STATE 1.1 Energy                -92.953361328061
 Nuclear energy                        24.17359051
 One-electron energy                 -173.21066868
 Two-electron energy                   56.08371685
 Virial quotient                       -0.99807668
 !RHF STATE 1.1 Dipole moment           0.00000000     0.00000000    -1.27888799
 Dipole moment /Debye                   0.00000000     0.00000000    -3.25039613

 Orbital energies:

         1.1          2.1          3.1          4.1          5.1          6.1          7.1
    -15.600861   -11.289562    -1.243273    -0.807841    -0.580161     0.141981     0.241175

         1.2          2.2          3.2
     -0.499960     0.171961     0.446610

         1.3          2.3          3.3
     -0.499960     0.171961     0.446610

         1.4          2.4
      0.810815     1.424606

 HOMO      1.2    -0.499960 =     -13.6046eV
 LUMO      6.1     0.141981 =       3.8635eV
 LUMO-HOMO         0.641941 =      17.4681eV


 **********************************************************************************************************************************
 DATASETS  * FILE   NREC   LENGTH (MB)   RECORD NAMES
              1      23       27.68       500      610      700      900      950      970     1000      129      960     1700   
                                          VAR    BASINP    GEOM    SYMINP    ZMAT    AOBASIS   BASIS     P2S    ABASIS    OPER   
                                         1101     1401     1411     1412     1650     1100     1400     1410     1200     1210   
                                          SR      EKINR    POTR     PVPR    MOLCAS      S      EKIN      POT      H0       H01  
                                         1300     1080     1600   
                                         ERIS     AOSYM     SMH  

              2       4        2.82       700     1000      520     2100   
                                         GEOM     BASIS   MCVARS     RHF  

 PROGRAMS   *        TOTAL        HF       INT
 CPU TIMES  *         0.68      0.07      0.54
 REAL TIME  *         1.33 SEC
 DISK USED  *        47.10 MB      
 **********************************************************************************************************************************


 PROGRAM * CCSD (Closed-shell coupled cluster)     Authors: C. Hampel, H.-J. Werner, 1991, M. Deegan, P.J. Knowles, 1992


 Convergence thresholds:  THRVAR = 1.00D-08  THRDEN = 1.00D-12

 CCSD(T)     terms to be evaluated (factor= 1.000)


 Number of core orbitals:           2 (   2   0   0   0 )
 Number of closed-shell orbitals:   5 (   3   1   1   0 )
 Number of external orbitals:      67 (  28  16  16   7 )

 Molecular orbitals read from record     2100.2  Type=RHF/CANONICAL (state 1.1)

 Number of N-1 electron functions:               5
 Number of N-2 electron functions:              15
 Number of singly external CSFs:               116
 Number of doubly external CSFs:             15189
 Total number of CSFs:                       15306

 Length of J-op  integral file:               0.00 MB
 Length of K-op  integral file:               0.15 MB
 Length of 3-ext integral record:             0.00 MB

 Memory could be reduced to 0.93 Mwords without degradation in triples

 Integral transformation finished. Total CPU:   0.01 sec, npass=  1  Memory used:   0.18 MW

 Reference energy:                    -92.95336133

 MP2 singlet pair energy:              -0.21641236
 MP2 triplet pair energy:              -0.12596334
 MP2 correlation energy:               -0.34237570
 MP2 total energy:                    -93.29573703

 SCS-MP2 correlation energy:           -0.33807202   (PS=  1.200000  PT=  0.333333)
 SCS-MP2 total energy:                -93.29143335

 ITER.      SQ.NORM     CORR.ENERGY   TOTAL ENERGY   ENERGY CHANGE        DEN1      VAR(S)    VAR(P)  DIIS     TIME  TIME/IT
   1      1.11289132    -0.34645247   -93.29981379    -0.00407676     0.00814631  0.23D-02  0.28D-02  1  1     0.03     0.01
   2      1.12210274    -0.34693386   -93.30029519    -0.00048140    -0.00972401  0.45D-04  0.39D-03  2  2     0.05     0.01
   3      1.12685554    -0.34714358   -93.30050491    -0.00020972    -0.00242295  0.12D-04  0.38D-04  3  3     0.05     0.01
   4      1.12878057    -0.34722967   -93.30059100    -0.00008609    -0.00071029  0.27D-06  0.39D-05  4  4     0.06     0.01
   5      1.12919152    -0.34722621   -93.30058753     0.00000347    -0.00011716  0.10D-06  0.33D-06  5  5     0.08     0.01
   6      1.12927471    -0.34722535   -93.30058667     0.00000086    -0.00002224  0.72D-08  0.24D-07  6  6     0.09     0.01
   7      1.12928149    -0.34722725   -93.30058858    -0.00000190    -0.00000209  0.59D-09  0.20D-08  6  1     0.11     0.01
   8      1.12928195    -0.34722768   -93.30058901    -0.00000043     0.00000059  0.53D-10  0.11D-09  6  2     0.12     0.01
   9      1.12928253    -0.34722771   -93.30058903    -0.00000003    -0.00000032  0.29D-11  0.87D-11  6  3     0.13     0.01
  10      1.12928250    -0.34722772   -93.30058905    -0.00000001     0.00000008  0.62D-12  0.83D-12  6  4     0.14     0.01
  11      1.12928247    -0.34722772   -93.30058905    -0.00000000     0.00000001  0.39D-13  0.12D-12  6  5     0.16     0.01
  12      1.12928239    -0.34722773   -93.30058905    -0.00000000     0.00000003  0.17D-13  0.52D-14  6  1     0.17     0.01
  13      1.12928238    -0.34722773   -93.30058905    -0.00000000     0.00000000  0.14D-14  0.76D-15  6  6     0.19     0.01
  14      1.12928238    -0.34722773   -93.30058905    -0.00000000     0.00000000  0.43D-15  0.14D-15  6  2     0.20     0.01
  15      1.12928238    -0.34722773   -93.30058905     0.00000000    -0.00000000  0.10D-16  0.96D-17  6  4     0.22     0.01
  16      1.12928238    -0.34722773   -93.30058905     0.00000000    -0.00000000  0.27D-18  0.10D-17  6  3     0.23     0.01
  17      1.12928238    -0.34722773   -93.30058905     0.00000000    -0.00000000  0.81D-19  0.12D-18  6  5     0.24     0.01
  18      1.12928238    -0.34722773   -93.30058905     0.00000000    -0.00000000  0.59D-20  0.15D-19  6  6     0.26     0.01
  19      1.12928238    -0.34722773   -93.30058905    -0.00000000     0.00000000  0.82D-21  0.99D-21  6  1     0.27     0.01
  20      1.12928238    -0.34722773   -93.30058905    -0.00000000     0.00000000  0.11D-21  0.10D-21  6  2     0.28     0.01
  21      1.12928238    -0.34722773   -93.30058905    -0.00000000     0.00000000  0.29D-22  0.12D-22  6  4     0.30     0.01

 Norm of t1 vector:      0.06167866      S-energy:     0.00000000      T1 diagnostic:  0.01379177
                                                                       D1 diagnostic:  0.02764741

 Doubles amplitudes (print threshold =  0.500E-01):

         I         J         SYM. A    SYM. B    A         B      T(IJ, AB)

         4         4         2         2         1         1     -0.08371033
         5         5         3         3         1         1     -0.08371033
         5         4         3         2         1         1     -0.05278107


 Total CPU time for triples:      0.05 sec


 RESULTS
 =======

  Reference energy                    -92.953361328061
  CCSD singlet pair energy             -0.241121629201
  CCSD triplet pair energy             -0.106106097512
  CCSD correlation energy              -0.347227726714

  Triples (T) contribution             -0.017422353449
  Total correlation energy             -0.364650080163

  CCSD total energy                   -93.300589054775
  CCSD[T] energy                      -93.318775673483
  CCSD-T energy                       -93.317626109463
 !CCSD(T) total energy                -93.318011408224

 Timing summary (sec):

 STEP                 CPU(USER)    SYS     CPU(TOT)    WALL
 Transformation          0.01      0.01      0.02      0.02
 CCSD iterations         0.29      0.05      0.34      0.34
 Triples                 0.05      0.00      0.05      0.05

 Program statistics:

 Available memory in ccsd:               994999800
 Min. memory needed in ccsd:                 67993
 Max. memory used in ccsd:                   79450
 Max. memory used in cckext:                107513 (21 integral passes)



 **********************************************************************************************************************************
 DATASETS  * FILE   NREC   LENGTH (MB)   RECORD NAMES
              1      24       29.62       500      610      700      900      950      970     1000      129      960     1700   
                                          VAR    BASINP    GEOM    SYMINP    ZMAT    AOBASIS   BASIS     P2S    ABASIS    OPER   
                                         1101     1401     1411     1412     1650     1100     1400     1410     1200     1210   
                                          SR      EKINR    POTR     PVPR    MOLCAS      S      EKIN      POT      H0       H01  
                                         1300     1080     1600     1380   
                                         ERIS     AOSYM     SMH     JKOP   

              2       4        2.82       700     1000      520     2100   
                                         GEOM     BASIS   MCVARS     RHF  

 PROGRAMS   *        TOTAL   CCSD(T)        HF       INT
 CPU TIMES  *         1.08      0.39      0.07      0.54
 REAL TIME  *         1.83 SEC
 DISK USED  *        47.10 MB      
 **********************************************************************************************************************************

 CCSD(T)/cc-pVTZ-DK energy=    -93.318011408224

        CCSD(T)         HF-SCF  
    -93.31801141    -92.95336133
 **********************************************************************************************************************************
 Molpro calculation terminated
 Variable memory released
