
 Primary working directories    : /tmp/r2666/232623.maple
 Secondary working directories  : /tmp/r2666/232623.maple
 Wavefunction directory         : /ddn/home4/r2666/wfu/
 Main file repository           : /tmp/r2666/232623.maple/

 SHA1      : d5ffa45e93fdbca01ffc919aa182cfdae0147319
 NAME      : 2015.1.35
 ARCHNAME  : linux/x86_64
 FC        : /opt/intel/composer_xe_2015.1.133/bin/intel64/ifort
 BLASLIB   : -Wl,-_start-group /opt/intel/mkl/lib/intel64/libmkl_intel_ilp64.a /opt/intel/mkl/lib/intel64/libmkl_intel_thread.a /opt/intel/mkl/lib/intel64/libmkl_core.a -Wl,-_end-group
 id        : olemiss

 Nodes     nprocs
 cn093        1

 Using customized tuning parameters: mindgm=1; mindgv=20; mindgc=4; mindgr=1; noblas=0; minvec=7
 default implementation of scratch files=df  

 ***,hcn CCSD(T)/TZ-F12 QFF
 memory, 995, m;
 gthresh,energy=1.d-12,zero=1.d-22,oneint=1.d-22,twoint=1.d-22;
 gthresh,optgrad=1.d-8,optstep=1.d-8;
 nocompress;
 geomtyp=xyz
 bohr
 geometry={
 3
         12        12
 N        0.0000000000        0.0000000000        1.1121032177
 C        0.0000000000        0.0000000000       -1.0572978193
 H        0.0000000000        0.0000000000       -3.0518753804
 }
 
 basis=vtz-dk
 dkroll=1
   {hf,maxit=500;accu,20;}
 {ccsd(t),nocheck,maxit=250;orbital,IGNORE_ERROR;}

 Variables initialized (889), CPU time= 0.00 sec
 Commands  initialized (702), CPU time= 0.01 sec, 572 directives.
 Default parameters read. Elapsed time= 0.04 sec

 Checking input...
 Passed
1


                                         ***  PROGRAM SYSTEM MOLPRO  ***
                                       Copyright, TTI GmbH Stuttgart, 2015
                                    Version 2015.1 linked Jul  9 2018 13:16:40


 **********************************************************************************************************************************
 LABEL *   hcn CCSD(T)/TZ-F12 QFF                                                        
  64 bit serial version                                                                  DATE: 06-Feb-20          TIME: 09:54:40  
 **********************************************************************************************************************************

 SHA1:             d5ffa45e93fdbca01ffc919aa182cfdae0147319
 **********************************************************************************************************************************

 THRESHOLDS:

 ZERO    =  1.00D-22  ONEINT  =  1.00D-22  TWOINT  =  1.00D-22  PREFAC  =  1.00D-14  LOCALI  =  1.00D-09  EORDER  =  1.00D-04
 ENERGY  =  1.00D-12  ETEST   =  0.00D+00  EDENS   =  0.00D+00  THRDEDEF=  1.00D-06  GRADIENT=  1.00D-02  STEP    =  1.00D-03
 ORBITAL =  1.00D-05  CIVEC   =  1.00D-05  COEFF   =  1.00D-04  PRINTCI =  5.00D-02  PUNCHCI =  9.90D+01  OPTGRAD =  3.00D-04
 OPTENERG=  1.00D-06  OPTSTEP =  3.00D-04  THRGRAD =  1.00D-10  COMPRESS=  1.00D-11  VARMIN  =  1.00D-07  VARMAX  =  1.00D-03
 THRDOUB =  0.00D+00  THRDIV  =  1.00D-05  THRRED  =  1.00D-07  THRPSP  =  1.00D+00  THRDC   =  1.00D-10  THRCS   =  1.00D-10
 THRNRM  =  1.00D-08  THREQ   =  0.00D+00  THRDE   =  1.00D+00  THRREF  =  1.00D-05  SPARFAC =  1.00D+00  THRDLP  =  1.00D-07
 THRDIA  =  1.00D-10  THRDLS  =  1.00D-07  THRGPS  =  0.00D+00  THRKEX  =  0.00D+00  THRDIS  =  2.00D-01  THRVAR  =  1.00D-10
 THRLOC  =  1.00D-06  THRGAP  =  1.00D-06  THRLOCT = -1.00D+00  THRGAPT = -1.00D+00  THRORB  =  1.00D-06  THRMLTP =  0.00D+00
 THRCPQCI=  1.00D-10  KEXTA   =  0.00D+00  THRCOARS=  0.00D+00  SYMTOL  =  1.00D-06  GRADTOL =  1.00D-06  THROVL  =  1.00D-08
 THRORTH =  1.00D-08  GRID    =  1.00D-06  GRIDMAX =  1.00D-03  DTMAX   =  0.00D+00  THROCCDE=  1.00D-01  THROCCDE=  1.00D-01



 THRESHOLDS:

 ZERO    =  1.00D-22  ONEINT  =  1.00D-22  TWOINT  =  1.00D-22  PREFAC  =  1.00D-14  LOCALI  =  1.00D-09  EORDER  =  1.00D-04
 ENERGY  =  1.00D-12  ETEST   =  0.00D+00  EDENS   =  0.00D+00  THRDEDEF=  1.00D-06  GRADIENT=  1.00D-02  STEP    =  1.00D-03
 ORBITAL =  1.00D-05  CIVEC   =  1.00D-05  COEFF   =  1.00D-04  PRINTCI =  5.00D-02  PUNCHCI =  9.90D+01  OPTGRAD =  1.00D-08
 OPTENERG=  1.00D-06  OPTSTEP =  1.00D-08  THRGRAD =  1.00D-10  COMPRESS=  1.00D-11  VARMIN  =  1.00D-07  VARMAX  =  1.00D-03
 THRDOUB =  0.00D+00  THRDIV  =  1.00D-05  THRRED  =  1.00D-07  THRPSP  =  1.00D+00  THRDC   =  1.00D-10  THRCS   =  1.00D-10
 THRNRM  =  1.00D-08  THREQ   =  0.00D+00  THRDE   =  1.00D+00  THRREF  =  1.00D-05  SPARFAC =  1.00D+00  THRDLP  =  1.00D-07
 THRDIA  =  1.00D-10  THRDLS  =  1.00D-07  THRGPS  =  0.00D+00  THRKEX  =  0.00D+00  THRDIS  =  2.00D-01  THRVAR  =  1.00D-10
 THRLOC  =  1.00D-06  THRGAP  =  1.00D-06  THRLOCT = -1.00D+00  THRGAPT = -1.00D+00  THRORB  =  1.00D-06  THRMLTP =  0.00D+00
 THRCPQCI=  1.00D-10  KEXTA   =  0.00D+00  THRCOARS=  0.00D+00  SYMTOL  =  1.00D-06  GRADTOL =  1.00D-06  THROVL  =  1.00D-08
 THRORTH =  1.00D-08  GRID    =  1.00D-06  GRIDMAX =  1.00D-03  DTMAX   =  0.00D+00  THROCCDE=  1.00D-01  THROCCDE=  1.00D-01



 Input parameters for SORTINT:

 COMPRESS =    0.000000
 C_FINAL  =    1.000000
 DEBUG    =   -1.000000
 C_SORT1  =    0.000000
 C_SEWARD =    0.000000
 THRESH   =    0.000000
 IO       =  molpro                                                          
 SPRI     =    0.000000
 SETTING GEOMTYP        =    XYZ
 ZUNIT=BOHR
 

 Variable memory set to  995000000 words,  buffer space   230000 words

 SETTING BASIS          =    VTZ-DK
 SETTING DKROLL         =         1.00000000                                  


 Recomputing integrals since basis changed


 Using spherical harmonics

 Library entry N      S cc-pVTZ-DK           selected for orbital group  1
 Library entry N      P cc-pVTZ-DK           selected for orbital group  1
 Library entry N      D cc-pVTZ-DK           selected for orbital group  1
 Library entry N      F cc-pVTZ-DK           selected for orbital group  1
 Library entry C      S cc-pVTZ-DK           selected for orbital group  2
 Library entry C      P cc-pVTZ-DK           selected for orbital group  2
 Library entry C      D cc-pVTZ-DK           selected for orbital group  2
 Library entry C      F cc-pVTZ-DK           selected for orbital group  2
 Library entry H      S cc-pVTZ-DK           selected for orbital group  3
 Library entry H      P cc-pVTZ-DK           selected for orbital group  3
 Library entry H      D cc-pVTZ-DK           selected for orbital group  3


 PROGRAM * SEWARD (Integral evaluation for generally contracted gaussian basis sets)     Author: Roland Lindh, 1990

 Geometry written to block  1 of record 700


 Point group  C2v 



 ATOMIC COORDINATES

 NR  ATOM    CHARGE       X              Y              Z

   1  N       7.00    0.000000000    0.000000000    1.112103218
   2  C       6.00    0.000000000    0.000000000   -1.057297819
   3  H       1.00    0.000000000    0.000000000   -3.051875380

 Bond lengths in Bohr (Angstrom)

 1-2  2.169401037  2-3  1.994577561
     ( 1.147997590)     ( 1.055484991)

 Bond angles

  1-2-3  179.99999879

 NUCLEAR CHARGE:                   14
 NUMBER OF PRIMITIVE AOS:         111
 NUMBER OF SYMMETRY AOS:          100
 NUMBER OF CONTRACTIONS:           74   (  33A1  +  17B1  +  17B2  +   7A2  )
 NUMBER OF CORE ORBITALS:           2   (   2A1  +   0B1  +   0B2  +   0A2  )
 NUMBER OF VALENCE ORBITALS:        9   (   5A1  +   2B1  +   2B2  +   0A2  )


 NUCLEAR REPULSION ENERGY   24.04942280

 One-electron integrals computed with SEWARD

 2nd-order Douglas-Kroll-Hess method activated. Optimal DKH parametrization is used.

 Computing Douglas-Kroll / X2C integrals


         875010. INTEGRALS WRITTEN OUT IN     214 BLOCKS ON RECORD 1290 OF FILE 1


 NUMBER OF SORTED TWO-ELECTRON INTEGRALS:    1039939.     BUFFER LENGTH:  32768
 NUMBER OF SEGMENTS:   1  SEGMENT LENGTH:    1039939      RECORD LENGTH: 524288

 Memory used in sort:       1.60 MW

 SORT1 READ      875010. AND WROTE      911303. INTEGRALS IN      3 RECORDS. CPU TIME:     0.03 SEC, REAL TIME:     0.03 SEC
 SORT2 READ      911303. AND WROTE     1039939. INTEGRALS IN      1 RECORDS. CPU TIME:     0.03 SEC, REAL TIME:     0.04 SEC

 FILE SIZES:   FILE 1:    34.2 MBYTE,  FILE 4:    12.6 MBYTE,   TOTAL:     46.8 MBYTE

 OPERATOR DM      FOR CENTER  0  COORDINATES:    0.000000    0.000000    0.000000

 EXTRA SYMMETRY OF AOS IN SYMMETRY 1:   1 1 1 1 1 1 1 1 2 1   2 1 2 1 1 1 1 1 1 1   1 2 1 2 1 2 1 1 1 1   1 1 2
 EXTRA SYMMETRY OF AOS IN SYMMETRY 2:   1 1 1 1 1 1 2 1 1 1   1 1 1 2 1 1 1
 EXTRA SYMMETRY OF AOS IN SYMMETRY 3:   1 1 1 1 1 1 2 1 1 1   1 1 1 2 1 1 1

 Eigenvalues of metric

         1 0.106E-02 0.141E-02 0.242E-02 0.613E-02 0.108E-01 0.188E-01 0.290E-01 0.467E-01
         2 0.150E-01 0.359E-01 0.601E-01 0.863E-01 0.131E+00 0.278E+00 0.372E+00 0.430E+00
         3 0.150E-01 0.359E-01 0.601E-01 0.863E-01 0.131E+00 0.278E+00 0.372E+00 0.430E+00
         4 0.289E+00 0.449E+00 0.572E+00 0.839E+00 0.125E+01 0.156E+01 0.203E+01


 **********************************************************************************************************************************
 DATASETS  * FILE   NREC   LENGTH (MB)   RECORD NAMES
              1      23       27.68       500      610      700      900      950      970     1000      129      960     1700   
                                          VAR    BASINP    GEOM    SYMINP    ZMAT    AOBASIS   BASIS     P2S    ABASIS    OPER   
                                         1101     1401     1411     1412     1650     1100     1400     1410     1200     1210   
                                          SR      EKINR    POTR     PVPR    MOLCAS      S      EKIN      POT      H0       H01  
                                         1300     1080     1600   
                                         ERIS     AOSYM     SMH  

 PROGRAMS   *        TOTAL       INT
 CPU TIMES  *         0.70      0.61
 REAL TIME  *         1.32 SEC
 DISK USED  *        47.10 MB      
 **********************************************************************************************************************************


 PROGRAM * RHF-SCF (CLOSED SHELL)       Authors: W. Meyer, H.-J. Werner


 NUMBER OF ELECTRONS:       7+    7-
 CONVERGENCE THRESHOLDS:    1.00E-10 (Density)    1.00E-13 (Energy)
 MAX. NUMBER OF ITERATIONS:      500
 INTERPOLATION TYPE:            DIIS
 INTERPOLATION STEPS:              2 (START)      1 (STEP)
 LEVEL SHIFTS:                  0.00 (CLOSED)  0.00 (OPEN) 



 Orbital guess generated from atomic densities. Full valence occupancy:    7   2   2   0

 Molecular orbital dump at record        2100.2

 Initial occupancy:   5   1   1   0

 ITERATION    DDIFF          GRAD             ENERGY        2-EL.EN.            DIPOLE MOMENTS         DIIS   ORB.
    1      0.000D+00      0.000D+00       -92.92871759    112.273259    0.00000    0.00000   -1.75012    0    start
    2      0.000D+00      0.114D-01       -92.93790083    111.406918    0.00000    0.00000   -0.88737    1    diag
    3      0.189D-01      0.102D-01       -92.95230524    111.926110    0.00000    0.00000   -1.28299    2    diag
    4      0.941D-02      0.829D-03       -92.95252253    111.894232    0.00000    0.00000   -1.27432    3    diag
    5      0.150D-02      0.175D-03       -92.95253426    111.902354    0.00000    0.00000   -1.27294    4    diag
    6      0.402D-03      0.476D-04       -92.95253490    111.898070    0.00000    0.00000   -1.27309    5    diag
    7      0.855D-04      0.169D-04       -92.95253497    111.899198    0.00000    0.00000   -1.27319    6    diag
    8      0.297D-04      0.332D-05       -92.95253497    111.899139    0.00000    0.00000   -1.27317    7    diag
    9      0.556D-05      0.366D-06       -92.95253497    111.899146    0.00000    0.00000   -1.27317    8    diag
   10      0.789D-06      0.379D-07       -92.95253497    111.899146    0.00000    0.00000   -1.27317    9    orth
   11      0.734D-07      0.451D-08       -92.95253497    111.899146    0.00000    0.00000   -1.27317    9    diag
   12      0.126D-07      0.436D-09       -92.95253497    111.899146    0.00000    0.00000   -1.27317    9    diag
   13      0.176D-08      0.486D-10       -92.95253497    111.899146    0.00000    0.00000   -1.27317    9    diag
   14      0.241D-09      0.941D-11       -92.95253497    111.899146    0.00000    0.00000   -1.27317    9    diag
   15      0.497D-10      0.147D-11       -92.95253497    111.899146    0.00000    0.00000   -1.27317    9    diag
   16      0.501D-11      0.218D-12       -92.95253497    111.899146    0.00000    0.00000   -1.27317    9    diag
   17      0.430D-12      0.757D-13       -92.95253497    111.899146    0.00000    0.00000   -1.27317    9    diag
   18      0.208D-12      0.390D-13       -92.95253497    111.899146    0.00000    0.00000   -1.27317    9    diag
   19      0.874D-13      0.276D-13       -92.95253497    111.899146    0.00000    0.00000   -1.27317    0    orth

 Final occupancy:   5   1   1   0

 !RHF STATE 1.1 Energy                -92.952534970526
 Nuclear energy                        24.04942280
 One-electron energy                 -172.95153100
 Two-electron energy                   55.94957322
 Virial quotient                       -0.99844107
 !RHF STATE 1.1 Dipole moment           0.00000000     0.00000000    -1.27316577
 Dipole moment /Debye                   0.00000000     0.00000000    -3.23585266

 Orbital energies:

         1.1          2.1          3.1          4.1          5.1          6.1          7.1
    -15.604775   -11.292064    -1.238748    -0.815213    -0.581200     0.142919     0.241293

         1.2          2.2          3.2
     -0.497096     0.168494     0.446266

         1.3          2.3          3.3
     -0.497096     0.168494     0.446266

         1.4          2.4
      0.810349     1.421460

 HOMO      1.2    -0.497096 =     -13.5267eV
 LUMO      6.1     0.142919 =       3.8890eV
 LUMO-HOMO         0.640015 =      17.4157eV


 **********************************************************************************************************************************
 DATASETS  * FILE   NREC   LENGTH (MB)   RECORD NAMES
              1      23       27.68       500      610      700      900      950      970     1000      129      960     1700   
                                          VAR    BASINP    GEOM    SYMINP    ZMAT    AOBASIS   BASIS     P2S    ABASIS    OPER   
                                         1101     1401     1411     1412     1650     1100     1400     1410     1200     1210   
                                          SR      EKINR    POTR     PVPR    MOLCAS      S      EKIN      POT      H0       H01  
                                         1300     1080     1600   
                                         ERIS     AOSYM     SMH  

              2       4        2.82       700     1000      520     2100   
                                         GEOM     BASIS   MCVARS     RHF  

 PROGRAMS   *        TOTAL        HF       INT
 CPU TIMES  *         0.83      0.13      0.61
 REAL TIME  *         1.48 SEC
 DISK USED  *        47.10 MB      
 **********************************************************************************************************************************


 PROGRAM * CCSD (Closed-shell coupled cluster)     Authors: C. Hampel, H.-J. Werner, 1991, M. Deegan, P.J. Knowles, 1992


 Convergence thresholds:  THRVAR = 1.00D-08  THRDEN = 1.00D-12

 CCSD(T)     terms to be evaluated (factor= 1.000)


 Number of core orbitals:           2 (   2   0   0   0 )
 Number of closed-shell orbitals:   5 (   3   1   1   0 )
 Number of external orbitals:      67 (  28  16  16   7 )

 Molecular orbitals read from record     2100.2  Type=RHF/CANONICAL (state 1.1)

 Number of N-1 electron functions:               5
 Number of N-2 electron functions:              15
 Number of singly external CSFs:               116
 Number of doubly external CSFs:             15189
 Total number of CSFs:                       15306

 Length of J-op  integral file:               0.00 MB
 Length of K-op  integral file:               0.15 MB
 Length of 3-ext integral record:             0.00 MB

 Memory could be reduced to 0.93 Mwords without degradation in triples

 Integral transformation finished. Total CPU:   0.01 sec, npass=  1  Memory used:   0.18 MW

 Reference energy:                    -92.95253497

 MP2 singlet pair energy:              -0.21740844
 MP2 triplet pair energy:              -0.12678237
 MP2 correlation energy:               -0.34419081
 MP2 total energy:                    -93.29672578

 SCS-MP2 correlation energy:           -0.33977694   (PS=  1.200000  PT=  0.333333)
 SCS-MP2 total energy:                -93.29231191

 ITER.      SQ.NORM     CORR.ENERGY   TOTAL ENERGY   ENERGY CHANGE        DEN1      VAR(S)    VAR(P)  DIIS     TIME  TIME/IT
   1      1.11385581    -0.34776620   -93.30030117    -0.00357539     0.00899614  0.24D-02  0.29D-02  1  1     0.03     0.02
   2      1.12325180    -0.34816421   -93.30069918    -0.00039801    -0.00991511  0.48D-04  0.40D-03  2  2     0.04     0.02
   3      1.12814355    -0.34837884   -93.30091381    -0.00021463    -0.00247199  0.12D-04  0.40D-04  3  3     0.05     0.02
   4      1.13016453    -0.34847031   -93.30100529    -0.00009148    -0.00073804  0.27D-06  0.41D-05  4  4     0.06     0.02
   5      1.13060112    -0.34846624   -93.30100121     0.00000408    -0.00012335  0.95D-07  0.36D-06  5  5     0.08     0.02
   6      1.13068907    -0.34846549   -93.30100046     0.00000074    -0.00002330  0.78D-08  0.26D-07  6  6     0.10     0.02
   7      1.13069615    -0.34846762   -93.30100259    -0.00000213    -0.00000214  0.56D-09  0.22D-08  6  1     0.11     0.02
   8      1.13069652    -0.34846809   -93.30100306    -0.00000047     0.00000067  0.39D-10  0.13D-09  6  2     0.13     0.02
   9      1.13069713    -0.34846812   -93.30100309    -0.00000003    -0.00000035  0.37D-11  0.87D-11  6  3     0.14     0.02
  10      1.13069708    -0.34846814   -93.30100311    -0.00000001     0.00000009  0.25D-12  0.87D-12  6  4     0.15     0.02
  11      1.13069705    -0.34846814   -93.30100311    -0.00000000     0.00000001  0.54D-13  0.84D-13  6  5     0.16     0.02
  12      1.13069700    -0.34846814   -93.30100311    -0.00000000     0.00000002  0.29D-14  0.17D-13  6  6     0.18     0.02
  13      1.13069696    -0.34846814   -93.30100311    -0.00000000     0.00000001  0.11D-14  0.16D-14  6  2     0.20     0.02
  14      1.13069695    -0.34846814   -93.30100312    -0.00000000     0.00000000  0.13D-16  0.80D-16  6  1     0.21     0.02
  15      1.13069695    -0.34846814   -93.30100312    -0.00000000     0.00000000  0.20D-17  0.59D-17  6  4     0.23     0.02
  16      1.13069695    -0.34846814   -93.30100312    -0.00000000     0.00000000  0.89D-19  0.35D-18  6  3     0.24     0.02
  17      1.13069695    -0.34846814   -93.30100312    -0.00000000     0.00000000  0.17D-19  0.46D-19  6  5     0.26     0.02
  18      1.13069695    -0.34846814   -93.30100312    -0.00000000     0.00000000  0.91D-21  0.38D-20  6  6     0.27     0.02
  19      1.13069695    -0.34846814   -93.30100312     0.00000000    -0.00000000  0.36D-21  0.23D-21  6  2     0.28     0.02
  20      1.13069695    -0.34846814   -93.30100312     0.00000000    -0.00000000  0.24D-22  0.38D-22  6  1     0.30     0.02

 Norm of t1 vector:      0.06288667      S-energy:    -0.00000000      T1 diagnostic:  0.01406189
                                                                       D1 diagnostic:  0.02832409

 Doubles amplitudes (print threshold =  0.500E-01):

         I         J         SYM. A    SYM. B    A         B      T(IJ, AB)

         4         4         2         2         1         1     -0.08595880
         5         5         3         3         1         1     -0.08595880
         5         4         3         2         1         1     -0.05399237


 Total CPU time for triples:      0.06 sec


 RESULTS
 =======

  Reference energy                    -92.952534970526
  CCSD singlet pair energy             -0.242116496553
  CCSD triplet pair energy             -0.106351648130
  CCSD correlation energy              -0.348468144682

  Triples (T) contribution             -0.017694922776
  Total correlation energy             -0.366163067458

  CCSD total energy                   -93.301003115209
  CCSD[T] energy                      -93.319497363548
  CCSD-T energy                       -93.318297349313
 !CCSD(T) total energy                -93.318698037985

 Timing summary (sec):

 STEP                 CPU(USER)    SYS     CPU(TOT)    WALL
 Transformation          0.01      0.02      0.03      0.03
 CCSD iterations         0.30      0.10      0.40      0.40
 Triples                 0.06      0.01      0.07      0.06

 Program statistics:

 Available memory in ccsd:               994999800
 Min. memory needed in ccsd:                 67993
 Max. memory used in ccsd:                   79450
 Max. memory used in cckext:                107513 (20 integral passes)



 **********************************************************************************************************************************
 DATASETS  * FILE   NREC   LENGTH (MB)   RECORD NAMES
              1      24       29.62       500      610      700      900      950      970     1000      129      960     1700   
                                          VAR    BASINP    GEOM    SYMINP    ZMAT    AOBASIS   BASIS     P2S    ABASIS    OPER   
                                         1101     1401     1411     1412     1650     1100     1400     1410     1200     1210   
                                          SR      EKINR    POTR     PVPR    MOLCAS      S      EKIN      POT      H0       H01  
                                         1300     1080     1600     1380   
                                         ERIS     AOSYM     SMH     JKOP   

              2       4        2.82       700     1000      520     2100   
                                         GEOM     BASIS   MCVARS     RHF  

 PROGRAMS   *        TOTAL   CCSD(T)        HF       INT
 CPU TIMES  *         1.21      0.38      0.13      0.61
 REAL TIME  *         2.01 SEC
 DISK USED  *        47.10 MB      
 **********************************************************************************************************************************

 CCSD(T)/cc-pVTZ-DK energy=    -93.318698037985

        CCSD(T)         HF-SCF  
    -93.31869804    -92.95253497
 **********************************************************************************************************************************
 Molpro calculation terminated
 Variable memory released
