
 Primary working directories    : /tmp/r2666/232653.maple
 Secondary working directories  : /tmp/r2666/232653.maple
 Wavefunction directory         : /ddn/home4/r2666/wfu/
 Main file repository           : /tmp/r2666/232653.maple/

 SHA1      : d5ffa45e93fdbca01ffc919aa182cfdae0147319
 NAME      : 2015.1.35
 ARCHNAME  : linux/x86_64
 FC        : /opt/intel/composer_xe_2015.1.133/bin/intel64/ifort
 BLASLIB   : -Wl,-_start-group /opt/intel/mkl/lib/intel64/libmkl_intel_ilp64.a /opt/intel/mkl/lib/intel64/libmkl_intel_thread.a /opt/intel/mkl/lib/intel64/libmkl_core.a -Wl,-_end-group
 id        : olemiss

 Nodes     nprocs
 cn078        1

 Using customized tuning parameters: mindgm=1; mindgv=20; mindgc=4; mindgr=1; noblas=0; minvec=7
 default implementation of scratch files=df  

 ***,hcn CCSD(T)/TZ-F12 QFF
 memory, 995, m;
 gthresh,energy=1.d-12,zero=1.d-22,oneint=1.d-22,twoint=1.d-22;
 gthresh,optgrad=1.d-8,optstep=1.d-8;
 nocompress;
 geomtyp=xyz
 bohr
 geometry={
 3
         42        42
 N        0.0000000000        0.0000000000        1.1341500209
 C        0.0000000000        0.0000000000       -1.0541482760
 H        0.0000000000        0.0000000000       -3.0770717269
 }
 
 basis=vtz-dk
 dkroll=1
   {hf,maxit=500;accu,20;}
 {ccsd(t),nocheck,maxit=250;orbital,IGNORE_ERROR;}

 Variables initialized (889), CPU time= 0.01 sec
 Commands  initialized (702), CPU time= 0.02 sec, 572 directives.
 Default parameters read. Elapsed time= 0.12 sec

 Checking input...
 Passed
1


                                         ***  PROGRAM SYSTEM MOLPRO  ***
                                       Copyright, TTI GmbH Stuttgart, 2015
                                    Version 2015.1 linked Jul  9 2018 13:16:40


 **********************************************************************************************************************************
 LABEL *   hcn CCSD(T)/TZ-F12 QFF                                                        
  64 bit serial version                                                                  DATE: 06-Feb-20          TIME: 09:54:43  
 **********************************************************************************************************************************

 SHA1:             d5ffa45e93fdbca01ffc919aa182cfdae0147319
 **********************************************************************************************************************************

 THRESHOLDS:

 ZERO    =  1.00D-22  ONEINT  =  1.00D-22  TWOINT  =  1.00D-22  PREFAC  =  1.00D-14  LOCALI  =  1.00D-09  EORDER  =  1.00D-04
 ENERGY  =  1.00D-12  ETEST   =  0.00D+00  EDENS   =  0.00D+00  THRDEDEF=  1.00D-06  GRADIENT=  1.00D-02  STEP    =  1.00D-03
 ORBITAL =  1.00D-05  CIVEC   =  1.00D-05  COEFF   =  1.00D-04  PRINTCI =  5.00D-02  PUNCHCI =  9.90D+01  OPTGRAD =  3.00D-04
 OPTENERG=  1.00D-06  OPTSTEP =  3.00D-04  THRGRAD =  1.00D-10  COMPRESS=  1.00D-11  VARMIN  =  1.00D-07  VARMAX  =  1.00D-03
 THRDOUB =  0.00D+00  THRDIV  =  1.00D-05  THRRED  =  1.00D-07  THRPSP  =  1.00D+00  THRDC   =  1.00D-10  THRCS   =  1.00D-10
 THRNRM  =  1.00D-08  THREQ   =  0.00D+00  THRDE   =  1.00D+00  THRREF  =  1.00D-05  SPARFAC =  1.00D+00  THRDLP  =  1.00D-07
 THRDIA  =  1.00D-10  THRDLS  =  1.00D-07  THRGPS  =  0.00D+00  THRKEX  =  0.00D+00  THRDIS  =  2.00D-01  THRVAR  =  1.00D-10
 THRLOC  =  1.00D-06  THRGAP  =  1.00D-06  THRLOCT = -1.00D+00  THRGAPT = -1.00D+00  THRORB  =  1.00D-06  THRMLTP =  0.00D+00
 THRCPQCI=  1.00D-10  KEXTA   =  0.00D+00  THRCOARS=  0.00D+00  SYMTOL  =  1.00D-06  GRADTOL =  1.00D-06  THROVL  =  1.00D-08
 THRORTH =  1.00D-08  GRID    =  1.00D-06  GRIDMAX =  1.00D-03  DTMAX   =  0.00D+00  THROCCDE=  1.00D-01  THROCCDE=  1.00D-01



 THRESHOLDS:

 ZERO    =  1.00D-22  ONEINT  =  1.00D-22  TWOINT  =  1.00D-22  PREFAC  =  1.00D-14  LOCALI  =  1.00D-09  EORDER  =  1.00D-04
 ENERGY  =  1.00D-12  ETEST   =  0.00D+00  EDENS   =  0.00D+00  THRDEDEF=  1.00D-06  GRADIENT=  1.00D-02  STEP    =  1.00D-03
 ORBITAL =  1.00D-05  CIVEC   =  1.00D-05  COEFF   =  1.00D-04  PRINTCI =  5.00D-02  PUNCHCI =  9.90D+01  OPTGRAD =  1.00D-08
 OPTENERG=  1.00D-06  OPTSTEP =  1.00D-08  THRGRAD =  1.00D-10  COMPRESS=  1.00D-11  VARMIN  =  1.00D-07  VARMAX  =  1.00D-03
 THRDOUB =  0.00D+00  THRDIV  =  1.00D-05  THRRED  =  1.00D-07  THRPSP  =  1.00D+00  THRDC   =  1.00D-10  THRCS   =  1.00D-10
 THRNRM  =  1.00D-08  THREQ   =  0.00D+00  THRDE   =  1.00D+00  THRREF  =  1.00D-05  SPARFAC =  1.00D+00  THRDLP  =  1.00D-07
 THRDIA  =  1.00D-10  THRDLS  =  1.00D-07  THRGPS  =  0.00D+00  THRKEX  =  0.00D+00  THRDIS  =  2.00D-01  THRVAR  =  1.00D-10
 THRLOC  =  1.00D-06  THRGAP  =  1.00D-06  THRLOCT = -1.00D+00  THRGAPT = -1.00D+00  THRORB  =  1.00D-06  THRMLTP =  0.00D+00
 THRCPQCI=  1.00D-10  KEXTA   =  0.00D+00  THRCOARS=  0.00D+00  SYMTOL  =  1.00D-06  GRADTOL =  1.00D-06  THROVL  =  1.00D-08
 THRORTH =  1.00D-08  GRID    =  1.00D-06  GRIDMAX =  1.00D-03  DTMAX   =  0.00D+00  THROCCDE=  1.00D-01  THROCCDE=  1.00D-01



 Input parameters for SORTINT:

 COMPRESS =    0.000000
 C_FINAL  =    1.000000
 DEBUG    =   -1.000000
 C_SORT1  =    0.000000
 C_SEWARD =    0.000000
 THRESH   =    0.000000
 IO       =  molpro                                                          
 SPRI     =    0.000000
 SETTING GEOMTYP        =    XYZ
 ZUNIT=BOHR
 

 Variable memory set to  995000000 words,  buffer space   230000 words

 SETTING BASIS          =    VTZ-DK
 SETTING DKROLL         =         1.00000000                                  


 Recomputing integrals since basis changed


 Using spherical harmonics

 Library entry N      S cc-pVTZ-DK           selected for orbital group  1
 Library entry N      P cc-pVTZ-DK           selected for orbital group  1
 Library entry N      D cc-pVTZ-DK           selected for orbital group  1
 Library entry N      F cc-pVTZ-DK           selected for orbital group  1
 Library entry C      S cc-pVTZ-DK           selected for orbital group  2
 Library entry C      P cc-pVTZ-DK           selected for orbital group  2
 Library entry C      D cc-pVTZ-DK           selected for orbital group  2
 Library entry C      F cc-pVTZ-DK           selected for orbital group  2
 Library entry H      S cc-pVTZ-DK           selected for orbital group  3
 Library entry H      P cc-pVTZ-DK           selected for orbital group  3
 Library entry H      D cc-pVTZ-DK           selected for orbital group  3


 PROGRAM * SEWARD (Integral evaluation for generally contracted gaussian basis sets)     Author: Roland Lindh, 1990

 Geometry written to block  1 of record 700


 Point group  C2v 



 ATOMIC COORDINATES

 NR  ATOM    CHARGE       X              Y              Z

   1  N       7.00    0.000000000    0.000000000    1.134150021
   2  C       6.00    0.000000000    0.000000000   -1.054148276
   3  H       1.00    0.000000000    0.000000000   -3.077071727

 Bond lengths in Bohr (Angstrom)

 1-2  2.188298297  2-3  2.022923451
     ( 1.157997589)     ( 1.070484990)

 Bond angles

  1-2-3  180.00000000

 NUCLEAR CHARGE:                   14
 NUMBER OF PRIMITIVE AOS:         111
 NUMBER OF SYMMETRY AOS:          100
 NUMBER OF CONTRACTIONS:           74   (  33A1  +  17B1  +  17B2  +   7A2  )
 NUMBER OF CORE ORBITALS:           2   (   2A1  +   0B1  +   0B2  +   0A2  )
 NUMBER OF VALENCE ORBITALS:        9   (   5A1  +   2B1  +   2B2  +   0A2  )


 NUCLEAR REPULSION ENERGY   23.82122572

 One-electron integrals computed with SEWARD

 2nd-order Douglas-Kroll-Hess method activated. Optimal DKH parametrization is used.

 Computing Douglas-Kroll / X2C integrals


         875096. INTEGRALS WRITTEN OUT IN     214 BLOCKS ON RECORD 1290 OF FILE 1


 NUMBER OF SORTED TWO-ELECTRON INTEGRALS:    1039939.     BUFFER LENGTH:  32768
 NUMBER OF SEGMENTS:   1  SEGMENT LENGTH:    1039939      RECORD LENGTH: 524288

 Memory used in sort:       1.60 MW

 SORT1 READ      875096. AND WROTE      911399. INTEGRALS IN      3 RECORDS. CPU TIME:     0.03 SEC, REAL TIME:     0.03 SEC
 SORT2 READ      911399. AND WROTE     1039939. INTEGRALS IN      1 RECORDS. CPU TIME:     0.04 SEC, REAL TIME:     0.05 SEC

 FILE SIZES:   FILE 1:    34.2 MBYTE,  FILE 4:    12.6 MBYTE,   TOTAL:     46.8 MBYTE

 OPERATOR DM      FOR CENTER  0  COORDINATES:    0.000000    0.000000    0.000000

 EXTRA SYMMETRY OF AOS IN SYMMETRY 1:   1 1 1 1 1 1 1 1 2 1   2 1 2 1 1 1 1 1 1 1   1 2 1 2 1 2 1 1 1 1   1 1 2
 EXTRA SYMMETRY OF AOS IN SYMMETRY 2:   1 1 1 1 1 1 2 1 1 1   1 1 1 2 1 1 1
 EXTRA SYMMETRY OF AOS IN SYMMETRY 3:   1 1 1 1 1 1 2 1 1 1   1 1 1 2 1 1 1

 Eigenvalues of metric

         1 0.110E-02 0.147E-02 0.247E-02 0.642E-02 0.110E-01 0.195E-01 0.294E-01 0.476E-01
         2 0.156E-01 0.365E-01 0.611E-01 0.903E-01 0.133E+00 0.288E+00 0.379E+00 0.431E+00
         3 0.156E-01 0.365E-01 0.611E-01 0.903E-01 0.133E+00 0.288E+00 0.379E+00 0.431E+00
         4 0.294E+00 0.456E+00 0.575E+00 0.849E+00 0.125E+01 0.155E+01 0.202E+01


 **********************************************************************************************************************************
 DATASETS  * FILE   NREC   LENGTH (MB)   RECORD NAMES
              1      23       27.68       500      610      700      900      950      970     1000      129      960     1700   
                                          VAR    BASINP    GEOM    SYMINP    ZMAT    AOBASIS   BASIS     P2S    ABASIS    OPER   
                                         1101     1401     1411     1412     1650     1100     1400     1410     1200     1210   
                                          SR      EKINR    POTR     PVPR    MOLCAS      S      EKIN      POT      H0       H01  
                                         1300     1080     1600   
                                         ERIS     AOSYM     SMH  

 PROGRAMS   *        TOTAL       INT
 CPU TIMES  *         0.70      0.55
 REAL TIME  *         1.26 SEC
 DISK USED  *        47.10 MB      
 **********************************************************************************************************************************


 PROGRAM * RHF-SCF (CLOSED SHELL)       Authors: W. Meyer, H.-J. Werner


 NUMBER OF ELECTRONS:       7+    7-
 CONVERGENCE THRESHOLDS:    1.00E-10 (Density)    1.00E-13 (Energy)
 MAX. NUMBER OF ITERATIONS:      500
 INTERPOLATION TYPE:            DIIS
 INTERPOLATION STEPS:              2 (START)      1 (STEP)
 LEVEL SHIFTS:                  0.00 (CLOSED)  0.00 (OPEN) 



 Orbital guess generated from atomic densities. Full valence occupancy:    7   2   2   0

 Molecular orbital dump at record        2100.2

 Initial occupancy:   5   1   1   0

 ITERATION    DDIFF          GRAD             ENERGY        2-EL.EN.            DIPOLE MOMENTS         DIIS   ORB.
    1      0.000D+00      0.000D+00       -92.92654394    111.805830    0.00000    0.00000   -1.77672    0    start
    2      0.000D+00      0.116D-01       -92.93533517    110.981268    0.00000    0.00000   -0.87971    1    diag
    3      0.191D-01      0.105D-01       -92.95072724    111.501380    0.00000    0.00000   -1.29320    2    diag
    4      0.961D-02      0.831D-03       -92.95094792    111.464239    0.00000    0.00000   -1.28459    3    diag
    5      0.151D-02      0.184D-03       -92.95096046    111.475503    0.00000    0.00000   -1.28325    4    diag
    6      0.407D-03      0.516D-04       -92.95096127    111.470437    0.00000    0.00000   -1.28327    5    diag
    7      0.965D-04      0.188D-04       -92.95096135    111.471541    0.00000    0.00000   -1.28341    6    diag
    8      0.329D-04      0.359D-05       -92.95096135    111.471489    0.00000    0.00000   -1.28339    7    diag
    9      0.607D-05      0.390D-06       -92.95096135    111.471496    0.00000    0.00000   -1.28339    8    diag
   10      0.845D-06      0.385D-07       -92.95096135    111.471497    0.00000    0.00000   -1.28339    9    orth
   11      0.748D-07      0.441D-08       -92.95096135    111.471497    0.00000    0.00000   -1.28339    9    diag
   12      0.129D-07      0.377D-09       -92.95096135    111.471497    0.00000    0.00000   -1.28339    9    diag
   13      0.161D-08      0.433D-10       -92.95096135    111.471497    0.00000    0.00000   -1.28339    9    diag
   14      0.243D-09      0.893D-11       -92.95096135    111.471497    0.00000    0.00000   -1.28339    9    diag
   15      0.426D-10      0.104D-11       -92.95096135    111.471497    0.00000    0.00000   -1.28339    0    orth

 Final occupancy:   5   1   1   0

 !RHF STATE 1.1 Energy                -92.950961350092
 Nuclear energy                        23.82122572
 One-electron energy                 -172.50793536
 Two-electron energy                   55.73574829
 Virial quotient                       -0.99927244
 !RHF STATE 1.1 Dipole moment           0.00000000     0.00000000    -1.28338863
 Dipole moment /Debye                   0.00000000     0.00000000    -3.26183488

 Orbital energies:

         1.1          2.1          3.1          4.1          5.1          6.1          7.1
    -15.608036   -11.296761    -1.233809    -0.810798    -0.581173     0.141165     0.240176

         1.2          2.2          3.2
     -0.493821     0.165492     0.446672

         1.3          2.3          3.3
     -0.493821     0.165492     0.446672

         1.4          2.4
      0.810554     1.418873

 HOMO      1.2    -0.493821 =     -13.4376eV
 LUMO      6.1     0.141165 =       3.8413eV
 LUMO-HOMO         0.634986 =      17.2788eV


 **********************************************************************************************************************************
 DATASETS  * FILE   NREC   LENGTH (MB)   RECORD NAMES
              1      23       27.68       500      610      700      900      950      970     1000      129      960     1700   
                                          VAR    BASINP    GEOM    SYMINP    ZMAT    AOBASIS   BASIS     P2S    ABASIS    OPER   
                                         1101     1401     1411     1412     1650     1100     1400     1410     1200     1210   
                                          SR      EKINR    POTR     PVPR    MOLCAS      S      EKIN      POT      H0       H01  
                                         1300     1080     1600   
                                         ERIS     AOSYM     SMH  

              2       4        2.82       700     1000      520     2100   
                                         GEOM     BASIS   MCVARS     RHF  

 PROGRAMS   *        TOTAL        HF       INT
 CPU TIMES  *         0.79      0.09      0.55
 REAL TIME  *         1.36 SEC
 DISK USED  *        47.10 MB      
 **********************************************************************************************************************************


 PROGRAM * CCSD (Closed-shell coupled cluster)     Authors: C. Hampel, H.-J. Werner, 1991, M. Deegan, P.J. Knowles, 1992


 Convergence thresholds:  THRVAR = 1.00D-08  THRDEN = 1.00D-12

 CCSD(T)     terms to be evaluated (factor= 1.000)


 Number of core orbitals:           2 (   2   0   0   0 )
 Number of closed-shell orbitals:   5 (   3   1   1   0 )
 Number of external orbitals:      67 (  28  16  16   7 )

 Molecular orbitals read from record     2100.2  Type=RHF/CANONICAL (state 1.1)

 Number of N-1 electron functions:               5
 Number of N-2 electron functions:              15
 Number of singly external CSFs:               116
 Number of doubly external CSFs:             15189
 Total number of CSFs:                       15306

 Length of J-op  integral file:               0.00 MB
 Length of K-op  integral file:               0.15 MB
 Length of 3-ext integral record:             0.00 MB

 Memory could be reduced to 0.93 Mwords without degradation in triples

 Integral transformation finished. Total CPU:   0.01 sec, npass=  1  Memory used:   0.18 MW

 Reference energy:                    -92.95096135

 MP2 singlet pair energy:              -0.21864174
 MP2 triplet pair energy:              -0.12769272
 MP2 correlation energy:               -0.34633446
 MP2 total energy:                    -93.29729581

 SCS-MP2 correlation energy:           -0.34182334   (PS=  1.200000  PT=  0.333333)
 SCS-MP2 total energy:                -93.29278469

 ITER.      SQ.NORM     CORR.ENERGY   TOTAL ENERGY   ENERGY CHANGE        DEN1      VAR(S)    VAR(P)  DIIS     TIME  TIME/IT
   1      1.11537055    -0.34940519   -93.30036654    -0.00307072     0.00994178  0.26D-02  0.31D-02  1  1     0.03     0.02
   2      1.12506395    -0.34973758   -93.30069893    -0.00033240    -0.01017213  0.51D-04  0.42D-03  2  2     0.05     0.02
   3      1.13020180    -0.34996729   -93.30092864    -0.00022971    -0.00256562  0.13D-04  0.43D-04  3  3     0.06     0.02
   4      1.13234862    -0.35006637   -93.30102772    -0.00009908    -0.00077444  0.30D-06  0.46D-05  4  4     0.08     0.02
   5      1.13282013    -0.35006292   -93.30102427     0.00000346    -0.00013129  0.11D-06  0.42D-06  5  5     0.10     0.02
   6      1.13292134    -0.35006177   -93.30102312     0.00000115    -0.00002658  0.91D-08  0.30D-07  6  6     0.11     0.02
   7      1.13292950    -0.35006414   -93.30102549    -0.00000237    -0.00000239  0.61D-09  0.26D-08  6  1     0.13     0.02
   8      1.13293001    -0.35006464   -93.30102599    -0.00000050     0.00000067  0.44D-10  0.15D-09  6  2     0.14     0.02
   9      1.13293070    -0.35006467   -93.30102602    -0.00000003    -0.00000039  0.47D-11  0.10D-10  6  3     0.15     0.02
  10      1.13293064    -0.35006469   -93.30102604    -0.00000002     0.00000010  0.29D-12  0.11D-11  6  4     0.17     0.02
  11      1.13293060    -0.35006469   -93.30102604    -0.00000000     0.00000001  0.83D-13  0.99D-13  6  5     0.18     0.02
  12      1.13293054    -0.35006470   -93.30102605    -0.00000000     0.00000003  0.45D-14  0.21D-13  6  6     0.20     0.02
  13      1.13293050    -0.35006470   -93.30102605    -0.00000000     0.00000001  0.18D-14  0.20D-14  6  2     0.21     0.02
  14      1.13293049    -0.35006470   -93.30102605    -0.00000000     0.00000000  0.18D-16  0.11D-15  6  1     0.23     0.02
  15      1.13293048    -0.35006470   -93.30102605    -0.00000000     0.00000000  0.17D-17  0.83D-17  6  4     0.24     0.02
  16      1.13293048    -0.35006470   -93.30102605    -0.00000000     0.00000000  0.21D-18  0.46D-18  6  3     0.26     0.02
  17      1.13293048    -0.35006470   -93.30102605    -0.00000000     0.00000000  0.18D-19  0.67D-19  6  5     0.28     0.02
  18      1.13293048    -0.35006470   -93.30102605    -0.00000000     0.00000000  0.38D-20  0.47D-20  6  6     0.29     0.02
  19      1.13293048    -0.35006470   -93.30102605     0.00000000    -0.00000000  0.26D-21  0.47D-21  6  2     0.30     0.02
  20      1.13293048    -0.35006470   -93.30102605     0.00000000    -0.00000000  0.45D-22  0.66D-22  6  1     0.32     0.02

 Norm of t1 vector:      0.06436966      S-energy:     0.00000000      T1 diagnostic:  0.01439349
                                                                       D1 diagnostic:  0.02897500

 Doubles amplitudes (print threshold =  0.500E-01):

         I         J         SYM. A    SYM. B    A         B      T(IJ, AB)

         4         4         2         2         1         1     -0.08794595
         5         5         3         3         1         1     -0.08794595
         5         4         3         2         1         1     -0.05502581


 Total CPU time for triples:      0.06 sec


 RESULTS
 =======

  Reference energy                    -92.950961350092
  CCSD singlet pair energy             -0.243495848700
  CCSD triplet pair energy             -0.106568851381
  CCSD correlation energy              -0.350064700080

  Triples (T) contribution             -0.018046068640
  Total correlation energy             -0.368110768720

  CCSD total energy                   -93.301026050172
  CCSD[T] energy                      -93.319913032456
  CCSD-T energy                       -93.318653930425
 !CCSD(T) total energy                -93.319072118812

 Timing summary (sec):

 STEP                 CPU(USER)    SYS     CPU(TOT)    WALL
 Transformation          0.01      0.00      0.01      0.02
 CCSD iterations         0.31      0.04      0.35      0.35
 Triples                 0.06      0.00      0.06      0.06

 Program statistics:

 Available memory in ccsd:               994999800
 Min. memory needed in ccsd:                 67993
 Max. memory used in ccsd:                   79450
 Max. memory used in cckext:                107513 (20 integral passes)



 **********************************************************************************************************************************
 DATASETS  * FILE   NREC   LENGTH (MB)   RECORD NAMES
              1      24       29.62       500      610      700      900      950      970     1000      129      960     1700   
                                          VAR    BASINP    GEOM    SYMINP    ZMAT    AOBASIS   BASIS     P2S    ABASIS    OPER   
                                         1101     1401     1411     1412     1650     1100     1400     1410     1200     1210   
                                          SR      EKINR    POTR     PVPR    MOLCAS      S      EKIN      POT      H0       H01  
                                         1300     1080     1600     1380   
                                         ERIS     AOSYM     SMH     JKOP   

              2       4        2.82       700     1000      520     2100   
                                         GEOM     BASIS   MCVARS     RHF  

 PROGRAMS   *        TOTAL   CCSD(T)        HF       INT
 CPU TIMES  *         1.19      0.40      0.09      0.55
 REAL TIME  *         1.82 SEC
 DISK USED  *        47.10 MB      
 **********************************************************************************************************************************

 CCSD(T)/cc-pVTZ-DK energy=    -93.319072118812

        CCSD(T)         HF-SCF  
    -93.31907212    -92.95096135
 **********************************************************************************************************************************
 Molpro calculation terminated
 Variable memory released
