
 Primary working directories    : /tmp/r2666/232631.maple
 Secondary working directories  : /tmp/r2666/232631.maple
 Wavefunction directory         : /ddn/home4/r2666/wfu/
 Main file repository           : /tmp/r2666/232631.maple/

 SHA1      : d5ffa45e93fdbca01ffc919aa182cfdae0147319
 NAME      : 2015.1.35
 ARCHNAME  : linux/x86_64
 FC        : /opt/intel/composer_xe_2015.1.133/bin/intel64/ifort
 BLASLIB   : -Wl,-_start-group /opt/intel/mkl/lib/intel64/libmkl_intel_ilp64.a /opt/intel/mkl/lib/intel64/libmkl_intel_thread.a /opt/intel/mkl/lib/intel64/libmkl_core.a -Wl,-_end-group
 id        : olemiss

 Nodes     nprocs
 cn076        1

 Using customized tuning parameters: mindgm=1; mindgv=20; mindgc=4; mindgr=1; noblas=0; minvec=7
 default implementation of scratch files=df  

 ***,hcn CCSD(T)/TZ-F12 QFF
 memory, 995, m;
 gthresh,energy=1.d-12,zero=1.d-22,oneint=1.d-22,twoint=1.d-22;
 gthresh,optgrad=1.d-8,optstep=1.d-8;
 nocompress;
 geomtyp=xyz
 bohr
 geometry={
 3
         20        20
 N        0.0000000000        0.0000000000        1.1278509343
 C        0.0000000000        0.0000000000       -1.0415501027
 H        0.0000000000        0.0000000000       -3.0833708136
 }
 
 basis=vtz-dk
 dkroll=1
   {hf,maxit=500;accu,20;}
 {ccsd(t),nocheck,maxit=250;orbital,IGNORE_ERROR;}

 Variables initialized (889), CPU time= 0.01 sec
 Commands  initialized (702), CPU time= 0.01 sec, 572 directives.
 Default parameters read. Elapsed time= 0.06 sec

 Checking input...
 Passed
1


                                         ***  PROGRAM SYSTEM MOLPRO  ***
                                       Copyright, TTI GmbH Stuttgart, 2015
                                    Version 2015.1 linked Jul  9 2018 13:16:40


 **********************************************************************************************************************************
 LABEL *   hcn CCSD(T)/TZ-F12 QFF                                                        
  64 bit serial version                                                                  DATE: 06-Feb-20          TIME: 09:54:40  
 **********************************************************************************************************************************

 SHA1:             d5ffa45e93fdbca01ffc919aa182cfdae0147319
 **********************************************************************************************************************************

 THRESHOLDS:

 ZERO    =  1.00D-22  ONEINT  =  1.00D-22  TWOINT  =  1.00D-22  PREFAC  =  1.00D-14  LOCALI  =  1.00D-09  EORDER  =  1.00D-04
 ENERGY  =  1.00D-12  ETEST   =  0.00D+00  EDENS   =  0.00D+00  THRDEDEF=  1.00D-06  GRADIENT=  1.00D-02  STEP    =  1.00D-03
 ORBITAL =  1.00D-05  CIVEC   =  1.00D-05  COEFF   =  1.00D-04  PRINTCI =  5.00D-02  PUNCHCI =  9.90D+01  OPTGRAD =  3.00D-04
 OPTENERG=  1.00D-06  OPTSTEP =  3.00D-04  THRGRAD =  1.00D-10  COMPRESS=  1.00D-11  VARMIN  =  1.00D-07  VARMAX  =  1.00D-03
 THRDOUB =  0.00D+00  THRDIV  =  1.00D-05  THRRED  =  1.00D-07  THRPSP  =  1.00D+00  THRDC   =  1.00D-10  THRCS   =  1.00D-10
 THRNRM  =  1.00D-08  THREQ   =  0.00D+00  THRDE   =  1.00D+00  THRREF  =  1.00D-05  SPARFAC =  1.00D+00  THRDLP  =  1.00D-07
 THRDIA  =  1.00D-10  THRDLS  =  1.00D-07  THRGPS  =  0.00D+00  THRKEX  =  0.00D+00  THRDIS  =  2.00D-01  THRVAR  =  1.00D-10
 THRLOC  =  1.00D-06  THRGAP  =  1.00D-06  THRLOCT = -1.00D+00  THRGAPT = -1.00D+00  THRORB  =  1.00D-06  THRMLTP =  0.00D+00
 THRCPQCI=  1.00D-10  KEXTA   =  0.00D+00  THRCOARS=  0.00D+00  SYMTOL  =  1.00D-06  GRADTOL =  1.00D-06  THROVL  =  1.00D-08
 THRORTH =  1.00D-08  GRID    =  1.00D-06  GRIDMAX =  1.00D-03  DTMAX   =  0.00D+00  THROCCDE=  1.00D-01  THROCCDE=  1.00D-01



 THRESHOLDS:

 ZERO    =  1.00D-22  ONEINT  =  1.00D-22  TWOINT  =  1.00D-22  PREFAC  =  1.00D-14  LOCALI  =  1.00D-09  EORDER  =  1.00D-04
 ENERGY  =  1.00D-12  ETEST   =  0.00D+00  EDENS   =  0.00D+00  THRDEDEF=  1.00D-06  GRADIENT=  1.00D-02  STEP    =  1.00D-03
 ORBITAL =  1.00D-05  CIVEC   =  1.00D-05  COEFF   =  1.00D-04  PRINTCI =  5.00D-02  PUNCHCI =  9.90D+01  OPTGRAD =  1.00D-08
 OPTENERG=  1.00D-06  OPTSTEP =  1.00D-08  THRGRAD =  1.00D-10  COMPRESS=  1.00D-11  VARMIN  =  1.00D-07  VARMAX  =  1.00D-03
 THRDOUB =  0.00D+00  THRDIV  =  1.00D-05  THRRED  =  1.00D-07  THRPSP  =  1.00D+00  THRDC   =  1.00D-10  THRCS   =  1.00D-10
 THRNRM  =  1.00D-08  THREQ   =  0.00D+00  THRDE   =  1.00D+00  THRREF  =  1.00D-05  SPARFAC =  1.00D+00  THRDLP  =  1.00D-07
 THRDIA  =  1.00D-10  THRDLS  =  1.00D-07  THRGPS  =  0.00D+00  THRKEX  =  0.00D+00  THRDIS  =  2.00D-01  THRVAR  =  1.00D-10
 THRLOC  =  1.00D-06  THRGAP  =  1.00D-06  THRLOCT = -1.00D+00  THRGAPT = -1.00D+00  THRORB  =  1.00D-06  THRMLTP =  0.00D+00
 THRCPQCI=  1.00D-10  KEXTA   =  0.00D+00  THRCOARS=  0.00D+00  SYMTOL  =  1.00D-06  GRADTOL =  1.00D-06  THROVL  =  1.00D-08
 THRORTH =  1.00D-08  GRID    =  1.00D-06  GRIDMAX =  1.00D-03  DTMAX   =  0.00D+00  THROCCDE=  1.00D-01  THROCCDE=  1.00D-01



 Input parameters for SORTINT:

 COMPRESS =    0.000000
 C_FINAL  =    1.000000
 DEBUG    =   -1.000000
 C_SORT1  =    0.000000
 C_SEWARD =    0.000000
 THRESH   =    0.000000
 IO       =  molpro                                                          
 SPRI     =    0.000000
 SETTING GEOMTYP        =    XYZ
 ZUNIT=BOHR
 

 Variable memory set to  995000000 words,  buffer space   230000 words

 SETTING BASIS          =    VTZ-DK
 SETTING DKROLL         =         1.00000000                                  


 Recomputing integrals since basis changed


 Using spherical harmonics

 Library entry N      S cc-pVTZ-DK           selected for orbital group  1
 Library entry N      P cc-pVTZ-DK           selected for orbital group  1
 Library entry N      D cc-pVTZ-DK           selected for orbital group  1
 Library entry N      F cc-pVTZ-DK           selected for orbital group  1
 Library entry C      S cc-pVTZ-DK           selected for orbital group  2
 Library entry C      P cc-pVTZ-DK           selected for orbital group  2
 Library entry C      D cc-pVTZ-DK           selected for orbital group  2
 Library entry C      F cc-pVTZ-DK           selected for orbital group  2
 Library entry H      S cc-pVTZ-DK           selected for orbital group  3
 Library entry H      P cc-pVTZ-DK           selected for orbital group  3
 Library entry H      D cc-pVTZ-DK           selected for orbital group  3


 PROGRAM * SEWARD (Integral evaluation for generally contracted gaussian basis sets)     Author: Roland Lindh, 1990

 Geometry written to block  1 of record 700


 Point group  C2v 



 ATOMIC COORDINATES

 NR  ATOM    CHARGE       X              Y              Z

   1  N       7.00    0.000000000    0.000000000    1.127850934
   2  C       6.00    0.000000000    0.000000000   -1.041550103
   3  H       1.00    0.000000000    0.000000000   -3.083370814

 Bond lengths in Bohr (Angstrom)

 1-2  2.169401037  2-3  2.041820711
     ( 1.147997590)     ( 1.080484989)

 Bond angles

  1-2-3  179.99999829

 NUCLEAR CHARGE:                   14
 NUMBER OF PRIMITIVE AOS:         111
 NUMBER OF SYMMETRY AOS:          100
 NUMBER OF CONTRACTIONS:           74   (  33A1  +  17B1  +  17B2  +   7A2  )
 NUMBER OF CORE ORBITALS:           2   (   2A1  +   0B1  +   0B2  +   0A2  )
 NUMBER OF VALENCE ORBITALS:        9   (   5A1  +   2B1  +   2B2  +   0A2  )


 NUCLEAR REPULSION ENERGY   23.96096176

 One-electron integrals computed with SEWARD

 2nd-order Douglas-Kroll-Hess method activated. Optimal DKH parametrization is used.

 Computing Douglas-Kroll / X2C integrals


         875261. INTEGRALS WRITTEN OUT IN     214 BLOCKS ON RECORD 1290 OF FILE 1


 NUMBER OF SORTED TWO-ELECTRON INTEGRALS:    1039939.     BUFFER LENGTH:  32768
 NUMBER OF SEGMENTS:   1  SEGMENT LENGTH:    1039939      RECORD LENGTH: 524288

 Memory used in sort:       1.60 MW

 SORT1 READ      875261. AND WROTE      911563. INTEGRALS IN      3 RECORDS. CPU TIME:     0.02 SEC, REAL TIME:     0.02 SEC
 SORT2 READ      911563. AND WROTE     1039939. INTEGRALS IN      1 RECORDS. CPU TIME:     0.04 SEC, REAL TIME:     0.05 SEC

 FILE SIZES:   FILE 1:    34.2 MBYTE,  FILE 4:    12.6 MBYTE,   TOTAL:     46.8 MBYTE

 OPERATOR DM      FOR CENTER  0  COORDINATES:    0.000000    0.000000    0.000000

 EXTRA SYMMETRY OF AOS IN SYMMETRY 1:   1 1 1 1 1 1 1 1 2 1   2 1 2 1 1 1 1 1 1 1   1 2 1 2 1 2 1 1 1 1   1 1 2
 EXTRA SYMMETRY OF AOS IN SYMMETRY 2:   1 1 1 1 1 1 2 1 1 1   1 1 1 2 1 1 1
 EXTRA SYMMETRY OF AOS IN SYMMETRY 3:   1 1 1 1 1 1 2 1 1 1   1 1 1 2 1 1 1

 Eigenvalues of metric

         1 0.110E-02 0.148E-02 0.246E-02 0.655E-02 0.112E-01 0.189E-01 0.293E-01 0.475E-01
         2 0.152E-01 0.367E-01 0.615E-01 0.904E-01 0.133E+00 0.288E+00 0.379E+00 0.432E+00
         3 0.152E-01 0.367E-01 0.615E-01 0.904E-01 0.133E+00 0.288E+00 0.379E+00 0.432E+00
         4 0.290E+00 0.455E+00 0.576E+00 0.850E+00 0.125E+01 0.154E+01 0.203E+01


 **********************************************************************************************************************************
 DATASETS  * FILE   NREC   LENGTH (MB)   RECORD NAMES
              1      23       27.68       500      610      700      900      950      970     1000      129      960     1700   
                                          VAR    BASINP    GEOM    SYMINP    ZMAT    AOBASIS   BASIS     P2S    ABASIS    OPER   
                                         1101     1401     1411     1412     1650     1100     1400     1410     1200     1210   
                                          SR      EKINR    POTR     PVPR    MOLCAS      S      EKIN      POT      H0       H01  
                                         1300     1080     1600   
                                         ERIS     AOSYM     SMH  

 PROGRAMS   *        TOTAL       INT
 CPU TIMES  *         0.66      0.56
 REAL TIME  *         1.23 SEC
 DISK USED  *        47.10 MB      
 **********************************************************************************************************************************


 PROGRAM * RHF-SCF (CLOSED SHELL)       Authors: W. Meyer, H.-J. Werner


 NUMBER OF ELECTRONS:       7+    7-
 CONVERGENCE THRESHOLDS:    1.00E-10 (Density)    1.00E-13 (Energy)
 MAX. NUMBER OF ITERATIONS:      500
 INTERPOLATION TYPE:            DIIS
 INTERPOLATION STEPS:              2 (START)      1 (STEP)
 LEVEL SHIFTS:                  0.00 (CLOSED)  0.00 (OPEN) 



 Orbital guess generated from atomic densities. Full valence occupancy:    7   2   2   0

 Molecular orbital dump at record        2100.2

 Initial occupancy:   5   1   1   0

 ITERATION    DDIFF          GRAD             ENERGY        2-EL.EN.            DIPOLE MOMENTS         DIIS   ORB.
    1      0.000D+00      0.000D+00       -92.92737484    112.153558    0.00000    0.00000   -1.78204    0    start
    2      0.000D+00      0.117D-01       -92.93663792    111.256407    0.00000    0.00000   -0.89138    1    diag
    3      0.192D-01      0.105D-01       -92.95190100    111.787939    0.00000    0.00000   -1.29618    2    diag
    4      0.961D-02      0.814D-03       -92.95211493    111.758040    0.00000    0.00000   -1.28769    3    diag
    5      0.149D-02      0.176D-03       -92.95212704    111.766277    0.00000    0.00000   -1.28627    4    diag
    6      0.405D-03      0.490D-04       -92.95212773    111.761947    0.00000    0.00000   -1.28642    5    diag
    7      0.881D-04      0.174D-04       -92.95212780    111.763128    0.00000    0.00000   -1.28653    6    diag
    8      0.304D-04      0.338D-05       -92.95212780    111.763065    0.00000    0.00000   -1.28652    7    diag
    9      0.557D-05      0.369D-06       -92.95212780    111.763072    0.00000    0.00000   -1.28651    8    diag
   10      0.798D-06      0.372D-07       -92.95212780    111.763072    0.00000    0.00000   -1.28651    9    orth
   11      0.726D-07      0.433D-08       -92.95212780    111.763072    0.00000    0.00000   -1.28651    9    diag
   12      0.125D-07      0.380D-09       -92.95212780    111.763072    0.00000    0.00000   -1.28651    9    diag
   13      0.164D-08      0.421D-10       -92.95212780    111.763072    0.00000    0.00000   -1.28651    9    diag
   14      0.237D-09      0.980D-11       -92.95212780    111.763072    0.00000    0.00000   -1.28651    9    diag
   15      0.450D-10      0.152D-11       -92.95212780    111.763072    0.00000    0.00000   -1.28651    0    orth

 Final occupancy:   5   1   1   0

 !RHF STATE 1.1 Energy                -92.952127798097
 Nuclear energy                        23.96096176
 One-electron energy                 -172.79462572
 Two-electron energy                   55.88153617
 Virial quotient                       -0.99884448
 !RHF STATE 1.1 Dipole moment           0.00000000     0.00000000    -1.28651419
 Dipole moment /Debye                   0.00000000     0.00000000    -3.26977874

 Orbital energies:

         1.1          2.1          3.1          4.1          5.1          6.1          7.1
    -15.604269   -11.293903    -1.238397    -0.805447    -0.580343     0.140596     0.240283

         1.2          2.2          3.2
     -0.496708     0.168891     0.446874

         1.3          2.3          3.3
     -0.496708     0.168891     0.446874

         1.4          2.4
      0.810902     1.421905

 HOMO      1.2    -0.496708 =     -13.5161eV
 LUMO      6.1     0.140596 =       3.8258eV
 LUMO-HOMO         0.637304 =      17.3419eV


 **********************************************************************************************************************************
 DATASETS  * FILE   NREC   LENGTH (MB)   RECORD NAMES
              1      23       27.68       500      610      700      900      950      970     1000      129      960     1700   
                                          VAR    BASINP    GEOM    SYMINP    ZMAT    AOBASIS   BASIS     P2S    ABASIS    OPER   
                                         1101     1401     1411     1412     1650     1100     1400     1410     1200     1210   
                                          SR      EKINR    POTR     PVPR    MOLCAS      S      EKIN      POT      H0       H01  
                                         1300     1080     1600   
                                         ERIS     AOSYM     SMH  

              2       4        2.82       700     1000      520     2100   
                                         GEOM     BASIS   MCVARS     RHF  

 PROGRAMS   *        TOTAL        HF       INT
 CPU TIMES  *         0.73      0.07      0.56
 REAL TIME  *         1.32 SEC
 DISK USED  *        47.10 MB      
 **********************************************************************************************************************************


 PROGRAM * CCSD (Closed-shell coupled cluster)     Authors: C. Hampel, H.-J. Werner, 1991, M. Deegan, P.J. Knowles, 1992


 Convergence thresholds:  THRVAR = 1.00D-08  THRDEN = 1.00D-12

 CCSD(T)     terms to be evaluated (factor= 1.000)


 Number of core orbitals:           2 (   2   0   0   0 )
 Number of closed-shell orbitals:   5 (   3   1   1   0 )
 Number of external orbitals:      67 (  28  16  16   7 )

 Molecular orbitals read from record     2100.2  Type=RHF/CANONICAL (state 1.1)

 Number of N-1 electron functions:               5
 Number of N-2 electron functions:              15
 Number of singly external CSFs:               116
 Number of doubly external CSFs:             15189
 Total number of CSFs:                       15306

 Length of J-op  integral file:               0.00 MB
 Length of K-op  integral file:               0.15 MB
 Length of 3-ext integral record:             0.00 MB

 Memory could be reduced to 0.93 Mwords without degradation in triples

 Integral transformation finished. Total CPU:   0.02 sec, npass=  1  Memory used:   0.18 MW

 Reference energy:                    -92.95212780

 MP2 singlet pair energy:              -0.21759432
 MP2 triplet pair energy:              -0.12684377
 MP2 correlation energy:               -0.34443809
 MP2 total energy:                    -93.29656589

 SCS-MP2 correlation energy:           -0.34003820   (PS=  1.200000  PT=  0.333333)
 SCS-MP2 total energy:                -93.29216600

 ITER.      SQ.NORM     CORR.ENERGY   TOTAL ENERGY   ENERGY CHANGE        DEN1      VAR(S)    VAR(P)  DIIS     TIME  TIME/IT
   1      1.11430961    -0.34802445   -93.30015224    -0.00358636     0.00904863  0.25D-02  0.29D-02  1  1     0.04     0.01
   2      1.12379379    -0.34844259   -93.30057039    -0.00041815    -0.00996320  0.48D-04  0.41D-03  2  2     0.06     0.01
   3      1.12877144    -0.34866581   -93.30079361    -0.00022321    -0.00250860  0.12D-04  0.40D-04  3  3     0.07     0.01
   4      1.13081346    -0.34875876   -93.30088656    -0.00009296    -0.00074448  0.29D-06  0.42D-05  4  4     0.08     0.01
   5      1.13125627    -0.34875570   -93.30088350     0.00000307    -0.00012453  0.11D-06  0.38D-06  5  5     0.10     0.01
   6      1.13135062    -0.34875455   -93.30088235     0.00000115    -0.00002499  0.83D-08  0.27D-07  6  6     0.11     0.01
   7      1.13135831    -0.34875667   -93.30088447    -0.00000212    -0.00000230  0.61D-09  0.23D-08  6  1     0.12     0.01
   8      1.13135887    -0.34875713   -93.30088493    -0.00000046     0.00000061  0.55D-10  0.13D-09  6  2     0.14     0.01
   9      1.13135951    -0.34875716   -93.30088495    -0.00000003    -0.00000035  0.34D-11  0.10D-10  6  3     0.15     0.01
  10      1.13135947    -0.34875717   -93.30088497    -0.00000002     0.00000009  0.52D-12  0.98D-12  6  4     0.17     0.01
  11      1.13135945    -0.34875718   -93.30088497    -0.00000000     0.00000001  0.41D-13  0.13D-12  6  5     0.18     0.01
  12      1.13135939    -0.34875718   -93.30088498    -0.00000000     0.00000002  0.78D-14  0.25D-13  6  6     0.20     0.01
  13      1.13135936    -0.34875718   -93.30088498    -0.00000000     0.00000001  0.11D-14  0.25D-14  6  2     0.21     0.01
  14      1.13135935    -0.34875718   -93.30088498    -0.00000000     0.00000000  0.63D-16  0.12D-15  6  1     0.22     0.01
  15      1.13135934    -0.34875718   -93.30088498     0.00000000     0.00000000  0.14D-16  0.17D-16  6  3     0.24     0.01
  16      1.13135934    -0.34875718   -93.30088498    -0.00000000     0.00000000  0.89D-18  0.15D-17  6  4     0.25     0.01
  17      1.13135934    -0.34875718   -93.30088498    -0.00000000     0.00000000  0.37D-18  0.14D-18  6  5     0.26     0.01
  18      1.13135934    -0.34875718   -93.30088498     0.00000000    -0.00000000  0.13D-19  0.24D-19  6  6     0.27     0.01
  19      1.13135934    -0.34875718   -93.30088498     0.00000000    -0.00000000  0.38D-20  0.23D-20  6  2     0.29     0.01
  20      1.13135934    -0.34875718   -93.30088498     0.00000000    -0.00000000  0.59D-22  0.52D-21  6  1     0.30     0.01
  21      1.13135934    -0.34875718   -93.30088498     0.00000000    -0.00000000  0.19D-22  0.10D-21  6  3     0.32     0.01

 Norm of t1 vector:      0.06310855      S-energy:    -0.00000000      T1 diagnostic:  0.01411150
                                                                       D1 diagnostic:  0.02829638

 Doubles amplitudes (print threshold =  0.500E-01):

         I         J         SYM. A    SYM. B    A         B      T(IJ, AB)

         4         4         2         2         1         1     -0.08573496
         5         5         3         3         1         1     -0.08573496
         5         4         3         2         1         1     -0.05384954


 Total CPU time for triples:      0.04 sec


 RESULTS
 =======

  Reference energy                    -92.952127798097
  CCSD singlet pair energy             -0.242428152211
  CCSD triplet pair energy             -0.106329028019
  CCSD correlation energy              -0.348757180230

  Triples (T) contribution             -0.017756207484
  Total correlation energy             -0.366513387714

  CCSD total energy                   -93.300884978327
  CCSD[T] energy                      -93.319444682411
  CCSD-T energy                       -93.318239131423
 !CCSD(T) total energy                -93.318641185811

 Timing summary (sec):

 STEP                 CPU(USER)    SYS     CPU(TOT)    WALL
 Transformation          0.02      0.00      0.02      0.02
 CCSD iterations         0.30      0.02      0.32      0.32
 Triples                 0.04      0.01      0.05      0.05

 Program statistics:

 Available memory in ccsd:               994999800
 Min. memory needed in ccsd:                 67993
 Max. memory used in ccsd:                   79450
 Max. memory used in cckext:                107513 (21 integral passes)



 **********************************************************************************************************************************
 DATASETS  * FILE   NREC   LENGTH (MB)   RECORD NAMES
              1      24       29.62       500      610      700      900      950      970     1000      129      960     1700   
                                          VAR    BASINP    GEOM    SYMINP    ZMAT    AOBASIS   BASIS     P2S    ABASIS    OPER   
                                         1101     1401     1411     1412     1650     1100     1400     1410     1200     1210   
                                          SR      EKINR    POTR     PVPR    MOLCAS      S      EKIN      POT      H0       H01  
                                         1300     1080     1600     1380   
                                         ERIS     AOSYM     SMH     JKOP   

              2       4        2.82       700     1000      520     2100   
                                         GEOM     BASIS   MCVARS     RHF  

 PROGRAMS   *        TOTAL   CCSD(T)        HF       INT
 CPU TIMES  *         1.11      0.36      0.07      0.56
 REAL TIME  *         1.74 SEC
 DISK USED  *        47.10 MB      
 **********************************************************************************************************************************

 CCSD(T)/cc-pVTZ-DK energy=    -93.318641185811

        CCSD(T)         HF-SCF  
    -93.31864119    -92.95212780
 **********************************************************************************************************************************
 Molpro calculation terminated
 Variable memory released
