
 Primary working directories    : /tmp/r2666/232614.maple
 Secondary working directories  : /tmp/r2666/232614.maple
 Wavefunction directory         : /ddn/home4/r2666/wfu/
 Main file repository           : /tmp/r2666/232614.maple/

 SHA1      : d5ffa45e93fdbca01ffc919aa182cfdae0147319
 NAME      : 2015.1.35
 ARCHNAME  : linux/x86_64
 FC        : /opt/intel/composer_xe_2015.1.133/bin/intel64/ifort
 BLASLIB   : -Wl,-_start-group /opt/intel/mkl/lib/intel64/libmkl_intel_ilp64.a /opt/intel/mkl/lib/intel64/libmkl_intel_thread.a /opt/intel/mkl/lib/intel64/libmkl_core.a -Wl,-_end-group
 id        : olemiss

 Nodes     nprocs
 cn083        1

 Using customized tuning parameters: mindgm=1; mindgv=20; mindgc=4; mindgr=1; noblas=0; minvec=7
 default implementation of scratch files=df  

 ***,hcn CCSD(T)/TZ-F12 QFF
 memory, 995, m;
 gthresh,energy=1.d-12,zero=1.d-22,oneint=1.d-22,twoint=1.d-22;
 gthresh,optgrad=1.d-8,optstep=1.d-8;
 nocompress;
 geomtyp=xyz
 bohr
 geometry={
 3
          3         3
 N        0.0000000000        0.0000000000        1.1058041311
 C        0.0000000000        0.0000000000       -1.0446996461
 H        0.0000000000        0.0000000000       -3.0581744671
 }
 
 basis=vtz-dk
 dkroll=1
   {hf,maxit=500;accu,20;}
 {ccsd(t),nocheck,maxit=250;orbital,IGNORE_ERROR;}

 Variables initialized (889), CPU time= 0.00 sec
 Commands  initialized (702), CPU time= 0.01 sec, 572 directives.
 Default parameters read. Elapsed time= 0.05 sec

 Checking input...
 Passed
1


                                         ***  PROGRAM SYSTEM MOLPRO  ***
                                       Copyright, TTI GmbH Stuttgart, 2015
                                    Version 2015.1 linked Jul  9 2018 13:16:40


 **********************************************************************************************************************************
 LABEL *   hcn CCSD(T)/TZ-F12 QFF                                                        
  64 bit serial version                                                                  DATE: 06-Feb-20          TIME: 09:54:38  
 **********************************************************************************************************************************

 SHA1:             d5ffa45e93fdbca01ffc919aa182cfdae0147319
 **********************************************************************************************************************************

 THRESHOLDS:

 ZERO    =  1.00D-22  ONEINT  =  1.00D-22  TWOINT  =  1.00D-22  PREFAC  =  1.00D-14  LOCALI  =  1.00D-09  EORDER  =  1.00D-04
 ENERGY  =  1.00D-12  ETEST   =  0.00D+00  EDENS   =  0.00D+00  THRDEDEF=  1.00D-06  GRADIENT=  1.00D-02  STEP    =  1.00D-03
 ORBITAL =  1.00D-05  CIVEC   =  1.00D-05  COEFF   =  1.00D-04  PRINTCI =  5.00D-02  PUNCHCI =  9.90D+01  OPTGRAD =  3.00D-04
 OPTENERG=  1.00D-06  OPTSTEP =  3.00D-04  THRGRAD =  1.00D-10  COMPRESS=  1.00D-11  VARMIN  =  1.00D-07  VARMAX  =  1.00D-03
 THRDOUB =  0.00D+00  THRDIV  =  1.00D-05  THRRED  =  1.00D-07  THRPSP  =  1.00D+00  THRDC   =  1.00D-10  THRCS   =  1.00D-10
 THRNRM  =  1.00D-08  THREQ   =  0.00D+00  THRDE   =  1.00D+00  THRREF  =  1.00D-05  SPARFAC =  1.00D+00  THRDLP  =  1.00D-07
 THRDIA  =  1.00D-10  THRDLS  =  1.00D-07  THRGPS  =  0.00D+00  THRKEX  =  0.00D+00  THRDIS  =  2.00D-01  THRVAR  =  1.00D-10
 THRLOC  =  1.00D-06  THRGAP  =  1.00D-06  THRLOCT = -1.00D+00  THRGAPT = -1.00D+00  THRORB  =  1.00D-06  THRMLTP =  0.00D+00
 THRCPQCI=  1.00D-10  KEXTA   =  0.00D+00  THRCOARS=  0.00D+00  SYMTOL  =  1.00D-06  GRADTOL =  1.00D-06  THROVL  =  1.00D-08
 THRORTH =  1.00D-08  GRID    =  1.00D-06  GRIDMAX =  1.00D-03  DTMAX   =  0.00D+00  THROCCDE=  1.00D-01  THROCCDE=  1.00D-01



 THRESHOLDS:

 ZERO    =  1.00D-22  ONEINT  =  1.00D-22  TWOINT  =  1.00D-22  PREFAC  =  1.00D-14  LOCALI  =  1.00D-09  EORDER  =  1.00D-04
 ENERGY  =  1.00D-12  ETEST   =  0.00D+00  EDENS   =  0.00D+00  THRDEDEF=  1.00D-06  GRADIENT=  1.00D-02  STEP    =  1.00D-03
 ORBITAL =  1.00D-05  CIVEC   =  1.00D-05  COEFF   =  1.00D-04  PRINTCI =  5.00D-02  PUNCHCI =  9.90D+01  OPTGRAD =  1.00D-08
 OPTENERG=  1.00D-06  OPTSTEP =  1.00D-08  THRGRAD =  1.00D-10  COMPRESS=  1.00D-11  VARMIN  =  1.00D-07  VARMAX  =  1.00D-03
 THRDOUB =  0.00D+00  THRDIV  =  1.00D-05  THRRED  =  1.00D-07  THRPSP  =  1.00D+00  THRDC   =  1.00D-10  THRCS   =  1.00D-10
 THRNRM  =  1.00D-08  THREQ   =  0.00D+00  THRDE   =  1.00D+00  THRREF  =  1.00D-05  SPARFAC =  1.00D+00  THRDLP  =  1.00D-07
 THRDIA  =  1.00D-10  THRDLS  =  1.00D-07  THRGPS  =  0.00D+00  THRKEX  =  0.00D+00  THRDIS  =  2.00D-01  THRVAR  =  1.00D-10
 THRLOC  =  1.00D-06  THRGAP  =  1.00D-06  THRLOCT = -1.00D+00  THRGAPT = -1.00D+00  THRORB  =  1.00D-06  THRMLTP =  0.00D+00
 THRCPQCI=  1.00D-10  KEXTA   =  0.00D+00  THRCOARS=  0.00D+00  SYMTOL  =  1.00D-06  GRADTOL =  1.00D-06  THROVL  =  1.00D-08
 THRORTH =  1.00D-08  GRID    =  1.00D-06  GRIDMAX =  1.00D-03  DTMAX   =  0.00D+00  THROCCDE=  1.00D-01  THROCCDE=  1.00D-01



 Input parameters for SORTINT:

 COMPRESS =    0.000000
 C_FINAL  =    1.000000
 DEBUG    =   -1.000000
 C_SORT1  =    0.000000
 C_SEWARD =    0.000000
 THRESH   =    0.000000
 IO       =  molpro                                                          
 SPRI     =    0.000000
 SETTING GEOMTYP        =    XYZ
 ZUNIT=BOHR
 

 Variable memory set to  995000000 words,  buffer space   230000 words

 SETTING BASIS          =    VTZ-DK
 SETTING DKROLL         =         1.00000000                                  


 Recomputing integrals since basis changed


 Using spherical harmonics

 Library entry N      S cc-pVTZ-DK           selected for orbital group  1
 Library entry N      P cc-pVTZ-DK           selected for orbital group  1
 Library entry N      D cc-pVTZ-DK           selected for orbital group  1
 Library entry N      F cc-pVTZ-DK           selected for orbital group  1
 Library entry C      S cc-pVTZ-DK           selected for orbital group  2
 Library entry C      P cc-pVTZ-DK           selected for orbital group  2
 Library entry C      D cc-pVTZ-DK           selected for orbital group  2
 Library entry C      F cc-pVTZ-DK           selected for orbital group  2
 Library entry H      S cc-pVTZ-DK           selected for orbital group  3
 Library entry H      P cc-pVTZ-DK           selected for orbital group  3
 Library entry H      D cc-pVTZ-DK           selected for orbital group  3


 PROGRAM * SEWARD (Integral evaluation for generally contracted gaussian basis sets)     Author: Roland Lindh, 1990

 Geometry written to block  1 of record 700


 Point group  C2v 



 ATOMIC COORDINATES

 NR  ATOM    CHARGE       X              Y              Z

   1  N       7.00    0.000000000    0.000000000    1.105804131
   2  C       6.00    0.000000000    0.000000000   -1.044699646
   3  H       1.00    0.000000000    0.000000000   -3.058174467

 Bond lengths in Bohr (Angstrom)

 1-2  2.150503777  2-3  2.013474821
     ( 1.137997591)     ( 1.065484990)

 Bond angles

  1-2-3  179.99999879

 NUCLEAR CHARGE:                   14
 NUMBER OF PRIMITIVE AOS:         111
 NUMBER OF SYMMETRY AOS:          100
 NUMBER OF CONTRACTIONS:           74   (  33A1  +  17B1  +  17B2  +   7A2  )
 NUMBER OF CORE ORBITALS:           2   (   2A1  +   0B1  +   0B2  +   0A2  )
 NUMBER OF VALENCE ORBITALS:        9   (   5A1  +   2B1  +   2B2  +   0A2  )


 NUCLEAR REPULSION ENERGY   24.19131504

 One-electron integrals computed with SEWARD

 2nd-order Douglas-Kroll-Hess method activated. Optimal DKH parametrization is used.

 Computing Douglas-Kroll / X2C integrals


         875225. INTEGRALS WRITTEN OUT IN     214 BLOCKS ON RECORD 1290 OF FILE 1


 NUMBER OF SORTED TWO-ELECTRON INTEGRALS:    1039939.     BUFFER LENGTH:  32768
 NUMBER OF SEGMENTS:   1  SEGMENT LENGTH:    1039939      RECORD LENGTH: 524288

 Memory used in sort:       1.60 MW

 SORT1 READ      875225. AND WROTE      911511. INTEGRALS IN      3 RECORDS. CPU TIME:     0.01 SEC, REAL TIME:     0.03 SEC
 SORT2 READ      911511. AND WROTE     1039939. INTEGRALS IN      1 RECORDS. CPU TIME:     0.04 SEC, REAL TIME:     0.05 SEC

 FILE SIZES:   FILE 1:    34.2 MBYTE,  FILE 4:    12.6 MBYTE,   TOTAL:     46.8 MBYTE

 OPERATOR DM      FOR CENTER  0  COORDINATES:    0.000000    0.000000    0.000000

 EXTRA SYMMETRY OF AOS IN SYMMETRY 1:   1 1 1 1 1 1 1 1 2 1   2 1 2 1 1 1 1 1 1 1   1 2 1 2 1 2 1 1 1 1   1 1 2
 EXTRA SYMMETRY OF AOS IN SYMMETRY 2:   1 1 1 1 1 1 2 1 1 1   1 1 1 2 1 1 1
 EXTRA SYMMETRY OF AOS IN SYMMETRY 3:   1 1 1 1 1 1 2 1 1 1   1 1 1 2 1 1 1

 Eigenvalues of metric

         1 0.107E-02 0.142E-02 0.241E-02 0.626E-02 0.109E-01 0.182E-01 0.290E-01 0.467E-01
         2 0.145E-01 0.361E-01 0.606E-01 0.863E-01 0.130E+00 0.278E+00 0.371E+00 0.430E+00
         3 0.145E-01 0.361E-01 0.606E-01 0.863E-01 0.130E+00 0.278E+00 0.371E+00 0.430E+00
         4 0.285E+00 0.447E+00 0.573E+00 0.841E+00 0.125E+01 0.156E+01 0.205E+01


 **********************************************************************************************************************************
 DATASETS  * FILE   NREC   LENGTH (MB)   RECORD NAMES
              1      23       27.68       500      610      700      900      950      970     1000      129      960     1700   
                                          VAR    BASINP    GEOM    SYMINP    ZMAT    AOBASIS   BASIS     P2S    ABASIS    OPER   
                                         1101     1401     1411     1412     1650     1100     1400     1410     1200     1210   
                                          SR      EKINR    POTR     PVPR    MOLCAS      S      EKIN      POT      H0       H01  
                                         1300     1080     1600   
                                         ERIS     AOSYM     SMH  

 PROGRAMS   *        TOTAL       INT
 CPU TIMES  *         0.63      0.55
 REAL TIME  *         1.28 SEC
 DISK USED  *        47.10 MB      
 **********************************************************************************************************************************


 PROGRAM * RHF-SCF (CLOSED SHELL)       Authors: W. Meyer, H.-J. Werner


 NUMBER OF ELECTRONS:       7+    7-
 CONVERGENCE THRESHOLDS:    1.00E-10 (Density)    1.00E-13 (Energy)
 MAX. NUMBER OF ITERATIONS:      500
 INTERPOLATION TYPE:            DIIS
 INTERPOLATION STEPS:              2 (START)      1 (STEP)
 LEVEL SHIFTS:                  0.00 (CLOSED)  0.00 (OPEN) 



 Orbital guess generated from atomic densities. Full valence occupancy:    7   2   2   0

 Molecular orbital dump at record        2100.2

 Initial occupancy:   5   1   1   0

 ITERATION    DDIFF          GRAD             ENERGY        2-EL.EN.            DIPOLE MOMENTS         DIIS   ORB.
    1      0.000D+00      0.000D+00       -92.92924781    112.626828    0.00000    0.00000   -1.75581    0    start
    2      0.000D+00      0.116D-01       -92.93890299    111.684914    0.00000    0.00000   -0.89821    1    diag
    3      0.190D-01      0.102D-01       -92.95322370    112.216854    0.00000    0.00000   -1.28597    2    diag
    4      0.942D-02      0.813D-03       -92.95343424    112.192021    0.00000    0.00000   -1.27732    3    diag
    5      0.148D-02      0.169D-03       -92.95344564    112.196910    0.00000    0.00000   -1.27594    4    diag
    6      0.400D-03      0.448D-04       -92.95344618    112.193645    0.00000    0.00000   -1.27619    5    diag
    7      0.796D-04      0.149D-04       -92.95344623    112.194814    0.00000    0.00000   -1.27626    6    diag
    8      0.257D-04      0.309D-05       -92.95344623    112.194738    0.00000    0.00000   -1.27624    7    diag
    9      0.504D-05      0.345D-06       -92.95344623    112.194745    0.00000    0.00000   -1.27624    8    diag
   10      0.743D-06      0.368D-07       -92.95344623    112.194745    0.00000    0.00000   -1.27624    9    orth
   11      0.714D-07      0.444D-08       -92.95344623    112.194745    0.00000    0.00000   -1.27624    9    diag
   12      0.122D-07      0.436D-09       -92.95344623    112.194745    0.00000    0.00000   -1.27624    9    diag
   13      0.178D-08      0.515D-10       -92.95344623    112.194745    0.00000    0.00000   -1.27624    9    diag
   14      0.239D-09      0.979D-11       -92.95344623    112.194745    0.00000    0.00000   -1.27624    9    diag
   15      0.514D-10      0.171D-11       -92.95344623    112.194745    0.00000    0.00000   -1.27624    9    diag
   16      0.488D-11      0.376D-12       -92.95344623    112.194745    0.00000    0.00000   -1.27624    9    diag
   17      0.591D-12      0.725D-13       -92.95344623    112.194745    0.00000    0.00000   -1.27624    9    diag
   18      0.126D-12      0.423D-13       -92.95344623    112.194745    0.00000    0.00000   -1.27624    9    diag
   19      0.650D-13      0.341D-13       -92.95344623    112.194745    0.00000    0.00000   -1.27624    9    fixocc
   20      0.750D-13      0.353D-13       -92.95344623    112.194745    0.00000    0.00000   -1.27624    0    orth

 Final occupancy:   5   1   1   0

 !RHF STATE 1.1 Energy                -92.953446230718
 Nuclear energy                        24.19131504
 One-electron energy                 -173.24213391
 Two-electron energy                   56.09737263
 Virial quotient                       -0.99799617
 !RHF STATE 1.1 Dipole moment           0.00000000     0.00000000    -1.27623899
 Dipole moment /Debye                   0.00000000     0.00000000    -3.24366348

 Orbital energies:

         1.1          2.1          3.1          4.1          5.1          6.1          7.1
    -15.600961   -11.289194    -1.243340    -0.809798    -0.580327     0.142440     0.241377

         1.2          2.2          3.2
     -0.500037     0.171883     0.446486

         1.3          2.3          3.3
     -0.500037     0.171883     0.446486

         1.4          2.4
      0.810705     1.424517

 HOMO      1.2    -0.500037 =     -13.6067eV
 LUMO      6.1     0.142440 =       3.8760eV
 LUMO-HOMO         0.642477 =      17.4827eV


 **********************************************************************************************************************************
 DATASETS  * FILE   NREC   LENGTH (MB)   RECORD NAMES
              1      23       27.68       500      610      700      900      950      970     1000      129      960     1700   
                                          VAR    BASINP    GEOM    SYMINP    ZMAT    AOBASIS   BASIS     P2S    ABASIS    OPER   
                                         1101     1401     1411     1412     1650     1100     1400     1410     1200     1210   
                                          SR      EKINR    POTR     PVPR    MOLCAS      S      EKIN      POT      H0       H01  
                                         1300     1080     1600   
                                         ERIS     AOSYM     SMH  

              2       4        2.82       700     1000      520     2100   
                                         GEOM     BASIS   MCVARS     RHF  

 PROGRAMS   *        TOTAL        HF       INT
 CPU TIMES  *         0.73      0.09      0.55
 REAL TIME  *         1.40 SEC
 DISK USED  *        47.10 MB      
 **********************************************************************************************************************************


 PROGRAM * CCSD (Closed-shell coupled cluster)     Authors: C. Hampel, H.-J. Werner, 1991, M. Deegan, P.J. Knowles, 1992


 Convergence thresholds:  THRVAR = 1.00D-08  THRDEN = 1.00D-12

 CCSD(T)     terms to be evaluated (factor= 1.000)


 Number of core orbitals:           2 (   2   0   0   0 )
 Number of closed-shell orbitals:   5 (   3   1   1   0 )
 Number of external orbitals:      67 (  28  16  16   7 )

 Molecular orbitals read from record     2100.2  Type=RHF/CANONICAL (state 1.1)

 Number of N-1 electron functions:               5
 Number of N-2 electron functions:              15
 Number of singly external CSFs:               116
 Number of doubly external CSFs:             15189
 Total number of CSFs:                       15306

 Length of J-op  integral file:               0.00 MB
 Length of K-op  integral file:               0.15 MB
 Length of 3-ext integral record:             0.00 MB

 Memory could be reduced to 0.93 Mwords without degradation in triples

 Integral transformation finished. Total CPU:   0.01 sec, npass=  1  Memory used:   0.18 MW

 Reference energy:                    -92.95344623

 MP2 singlet pair energy:              -0.21637521
 MP2 triplet pair energy:              -0.12595155
 MP2 correlation energy:               -0.34232676
 MP2 total energy:                    -93.29577299

 SCS-MP2 correlation energy:           -0.33802011   (PS=  1.200000  PT=  0.333333)
 SCS-MP2 total energy:                -93.29146634

 ITER.      SQ.NORM     CORR.ENERGY   TOTAL ENERGY   ENERGY CHANGE        DEN1      VAR(S)    VAR(P)  DIIS     TIME  TIME/IT
   1      1.11280063    -0.34640104   -93.29984727    -0.00407428     0.00813630  0.23D-02  0.28D-02  1  1     0.03     0.02
   2      1.12199437    -0.34687829   -93.30032452    -0.00047725    -0.00971440  0.45D-04  0.39D-03  2  2     0.05     0.02
   3      1.12673028    -0.34708633   -93.30053256    -0.00020804    -0.00241570  0.11D-04  0.38D-04  3  3     0.06     0.02
   4      1.12865112    -0.34717212   -93.30061835    -0.00008579    -0.00070900  0.27D-06  0.38D-05  4  4     0.08     0.02
   5      1.12906087    -0.34716846   -93.30061470     0.00000366    -0.00011694  0.98D-07  0.33D-06  5  5     0.09     0.02
   6      1.12914285    -0.34716768   -93.30061391     0.00000078    -0.00002192  0.71D-08  0.24D-07  6  6     0.11     0.02
   7      1.12914952    -0.34716959   -93.30061582    -0.00000191    -0.00000205  0.57D-09  0.20D-08  6  1     0.12     0.02
   8      1.12914994    -0.34717001   -93.30061625    -0.00000043     0.00000060  0.49D-10  0.11D-09  6  2     0.13     0.02
   9      1.12915051    -0.34717004   -93.30061627    -0.00000003    -0.00000032  0.28D-11  0.85D-11  6  3     0.14     0.02
  10      1.12915048    -0.34717006   -93.30061629    -0.00000001     0.00000008  0.51D-12  0.80D-12  6  4     0.16     0.02
  11      1.12915045    -0.34717006   -93.30061629    -0.00000000     0.00000001  0.34D-13  0.11D-12  6  5     0.17     0.02
  12      1.12915037    -0.34717006   -93.30061629    -0.00000000     0.00000003  0.13D-13  0.48D-14  6  1     0.18     0.02
  13      1.12915036    -0.34717006   -93.30061630    -0.00000000     0.00000000  0.11D-14  0.62D-15  6  6     0.20     0.02
  14      1.12915036    -0.34717006   -93.30061630    -0.00000000     0.00000000  0.35D-15  0.11D-15  6  2     0.21     0.02
  15      1.12915036    -0.34717006   -93.30061630     0.00000000    -0.00000000  0.10D-16  0.82D-17  6  4     0.22     0.01
  16      1.12915036    -0.34717006   -93.30061630     0.00000000    -0.00000000  0.30D-18  0.92D-18  6  3     0.23     0.01
  17      1.12915036    -0.34717006   -93.30061630     0.00000000    -0.00000000  0.89D-19  0.11D-18  6  5     0.25     0.01
  18      1.12915036    -0.34717006   -93.30061630     0.00000000    -0.00000000  0.68D-20  0.17D-19  6  1     0.26     0.01
  19      1.12915036    -0.34717006   -93.30061630    -0.00000000     0.00000000  0.14D-20  0.17D-20  6  6     0.27     0.01
  20      1.12915036    -0.34717006   -93.30061630    -0.00000000    -0.00000000  0.22D-21  0.16D-21  6  2     0.28     0.01

 Norm of t1 vector:      0.06163465      S-energy:    -0.00000000      T1 diagnostic:  0.01378193
                                                                       D1 diagnostic:  0.02765312

 Doubles amplitudes (print threshold =  0.500E-01):

         I         J         SYM. A    SYM. B    A         B      T(IJ, AB)

         4         4         2         2         1         1     -0.08375488
         5         5         3         3         1         1     -0.08375488
         5         4         3         2         1         1     -0.05280957


 Total CPU time for triples:      0.06 sec


 RESULTS
 =======

  Reference energy                    -92.953446230718
  CCSD singlet pair energy             -0.241059209286
  CCSD triplet pair energy             -0.106110855039
  CCSD correlation energy              -0.347170064326

  Triples (T) contribution             -0.017410279598
  Total correlation energy             -0.364580343924

  CCSD total energy                   -93.300616295044
  CCSD[T] energy                      -93.318790035411
  CCSD-T energy                       -93.317641542710
 !CCSD(T) total energy                -93.318026574642

 Timing summary (sec):

 STEP                 CPU(USER)    SYS     CPU(TOT)    WALL
 Transformation          0.01      0.01      0.02      0.02
 CCSD iterations         0.27      0.04      0.31      0.32
 Triples                 0.06      0.00      0.06      0.05

 Program statistics:

 Available memory in ccsd:               994999800
 Min. memory needed in ccsd:                 67993
 Max. memory used in ccsd:                   79450
 Max. memory used in cckext:                107513 (20 integral passes)



 **********************************************************************************************************************************
 DATASETS  * FILE   NREC   LENGTH (MB)   RECORD NAMES
              1      24       29.62       500      610      700      900      950      970     1000      129      960     1700   
                                          VAR    BASINP    GEOM    SYMINP    ZMAT    AOBASIS   BASIS     P2S    ABASIS    OPER   
                                         1101     1401     1411     1412     1650     1100     1400     1410     1200     1210   
                                          SR      EKINR    POTR     PVPR    MOLCAS      S      EKIN      POT      H0       H01  
                                         1300     1080     1600     1380   
                                         ERIS     AOSYM     SMH     JKOP   

              2       4        2.82       700     1000      520     2100   
                                         GEOM     BASIS   MCVARS     RHF  

 PROGRAMS   *        TOTAL   CCSD(T)        HF       INT
 CPU TIMES  *         1.08      0.35      0.09      0.55
 REAL TIME  *         1.82 SEC
 DISK USED  *        47.10 MB      
 **********************************************************************************************************************************

 CCSD(T)/cc-pVTZ-DK energy=    -93.318026574642

        CCSD(T)         HF-SCF  
    -93.31802657    -92.95344623
 **********************************************************************************************************************************
 Molpro calculation terminated
 Variable memory released
