
 Primary working directories    : /tmp/r2666/232627.maple
 Secondary working directories  : /tmp/r2666/232627.maple
 Wavefunction directory         : /ddn/home4/r2666/wfu/
 Main file repository           : /tmp/r2666/232627.maple/

 SHA1      : d5ffa45e93fdbca01ffc919aa182cfdae0147319
 NAME      : 2015.1.35
 ARCHNAME  : linux/x86_64
 FC        : /opt/intel/composer_xe_2015.1.133/bin/intel64/ifort
 BLASLIB   : -Wl,-_start-group /opt/intel/mkl/lib/intel64/libmkl_intel_ilp64.a /opt/intel/mkl/lib/intel64/libmkl_intel_thread.a /opt/intel/mkl/lib/intel64/libmkl_core.a -Wl,-_end-group
 id        : olemiss

 Nodes     nprocs
 cn087        1

 Using customized tuning parameters: mindgm=1; mindgv=20; mindgc=4; mindgr=1; noblas=0; minvec=7
 default implementation of scratch files=df  

 ***,hcn CCSD(T)/TZ-F12 QFF
 memory, 995, m;
 gthresh,energy=1.d-12,zero=1.d-22,oneint=1.d-22,twoint=1.d-22;
 gthresh,optgrad=1.d-8,optstep=1.d-8;
 nocompress;
 geomtyp=xyz
 bohr
 geometry={
 3
         16        16
 N       -0.0046066808       -0.0000000631        1.1183537398
 C        0.0095917471        0.0000000016       -1.0510008334
 H       -0.0049850663        0.0000000614       -3.0644228884
 }
 
 basis=vtz-dk
 dkroll=1
   {hf,maxit=500;accu,20;}
 {ccsd(t),nocheck,maxit=250;orbital,IGNORE_ERROR;}

 Variables initialized (889), CPU time= 0.00 sec
 Commands  initialized (702), CPU time= 0.01 sec, 572 directives.
 Default parameters read. Elapsed time= 0.04 sec

 Checking input...
 Passed
1


                                         ***  PROGRAM SYSTEM MOLPRO  ***
                                       Copyright, TTI GmbH Stuttgart, 2015
                                    Version 2015.1 linked Jul  9 2018 13:16:40


 **********************************************************************************************************************************
 LABEL *   hcn CCSD(T)/TZ-F12 QFF                                                        
  64 bit serial version                                                                  DATE: 06-Feb-20          TIME: 09:54:40  
 **********************************************************************************************************************************

 SHA1:             d5ffa45e93fdbca01ffc919aa182cfdae0147319
 **********************************************************************************************************************************

 THRESHOLDS:

 ZERO    =  1.00D-22  ONEINT  =  1.00D-22  TWOINT  =  1.00D-22  PREFAC  =  1.00D-14  LOCALI  =  1.00D-09  EORDER  =  1.00D-04
 ENERGY  =  1.00D-12  ETEST   =  0.00D+00  EDENS   =  0.00D+00  THRDEDEF=  1.00D-06  GRADIENT=  1.00D-02  STEP    =  1.00D-03
 ORBITAL =  1.00D-05  CIVEC   =  1.00D-05  COEFF   =  1.00D-04  PRINTCI =  5.00D-02  PUNCHCI =  9.90D+01  OPTGRAD =  3.00D-04
 OPTENERG=  1.00D-06  OPTSTEP =  3.00D-04  THRGRAD =  1.00D-10  COMPRESS=  1.00D-11  VARMIN  =  1.00D-07  VARMAX  =  1.00D-03
 THRDOUB =  0.00D+00  THRDIV  =  1.00D-05  THRRED  =  1.00D-07  THRPSP  =  1.00D+00  THRDC   =  1.00D-10  THRCS   =  1.00D-10
 THRNRM  =  1.00D-08  THREQ   =  0.00D+00  THRDE   =  1.00D+00  THRREF  =  1.00D-05  SPARFAC =  1.00D+00  THRDLP  =  1.00D-07
 THRDIA  =  1.00D-10  THRDLS  =  1.00D-07  THRGPS  =  0.00D+00  THRKEX  =  0.00D+00  THRDIS  =  2.00D-01  THRVAR  =  1.00D-10
 THRLOC  =  1.00D-06  THRGAP  =  1.00D-06  THRLOCT = -1.00D+00  THRGAPT = -1.00D+00  THRORB  =  1.00D-06  THRMLTP =  0.00D+00
 THRCPQCI=  1.00D-10  KEXTA   =  0.00D+00  THRCOARS=  0.00D+00  SYMTOL  =  1.00D-06  GRADTOL =  1.00D-06  THROVL  =  1.00D-08
 THRORTH =  1.00D-08  GRID    =  1.00D-06  GRIDMAX =  1.00D-03  DTMAX   =  0.00D+00  THROCCDE=  1.00D-01  THROCCDE=  1.00D-01



 THRESHOLDS:

 ZERO    =  1.00D-22  ONEINT  =  1.00D-22  TWOINT  =  1.00D-22  PREFAC  =  1.00D-14  LOCALI  =  1.00D-09  EORDER  =  1.00D-04
 ENERGY  =  1.00D-12  ETEST   =  0.00D+00  EDENS   =  0.00D+00  THRDEDEF=  1.00D-06  GRADIENT=  1.00D-02  STEP    =  1.00D-03
 ORBITAL =  1.00D-05  CIVEC   =  1.00D-05  COEFF   =  1.00D-04  PRINTCI =  5.00D-02  PUNCHCI =  9.90D+01  OPTGRAD =  1.00D-08
 OPTENERG=  1.00D-06  OPTSTEP =  1.00D-08  THRGRAD =  1.00D-10  COMPRESS=  1.00D-11  VARMIN  =  1.00D-07  VARMAX  =  1.00D-03
 THRDOUB =  0.00D+00  THRDIV  =  1.00D-05  THRRED  =  1.00D-07  THRPSP  =  1.00D+00  THRDC   =  1.00D-10  THRCS   =  1.00D-10
 THRNRM  =  1.00D-08  THREQ   =  0.00D+00  THRDE   =  1.00D+00  THRREF  =  1.00D-05  SPARFAC =  1.00D+00  THRDLP  =  1.00D-07
 THRDIA  =  1.00D-10  THRDLS  =  1.00D-07  THRGPS  =  0.00D+00  THRKEX  =  0.00D+00  THRDIS  =  2.00D-01  THRVAR  =  1.00D-10
 THRLOC  =  1.00D-06  THRGAP  =  1.00D-06  THRLOCT = -1.00D+00  THRGAPT = -1.00D+00  THRORB  =  1.00D-06  THRMLTP =  0.00D+00
 THRCPQCI=  1.00D-10  KEXTA   =  0.00D+00  THRCOARS=  0.00D+00  SYMTOL  =  1.00D-06  GRADTOL =  1.00D-06  THROVL  =  1.00D-08
 THRORTH =  1.00D-08  GRID    =  1.00D-06  GRIDMAX =  1.00D-03  DTMAX   =  0.00D+00  THROCCDE=  1.00D-01  THROCCDE=  1.00D-01



 Input parameters for SORTINT:

 COMPRESS =    0.000000
 C_FINAL  =    1.000000
 DEBUG    =   -1.000000
 C_SORT1  =    0.000000
 C_SEWARD =    0.000000
 THRESH   =    0.000000
 IO       =  molpro                                                          
 SPRI     =    0.000000
 SETTING GEOMTYP        =    XYZ
 ZUNIT=BOHR
 

 Variable memory set to  995000000 words,  buffer space   230000 words

 SETTING BASIS          =    VTZ-DK
 SETTING DKROLL         =         1.00000000                                  


 Recomputing integrals since basis changed


 Using spherical harmonics

 Library entry N      S cc-pVTZ-DK           selected for orbital group  1
 Library entry N      P cc-pVTZ-DK           selected for orbital group  1
 Library entry N      D cc-pVTZ-DK           selected for orbital group  1
 Library entry N      F cc-pVTZ-DK           selected for orbital group  1
 Library entry C      S cc-pVTZ-DK           selected for orbital group  2
 Library entry C      P cc-pVTZ-DK           selected for orbital group  2
 Library entry C      D cc-pVTZ-DK           selected for orbital group  2
 Library entry C      F cc-pVTZ-DK           selected for orbital group  2
 Library entry H      S cc-pVTZ-DK           selected for orbital group  3
 Library entry H      P cc-pVTZ-DK           selected for orbital group  3
 Library entry H      D cc-pVTZ-DK           selected for orbital group  3


 PROGRAM * SEWARD (Integral evaluation for generally contracted gaussian basis sets)     Author: Roland Lindh, 1990

 Geometry written to block  1 of record 700


 Point group  Cs  



 ATOMIC COORDINATES

 NR  ATOM    CHARGE       X              Y              Z

   1  N       7.00   -0.004606681    0.000000000    1.118353740
   2  C       6.00    0.009591747    0.000000000   -1.051000833
   3  H       1.00   -0.004985066    0.000000000   -3.064422888

 Bond lengths in Bohr (Angstrom)

 1-2  2.169401037  2-3  2.013474821
     ( 1.147997590)     ( 1.065484990)

 Bond angles

  1-2-3  179.21020053

 NUCLEAR CHARGE:                   14
 NUMBER OF PRIMITIVE AOS:         111
 NUMBER OF SYMMETRY AOS:          100
 NUMBER OF CONTRACTIONS:           74   (  50A'  +  24A"  )
 NUMBER OF CORE ORBITALS:           2   (   2A'  +   0A"  )
 NUMBER OF VALENCE ORBITALS:        9   (   7A'  +   2A"  )


 NUCLEAR REPULSION ENERGY   24.01363501

 One-electron integrals computed with SEWARD

 2nd-order Douglas-Kroll-Hess method activated. Optimal DKH parametrization is used.

 Computing Douglas-Kroll / X2C integrals


        1874108. INTEGRALS WRITTEN OUT IN     458 BLOCKS ON RECORD 1290 OF FILE 1


 NUMBER OF SORTED TWO-ELECTRON INTEGRALS:    2006100.     BUFFER LENGTH:  32768
 NUMBER OF SEGMENTS:   1  SEGMENT LENGTH:    2006100      RECORD LENGTH: 524288

 Memory used in sort:       2.56 MW

 SORT1 READ     1874108. AND WROTE     1914021. INTEGRALS IN      6 RECORDS. CPU TIME:     0.04 SEC, REAL TIME:     0.05 SEC
 SORT2 READ     1914021. AND WROTE     2006100. INTEGRALS IN      1 RECORDS. CPU TIME:     0.05 SEC, REAL TIME:     0.07 SEC

 FILE SIZES:   FILE 1:    50.2 MBYTE,  FILE 4:    25.2 MBYTE,   TOTAL:     75.4 MBYTE

 OPERATOR DM      FOR CENTER  0  COORDINATES:    0.000000    0.000000    0.000000

 Eigenvalues of metric

         1 0.108E-02 0.144E-02 0.244E-02 0.630E-02 0.109E-01 0.151E-01 0.188E-01 0.291E-01
         2 0.151E-01 0.362E-01 0.607E-01 0.879E-01 0.132E+00 0.282E+00 0.290E+00 0.375E+00


 **********************************************************************************************************************************
 DATASETS  * FILE   NREC   LENGTH (MB)   RECORD NAMES
              1      23       36.03       500      610      700      900      950      970     1000      129      960     1700   
                                          VAR    BASINP    GEOM    SYMINP    ZMAT    AOBASIS   BASIS     P2S    ABASIS    OPER   
                                         1101     1401     1411     1412     1650     1100     1400     1410     1200     1210   
                                          SR      EKINR    POTR     PVPR    MOLCAS      S      EKIN      POT      H0       H01  
                                         1300     1080     1600   
                                         ERIS     AOSYM     SMH  

 PROGRAMS   *        TOTAL       INT
 CPU TIMES  *         0.63      0.56
 REAL TIME  *         1.23 SEC
 DISK USED  *        75.75 MB      
 **********************************************************************************************************************************


 PROGRAM * RHF-SCF (CLOSED SHELL)       Authors: W. Meyer, H.-J. Werner


 NUMBER OF ELECTRONS:       7+    7-
 CONVERGENCE THRESHOLDS:    1.00E-10 (Density)    1.00E-13 (Energy)
 MAX. NUMBER OF ITERATIONS:      500
 INTERPOLATION TYPE:            DIIS
 INTERPOLATION STEPS:              2 (START)      1 (STEP)
 LEVEL SHIFTS:                  0.00 (CLOSED)  0.00 (OPEN) 



 Orbital guess generated from atomic densities. Full valence occupancy:    9   2

 Molecular orbital dump at record        2100.2

 Initial occupancy:   6   1

 ITERATION    DDIFF          GRAD             ENERGY        2-EL.EN.            DIPOLE MOMENTS         DIIS   ORB.
    1      0.000D+00      0.000D+00       -92.92827801    112.224876    0.00690    0.00000   -1.76295    0    start
    2      0.000D+00      0.894D-02       -92.93749367    111.346068   -0.00241    0.00000   -0.88878    1    diag
    3      0.143D-01      0.796D-02       -92.95224698    111.870328    0.00137    0.00000   -1.28816    2    diag
    4      0.715D-02      0.637D-03       -92.95246286    111.839246    0.00103    0.00000   -1.27959    3    diag
    5      0.113D-02      0.136D-03       -92.95247474    111.847427    0.00093    0.00000   -1.27819    4    diag
    6      0.304D-03      0.373D-04       -92.95247540    111.843123    0.00092    0.00000   -1.27834    5    diag
    7      0.653D-04      0.133D-04       -92.95247547    111.844271    0.00091    0.00000   -1.27845    6    diag
    8      0.226D-04      0.259D-05       -92.95247547    111.844211    0.00091    0.00000   -1.27843    7    diag
    9      0.420D-05      0.285D-06       -92.95247547    111.844218    0.00091    0.00000   -1.27842    8    diag
   10      0.599D-06      0.305D-07       -92.95247547    111.844218    0.00091    0.00000   -1.27842    9    orth
   11      0.579D-07      0.574D-08       -92.95247547    111.844218    0.00091    0.00000   -1.27842    9    diag
   12      0.139D-07      0.250D-08       -92.95247547    111.844218    0.00091    0.00000   -1.27842    9    diag
   13      0.777D-08      0.979D-09       -92.95247547    111.844218    0.00091    0.00000   -1.27842    9    diag
   14      0.420D-08      0.247D-09       -92.95247547    111.844218    0.00091    0.00000   -1.27842    9    diag
   15      0.813D-09      0.913D-10       -92.95247547    111.844218    0.00091    0.00000   -1.27842    9    diag
   16      0.280D-09      0.122D-10       -92.95247547    111.844218    0.00091    0.00000   -1.27842    9    diag
   17      0.451D-10      0.278D-11       -92.95247547    111.844218    0.00091    0.00000   -1.27842    9    diag
   18      0.119D-10      0.719D-12       -92.95247547    111.844218    0.00091    0.00000   -1.27842    9    diag
   19      0.232D-11      0.308D-12       -92.95247547    111.844218    0.00091    0.00000   -1.27842    9    fixocc
   20      0.436D-12      0.327D-13       -92.95247547    111.844218    0.00091    0.00000   -1.27842    9    orth
   21      0.926D-13      0.327D-13       -92.95247547    111.844218    0.00091    0.00000   -1.27842    9    diag
   22      0.460D-13      0.230D-13       -92.95247547    111.844218    0.00091    0.00000   -1.27842    9    diag
   23      0.391D-13      0.201D-13       -92.95247547    111.844218    0.00091    0.00000   -1.27842    9    diag
   24      0.232D-13      0.187D-13       -92.95247547    111.844218    0.00091    0.00000   -1.27842    0    orth

 Final occupancy:   6   1

 !RHF STATE 1.1 Energy                -92.952475474008
 Nuclear energy                        24.01363501
 One-electron energy                 -172.88821961
 Two-electron energy                   55.92210912
 Virial quotient                       -0.99860664
 !RHF STATE 1.1 Dipole moment           0.00091090     0.00000000    -1.27842435
 Dipole moment /Debye                   0.00231513     0.00000000    -3.24921775

 Orbital energies:

         1.1          2.1          3.1          4.1          5.1          6.1          7.1          8.1
    -15.604575   -11.292804    -1.238610    -0.811267    -0.580863    -0.496940     0.142019     0.168643

         1.2          2.2          3.2
     -0.496942     0.168651     0.446513

 HOMO      6.1    -0.496940 =     -13.5224eV
 LUMO      7.1     0.142019 =       3.8645eV
 LUMO-HOMO         0.638959 =      17.3870eV


 **********************************************************************************************************************************
 DATASETS  * FILE   NREC   LENGTH (MB)   RECORD NAMES
              1      23       36.03       500      610      700      900      950      970     1000      129      960     1700   
                                          VAR    BASINP    GEOM    SYMINP    ZMAT    AOBASIS   BASIS     P2S    ABASIS    OPER   
                                         1101     1401     1411     1412     1650     1100     1400     1410     1200     1210   
                                          SR      EKINR    POTR     PVPR    MOLCAS      S      EKIN      POT      H0       H01  
                                         1300     1080     1600   
                                         ERIS     AOSYM     SMH  

              2       4        2.85       700     1000      520     2100   
                                         GEOM     BASIS   MCVARS     RHF  

 PROGRAMS   *        TOTAL        HF       INT
 CPU TIMES  *         0.89      0.26      0.56
 REAL TIME  *         1.59 SEC
 DISK USED  *        75.75 MB      
 **********************************************************************************************************************************


 PROGRAM * CCSD (Closed-shell coupled cluster)     Authors: C. Hampel, H.-J. Werner, 1991, M. Deegan, P.J. Knowles, 1992


 Convergence thresholds:  THRVAR = 1.00D-08  THRDEN = 1.00D-12

 CCSD(T)     terms to be evaluated (factor= 1.000)


 Number of core orbitals:           2 (   2   0 )
 Number of closed-shell orbitals:   5 (   4   1 )
 Number of external orbitals:      67 (  44  23 )

 Molecular orbitals read from record     2100.2  Type=RHF/CANONICAL (state 1.1)

 Number of N-1 electron functions:               5
 Number of N-2 electron functions:              15
 Number of singly external CSFs:               199
 Number of doubly external CSFs:             29216
 Total number of CSFs:                       29416

 Length of J-op  integral file:               0.00 MB
 Length of K-op  integral file:               0.25 MB
 Length of 3-ext integral record:             0.00 MB

 Memory could be reduced to 1.53 Mwords without degradation in triples

 Integral transformation finished. Total CPU:   0.02 sec, npass=  1  Memory used:   0.47 MW

 Reference energy:                    -92.95247547

 MP2 singlet pair energy:              -0.21748219
 MP2 triplet pair energy:              -0.12680660
 MP2 correlation energy:               -0.34428880
 MP2 total energy:                    -93.29676427

 SCS-MP2 correlation energy:           -0.33988052   (PS=  1.200000  PT=  0.333333)
 SCS-MP2 total energy:                -93.29235599

 ITER.      SQ.NORM     CORR.ENERGY   TOTAL ENERGY   ENERGY CHANGE        DEN1      VAR(S)    VAR(P)  DIIS     TIME  TIME/IT
   1      1.11403619    -0.34786810   -93.30034357    -0.00357930     0.00901722  0.25D-02  0.29D-02  1  1     0.05     0.03
   2      1.12346686    -0.34827400   -93.30074947    -0.00040590    -0.00993407  0.48D-04  0.40D-03  2  2     0.08     0.03
   3      1.12839224    -0.34849195   -93.30096743    -0.00021796    -0.00248638  0.12D-04  0.40D-04  3  3     0.11     0.03
   4      1.13042134    -0.34858402   -93.30105949    -0.00009207    -0.00074051  0.28D-06  0.42D-05  4  4     0.14     0.03
   5      1.13086036    -0.34858033   -93.30105581     0.00000369    -0.00012381  0.10D-06  0.37D-06  5  5     0.17     0.03
   6      1.13095081    -0.34857943   -93.30105490     0.00000091    -0.00002396  0.80D-08  0.27D-07  6  6     0.19     0.03
   7      1.13095812    -0.34858155   -93.30105703    -0.00000213    -0.00000220  0.58D-09  0.23D-08  6  1     0.22     0.03
   8      1.13095856    -0.34858202   -93.30105749    -0.00000047     0.00000064  0.45D-10  0.13D-09  6  2     0.25     0.03
   9      1.13095918    -0.34858205   -93.30105752    -0.00000003    -0.00000035  0.36D-11  0.92D-11  6  3     0.27     0.03
  10      1.13095913    -0.34858206   -93.30105754    -0.00000001     0.00000009  0.35D-12  0.91D-12  6  4     0.30     0.03
  11      1.13095910    -0.34858207   -93.30105754    -0.00000000     0.00000001  0.55D-13  0.99D-13  6  5     0.33     0.03
  12      1.13095905    -0.34858207   -93.30105754    -0.00000000     0.00000002  0.68D-14  0.20D-13  6  6     0.36     0.03
  13      1.13095901    -0.34858207   -93.30105755    -0.00000000     0.00000001  0.17D-14  0.20D-14  6  2     0.39     0.03
  14      1.13095900    -0.34858207   -93.30105755    -0.00000000     0.00000000  0.15D-15  0.12D-15  6  1     0.41     0.03
  15      1.13095900    -0.34858207   -93.30105755     0.00000000     0.00000000  0.47D-16  0.21D-16  6  3     0.44     0.03
  16      1.13095900    -0.34858207   -93.30105755    -0.00000000     0.00000000  0.65D-17  0.25D-17  6  5     0.47     0.03
  17      1.13095900    -0.34858207   -93.30105755    -0.00000000     0.00000000  0.11D-17  0.58D-18  6  4     0.49     0.03
  18      1.13095900    -0.34858207   -93.30105755     0.00000000    -0.00000000  0.94D-19  0.78D-19  6  2     0.52     0.03
  19      1.13095900    -0.34858207   -93.30105755     0.00000000    -0.00000000  0.15D-20  0.77D-20  6  6     0.54     0.03
  20      1.13095900    -0.34858207   -93.30105755     0.00000000    -0.00000000  0.66D-21  0.11D-20  6  1     0.57     0.03
  21      1.13095900    -0.34858207   -93.30105755    -0.00000000    -0.00000000  0.56D-22  0.13D-21  6  5     0.59     0.03

 Norm of t1 vector:      0.06297160      S-energy:     0.00000000      T1 diagnostic:  0.01408088
                                                                       D1 diagnostic:  0.02831357

 Doubles amplitudes (print threshold =  0.500E-01):

         I         J         SYM. A    SYM. B    A         B      T(IJ, AB)

         4         4         1         1         2         2     -0.08578210
         5         5         2         2         1         1     -0.08586841
         5         4         2         1         1         2     -0.05390607


 Total CPU time for triples:      0.14 sec


 RESULTS
 =======

  Reference energy                    -92.952475474008
  CCSD singlet pair energy             -0.242239723251
  CCSD triplet pair energy             -0.106342348820
  CCSD correlation energy              -0.348582072071

  Triples (T) contribution             -0.017719329388
  Total correlation energy             -0.366301401459

  CCSD total energy                   -93.301057546079
  CCSD[T] energy                      -93.319577836055
  CCSD-T energy                       -93.318375651959
 !CCSD(T) total energy                -93.318776875467

 Timing summary (sec):

 STEP                 CPU(USER)    SYS     CPU(TOT)    WALL
 Transformation          0.02      0.01      0.03      0.04
 CCSD iterations         0.57      0.12      0.69      0.69
 Triples                 0.14      0.00      0.14      0.14

 Program statistics:

 Available memory in ccsd:               994999800
 Min. memory needed in ccsd:                125648
 Max. memory used in ccsd:                  146560
 Max. memory used in cckext:                201693 (21 integral passes)



 **********************************************************************************************************************************
 DATASETS  * FILE   NREC   LENGTH (MB)   RECORD NAMES
              1      24       39.73       500      610      700      900      950      970     1000      129      960     1700   
                                          VAR    BASINP    GEOM    SYMINP    ZMAT    AOBASIS   BASIS     P2S    ABASIS    OPER   
                                         1101     1401     1411     1412     1650     1100     1400     1410     1200     1210   
                                          SR      EKINR    POTR     PVPR    MOLCAS      S      EKIN      POT      H0       H01  
                                         1300     1080     1600     1380   
                                         ERIS     AOSYM     SMH     JKOP   

              2       4        2.85       700     1000      520     2100   
                                         GEOM     BASIS   MCVARS     RHF  

 PROGRAMS   *        TOTAL   CCSD(T)        HF       INT
 CPU TIMES  *         1.65      0.76      0.26      0.56
 REAL TIME  *         2.50 SEC
 DISK USED  *        75.75 MB      
 **********************************************************************************************************************************

 CCSD(T)/cc-pVTZ-DK energy=    -93.318776875467

        CCSD(T)         HF-SCF  
    -93.31877688    -92.95247547
 **********************************************************************************************************************************
 Molpro calculation terminated
 Variable memory released
