
 Primary working directories    : /tmp/r2666/232644.maple
 Secondary working directories  : /tmp/r2666/232644.maple
 Wavefunction directory         : /ddn/home4/r2666/wfu/
 Main file repository           : /tmp/r2666/232644.maple/

 SHA1      : d5ffa45e93fdbca01ffc919aa182cfdae0147319
 NAME      : 2015.1.35
 ARCHNAME  : linux/x86_64
 FC        : /opt/intel/composer_xe_2015.1.133/bin/intel64/ifort
 BLASLIB   : -Wl,-_start-group /opt/intel/mkl/lib/intel64/libmkl_intel_ilp64.a /opt/intel/mkl/lib/intel64/libmkl_intel_thread.a /opt/intel/mkl/lib/intel64/libmkl_core.a -Wl,-_end-group
 id        : olemiss

 Nodes     nprocs
 cn093        1

 Using customized tuning parameters: mindgm=1; mindgv=20; mindgc=4; mindgr=1; noblas=0; minvec=7
 default implementation of scratch files=df  

 ***,hcn CCSD(T)/TZ-F12 QFF
 memory, 995, m;
 gthresh,energy=1.d-12,zero=1.d-22,oneint=1.d-22,twoint=1.d-22;
 gthresh,optgrad=1.d-8,optstep=1.d-8;
 nocompress;
 geomtyp=xyz
 bohr
 geometry={
 3
         33        33
 N       -0.0046390182        0.0000001580        1.1309515334
 C        0.0096588041       -0.0000000041       -1.0478512212
 H       -0.0050197859       -0.0000001539       -3.0801702942
 }
 
 basis=vtz-dk
 dkroll=1
   {hf,maxit=500;accu,20;}
 {ccsd(t),nocheck,maxit=250;orbital,IGNORE_ERROR;}

 Variables initialized (889), CPU time= 0.01 sec
 Commands  initialized (702), CPU time= 0.01 sec, 572 directives.
 Default parameters read. Elapsed time= 0.05 sec

 Checking input...
 Passed
1


                                         ***  PROGRAM SYSTEM MOLPRO  ***
                                       Copyright, TTI GmbH Stuttgart, 2015
                                    Version 2015.1 linked Jul  9 2018 13:16:40


 **********************************************************************************************************************************
 LABEL *   hcn CCSD(T)/TZ-F12 QFF                                                        
  64 bit serial version                                                                  DATE: 06-Feb-20          TIME: 09:54:41  
 **********************************************************************************************************************************

 SHA1:             d5ffa45e93fdbca01ffc919aa182cfdae0147319
 **********************************************************************************************************************************

 THRESHOLDS:

 ZERO    =  1.00D-22  ONEINT  =  1.00D-22  TWOINT  =  1.00D-22  PREFAC  =  1.00D-14  LOCALI  =  1.00D-09  EORDER  =  1.00D-04
 ENERGY  =  1.00D-12  ETEST   =  0.00D+00  EDENS   =  0.00D+00  THRDEDEF=  1.00D-06  GRADIENT=  1.00D-02  STEP    =  1.00D-03
 ORBITAL =  1.00D-05  CIVEC   =  1.00D-05  COEFF   =  1.00D-04  PRINTCI =  5.00D-02  PUNCHCI =  9.90D+01  OPTGRAD =  3.00D-04
 OPTENERG=  1.00D-06  OPTSTEP =  3.00D-04  THRGRAD =  1.00D-10  COMPRESS=  1.00D-11  VARMIN  =  1.00D-07  VARMAX  =  1.00D-03
 THRDOUB =  0.00D+00  THRDIV  =  1.00D-05  THRRED  =  1.00D-07  THRPSP  =  1.00D+00  THRDC   =  1.00D-10  THRCS   =  1.00D-10
 THRNRM  =  1.00D-08  THREQ   =  0.00D+00  THRDE   =  1.00D+00  THRREF  =  1.00D-05  SPARFAC =  1.00D+00  THRDLP  =  1.00D-07
 THRDIA  =  1.00D-10  THRDLS  =  1.00D-07  THRGPS  =  0.00D+00  THRKEX  =  0.00D+00  THRDIS  =  2.00D-01  THRVAR  =  1.00D-10
 THRLOC  =  1.00D-06  THRGAP  =  1.00D-06  THRLOCT = -1.00D+00  THRGAPT = -1.00D+00  THRORB  =  1.00D-06  THRMLTP =  0.00D+00
 THRCPQCI=  1.00D-10  KEXTA   =  0.00D+00  THRCOARS=  0.00D+00  SYMTOL  =  1.00D-06  GRADTOL =  1.00D-06  THROVL  =  1.00D-08
 THRORTH =  1.00D-08  GRID    =  1.00D-06  GRIDMAX =  1.00D-03  DTMAX   =  0.00D+00  THROCCDE=  1.00D-01  THROCCDE=  1.00D-01



 THRESHOLDS:

 ZERO    =  1.00D-22  ONEINT  =  1.00D-22  TWOINT  =  1.00D-22  PREFAC  =  1.00D-14  LOCALI  =  1.00D-09  EORDER  =  1.00D-04
 ENERGY  =  1.00D-12  ETEST   =  0.00D+00  EDENS   =  0.00D+00  THRDEDEF=  1.00D-06  GRADIENT=  1.00D-02  STEP    =  1.00D-03
 ORBITAL =  1.00D-05  CIVEC   =  1.00D-05  COEFF   =  1.00D-04  PRINTCI =  5.00D-02  PUNCHCI =  9.90D+01  OPTGRAD =  1.00D-08
 OPTENERG=  1.00D-06  OPTSTEP =  1.00D-08  THRGRAD =  1.00D-10  COMPRESS=  1.00D-11  VARMIN  =  1.00D-07  VARMAX  =  1.00D-03
 THRDOUB =  0.00D+00  THRDIV  =  1.00D-05  THRRED  =  1.00D-07  THRPSP  =  1.00D+00  THRDC   =  1.00D-10  THRCS   =  1.00D-10
 THRNRM  =  1.00D-08  THREQ   =  0.00D+00  THRDE   =  1.00D+00  THRREF  =  1.00D-05  SPARFAC =  1.00D+00  THRDLP  =  1.00D-07
 THRDIA  =  1.00D-10  THRDLS  =  1.00D-07  THRGPS  =  0.00D+00  THRKEX  =  0.00D+00  THRDIS  =  2.00D-01  THRVAR  =  1.00D-10
 THRLOC  =  1.00D-06  THRGAP  =  1.00D-06  THRLOCT = -1.00D+00  THRGAPT = -1.00D+00  THRORB  =  1.00D-06  THRMLTP =  0.00D+00
 THRCPQCI=  1.00D-10  KEXTA   =  0.00D+00  THRCOARS=  0.00D+00  SYMTOL  =  1.00D-06  GRADTOL =  1.00D-06  THROVL  =  1.00D-08
 THRORTH =  1.00D-08  GRID    =  1.00D-06  GRIDMAX =  1.00D-03  DTMAX   =  0.00D+00  THROCCDE=  1.00D-01  THROCCDE=  1.00D-01



 Input parameters for SORTINT:

 COMPRESS =    0.000000
 C_FINAL  =    1.000000
 DEBUG    =   -1.000000
 C_SORT1  =    0.000000
 C_SEWARD =    0.000000
 THRESH   =    0.000000
 IO       =  molpro                                                          
 SPRI     =    0.000000
 SETTING GEOMTYP        =    XYZ
 ZUNIT=BOHR
 

 Variable memory set to  995000000 words,  buffer space   230000 words

 SETTING BASIS          =    VTZ-DK
 SETTING DKROLL         =         1.00000000                                  


 Recomputing integrals since basis changed


 Using spherical harmonics

 Library entry N      S cc-pVTZ-DK           selected for orbital group  1
 Library entry N      P cc-pVTZ-DK           selected for orbital group  1
 Library entry N      D cc-pVTZ-DK           selected for orbital group  1
 Library entry N      F cc-pVTZ-DK           selected for orbital group  1
 Library entry C      S cc-pVTZ-DK           selected for orbital group  2
 Library entry C      P cc-pVTZ-DK           selected for orbital group  2
 Library entry C      D cc-pVTZ-DK           selected for orbital group  2
 Library entry C      F cc-pVTZ-DK           selected for orbital group  2
 Library entry H      S cc-pVTZ-DK           selected for orbital group  3
 Library entry H      P cc-pVTZ-DK           selected for orbital group  3
 Library entry H      D cc-pVTZ-DK           selected for orbital group  3


 PROGRAM * SEWARD (Integral evaluation for generally contracted gaussian basis sets)     Author: Roland Lindh, 1990

 Geometry written to block  1 of record 700


 Point group  Cs  



 ATOMIC COORDINATES

 NR  ATOM    CHARGE       X              Y              Z

   1  N       7.00   -0.004639018    0.000000000    1.130951533
   2  C       6.00    0.009658804    0.000000000   -1.047851221
   3  H       1.00   -0.005019786    0.000000000   -3.080170294

 Bond lengths in Bohr (Angstrom)

 1-2  2.178849667  2-3  2.032372081
     ( 1.152997590)     ( 1.075484989)

 Bond angles

  1-2-3  179.21020062

 NUCLEAR CHARGE:                   14
 NUMBER OF PRIMITIVE AOS:         111
 NUMBER OF SYMMETRY AOS:          100
 NUMBER OF CONTRACTIONS:           74   (  50A'  +  24A"  )
 NUMBER OF CORE ORBITALS:           2   (   2A'  +   0A"  )
 NUMBER OF VALENCE ORBITALS:        9   (   7A'  +   2A"  )


 NUCLEAR REPULSION ENERGY   23.89070686

 One-electron integrals computed with SEWARD

 2nd-order Douglas-Kroll-Hess method activated. Optimal DKH parametrization is used.

 Computing Douglas-Kroll / X2C integrals


        1874113. INTEGRALS WRITTEN OUT IN     458 BLOCKS ON RECORD 1290 OF FILE 1


 NUMBER OF SORTED TWO-ELECTRON INTEGRALS:    2006100.     BUFFER LENGTH:  32768
 NUMBER OF SEGMENTS:   1  SEGMENT LENGTH:    2006100      RECORD LENGTH: 524288

 Memory used in sort:       2.56 MW

 SORT1 READ     1874113. AND WROTE     1914026. INTEGRALS IN      6 RECORDS. CPU TIME:     0.03 SEC, REAL TIME:     0.04 SEC
 SORT2 READ     1914026. AND WROTE     2006100. INTEGRALS IN      1 RECORDS. CPU TIME:     0.07 SEC, REAL TIME:     0.06 SEC

 FILE SIZES:   FILE 1:    50.2 MBYTE,  FILE 4:    25.2 MBYTE,   TOTAL:     75.4 MBYTE

 OPERATOR DM      FOR CENTER  0  COORDINATES:    0.000000    0.000000    0.000000

 Eigenvalues of metric

         1 0.110E-02 0.147E-02 0.247E-02 0.649E-02 0.111E-01 0.154E-01 0.192E-01 0.294E-01
         2 0.154E-01 0.366E-01 0.613E-01 0.903E-01 0.133E+00 0.288E+00 0.292E+00 0.379E+00


 **********************************************************************************************************************************
 DATASETS  * FILE   NREC   LENGTH (MB)   RECORD NAMES
              1      23       36.03       500      610      700      900      950      970     1000      129      960     1700   
                                          VAR    BASINP    GEOM    SYMINP    ZMAT    AOBASIS   BASIS     P2S    ABASIS    OPER   
                                         1101     1401     1411     1412     1650     1100     1400     1410     1200     1210   
                                          SR      EKINR    POTR     PVPR    MOLCAS      S      EKIN      POT      H0       H01  
                                         1300     1080     1600   
                                         ERIS     AOSYM     SMH  

 PROGRAMS   *        TOTAL       INT
 CPU TIMES  *         0.74      0.64
 REAL TIME  *         1.36 SEC
 DISK USED  *        75.75 MB      
 **********************************************************************************************************************************


 PROGRAM * RHF-SCF (CLOSED SHELL)       Authors: W. Meyer, H.-J. Werner


 NUMBER OF ELECTRONS:       7+    7-
 CONVERGENCE THRESHOLDS:    1.00E-10 (Density)    1.00E-13 (Energy)
 MAX. NUMBER OF ITERATIONS:      500
 INTERPOLATION TYPE:            DIIS
 INTERPOLATION STEPS:              2 (START)      1 (STEP)
 LEVEL SHIFTS:                  0.00 (CLOSED)  0.00 (OPEN) 



 Orbital guess generated from atomic densities. Full valence occupancy:    9   2

 Molecular orbital dump at record        2100.2

 Initial occupancy:   6   1

 ITERATION    DDIFF          GRAD             ENERGY        2-EL.EN.            DIPOLE MOMENTS         DIIS   ORB.
    1      0.000D+00      0.000D+00       -92.92702968    111.978864    0.00694    0.00000   -1.77937    0    start
    2      0.000D+00      0.900D-02       -92.93605339    111.118283   -0.00256    0.00000   -0.88548    1    diag
    3      0.144D-01      0.810D-02       -92.95138348    111.644025    0.00133    0.00000   -1.29461    2    diag
    4      0.725D-02      0.637D-03       -92.95160074    111.610527    0.00099    0.00000   -1.28609    3    diag
    5      0.113D-02      0.140D-03       -92.95161306    111.620318    0.00088    0.00000   -1.28471    4    diag
    6      0.306D-03      0.390D-04       -92.95161381    111.615583    0.00087    0.00000   -1.28480    5    diag
    7      0.695D-04      0.141D-04       -92.95161388    111.616727    0.00086    0.00000   -1.28492    6    diag
    8      0.240D-04      0.270D-05       -92.95161388    111.616670    0.00086    0.00000   -1.28490    7    diag
    9      0.439D-05      0.294D-06       -92.95161388    111.616677    0.00086    0.00000   -1.28490    8    diag
   10      0.621D-06      0.308D-07       -92.95161388    111.616678    0.00086    0.00000   -1.28490    9    orth
   11      0.587D-07      0.594D-08       -92.95161388    111.616678    0.00086    0.00000   -1.28490    9    diag
   12      0.146D-07      0.261D-08       -92.95161388    111.616678    0.00086    0.00000   -1.28490    9    diag
   13      0.830D-08      0.101D-08       -92.95161388    111.616678    0.00086    0.00000   -1.28490    9    diag
   14      0.421D-08      0.272D-09       -92.95161388    111.616678    0.00086    0.00000   -1.28490    9    diag
   15      0.915D-09      0.107D-09       -92.95161388    111.616678    0.00086    0.00000   -1.28490    9    diag
   16      0.336D-09      0.159D-10       -92.95161388    111.616678    0.00086    0.00000   -1.28490    9    diag
   17      0.531D-10      0.389D-11       -92.95161388    111.616678    0.00086    0.00000   -1.28490    9    diag
   18      0.123D-10      0.150D-11       -92.95161388    111.616678    0.00086    0.00000   -1.28490    9    diag
   19      0.440D-11      0.618D-12       -92.95161388    111.616678    0.00086    0.00000   -1.28490    9    fixocc
   20      0.946D-12      0.576D-13       -92.95161388    111.616678    0.00086    0.00000   -1.28490    9    orth
   21      0.706D-13      0.370D-13       -92.95161388    111.616678    0.00086    0.00000   -1.28490    9    diag
   22      0.678D-13      0.404D-13       -92.95161388    111.616678    0.00086    0.00000   -1.28490    9    diag
   23      0.276D-13      0.294D-13       -92.95161388    111.616678    0.00086    0.00000   -1.28490    9    diag
   24      0.887D-13      0.350D-13       -92.95161388    111.616678    0.00086    0.00000   -1.28490    9    diag
   25      0.216D-13      0.396D-13       -92.95161388    111.616678    0.00086    0.00000   -1.28490    9    diag
   26      0.923D-14      0.469D-13       -92.95161388    111.616678    0.00086    0.00000   -1.28490    0    orth

 Final occupancy:   6   1

 !RHF STATE 1.1 Energy                -92.951613884632
 Nuclear energy                        23.89070686
 One-electron energy                 -172.65065951
 Two-electron energy                   55.80833877
 Virial quotient                       -0.99906219
 !RHF STATE 1.1 Dipole moment           0.00086100     0.00000000    -1.28490098
 Dipole moment /Debye                   0.00218830     0.00000000    -3.26567863

 Orbital energies:

         1.1          2.1          3.1          4.1          5.1          6.1          7.1          8.1
    -15.606161   -11.295334    -1.236104    -0.808113    -0.580764    -0.495257     0.140865     0.167188

         1.2          2.2          3.2
     -0.495259     0.167193     0.446772

 HOMO      6.1    -0.495257 =     -13.4766eV
 LUMO      7.1     0.140865 =       3.8331eV
 LUMO-HOMO         0.636122 =      17.3098eV


 **********************************************************************************************************************************
 DATASETS  * FILE   NREC   LENGTH (MB)   RECORD NAMES
              1      23       36.03       500      610      700      900      950      970     1000      129      960     1700   
                                          VAR    BASINP    GEOM    SYMINP    ZMAT    AOBASIS   BASIS     P2S    ABASIS    OPER   
                                         1101     1401     1411     1412     1650     1100     1400     1410     1200     1210   
                                          SR      EKINR    POTR     PVPR    MOLCAS      S      EKIN      POT      H0       H01  
                                         1300     1080     1600   
                                         ERIS     AOSYM     SMH  

              2       4        2.85       700     1000      520     2100   
                                         GEOM     BASIS   MCVARS     RHF  

 PROGRAMS   *        TOTAL        HF       INT
 CPU TIMES  *         1.04      0.30      0.64
 REAL TIME  *         1.78 SEC
 DISK USED  *        75.75 MB      
 **********************************************************************************************************************************


 PROGRAM * CCSD (Closed-shell coupled cluster)     Authors: C. Hampel, H.-J. Werner, 1991, M. Deegan, P.J. Knowles, 1992


 Convergence thresholds:  THRVAR = 1.00D-08  THRDEN = 1.00D-12

 CCSD(T)     terms to be evaluated (factor= 1.000)


 Number of core orbitals:           2 (   2   0 )
 Number of closed-shell orbitals:   5 (   4   1 )
 Number of external orbitals:      67 (  44  23 )

 Molecular orbitals read from record     2100.2  Type=RHF/CANONICAL (state 1.1)

 Number of N-1 electron functions:               5
 Number of N-2 electron functions:              15
 Number of singly external CSFs:               199
 Number of doubly external CSFs:             29216
 Total number of CSFs:                       29416

 Length of J-op  integral file:               0.00 MB
 Length of K-op  integral file:               0.25 MB
 Length of 3-ext integral record:             0.00 MB

 Memory could be reduced to 1.53 Mwords without degradation in triples

 Integral transformation finished. Total CPU:   0.03 sec, npass=  1  Memory used:   0.47 MW

 Reference energy:                    -92.95161388

 MP2 singlet pair energy:              -0.21811676
 MP2 triplet pair energy:              -0.12726647
 MP2 correlation energy:               -0.34538323
 MP2 total energy:                    -93.29699711

 SCS-MP2 correlation energy:           -0.34092813   (PS=  1.200000  PT=  0.333333)
 SCS-MP2 total energy:                -93.29254202

 ITER.      SQ.NORM     CORR.ENERGY   TOTAL ENERGY   ENERGY CHANGE        DEN1      VAR(S)    VAR(P)  DIIS     TIME  TIME/IT
   1      1.11483983    -0.34871336   -93.30032724    -0.00333013     0.00949162  0.25D-02  0.30D-02  1  1     0.07     0.04
   2      1.12442763    -0.34908932   -93.30070321    -0.00037597    -0.01006660  0.49D-04  0.41D-03  2  2     0.10     0.04
   3      1.12948488    -0.34931579   -93.30092967    -0.00022647    -0.00253702  0.12D-04  0.41D-04  3  3     0.14     0.04
   4      1.13157870    -0.34941176   -93.30102564    -0.00009597    -0.00075932  0.29D-06  0.44D-05  4  4     0.18     0.04
   5      1.13203566    -0.34940849   -93.30102238     0.00000326    -0.00012788  0.11D-06  0.40D-06  5  5     0.22     0.04
   6      1.13213335    -0.34940735   -93.30102123     0.00000115    -0.00002577  0.87D-08  0.29D-07  6  6     0.25     0.04
   7      1.13214126    -0.34940959   -93.30102348    -0.00000224    -0.00000235  0.61D-09  0.24D-08  6  1     0.28     0.04
   8      1.13214179    -0.34941007   -93.30102395    -0.00000048     0.00000064  0.49D-10  0.14D-09  6  2     0.32     0.04
   9      1.13214246    -0.34941010   -93.30102398    -0.00000003    -0.00000037  0.39D-11  0.10D-10  6  3     0.36     0.04
  10      1.13214241    -0.34941012   -93.30102400    -0.00000002     0.00000009  0.39D-12  0.10D-11  6  4     0.40     0.04
  11      1.13214237    -0.34941012   -93.30102400    -0.00000000     0.00000001  0.63D-13  0.11D-12  6  5     0.44     0.04
  12      1.13214232    -0.34941012   -93.30102401    -0.00000000     0.00000002  0.74D-14  0.23D-13  6  6     0.47     0.04
  13      1.13214228    -0.34941012   -93.30102401    -0.00000000     0.00000001  0.19D-14  0.23D-14  6  2     0.50     0.04
  14      1.13214227    -0.34941013   -93.30102401    -0.00000000     0.00000000  0.16D-15  0.13D-15  6  1     0.53     0.04
  15      1.13214227    -0.34941013   -93.30102401     0.00000000     0.00000000  0.50D-16  0.24D-16  6  3     0.57     0.04
  16      1.13214227    -0.34941013   -93.30102401    -0.00000000     0.00000000  0.72D-17  0.28D-17  6  5     0.61     0.04
  17      1.13214227    -0.34941013   -93.30102401    -0.00000000     0.00000000  0.13D-17  0.65D-18  6  4     0.64     0.04
  18      1.13214227    -0.34941013   -93.30102401     0.00000000    -0.00000000  0.11D-18  0.89D-19  6  2     0.67     0.04
  19      1.13214227    -0.34941013   -93.30102401     0.00000000    -0.00000000  0.20D-20  0.89D-20  6  6     0.71     0.04
  20      1.13214227    -0.34941013   -93.30102401     0.00000000    -0.00000000  0.82D-21  0.13D-20  6  1     0.74     0.04
  21      1.13214227    -0.34941013   -93.30102401    -0.00000000    -0.00000000  0.76D-22  0.21D-21  6  3     0.77     0.04

 Norm of t1 vector:      0.06373671      S-energy:    -0.00000000      T1 diagnostic:  0.01425196
                                                                       D1 diagnostic:  0.02863560

 Doubles amplitudes (print threshold =  0.500E-01):

         I         J         SYM. A    SYM. B    A         B      T(IJ, AB)

         4         4         1         1         2         2     -0.08674224
         5         5         2         2         1         1     -0.08683890
         5         4         2         1         1         2     -0.05440634


 Total CPU time for triples:      0.17 sec


 RESULTS
 =======

  Reference energy                    -92.951613884632
  CCSD singlet pair energy             -0.242960995597
  CCSD triplet pair energy             -0.106449129463
  CCSD correlation energy              -0.349410125060

  Triples (T) contribution             -0.017900713920
  Total correlation energy             -0.367310838980

  CCSD total energy                   -93.301024009692
  CCSD[T] energy                      -93.319746740670
  CCSD-T energy                       -93.318514662917
 !CCSD(T) total energy                -93.318924723612

 Timing summary (sec):

 STEP                 CPU(USER)    SYS     CPU(TOT)    WALL
 Transformation          0.03      0.01      0.04      0.04
 CCSD iterations         0.75      0.09      0.84      0.85
 Triples                 0.17      0.01      0.18      0.17

 Program statistics:

 Available memory in ccsd:               994999800
 Min. memory needed in ccsd:                125648
 Max. memory used in ccsd:                  146560
 Max. memory used in cckext:                201693 (21 integral passes)



 **********************************************************************************************************************************
 DATASETS  * FILE   NREC   LENGTH (MB)   RECORD NAMES
              1      24       39.73       500      610      700      900      950      970     1000      129      960     1700   
                                          VAR    BASINP    GEOM    SYMINP    ZMAT    AOBASIS   BASIS     P2S    ABASIS    OPER   
                                         1101     1401     1411     1412     1650     1100     1400     1410     1200     1210   
                                          SR      EKINR    POTR     PVPR    MOLCAS      S      EKIN      POT      H0       H01  
                                         1300     1080     1600     1380   
                                         ERIS     AOSYM     SMH     JKOP   

              2       4        2.85       700     1000      520     2100   
                                         GEOM     BASIS   MCVARS     RHF  

 PROGRAMS   *        TOTAL   CCSD(T)        HF       INT
 CPU TIMES  *         2.01      0.96      0.30      0.64
 REAL TIME  *         2.88 SEC
 DISK USED  *        75.75 MB      
 **********************************************************************************************************************************

 CCSD(T)/cc-pVTZ-DK energy=    -93.318924723612

        CCSD(T)         HF-SCF  
    -93.31892472    -92.95161388
 **********************************************************************************************************************************
 Molpro calculation terminated
 Variable memory released
