
 Primary working directories    : /tmp/r2666/232666.maple
 Secondary working directories  : /tmp/r2666/232666.maple
 Wavefunction directory         : /ddn/home4/r2666/wfu/
 Main file repository           : /tmp/r2666/232666.maple/

 SHA1      : d5ffa45e93fdbca01ffc919aa182cfdae0147319
 NAME      : 2015.1.35
 ARCHNAME  : linux/x86_64
 FC        : /opt/intel/composer_xe_2015.1.133/bin/intel64/ifort
 BLASLIB   : -Wl,-_start-group /opt/intel/mkl/lib/intel64/libmkl_intel_ilp64.a /opt/intel/mkl/lib/intel64/libmkl_intel_thread.a /opt/intel/mkl/lib/intel64/libmkl_core.a -Wl,-_end-group
 id        : olemiss

 Nodes     nprocs
 cn088        1

 Using customized tuning parameters: mindgm=1; mindgv=20; mindgc=4; mindgr=1; noblas=0; minvec=7
 default implementation of scratch files=df  

 ***,hcn CCSD(T)/TZ-F12 QFF
 memory, 995, m;
 gthresh,energy=1.d-12,zero=1.d-22,oneint=1.d-22,twoint=1.d-22;
 gthresh,optgrad=1.d-8,optstep=1.d-8;
 nocompress;
 geomtyp=xyz
 bohr
 geometry={
 3
         55        55
 N        0.0000000000        0.0000000000        1.1498977375
 C        0.0000000000        0.0000000000       -1.0667464493
 H        0.0000000000        0.0000000000       -3.0802212703
 }
 
 basis=vtz-dk
 dkroll=1
   {hf,maxit=500;accu,20;}
 {ccsd(t),nocheck,maxit=250;orbital,IGNORE_ERROR;}

 Variables initialized (889), CPU time= 0.00 sec
 Commands  initialized (702), CPU time= 0.01 sec, 572 directives.
 Default parameters read. Elapsed time= 0.06 sec

 Checking input...
 Passed
1


                                         ***  PROGRAM SYSTEM MOLPRO  ***
                                       Copyright, TTI GmbH Stuttgart, 2015
                                    Version 2015.1 linked Jul  9 2018 13:16:40


 **********************************************************************************************************************************
 LABEL *   hcn CCSD(T)/TZ-F12 QFF                                                        
  64 bit serial version                                                                  DATE: 06-Feb-20          TIME: 09:54:44  
 **********************************************************************************************************************************

 SHA1:             d5ffa45e93fdbca01ffc919aa182cfdae0147319
 **********************************************************************************************************************************

 THRESHOLDS:

 ZERO    =  1.00D-22  ONEINT  =  1.00D-22  TWOINT  =  1.00D-22  PREFAC  =  1.00D-14  LOCALI  =  1.00D-09  EORDER  =  1.00D-04
 ENERGY  =  1.00D-12  ETEST   =  0.00D+00  EDENS   =  0.00D+00  THRDEDEF=  1.00D-06  GRADIENT=  1.00D-02  STEP    =  1.00D-03
 ORBITAL =  1.00D-05  CIVEC   =  1.00D-05  COEFF   =  1.00D-04  PRINTCI =  5.00D-02  PUNCHCI =  9.90D+01  OPTGRAD =  3.00D-04
 OPTENERG=  1.00D-06  OPTSTEP =  3.00D-04  THRGRAD =  1.00D-10  COMPRESS=  1.00D-11  VARMIN  =  1.00D-07  VARMAX  =  1.00D-03
 THRDOUB =  0.00D+00  THRDIV  =  1.00D-05  THRRED  =  1.00D-07  THRPSP  =  1.00D+00  THRDC   =  1.00D-10  THRCS   =  1.00D-10
 THRNRM  =  1.00D-08  THREQ   =  0.00D+00  THRDE   =  1.00D+00  THRREF  =  1.00D-05  SPARFAC =  1.00D+00  THRDLP  =  1.00D-07
 THRDIA  =  1.00D-10  THRDLS  =  1.00D-07  THRGPS  =  0.00D+00  THRKEX  =  0.00D+00  THRDIS  =  2.00D-01  THRVAR  =  1.00D-10
 THRLOC  =  1.00D-06  THRGAP  =  1.00D-06  THRLOCT = -1.00D+00  THRGAPT = -1.00D+00  THRORB  =  1.00D-06  THRMLTP =  0.00D+00
 THRCPQCI=  1.00D-10  KEXTA   =  0.00D+00  THRCOARS=  0.00D+00  SYMTOL  =  1.00D-06  GRADTOL =  1.00D-06  THROVL  =  1.00D-08
 THRORTH =  1.00D-08  GRID    =  1.00D-06  GRIDMAX =  1.00D-03  DTMAX   =  0.00D+00  THROCCDE=  1.00D-01  THROCCDE=  1.00D-01



 THRESHOLDS:

 ZERO    =  1.00D-22  ONEINT  =  1.00D-22  TWOINT  =  1.00D-22  PREFAC  =  1.00D-14  LOCALI  =  1.00D-09  EORDER  =  1.00D-04
 ENERGY  =  1.00D-12  ETEST   =  0.00D+00  EDENS   =  0.00D+00  THRDEDEF=  1.00D-06  GRADIENT=  1.00D-02  STEP    =  1.00D-03
 ORBITAL =  1.00D-05  CIVEC   =  1.00D-05  COEFF   =  1.00D-04  PRINTCI =  5.00D-02  PUNCHCI =  9.90D+01  OPTGRAD =  1.00D-08
 OPTENERG=  1.00D-06  OPTSTEP =  1.00D-08  THRGRAD =  1.00D-10  COMPRESS=  1.00D-11  VARMIN  =  1.00D-07  VARMAX  =  1.00D-03
 THRDOUB =  0.00D+00  THRDIV  =  1.00D-05  THRRED  =  1.00D-07  THRPSP  =  1.00D+00  THRDC   =  1.00D-10  THRCS   =  1.00D-10
 THRNRM  =  1.00D-08  THREQ   =  0.00D+00  THRDE   =  1.00D+00  THRREF  =  1.00D-05  SPARFAC =  1.00D+00  THRDLP  =  1.00D-07
 THRDIA  =  1.00D-10  THRDLS  =  1.00D-07  THRGPS  =  0.00D+00  THRKEX  =  0.00D+00  THRDIS  =  2.00D-01  THRVAR  =  1.00D-10
 THRLOC  =  1.00D-06  THRGAP  =  1.00D-06  THRLOCT = -1.00D+00  THRGAPT = -1.00D+00  THRORB  =  1.00D-06  THRMLTP =  0.00D+00
 THRCPQCI=  1.00D-10  KEXTA   =  0.00D+00  THRCOARS=  0.00D+00  SYMTOL  =  1.00D-06  GRADTOL =  1.00D-06  THROVL  =  1.00D-08
 THRORTH =  1.00D-08  GRID    =  1.00D-06  GRIDMAX =  1.00D-03  DTMAX   =  0.00D+00  THROCCDE=  1.00D-01  THROCCDE=  1.00D-01



 Input parameters for SORTINT:

 COMPRESS =    0.000000
 C_FINAL  =    1.000000
 DEBUG    =   -1.000000
 C_SORT1  =    0.000000
 C_SEWARD =    0.000000
 THRESH   =    0.000000
 IO       =  molpro                                                          
 SPRI     =    0.000000
 SETTING GEOMTYP        =    XYZ
 ZUNIT=BOHR
 

 Variable memory set to  995000000 words,  buffer space   230000 words

 SETTING BASIS          =    VTZ-DK
 SETTING DKROLL         =         1.00000000                                  


 Recomputing integrals since basis changed


 Using spherical harmonics

 Library entry N      S cc-pVTZ-DK           selected for orbital group  1
 Library entry N      P cc-pVTZ-DK           selected for orbital group  1
 Library entry N      D cc-pVTZ-DK           selected for orbital group  1
 Library entry N      F cc-pVTZ-DK           selected for orbital group  1
 Library entry C      S cc-pVTZ-DK           selected for orbital group  2
 Library entry C      P cc-pVTZ-DK           selected for orbital group  2
 Library entry C      D cc-pVTZ-DK           selected for orbital group  2
 Library entry C      F cc-pVTZ-DK           selected for orbital group  2
 Library entry H      S cc-pVTZ-DK           selected for orbital group  3
 Library entry H      P cc-pVTZ-DK           selected for orbital group  3
 Library entry H      D cc-pVTZ-DK           selected for orbital group  3


 PROGRAM * SEWARD (Integral evaluation for generally contracted gaussian basis sets)     Author: Roland Lindh, 1990

 Geometry written to block  1 of record 700


 Point group  C2v 



 ATOMIC COORDINATES

 NR  ATOM    CHARGE       X              Y              Z

   1  N       7.00    0.000000000    0.000000000    1.149897737
   2  C       6.00    0.000000000    0.000000000   -1.066746449
   3  H       1.00    0.000000000    0.000000000   -3.080221270

 Bond lengths in Bohr (Angstrom)

 1-2  2.216644187  2-3  2.013474821
     ( 1.172997588)     ( 1.065484990)

 Bond angles

  1-2-3  180.00000000

 NUCLEAR CHARGE:                   14
 NUMBER OF PRIMITIVE AOS:         111
 NUMBER OF SYMMETRY AOS:          100
 NUMBER OF CONTRACTIONS:           74   (  33A1  +  17B1  +  17B2  +   7A2  )
 NUMBER OF CORE ORBITALS:           2   (   2A1  +   0B1  +   0B2  +   0A2  )
 NUMBER OF VALENCE ORBITALS:        9   (   5A1  +   2B1  +   2B2  +   0A2  )


 NUCLEAR REPULSION ENERGY   23.58228339

 One-electron integrals computed with SEWARD

 2nd-order Douglas-Kroll-Hess method activated. Optimal DKH parametrization is used.

 Computing Douglas-Kroll / X2C integrals


         874856. INTEGRALS WRITTEN OUT IN     214 BLOCKS ON RECORD 1290 OF FILE 1


 NUMBER OF SORTED TWO-ELECTRON INTEGRALS:    1039939.     BUFFER LENGTH:  32768
 NUMBER OF SEGMENTS:   1  SEGMENT LENGTH:    1039939      RECORD LENGTH: 524288

 Memory used in sort:       1.60 MW

 SORT1 READ      874856. AND WROTE      911167. INTEGRALS IN      3 RECORDS. CPU TIME:     0.02 SEC, REAL TIME:     0.03 SEC
 SORT2 READ      911167. AND WROTE     1039939. INTEGRALS IN      1 RECORDS. CPU TIME:     0.04 SEC, REAL TIME:     0.05 SEC

 FILE SIZES:   FILE 1:    34.2 MBYTE,  FILE 4:    12.6 MBYTE,   TOTAL:     46.8 MBYTE

 OPERATOR DM      FOR CENTER  0  COORDINATES:    0.000000    0.000000    0.000000

 EXTRA SYMMETRY OF AOS IN SYMMETRY 1:   1 1 1 1 1 1 1 1 2 1   2 1 2 1 1 1 1 1 1 1   1 2 1 2 1 2 1 1 1 1   1 1 2
 EXTRA SYMMETRY OF AOS IN SYMMETRY 2:   1 1 1 1 1 1 2 1 1 1   1 1 1 2 1 1 1
 EXTRA SYMMETRY OF AOS IN SYMMETRY 3:   1 1 1 1 1 1 2 1 1 1   1 1 1 2 1 1 1

 Eigenvalues of metric

         1 0.110E-02 0.150E-02 0.250E-02 0.640E-02 0.110E-01 0.204E-01 0.296E-01 0.478E-01
         2 0.164E-01 0.365E-01 0.610E-01 0.917E-01 0.136E+00 0.292E+00 0.383E+00 0.432E+00
         3 0.164E-01 0.365E-01 0.610E-01 0.917E-01 0.136E+00 0.292E+00 0.383E+00 0.432E+00
         4 0.300E+00 0.460E+00 0.576E+00 0.851E+00 0.125E+01 0.156E+01 0.200E+01


 **********************************************************************************************************************************
 DATASETS  * FILE   NREC   LENGTH (MB)   RECORD NAMES
              1      23       27.68       500      610      700      900      950      970     1000      129      960     1700   
                                          VAR    BASINP    GEOM    SYMINP    ZMAT    AOBASIS   BASIS     P2S    ABASIS    OPER   
                                         1101     1401     1411     1412     1650     1100     1400     1410     1200     1210   
                                          SR      EKINR    POTR     PVPR    MOLCAS      S      EKIN      POT      H0       H01  
                                         1300     1080     1600   
                                         ERIS     AOSYM     SMH  

 PROGRAMS   *        TOTAL       INT
 CPU TIMES  *         0.66      0.57
 REAL TIME  *         1.15 SEC
 DISK USED  *        47.10 MB      
 **********************************************************************************************************************************


 PROGRAM * RHF-SCF (CLOSED SHELL)       Authors: W. Meyer, H.-J. Werner


 NUMBER OF ELECTRONS:       7+    7-
 CONVERGENCE THRESHOLDS:    1.00E-10 (Density)    1.00E-13 (Energy)
 MAX. NUMBER OF ITERATIONS:      500
 INTERPOLATION TYPE:            DIIS
 INTERPOLATION STEPS:              2 (START)      1 (STEP)
 LEVEL SHIFTS:                  0.00 (CLOSED)  0.00 (OPEN) 



 Orbital guess generated from atomic densities. Full valence occupancy:    7   2   2   0

 Molecular orbital dump at record        2100.2

 Initial occupancy:   5   1   1   0

 ITERATION    DDIFF          GRAD             ENERGY        2-EL.EN.            DIPOLE MOMENTS         DIIS   ORB.
    1      0.000D+00      0.000D+00       -92.92371754    111.249702    0.00000    0.00000   -1.78123    0    start
    2      0.000D+00      0.115D-01       -92.93185202    110.517066    0.00000    0.00000   -0.86338    1    diag
    3      0.190D-01      0.106D-01       -92.94779990    111.026509    0.00000    0.00000   -1.29422    2    diag
    4      0.970D-02      0.854D-03       -92.94803020    110.979005    0.00000    0.00000   -1.28513    3    diag
    5      0.153D-02      0.198D-03       -92.94804369    110.994334    0.00000    0.00000   -1.28401    4    diag
    6      0.413D-03      0.551D-04       -92.94804472    110.988598    0.00000    0.00000   -1.28382    5    diag
    7      0.111D-03      0.203D-04       -92.94804481    110.989614    0.00000    0.00000   -1.28398    6    diag
    8      0.356D-04      0.394D-05       -92.94804482    110.989570    0.00000    0.00000   -1.28396    7    diag
    9      0.685D-05      0.423D-06       -92.94804482    110.989578    0.00000    0.00000   -1.28396    8    diag
   10      0.923D-06      0.401D-07       -92.94804482    110.989578    0.00000    0.00000   -1.28396    9    orth
   11      0.780D-07      0.450D-08       -92.94804482    110.989578    0.00000    0.00000   -1.28396    9    diag
   12      0.137D-07      0.365D-09       -92.94804482    110.989578    0.00000    0.00000   -1.28396    9    diag
   13      0.154D-08      0.490D-10       -92.94804482    110.989578    0.00000    0.00000   -1.28396    9    diag
   14      0.249D-09      0.873D-11       -92.94804482    110.989578    0.00000    0.00000   -1.28396    9    diag
   15      0.439D-10      0.129D-11       -92.94804482    110.989578    0.00000    0.00000   -1.28396    9    diag
   16      0.314D-11      0.326D-12       -92.94804482    110.989578    0.00000    0.00000   -1.28396    0    orth

 Final occupancy:   5   1   1   0

 !RHF STATE 1.1 Energy                -92.948044816997
 Nuclear energy                        23.58228339
 One-electron energy                 -172.02511740
 Two-electron energy                   55.49478920
 Virial quotient                       -1.00002206
 !RHF STATE 1.1 Dipole moment           0.00000000     0.00000000    -1.28396216
 Dipole moment /Debye                   0.00000000     0.00000000    -3.26329255

 Orbital energies:

         1.1          2.1          3.1          4.1          5.1          6.1          7.1
    -15.613404   -11.301726    -1.226817    -0.814945    -0.581998     0.141026     0.239664

         1.2          2.2          3.2
     -0.489439     0.160545     0.446636

         1.3          2.3          3.3
     -0.489439     0.160545     0.446636

         1.4          2.4
      0.810276     1.414558

 HOMO      1.2    -0.489439 =     -13.3183eV
 LUMO      6.1     0.141026 =       3.8375eV
 LUMO-HOMO         0.630465 =      17.1558eV


 **********************************************************************************************************************************
 DATASETS  * FILE   NREC   LENGTH (MB)   RECORD NAMES
              1      23       27.68       500      610      700      900      950      970     1000      129      960     1700   
                                          VAR    BASINP    GEOM    SYMINP    ZMAT    AOBASIS   BASIS     P2S    ABASIS    OPER   
                                         1101     1401     1411     1412     1650     1100     1400     1410     1200     1210   
                                          SR      EKINR    POTR     PVPR    MOLCAS      S      EKIN      POT      H0       H01  
                                         1300     1080     1600   
                                         ERIS     AOSYM     SMH  

              2       4        2.82       700     1000      520     2100   
                                         GEOM     BASIS   MCVARS     RHF  

 PROGRAMS   *        TOTAL        HF       INT
 CPU TIMES  *         0.74      0.08      0.57
 REAL TIME  *         1.25 SEC
 DISK USED  *        47.10 MB      
 **********************************************************************************************************************************


 PROGRAM * CCSD (Closed-shell coupled cluster)     Authors: C. Hampel, H.-J. Werner, 1991, M. Deegan, P.J. Knowles, 1992


 Convergence thresholds:  THRVAR = 1.00D-08  THRDEN = 1.00D-12

 CCSD(T)     terms to be evaluated (factor= 1.000)


 Number of core orbitals:           2 (   2   0   0   0 )
 Number of closed-shell orbitals:   5 (   3   1   1   0 )
 Number of external orbitals:      67 (  28  16  16   7 )

 Molecular orbitals read from record     2100.2  Type=RHF/CANONICAL (state 1.1)

 Number of N-1 electron functions:               5
 Number of N-2 electron functions:              15
 Number of singly external CSFs:               116
 Number of doubly external CSFs:             15189
 Total number of CSFs:                       15306

 Length of J-op  integral file:               0.00 MB
 Length of K-op  integral file:               0.15 MB
 Length of 3-ext integral record:             0.00 MB

 Memory could be reduced to 0.93 Mwords without degradation in triples

 Integral transformation finished. Total CPU:   0.01 sec, npass=  1  Memory used:   0.18 MW

 Reference energy:                    -92.94804482

 MP2 singlet pair energy:              -0.22032399
 MP2 triplet pair energy:              -0.12902762
 MP2 correlation energy:               -0.34935161
 MP2 total energy:                    -93.29739643

 SCS-MP2 correlation energy:           -0.34467264   (PS=  1.200000  PT=  0.333333)
 SCS-MP2 total energy:                -93.29271746

 ITER.      SQ.NORM     CORR.ENERGY   TOTAL ENERGY   ENERGY CHANGE        DEN1      VAR(S)    VAR(P)  DIIS     TIME  TIME/IT
   1      1.11716699    -0.35162415   -93.29966897    -0.00227254     0.01136700  0.28D-02  0.33D-02  1  1     0.03     0.02
   2      1.12722835    -0.35182450   -93.29986932    -0.00020036    -0.01052335  0.56D-04  0.44D-03  2  2     0.04     0.02
   3      1.13265349    -0.35206770   -93.30011252    -0.00024320    -0.00266862  0.13D-04  0.47D-04  3  3     0.05     0.02
   4      1.13497776    -0.35217755   -93.30022237    -0.00010986    -0.00082459  0.32D-06  0.51D-05  4  4     0.07     0.02
   5      1.13549900    -0.35217398   -93.30021880     0.00000357    -0.00014268  0.11D-06  0.49D-06  5  5     0.08     0.02
   6      1.13561497    -0.35217264   -93.30021746     0.00000134    -0.00003006  0.11D-07  0.36D-07  6  6     0.10     0.02
   7      1.13562428    -0.35217543   -93.30022025    -0.00000279    -0.00000263  0.66D-09  0.31D-08  6  1     0.11     0.02
   8      1.13562483    -0.35217600   -93.30022081    -0.00000057     0.00000075  0.43D-10  0.19D-09  6  2     0.13     0.02
   9      1.13562562    -0.35217603   -93.30022085    -0.00000003    -0.00000045  0.87D-11  0.12D-10  6  3     0.15     0.02
  10      1.13562555    -0.35217605   -93.30022087    -0.00000002     0.00000011  0.58D-12  0.14D-11  6  4     0.16     0.02
  11      1.13562549    -0.35217606   -93.30022087    -0.00000001     0.00000001  0.26D-12  0.10D-12  6  5     0.17     0.02
  12      1.13562542    -0.35217606   -93.30022088    -0.00000000     0.00000003  0.22D-13  0.29D-13  6  6     0.19     0.02
  13      1.13562538    -0.35217606   -93.30022088    -0.00000000     0.00000001  0.56D-14  0.24D-14  6  2     0.21     0.02
  14      1.13562536    -0.35217606   -93.30022088    -0.00000000     0.00000001  0.63D-16  0.18D-15  6  1     0.22     0.02
  15      1.13562536    -0.35217606   -93.30022088     0.00000000     0.00000000  0.44D-17  0.16D-16  6  4     0.23     0.02
  16      1.13562536    -0.35217606   -93.30022088    -0.00000000     0.00000000  0.13D-17  0.98D-18  6  3     0.25     0.02
  17      1.13562536    -0.35217606   -93.30022088    -0.00000000     0.00000000  0.14D-18  0.19D-18  6  5     0.28     0.02
  18      1.13562536    -0.35217606   -93.30022088     0.00000000    -0.00000000  0.17D-19  0.15D-19  6  6     0.30     0.02
  19      1.13562536    -0.35217606   -93.30022088     0.00000000    -0.00000000  0.89D-21  0.16D-20  6  2     0.31     0.02
  20      1.13562536    -0.35217606   -93.30022088     0.00000000    -0.00000000  0.40D-22  0.26D-21  6  1     0.33     0.02
  21      1.13562536    -0.35217606   -93.30022088     0.00000000    -0.00000000  0.28D-22  0.47D-22  6  4     0.35     0.02

 Norm of t1 vector:      0.06638701      S-energy:    -0.00000000      T1 diagnostic:  0.01484459
                                                                       D1 diagnostic:  0.02999684

 Doubles amplitudes (print threshold =  0.500E-01):

         I         J         SYM. A    SYM. B    A         B      T(IJ, AB)

         4         4         2         2         1         1     -0.09118906
         5         5         3         3         1         1     -0.09118906
         5         4         3         2         1         1     -0.05672130


 Total CPU time for triples:      0.05 sec


 RESULTS
 =======

  Reference energy                    -92.948044816997
  CCSD singlet pair energy             -0.245258607073
  CCSD triplet pair energy             -0.106917456111
  CCSD correlation energy              -0.352176063184

  Triples (T) contribution             -0.018516453281
  Total correlation energy             -0.370692516465

  CCSD total energy                   -93.300220880181
  CCSD[T] energy                      -93.319639141820
  CCSD-T energy                       -93.318293472698
 !CCSD(T) total energy                -93.318737333462

 Timing summary (sec):

 STEP                 CPU(USER)    SYS     CPU(TOT)    WALL
 Transformation          0.01      0.01      0.02      0.02
 CCSD iterations         0.35      0.03      0.38      0.37
 Triples                 0.05      0.00      0.05      0.06

 Program statistics:

 Available memory in ccsd:               994999800
 Min. memory needed in ccsd:                 67993
 Max. memory used in ccsd:                   79450
 Max. memory used in cckext:                107513 (21 integral passes)



 **********************************************************************************************************************************
 DATASETS  * FILE   NREC   LENGTH (MB)   RECORD NAMES
              1      24       29.62       500      610      700      900      950      970     1000      129      960     1700   
                                          VAR    BASINP    GEOM    SYMINP    ZMAT    AOBASIS   BASIS     P2S    ABASIS    OPER   
                                         1101     1401     1411     1412     1650     1100     1400     1410     1200     1210   
                                          SR      EKINR    POTR     PVPR    MOLCAS      S      EKIN      POT      H0       H01  
                                         1300     1080     1600     1380   
                                         ERIS     AOSYM     SMH     JKOP   

              2       4        2.82       700     1000      520     2100   
                                         GEOM     BASIS   MCVARS     RHF  

 PROGRAMS   *        TOTAL   CCSD(T)        HF       INT
 CPU TIMES  *         1.17      0.43      0.08      0.57
 REAL TIME  *         1.73 SEC
 DISK USED  *        47.10 MB      
 **********************************************************************************************************************************

 CCSD(T)/cc-pVTZ-DK energy=    -93.318737333462

        CCSD(T)         HF-SCF  
    -93.31873733    -92.94804482
 **********************************************************************************************************************************
 Molpro calculation terminated
 Variable memory released
