
 Primary working directories    : /tmp/r2666/232646.maple
 Secondary working directories  : /tmp/r2666/232646.maple
 Wavefunction directory         : /ddn/home4/r2666/wfu/
 Main file repository           : /tmp/r2666/232646.maple/

 SHA1      : d5ffa45e93fdbca01ffc919aa182cfdae0147319
 NAME      : 2015.1.35
 ARCHNAME  : linux/x86_64
 FC        : /opt/intel/composer_xe_2015.1.133/bin/intel64/ifort
 BLASLIB   : -Wl,-_start-group /opt/intel/mkl/lib/intel64/libmkl_intel_ilp64.a /opt/intel/mkl/lib/intel64/libmkl_intel_thread.a /opt/intel/mkl/lib/intel64/libmkl_core.a -Wl,-_end-group
 id        : olemiss

 Nodes     nprocs
 cn088        1

 Using customized tuning parameters: mindgm=1; mindgv=20; mindgc=4; mindgr=1; noblas=0; minvec=7
 default implementation of scratch files=df  

 ***,hcn CCSD(T)/TZ-F12 QFF
 memory, 995, m;
 gthresh,energy=1.d-12,zero=1.d-22,oneint=1.d-22,twoint=1.d-22;
 gthresh,optgrad=1.d-8,optstep=1.d-8;
 nocompress;
 geomtyp=xyz
 bohr
 geometry={
 3
         35        35
 N        0.0000000000        0.0000000000        1.1372995643
 C        0.0000000000        0.0000000000       -1.0415501027
 H        0.0000000000        0.0000000000       -3.0928194435
 }
 
 basis=vtz-dk
 dkroll=1
   {hf,maxit=500;accu,20;}
 {ccsd(t),nocheck,maxit=250;orbital,IGNORE_ERROR;}

 Variables initialized (889), CPU time= 0.01 sec
 Commands  initialized (702), CPU time= 0.01 sec, 572 directives.
 Default parameters read. Elapsed time= 0.04 sec

 Checking input...
 Passed
1


                                         ***  PROGRAM SYSTEM MOLPRO  ***
                                       Copyright, TTI GmbH Stuttgart, 2015
                                    Version 2015.1 linked Jul  9 2018 13:16:40


 **********************************************************************************************************************************
 LABEL *   hcn CCSD(T)/TZ-F12 QFF                                                        
  64 bit serial version                                                                  DATE: 06-Feb-20          TIME: 09:54:42  
 **********************************************************************************************************************************

 SHA1:             d5ffa45e93fdbca01ffc919aa182cfdae0147319
 **********************************************************************************************************************************

 THRESHOLDS:

 ZERO    =  1.00D-22  ONEINT  =  1.00D-22  TWOINT  =  1.00D-22  PREFAC  =  1.00D-14  LOCALI  =  1.00D-09  EORDER  =  1.00D-04
 ENERGY  =  1.00D-12  ETEST   =  0.00D+00  EDENS   =  0.00D+00  THRDEDEF=  1.00D-06  GRADIENT=  1.00D-02  STEP    =  1.00D-03
 ORBITAL =  1.00D-05  CIVEC   =  1.00D-05  COEFF   =  1.00D-04  PRINTCI =  5.00D-02  PUNCHCI =  9.90D+01  OPTGRAD =  3.00D-04
 OPTENERG=  1.00D-06  OPTSTEP =  3.00D-04  THRGRAD =  1.00D-10  COMPRESS=  1.00D-11  VARMIN  =  1.00D-07  VARMAX  =  1.00D-03
 THRDOUB =  0.00D+00  THRDIV  =  1.00D-05  THRRED  =  1.00D-07  THRPSP  =  1.00D+00  THRDC   =  1.00D-10  THRCS   =  1.00D-10
 THRNRM  =  1.00D-08  THREQ   =  0.00D+00  THRDE   =  1.00D+00  THRREF  =  1.00D-05  SPARFAC =  1.00D+00  THRDLP  =  1.00D-07
 THRDIA  =  1.00D-10  THRDLS  =  1.00D-07  THRGPS  =  0.00D+00  THRKEX  =  0.00D+00  THRDIS  =  2.00D-01  THRVAR  =  1.00D-10
 THRLOC  =  1.00D-06  THRGAP  =  1.00D-06  THRLOCT = -1.00D+00  THRGAPT = -1.00D+00  THRORB  =  1.00D-06  THRMLTP =  0.00D+00
 THRCPQCI=  1.00D-10  KEXTA   =  0.00D+00  THRCOARS=  0.00D+00  SYMTOL  =  1.00D-06  GRADTOL =  1.00D-06  THROVL  =  1.00D-08
 THRORTH =  1.00D-08  GRID    =  1.00D-06  GRIDMAX =  1.00D-03  DTMAX   =  0.00D+00  THROCCDE=  1.00D-01  THROCCDE=  1.00D-01



 THRESHOLDS:

 ZERO    =  1.00D-22  ONEINT  =  1.00D-22  TWOINT  =  1.00D-22  PREFAC  =  1.00D-14  LOCALI  =  1.00D-09  EORDER  =  1.00D-04
 ENERGY  =  1.00D-12  ETEST   =  0.00D+00  EDENS   =  0.00D+00  THRDEDEF=  1.00D-06  GRADIENT=  1.00D-02  STEP    =  1.00D-03
 ORBITAL =  1.00D-05  CIVEC   =  1.00D-05  COEFF   =  1.00D-04  PRINTCI =  5.00D-02  PUNCHCI =  9.90D+01  OPTGRAD =  1.00D-08
 OPTENERG=  1.00D-06  OPTSTEP =  1.00D-08  THRGRAD =  1.00D-10  COMPRESS=  1.00D-11  VARMIN  =  1.00D-07  VARMAX  =  1.00D-03
 THRDOUB =  0.00D+00  THRDIV  =  1.00D-05  THRRED  =  1.00D-07  THRPSP  =  1.00D+00  THRDC   =  1.00D-10  THRCS   =  1.00D-10
 THRNRM  =  1.00D-08  THREQ   =  0.00D+00  THRDE   =  1.00D+00  THRREF  =  1.00D-05  SPARFAC =  1.00D+00  THRDLP  =  1.00D-07
 THRDIA  =  1.00D-10  THRDLS  =  1.00D-07  THRGPS  =  0.00D+00  THRKEX  =  0.00D+00  THRDIS  =  2.00D-01  THRVAR  =  1.00D-10
 THRLOC  =  1.00D-06  THRGAP  =  1.00D-06  THRLOCT = -1.00D+00  THRGAPT = -1.00D+00  THRORB  =  1.00D-06  THRMLTP =  0.00D+00
 THRCPQCI=  1.00D-10  KEXTA   =  0.00D+00  THRCOARS=  0.00D+00  SYMTOL  =  1.00D-06  GRADTOL =  1.00D-06  THROVL  =  1.00D-08
 THRORTH =  1.00D-08  GRID    =  1.00D-06  GRIDMAX =  1.00D-03  DTMAX   =  0.00D+00  THROCCDE=  1.00D-01  THROCCDE=  1.00D-01



 Input parameters for SORTINT:

 COMPRESS =    0.000000
 C_FINAL  =    1.000000
 DEBUG    =   -1.000000
 C_SORT1  =    0.000000
 C_SEWARD =    0.000000
 THRESH   =    0.000000
 IO       =  molpro                                                          
 SPRI     =    0.000000
 SETTING GEOMTYP        =    XYZ
 ZUNIT=BOHR
 

 Variable memory set to  995000000 words,  buffer space   230000 words

 SETTING BASIS          =    VTZ-DK
 SETTING DKROLL         =         1.00000000                                  


 Recomputing integrals since basis changed


 Using spherical harmonics

 Library entry N      S cc-pVTZ-DK           selected for orbital group  1
 Library entry N      P cc-pVTZ-DK           selected for orbital group  1
 Library entry N      D cc-pVTZ-DK           selected for orbital group  1
 Library entry N      F cc-pVTZ-DK           selected for orbital group  1
 Library entry C      S cc-pVTZ-DK           selected for orbital group  2
 Library entry C      P cc-pVTZ-DK           selected for orbital group  2
 Library entry C      D cc-pVTZ-DK           selected for orbital group  2
 Library entry C      F cc-pVTZ-DK           selected for orbital group  2
 Library entry H      S cc-pVTZ-DK           selected for orbital group  3
 Library entry H      P cc-pVTZ-DK           selected for orbital group  3
 Library entry H      D cc-pVTZ-DK           selected for orbital group  3


 PROGRAM * SEWARD (Integral evaluation for generally contracted gaussian basis sets)     Author: Roland Lindh, 1990

 Geometry written to block  1 of record 700


 Point group  C2v 



 ATOMIC COORDINATES

 NR  ATOM    CHARGE       X              Y              Z

   1  N       7.00    0.000000000    0.000000000    1.137299564
   2  C       6.00    0.000000000    0.000000000   -1.041550103
   3  H       1.00    0.000000000    0.000000000   -3.092819443

 Bond lengths in Bohr (Angstrom)

 1-2  2.178849667  2-3  2.051269341
     ( 1.152997590)     ( 1.085484989)

 Bond angles

  1-2-3  180.00000000

 NUCLEAR CHARGE:                   14
 NUMBER OF PRIMITIVE AOS:         111
 NUMBER OF SYMMETRY AOS:          100
 NUMBER OF CONTRACTIONS:           74   (  33A1  +  17B1  +  17B2  +   7A2  )
 NUMBER OF CORE ORBITALS:           2   (   2A1  +   0B1  +   0B2  +   0A2  )
 NUMBER OF VALENCE ORBITALS:        9   (   5A1  +   2B1  +   2B2  +   0A2  )


 NUCLEAR REPULSION ENERGY   23.85604455

 One-electron integrals computed with SEWARD

 2nd-order Douglas-Kroll-Hess method activated. Optimal DKH parametrization is used.

 Computing Douglas-Kroll / X2C integrals


         875050. INTEGRALS WRITTEN OUT IN     214 BLOCKS ON RECORD 1290 OF FILE 1


 NUMBER OF SORTED TWO-ELECTRON INTEGRALS:    1039939.     BUFFER LENGTH:  32768
 NUMBER OF SEGMENTS:   1  SEGMENT LENGTH:    1039939      RECORD LENGTH: 524288

 Memory used in sort:       1.60 MW

 SORT1 READ      875050. AND WROTE      911384. INTEGRALS IN      3 RECORDS. CPU TIME:     0.02 SEC, REAL TIME:     0.02 SEC
 SORT2 READ      911384. AND WROTE     1039939. INTEGRALS IN      1 RECORDS. CPU TIME:     0.03 SEC, REAL TIME:     0.05 SEC

 FILE SIZES:   FILE 1:    34.2 MBYTE,  FILE 4:    12.6 MBYTE,   TOTAL:     46.8 MBYTE

 OPERATOR DM      FOR CENTER  0  COORDINATES:    0.000000    0.000000    0.000000

 EXTRA SYMMETRY OF AOS IN SYMMETRY 1:   1 1 1 1 1 1 1 1 2 1   2 1 2 1 1 1 1 1 1 1   1 2 1 2 1 2 1 1 1 1   1 1 2
 EXTRA SYMMETRY OF AOS IN SYMMETRY 2:   1 1 1 1 1 1 2 1 1 1   1 1 1 2 1 1 1
 EXTRA SYMMETRY OF AOS IN SYMMETRY 3:   1 1 1 1 1 1 2 1 1 1   1 1 1 2 1 1 1

 Eigenvalues of metric

         1 0.111E-02 0.150E-02 0.249E-02 0.666E-02 0.113E-01 0.192E-01 0.295E-01 0.478E-01
         2 0.155E-01 0.369E-01 0.619E-01 0.920E-01 0.134E+00 0.292E+00 0.382E+00 0.432E+00
         3 0.155E-01 0.369E-01 0.619E-01 0.920E-01 0.134E+00 0.292E+00 0.382E+00 0.432E+00
         4 0.292E+00 0.458E+00 0.577E+00 0.854E+00 0.125E+01 0.154E+01 0.203E+01


 **********************************************************************************************************************************
 DATASETS  * FILE   NREC   LENGTH (MB)   RECORD NAMES
              1      23       27.68       500      610      700      900      950      970     1000      129      960     1700   
                                          VAR    BASINP    GEOM    SYMINP    ZMAT    AOBASIS   BASIS     P2S    ABASIS    OPER   
                                         1101     1401     1411     1412     1650     1100     1400     1410     1200     1210   
                                          SR      EKINR    POTR     PVPR    MOLCAS      S      EKIN      POT      H0       H01  
                                         1300     1080     1600   
                                         ERIS     AOSYM     SMH  

 PROGRAMS   *        TOTAL       INT
 CPU TIMES  *         0.65      0.56
 REAL TIME  *         1.15 SEC
 DISK USED  *        47.10 MB      
 **********************************************************************************************************************************


 PROGRAM * RHF-SCF (CLOSED SHELL)       Authors: W. Meyer, H.-J. Werner


 NUMBER OF ELECTRONS:       7+    7-
 CONVERGENCE THRESHOLDS:    1.00E-10 (Density)    1.00E-13 (Energy)
 MAX. NUMBER OF ITERATIONS:      500
 INTERPOLATION TYPE:            DIIS
 INTERPOLATION STEPS:              2 (START)      1 (STEP)
 LEVEL SHIFTS:                  0.00 (CLOSED)  0.00 (OPEN) 



 Orbital guess generated from atomic densities. Full valence occupancy:    7   2   2   0

 Molecular orbital dump at record        2100.2

 Initial occupancy:   5   1   1   0

 ITERATION    DDIFF          GRAD             ENERGY        2-EL.EN.            DIPOLE MOMENTS         DIIS   ORB.
    1      0.000D+00      0.000D+00       -92.92632948    111.931951    0.00000    0.00000   -1.79208    0    start
    2      0.000D+00      0.117D-01       -92.93537814    111.059233    0.00000    0.00000   -0.88726    1    diag
    3      0.192D-01      0.106D-01       -92.95105200    111.589736    0.00000    0.00000   -1.30002    2    diag
    4      0.969D-02      0.817D-03       -92.95126798    111.557024    0.00000    0.00000   -1.29156    3    diag
    5      0.149D-02      0.181D-03       -92.95128044    111.566848    0.00000    0.00000   -1.29016    4    diag
    6      0.407D-03      0.510D-04       -92.95128121    111.562096    0.00000    0.00000   -1.29024    5    diag
    7      0.932D-04      0.184D-04       -92.95128129    111.563261    0.00000    0.00000   -1.29038    6    diag
    8      0.321D-04      0.351D-05       -92.95128129    111.563202    0.00000    0.00000   -1.29036    7    diag
    9      0.583D-05      0.381D-06       -92.95128129    111.563209    0.00000    0.00000   -1.29036    8    diag
   10      0.825D-06      0.376D-07       -92.95128129    111.563209    0.00000    0.00000   -1.29036    9    orth
   11      0.734D-07      0.433D-08       -92.95128129    111.563209    0.00000    0.00000   -1.29036    9    diag
   12      0.127D-07      0.362D-09       -92.95128129    111.563209    0.00000    0.00000   -1.29036    9    diag
   13      0.159D-08      0.442D-10       -92.95128129    111.563209    0.00000    0.00000   -1.29036    9    diag
   14      0.237D-09      0.991D-11       -92.95128129    111.563209    0.00000    0.00000   -1.29036    9    diag
   15      0.469D-10      0.145D-11       -92.95128129    111.563209    0.00000    0.00000   -1.29036    9    diag
   16      0.263D-11      0.420D-12       -92.95128129    111.563209    0.00000    0.00000   -1.29036    0    orth

 Final occupancy:   5   1   1   0

 !RHF STATE 1.1 Energy                -92.951281288121
 Nuclear energy                        23.85604455
 One-electron energy                 -172.58893056
 Two-electron energy                   55.78160473
 Virial quotient                       -0.99921665
 !RHF STATE 1.1 Dipole moment           0.00000000     0.00000000    -1.29035568
 Dipole moment /Debye                   0.00000000     0.00000000    -3.27954219

 Orbital energies:

         1.1          2.1          3.1          4.1          5.1          6.1          7.1
    -15.605957   -11.296060    -1.235959    -0.804272    -0.580409     0.139870     0.239853

         1.2          2.2          3.2
     -0.495102     0.167357     0.447008

         1.3          2.3          3.3
     -0.495102     0.167357     0.447008

         1.4          2.4
      0.810951     1.420566

 HOMO      1.2    -0.495102 =     -13.4724eV
 LUMO      6.1     0.139870 =       3.8061eV
 LUMO-HOMO         0.634973 =      17.2785eV


 **********************************************************************************************************************************
 DATASETS  * FILE   NREC   LENGTH (MB)   RECORD NAMES
              1      23       27.68       500      610      700      900      950      970     1000      129      960     1700   
                                          VAR    BASINP    GEOM    SYMINP    ZMAT    AOBASIS   BASIS     P2S    ABASIS    OPER   
                                         1101     1401     1411     1412     1650     1100     1400     1410     1200     1210   
                                          SR      EKINR    POTR     PVPR    MOLCAS      S      EKIN      POT      H0       H01  
                                         1300     1080     1600   
                                         ERIS     AOSYM     SMH  

              2       4        2.82       700     1000      520     2100   
                                         GEOM     BASIS   MCVARS     RHF  

 PROGRAMS   *        TOTAL        HF       INT
 CPU TIMES  *         0.73      0.08      0.56
 REAL TIME  *         1.25 SEC
 DISK USED  *        47.10 MB      
 **********************************************************************************************************************************


 PROGRAM * CCSD (Closed-shell coupled cluster)     Authors: C. Hampel, H.-J. Werner, 1991, M. Deegan, P.J. Knowles, 1992


 Convergence thresholds:  THRVAR = 1.00D-08  THRDEN = 1.00D-12

 CCSD(T)     terms to be evaluated (factor= 1.000)


 Number of core orbitals:           2 (   2   0   0   0 )
 Number of closed-shell orbitals:   5 (   3   1   1   0 )
 Number of external orbitals:      67 (  28  16  16   7 )

 Molecular orbitals read from record     2100.2  Type=RHF/CANONICAL (state 1.1)

 Number of N-1 electron functions:               5
 Number of N-2 electron functions:              15
 Number of singly external CSFs:               116
 Number of doubly external CSFs:             15189
 Total number of CSFs:                       15306

 Length of J-op  integral file:               0.00 MB
 Length of K-op  integral file:               0.15 MB
 Length of 3-ext integral record:             0.00 MB

 Memory could be reduced to 0.93 Mwords without degradation in triples

 Integral transformation finished. Total CPU:   0.01 sec, npass=  1  Memory used:   0.18 MW

 Reference energy:                    -92.95128129

 MP2 singlet pair energy:              -0.21819300
 MP2 triplet pair energy:              -0.12729245
 MP2 correlation energy:               -0.34548545
 MP2 total energy:                    -93.29676674

 SCS-MP2 correlation energy:           -0.34103579   (PS=  1.200000  PT=  0.333333)
 SCS-MP2 total energy:                -93.29231708

 ITER.      SQ.NORM     CORR.ENERGY   TOTAL ENERGY   ENERGY CHANGE        DEN1      VAR(S)    VAR(P)  DIIS     TIME  TIME/IT
   1      1.11502434    -0.34882032   -93.30010161    -0.00333487     0.00951329  0.25D-02  0.30D-02  1  1     0.03     0.02
   2      1.12464860    -0.34920450   -93.30048579    -0.00038418    -0.01008643  0.49D-04  0.42D-03  2  2     0.05     0.02
   3      1.12974194    -0.34943463   -93.30071592    -0.00023013    -0.00255223  0.13D-04  0.42D-04  3  3     0.06     0.02
   4      1.13184483    -0.34953120   -93.30081249    -0.00009657    -0.00076211  0.30D-06  0.44D-05  4  4     0.08     0.02
   5      1.13230446    -0.34952838   -93.30080967     0.00000282    -0.00012838  0.11D-06  0.41D-06  5  5     0.09     0.02
   6      1.13240491    -0.34952706   -93.30080835     0.00000132    -0.00002648  0.89D-08  0.29D-07  6  6     0.10     0.02
   7      1.13241309    -0.34952931   -93.30081059    -0.00000224    -0.00000242  0.63D-09  0.24D-08  6  1     0.12     0.02
   8      1.13241370    -0.34952978   -93.30081106    -0.00000047     0.00000061  0.55D-10  0.14D-09  6  2     0.14     0.02
   9      1.13241439    -0.34952981   -93.30081109    -0.00000003    -0.00000037  0.37D-11  0.11D-10  6  3     0.15     0.02
  10      1.13241434    -0.34952982   -93.30081111    -0.00000002     0.00000009  0.48D-12  0.11D-11  6  4     0.16     0.02
  11      1.13241431    -0.34952983   -93.30081111    -0.00000000     0.00000001  0.47D-13  0.13D-12  6  5     0.17     0.02
  12      1.13241425    -0.34952983   -93.30081112    -0.00000000     0.00000003  0.65D-14  0.26D-13  6  6     0.19     0.02
  13      1.13241422    -0.34952983   -93.30081112    -0.00000000     0.00000001  0.12D-14  0.26D-14  6  2     0.20     0.02
  14      1.13241420    -0.34952983   -93.30081112    -0.00000000     0.00000000  0.59D-16  0.13D-15  6  1     0.22     0.02
  15      1.13241420    -0.34952983   -93.30081112     0.00000000     0.00000000  0.14D-16  0.17D-16  6  3     0.23     0.02
  16      1.13241420    -0.34952983   -93.30081112    -0.00000000     0.00000000  0.91D-18  0.16D-17  6  4     0.25     0.02
  17      1.13241420    -0.34952983   -93.30081112    -0.00000000     0.00000000  0.40D-18  0.14D-18  6  5     0.26     0.02
  18      1.13241420    -0.34952983   -93.30081112     0.00000000    -0.00000000  0.18D-19  0.26D-19  6  6     0.27     0.02
  19      1.13241420    -0.34952983   -93.30081112     0.00000000    -0.00000000  0.52D-20  0.25D-20  6  2     0.29     0.02
  20      1.13241420    -0.34952983   -93.30081112     0.00000000    -0.00000000  0.10D-21  0.59D-21  6  1     0.30     0.02
  21      1.13241420    -0.34952983   -93.30081112     0.00000000    -0.00000000  0.33D-22  0.11D-21  6  3     0.31     0.02

 Norm of t1 vector:      0.06383251      S-energy:    -0.00000000      T1 diagnostic:  0.01427338
                                                                       D1 diagnostic:  0.02862427

 Doubles amplitudes (print threshold =  0.500E-01):

         I         J         SYM. A    SYM. B    A         B      T(IJ, AB)

         4         4         2         2         1         1     -0.08675038
         5         5         3         3         1         1     -0.08675038
         5         4         3         2         1         1     -0.05438156


 Total CPU time for triples:      0.06 sec


 RESULTS
 =======

  Reference energy                    -92.951281288122
  CCSD singlet pair energy             -0.243089070709
  CCSD triplet pair energy             -0.106440760539
  CCSD correlation energy              -0.349529831248

  Triples (T) contribution             -0.017925782110
  Total correlation energy             -0.367455613359

  CCSD total energy                   -93.300811119370
  CCSD[T] energy                      -93.319560679578
  CCSD-T energy                       -93.318326268890
 !CCSD(T) total energy                -93.318736901480

 Timing summary (sec):

 STEP                 CPU(USER)    SYS     CPU(TOT)    WALL
 Transformation          0.01      0.01      0.02      0.04
 CCSD iterations         0.31      0.06      0.37      0.36
 Triples                 0.06      0.00      0.06      0.07

 Program statistics:

 Available memory in ccsd:               994999800
 Min. memory needed in ccsd:                 67993
 Max. memory used in ccsd:                   79450
 Max. memory used in cckext:                107513 (21 integral passes)



 **********************************************************************************************************************************
 DATASETS  * FILE   NREC   LENGTH (MB)   RECORD NAMES
              1      24       29.62       500      610      700      900      950      970     1000      129      960     1700   
                                          VAR    BASINP    GEOM    SYMINP    ZMAT    AOBASIS   BASIS     P2S    ABASIS    OPER   
                                         1101     1401     1411     1412     1650     1100     1400     1410     1200     1210   
                                          SR      EKINR    POTR     PVPR    MOLCAS      S      EKIN      POT      H0       H01  
                                         1300     1080     1600     1380   
                                         ERIS     AOSYM     SMH     JKOP   

              2       4        2.82       700     1000      520     2100   
                                         GEOM     BASIS   MCVARS     RHF  

 PROGRAMS   *        TOTAL   CCSD(T)        HF       INT
 CPU TIMES  *         1.12      0.38      0.08      0.56
 REAL TIME  *         1.75 SEC
 DISK USED  *        47.10 MB      
 **********************************************************************************************************************************

 CCSD(T)/cc-pVTZ-DK energy=    -93.318736901480

        CCSD(T)         HF-SCF  
    -93.31873690    -92.95128129
 **********************************************************************************************************************************
 Molpro calculation terminated
 Variable memory released
