
 Primary working directories    : /tmp/r2666/282360.maple
 Secondary working directories  : /tmp/r2666/282360.maple
 Wavefunction directory         : /ddn/home4/r2666/wfu/
 Main file repository           : /tmp/r2666/282360.maple/

 SHA1      : d5ffa45e93fdbca01ffc919aa182cfdae0147319
 NAME      : 2015.1.35
 ARCHNAME  : linux/x86_64
 FC        : /opt/intel/composer_xe_2015.1.133/bin/intel64/ifort
 BLASLIB   : -Wl,-_start-group /opt/intel/mkl/lib/intel64/libmkl_intel_ilp64.a /opt/intel/mkl/lib/intel64/libmkl_intel_thread.a /opt/intel/mkl/lib/intel64/libmkl_core.a -Wl,-_end-group
 id        : olemiss

 Nodes     nprocs
 cn087        1

 Using customized tuning parameters: mindgm=1; mindgv=20; mindgc=4; mindgr=1; noblas=0; minvec=7
 default implementation of scratch files=df  

 ***,hno CCSD(T)/TZ-F12 QFF
 memory, 995, m;
 gthresh,energy=1.d-12,zero=1.d-22,oneint=1.d-22,twoint=1.d-22;
 gthresh,optgrad=1.d-8,optstep=1.d-8;
 nocompress;
 geomtyp=xyz
 bohr
 geometry={
 3
        128       128
 H        0.0000000000        1.6813159480       -1.9421358265
 N        0.0000000000       -0.1711446793       -1.1457266445
 O        0.0000000000        0.0315965213        1.1372728800
 }
 
 basis={
 default=aug-cc-pvtz
 s,C,8236.0,1235.0,280.8, 79.27,25.59, 8.997,3.319
 s,C,0.9059,0.3643,0.1285000
 p,C,56.0,18.71,4.133,0.2827,0.3827,0.1209
 d,C,30.0,10.0,3.3,1.097,0.318
 f,C,7.0,2.3,0.7610
 s,N,11420.0,1712.0,389.3,110.0,35.57,12.54,4.644
 s,N,1.293,0.5118,0.1787
 p,N,79.89,26.63,5.948,1.742,0.555,0.1725
 d,N,45.0,15.0,5.0,1.654,0.469
 f,N,9.9,3.3,1.093
 s,O,15330.0,2299.0,522.4,147.3,47.55,16.76,6.207
 s,O,1.752,0.6882,0.2384
 p,O,103.5,34.46,7.749,2.28,0.7156,0.214
 d,O,63.0,21.0,7.0,2.314,0.645
 f,O,12.9,4.3,1.428
 s,mg,164900.0,24710.0,5628.0,1596.0,521.0;
 s,mg,188.0,73.01,29.90,12.54,4.306,1.826;
 s,mg,0.7417,0.0761,0.145,0.033,0.0129;
 p,mg,950.70,316.90,74.86,23.72,8.669,3.363;
 p,mg,1.310,0.4911,0.2364,0.08733,0.03237,0.00745;
 d,mg,1.601,0.686,0.126,0.294,0.0468;
 f,mg,1.372,0.588,0.094,0.252;
 }
   {hf,maxit=500;accu,20;}
 {ccsd(t),nocheck,maxit=250;orbital,IGNORE_ERROR;}

 Variables initialized (889), CPU time= 0.00 sec
 Commands  initialized (702), CPU time= 0.01 sec, 572 directives.
 Default parameters read. Elapsed time= 0.04 sec

 Checking input...
 Passed
1


                                         ***  PROGRAM SYSTEM MOLPRO  ***
                                       Copyright, TTI GmbH Stuttgart, 2015
                                    Version 2015.1 linked Jul  9 2018 13:16:40


 **********************************************************************************************************************************
 LABEL *   hno CCSD(T)/TZ-F12 QFF                                                        
  64 bit serial version                                                                  DATE: 04-Mar-20          TIME: 13:48:28  
 **********************************************************************************************************************************

 SHA1:             d5ffa45e93fdbca01ffc919aa182cfdae0147319
 **********************************************************************************************************************************

 THRESHOLDS:

 ZERO    =  1.00D-22  ONEINT  =  1.00D-22  TWOINT  =  1.00D-22  PREFAC  =  1.00D-14  LOCALI  =  1.00D-09  EORDER  =  1.00D-04
 ENERGY  =  1.00D-12  ETEST   =  0.00D+00  EDENS   =  0.00D+00  THRDEDEF=  1.00D-06  GRADIENT=  1.00D-02  STEP    =  1.00D-03
 ORBITAL =  1.00D-05  CIVEC   =  1.00D-05  COEFF   =  1.00D-04  PRINTCI =  5.00D-02  PUNCHCI =  9.90D+01  OPTGRAD =  3.00D-04
 OPTENERG=  1.00D-06  OPTSTEP =  3.00D-04  THRGRAD =  1.00D-10  COMPRESS=  1.00D-11  VARMIN  =  1.00D-07  VARMAX  =  1.00D-03
 THRDOUB =  0.00D+00  THRDIV  =  1.00D-05  THRRED  =  1.00D-07  THRPSP  =  1.00D+00  THRDC   =  1.00D-10  THRCS   =  1.00D-10
 THRNRM  =  1.00D-08  THREQ   =  0.00D+00  THRDE   =  1.00D+00  THRREF  =  1.00D-05  SPARFAC =  1.00D+00  THRDLP  =  1.00D-07
 THRDIA  =  1.00D-10  THRDLS  =  1.00D-07  THRGPS  =  0.00D+00  THRKEX  =  0.00D+00  THRDIS  =  2.00D-01  THRVAR  =  1.00D-10
 THRLOC  =  1.00D-06  THRGAP  =  1.00D-06  THRLOCT = -1.00D+00  THRGAPT = -1.00D+00  THRORB  =  1.00D-06  THRMLTP =  0.00D+00
 THRCPQCI=  1.00D-10  KEXTA   =  0.00D+00  THRCOARS=  0.00D+00  SYMTOL  =  1.00D-06  GRADTOL =  1.00D-06  THROVL  =  1.00D-08
 THRORTH =  1.00D-08  GRID    =  1.00D-06  GRIDMAX =  1.00D-03  DTMAX   =  0.00D+00  THROCCDE=  1.00D-01  THROCCDE=  1.00D-01



 THRESHOLDS:

 ZERO    =  1.00D-22  ONEINT  =  1.00D-22  TWOINT  =  1.00D-22  PREFAC  =  1.00D-14  LOCALI  =  1.00D-09  EORDER  =  1.00D-04
 ENERGY  =  1.00D-12  ETEST   =  0.00D+00  EDENS   =  0.00D+00  THRDEDEF=  1.00D-06  GRADIENT=  1.00D-02  STEP    =  1.00D-03
 ORBITAL =  1.00D-05  CIVEC   =  1.00D-05  COEFF   =  1.00D-04  PRINTCI =  5.00D-02  PUNCHCI =  9.90D+01  OPTGRAD =  1.00D-08
 OPTENERG=  1.00D-06  OPTSTEP =  1.00D-08  THRGRAD =  1.00D-10  COMPRESS=  1.00D-11  VARMIN  =  1.00D-07  VARMAX  =  1.00D-03
 THRDOUB =  0.00D+00  THRDIV  =  1.00D-05  THRRED  =  1.00D-07  THRPSP  =  1.00D+00  THRDC   =  1.00D-10  THRCS   =  1.00D-10
 THRNRM  =  1.00D-08  THREQ   =  0.00D+00  THRDE   =  1.00D+00  THRREF  =  1.00D-05  SPARFAC =  1.00D+00  THRDLP  =  1.00D-07
 THRDIA  =  1.00D-10  THRDLS  =  1.00D-07  THRGPS  =  0.00D+00  THRKEX  =  0.00D+00  THRDIS  =  2.00D-01  THRVAR  =  1.00D-10
 THRLOC  =  1.00D-06  THRGAP  =  1.00D-06  THRLOCT = -1.00D+00  THRGAPT = -1.00D+00  THRORB  =  1.00D-06  THRMLTP =  0.00D+00
 THRCPQCI=  1.00D-10  KEXTA   =  0.00D+00  THRCOARS=  0.00D+00  SYMTOL  =  1.00D-06  GRADTOL =  1.00D-06  THROVL  =  1.00D-08
 THRORTH =  1.00D-08  GRID    =  1.00D-06  GRIDMAX =  1.00D-03  DTMAX   =  0.00D+00  THROCCDE=  1.00D-01  THROCCDE=  1.00D-01



 Input parameters for SORTINT:

 COMPRESS =    0.000000
 C_FINAL  =    1.000000
 DEBUG    =   -1.000000
 C_SORT1  =    0.000000
 C_SEWARD =    0.000000
 THRESH   =    0.000000
 IO       =  molpro                                                          
 SPRI     =    0.000000
 SETTING GEOMTYP        =    XYZ
 ZUNIT=BOHR
 

 Variable memory set to  995000000 words,  buffer space   230000 words

 SETTING BASIS          =    USERDEF


 Recomputing integrals since basis changed


 Using spherical harmonics

 Library entry H      S aug-cc-pVTZ          selected for orbital group  1
 Library entry H      P aug-cc-pVTZ          selected for orbital group  1
 Library entry H      D aug-cc-pVTZ          selected for orbital group  1


 PROGRAM * SEWARD (Integral evaluation for generally contracted gaussian basis sets)     Author: Roland Lindh, 1990

 Geometry written to block  1 of record 700


 Point group  Cs  



 ATOMIC COORDINATES

 NR  ATOM    CHARGE       X              Y              Z

   1  H       1.00    0.000000000    1.681315948   -1.942135826
   2  N       7.00    0.000000000   -0.171144679   -1.145726645
   3  O       8.00    0.000000000    0.031596521    1.137272880

 Bond lengths in Bohr (Angstrom)

 1-2  2.016402232  2-3  2.291984036
     ( 1.067034109)     ( 1.212865720)

 Bond angles

  1-2-3  108.18899349

 NUCLEAR CHARGE:                   16
 NUMBER OF PRIMITIVE AOS:         203
 NUMBER OF SYMMETRY AOS:          173
 NUMBER OF CONTRACTIONS:          171   ( 114A'  +  57A"  )
 NUMBER OF CORE ORBITALS:           2   (   2A'  +   0A"  )
 NUMBER OF VALENCE ORBITALS:        9   (   7A'  +   2A"  )


 NUCLEAR REPULSION ENERGY   30.19449632


 Eigenvalues of metric

         1 0.108E-02 0.254E-02 0.342E-02 0.648E-02 0.104E-01 0.138E-01 0.145E-01 0.238E-01
         2 0.382E-01 0.541E-01 0.712E-01 0.942E-01 0.132E+00 0.135E+00 0.142E+00 0.142E+00


 Contracted 2-electron integrals neglected if value below      1.0D-22

       46130182. INTEGRALS WRITTEN OUT IN   11266 BLOCKS ON RECORD 1290 OF FILE 1


 NUMBER OF SORTED TWO-ELECTRON INTEGRALS:   55360566.     BUFFER LENGTH:  32768
 NUMBER OF SEGMENTS:   4  SEGMENT LENGTH:   15997996      RECORD LENGTH: 524288

 Memory used in sort:      16.56 MW

 SORT1 READ    46130182. AND WROTE    46567507. INTEGRALS IN    136 RECORDS. CPU TIME:     0.73 SEC, REAL TIME:     1.05 SEC
 SORT2 READ    46567507. AND WROTE    55360566. INTEGRALS IN      4 RECORDS. CPU TIME:     0.69 SEC, REAL TIME:     0.92 SEC

 FILE SIZES:   FILE 1:   759.1 MBYTE,  FILE 4:   570.5 MBYTE,   TOTAL:   1329.5 MBYTE

 OPERATOR DM      FOR CENTER  0  COORDINATES:    0.000000    0.000000    0.000000


 **********************************************************************************************************************************
 DATASETS  * FILE   NREC   LENGTH (MB)   RECORD NAMES
              1      19      421.14       500      610      700      900      950      970     1000      129      960     1100   
                                          VAR    BASINP    GEOM    SYMINP    ZMAT    AOBASIS   BASIS     P2S    ABASIS      S 
                                         1400     1410     1200     1210     1080     1600     1650     1300     1700   
                                           T        V       H0       H01     AOSYM     SMH    MOLCAS    ERIS     OPER   

 PROGRAMS   *        TOTAL       INT
 CPU TIMES  *         4.20      4.11
 REAL TIME  *         5.66 SEC
 DISK USED  *         1.33 GB      
 **********************************************************************************************************************************


 PROGRAM * RHF-SCF (CLOSED SHELL)       Authors: W. Meyer, H.-J. Werner


 NUMBER OF ELECTRONS:       8+    8-
 CONVERGENCE THRESHOLDS:    1.00E-10 (Density)    1.00E-13 (Energy)
 MAX. NUMBER OF ITERATIONS:      500
 INTERPOLATION TYPE:            DIIS
 INTERPOLATION STEPS:              2 (START)      1 (STEP)
 LEVEL SHIFTS:                  0.00 (CLOSED)  0.00 (OPEN) 



 Orbital guess generated from atomic densities. Full valence occupancy:    9   2

 Molecular orbital dump at record        2100.2

 Initial occupancy:   7   1

 ITERATION    DDIFF          GRAD             ENERGY        2-EL.EN.            DIPOLE MOMENTS         DIIS   ORB.
    1      0.000D+00      0.000D+00      -129.78645820    153.737768    0.00000    0.56172   -1.03120    0    start
    2      0.000D+00      0.889D-02      -129.81316381    154.919564    0.00000    0.59923   -0.18718    1    diag
    3      0.365D-02      0.688D-02      -129.83747042    155.046881    0.00000    0.54346   -0.58913    2    diag
    4      0.145D-02      0.104D-02      -129.83826711    154.766680    0.00000    0.55134   -0.52591    3    diag
    5      0.331D-03      0.342D-03      -129.83839226    154.856396    0.00000    0.55758   -0.52833    4    diag
    6      0.154D-03      0.101D-03      -129.83841292    154.840021    0.00000    0.55813   -0.52406    5    diag
    7      0.614D-04      0.508D-04      -129.83841905    154.842591    0.00000    0.55950   -0.52149    6    diag
    8      0.417D-04      0.177D-04      -129.83841974    154.841729    0.00000    0.55955   -0.52054    7    diag
    9      0.149D-04      0.335D-05      -129.83841977    154.841606    0.00000    0.55950   -0.52034    8    diag
   10      0.306D-05      0.755D-06      -129.83841977    154.841590    0.00000    0.55946   -0.52031    9    orth
   11      0.877D-06      0.150D-06      -129.83841977    154.841586    0.00000    0.55945   -0.52031    9    diag
   12      0.209D-06      0.315D-07      -129.83841977    154.841585    0.00000    0.55945   -0.52031    9    diag
   13      0.520D-07      0.848D-08      -129.83841977    154.841584    0.00000    0.55945   -0.52031    9    diag
   14      0.123D-07      0.149D-08      -129.83841977    154.841584    0.00000    0.55945   -0.52031    9    diag
   15      0.153D-08      0.396D-09      -129.83841977    154.841584    0.00000    0.55945   -0.52031    9    diag
   16      0.343D-09      0.115D-09      -129.83841977    154.841584    0.00000    0.55945   -0.52031    9    diag
   17      0.766D-10      0.318D-10      -129.83841977    154.841584    0.00000    0.55945   -0.52031    0    orth

 Final occupancy:   7   1

 !RHF STATE 1.1 Energy               -129.838419772583
 Nuclear energy                        30.19449632
 One-electron energy                 -237.45370824
 Two-electron energy                   77.42079215
 Virial quotient                       -1.00195151
 !RHF STATE 1.1 Dipole moment           0.00000000     0.55945053    -0.52030675
 Dipole moment /Debye                   0.00000000     1.42188828    -1.32240124

 Orbital energies:

         1.1          2.1          3.1          4.1          5.1          6.1          7.1          8.1          9.1
    -20.652036   -15.713447    -1.523885    -0.990369    -0.742029    -0.662831    -0.429342     0.039537     0.191148

         1.2          2.2          3.2
     -0.592123     0.077399     0.239233

 HOMO      7.1    -0.429342 =     -11.6830eV
 LUMO      8.1     0.039537 =       1.0759eV
 LUMO-HOMO         0.468879 =      12.7588eV


 **********************************************************************************************************************************
 DATASETS  * FILE   NREC   LENGTH (MB)   RECORD NAMES
              1      19      421.14       500      610      700      900      950      970     1000      129      960     1100   
                                          VAR    BASINP    GEOM    SYMINP    ZMAT    AOBASIS   BASIS     P2S    ABASIS      S 
                                         1400     1410     1200     1210     1080     1600     1650     1300     1700   
                                           T        V       H0       H01     AOSYM     SMH    MOLCAS    ERIS     OPER   

              2       4        3.13       700     1000      520     2100   
                                         GEOM     BASIS   MCVARS     RHF  

 PROGRAMS   *        TOTAL        HF       INT
 CPU TIMES  *         9.07      4.87      4.11
 REAL TIME  *        11.72 SEC
 DISK USED  *         1.33 GB      
 **********************************************************************************************************************************


 PROGRAM * CCSD (Closed-shell coupled cluster)     Authors: C. Hampel, H.-J. Werner, 1991, M. Deegan, P.J. Knowles, 1992


 Convergence thresholds:  THRVAR = 1.00D-08  THRDEN = 1.00D-12

 CCSD(T)     terms to be evaluated (factor= 1.000)


 Number of core orbitals:           2 (   2   0 )
 Number of closed-shell orbitals:   6 (   5   1 )
 Number of external orbitals:     163 ( 107  56 )

 Molecular orbitals read from record     2100.2  Type=RHF/CANONICAL (state 1.1)

 Number of N-1 electron functions:               6
 Number of N-2 electron functions:              21
 Number of singly external CSFs:               591
 Number of doubly external CSFs:            250014
 Total number of CSFs:                      250606

 Length of J-op  integral file:               0.00 MB
 Length of K-op  integral file:               1.15 MB
 Length of 3-ext integral record:             0.00 MB

 Memory could be reduced to 19.93 Mwords without degradation in triples

 Integral transformation finished. Total CPU:   0.67 sec, npass=  1  Memory used:   5.10 MW

 Reference energy:                   -129.83841977

 MP2 singlet pair energy:              -0.28771334
 MP2 triplet pair energy:              -0.16771992
 MP2 correlation energy:               -0.45543326
 MP2 total energy:                   -130.29385303

 SCS-MP2 correlation energy:           -0.44961507   (PS=  1.200000  PT=  0.333333)
 SCS-MP2 total energy:               -130.28803484

 ITER.      SQ.NORM     CORR.ENERGY   TOTAL ENERGY   ENERGY CHANGE        DEN1      VAR(S)    VAR(P)  DIIS     TIME  TIME/IT
   1      1.11984124    -0.45734681  -130.29576658    -0.00191355     0.01519848  0.33D-02  0.32D-02  1  1     1.28     0.66
   2      1.13058446    -0.45721412  -130.29563389     0.00013269    -0.01271883  0.12D-03  0.51D-03  2  2     1.87     0.67
   3      1.13733884    -0.45760392  -130.29602369    -0.00038980    -0.00343300  0.47D-04  0.59D-04  3  3     2.46     0.67
   4      1.14029954    -0.45763466  -130.29605443    -0.00003074    -0.00097323  0.48D-05  0.10D-04  4  4     3.05     0.67
   5      1.14143510    -0.45766928  -130.29608905    -0.00003462    -0.00023110  0.15D-05  0.17D-05  5  5     3.65     0.67
   6      1.14184943    -0.45765274  -130.29607251     0.00001654    -0.00006864  0.14D-06  0.42D-06  6  6     4.24     0.67
   7      1.14192516    -0.45765407  -130.29607384    -0.00000133     0.00000865  0.20D-07  0.93D-07  6  1     4.87     0.68
   8      1.14196129    -0.45765351  -130.29607328     0.00000055    -0.00000492  0.47D-08  0.15D-07  6  2     5.46     0.68
   9      1.14196746    -0.45765333  -130.29607311     0.00000018     0.00000094  0.22D-08  0.18D-08  6  3     6.03     0.68
  10      1.14196797    -0.45765367  -130.29607345    -0.00000034    -0.00000024  0.50D-09  0.27D-09  6  4     6.62     0.68
  11      1.14196643    -0.45765382  -130.29607359    -0.00000014     0.00000035  0.13D-09  0.28D-10  6  5     7.24     0.68
  12      1.14196521    -0.45765397  -130.29607375    -0.00000016     0.00000049  0.17D-10  0.81D-11  6  6     7.85     0.68
  13      1.14196451    -0.45765399  -130.29607377    -0.00000002     0.00000013  0.65D-11  0.15D-11  6  1     8.45     0.68
  14      1.14196396    -0.45765402  -130.29607380    -0.00000003     0.00000012  0.58D-12  0.48D-12  6  3     9.08     0.68
  15      1.14196380    -0.45765402  -130.29607380     0.00000000     0.00000001  0.16D-12  0.33D-13  6  2     9.67     0.68
  16      1.14196375    -0.45765403  -130.29607380    -0.00000000     0.00000001  0.36D-13  0.82D-14  6  4    10.25     0.68
  17      1.14196372    -0.45765403  -130.29607380    -0.00000000     0.00000001  0.45D-14  0.13D-14  6  5    10.83     0.68
  18      1.14196372    -0.45765403  -130.29607380     0.00000000     0.00000000  0.49D-15  0.36D-15  6  6    11.41     0.68
  19      1.14196373    -0.45765403  -130.29607380     0.00000000    -0.00000000  0.69D-16  0.46D-16  6  1    12.03     0.68
  20      1.14196373    -0.45765403  -130.29607380     0.00000000    -0.00000000  0.38D-17  0.11D-16  6  3    12.61     0.68
  21      1.14196373    -0.45765403  -130.29607380     0.00000000    -0.00000000  0.55D-18  0.23D-17  6  4    13.22     0.68
  22      1.14196373    -0.45765403  -130.29607380     0.00000000    -0.00000000  0.17D-19  0.80D-18  6  2    13.88     0.69
  23      1.14196373    -0.45765403  -130.29607380    -0.00000000     0.00000000  0.30D-19  0.15D-18  6  4    14.50     0.69
  24      1.14196373    -0.45765403  -130.29607380     0.00000000    -0.00000000  0.38D-20  0.70D-20  6  5    15.13     0.69
  25      1.14196373    -0.45765403  -130.29607380    -0.00000000     0.00000000  0.40D-21  0.60D-21  6  6    15.72     0.69
  26      1.14196373    -0.45765403  -130.29607380     0.00000000    -0.00000000  0.15D-21  0.64D-22  6  1    16.33     0.69
  27      1.14196373    -0.45765403  -130.29607380     0.00000000    -0.00000000  0.55D-22  0.17D-22  6  3    16.94     0.69

 Norm of t1 vector:      0.07874101      S-energy:     0.00000000      T1 diagnostic:  0.01607294
                                                                       D1 diagnostic:  0.04366646

 Doubles amplitudes (print threshold =  0.500E-01):

         I         J         SYM. A    SYM. B    A         B      T(IJ, AB)

         6         6         2         2         1         1     -0.13676521


 Total CPU time for triples:      7.13 sec


 RESULTS
 =======

  Reference energy                   -129.838419772583
  CCSD singlet pair energy             -0.314520285379
  CCSD triplet pair energy             -0.143133740869
  CCSD correlation energy              -0.457654026242

  Triples (T) contribution             -0.021451168891
  Total correlation energy             -0.479105195133

  CCSD total energy                  -130.296073798825
  CCSD[T] energy                     -130.318658988845
  CCSD-T energy                      -130.317099191331
 !CCSD(T) total energy               -130.317524967716

 Timing summary (sec):

 STEP                 CPU(USER)    SYS     CPU(TOT)    WALL
 Transformation          0.68      0.17      0.85      0.85
 CCSD iterations        16.26      2.31     18.57     18.58
 Triples                 7.13      0.22      7.35      7.35

 Program statistics:

 Available memory in ccsd:               994999756
 Min. memory needed in ccsd:                887758
 Max. memory used in ccsd:                 1088212
 Max. memory used in cckext:               1535578 (27 integral passes)



 **********************************************************************************************************************************
 DATASETS  * FILE   NREC   LENGTH (MB)   RECORD NAMES
              1      20      479.09       500      610      700      900      950      970     1000      129      960     1100   
                                          VAR    BASINP    GEOM    SYMINP    ZMAT    AOBASIS   BASIS     P2S    ABASIS      S 
                                         1400     1410     1200     1210     1080     1600     1650     1300     1700     1380   
                                           T        V       H0       H01     AOSYM     SMH    MOLCAS    ERIS     OPER     JKOP   

              2       4        3.13       700     1000      520     2100   
                                         GEOM     BASIS   MCVARS     RHF  

 PROGRAMS   *        TOTAL   CCSD(T)        HF       INT
 CPU TIMES  *        33.18     24.11      4.87      4.11
 REAL TIME  *        38.61 SEC
 DISK USED  *         1.33 GB      
 **********************************************************************************************************************************

 CCSD(T)/USERDEF energy=   -130.317524967716

        CCSD(T)         HF-SCF  
   -130.31752497   -129.83841977
 **********************************************************************************************************************************
 Molpro calculation terminated
 Variable memory released
