
 Primary working directories    : /tmp/r2666/282300.maple
 Secondary working directories  : /tmp/r2666/282300.maple
 Wavefunction directory         : /ddn/home4/r2666/wfu/
 Main file repository           : /tmp/r2666/282300.maple/

 SHA1      : d5ffa45e93fdbca01ffc919aa182cfdae0147319
 NAME      : 2015.1.35
 ARCHNAME  : linux/x86_64
 FC        : /opt/intel/composer_xe_2015.1.133/bin/intel64/ifort
 BLASLIB   : -Wl,-_start-group /opt/intel/mkl/lib/intel64/libmkl_intel_ilp64.a /opt/intel/mkl/lib/intel64/libmkl_intel_thread.a /opt/intel/mkl/lib/intel64/libmkl_core.a -Wl,-_end-group
 id        : olemiss

 Nodes     nprocs
 cn075        1

 Using customized tuning parameters: mindgm=1; mindgv=20; mindgc=4; mindgr=1; noblas=0; minvec=7
 default implementation of scratch files=df  

 ***,hno CCSD(T)/TZ-F12 QFF
 memory, 995, m;
 gthresh,energy=1.d-12,zero=1.d-22,oneint=1.d-22,twoint=1.d-22;
 gthresh,optgrad=1.d-8,optstep=1.d-8;
 nocompress;
 geomtyp=xyz
 bohr
 geometry={
 3
         68        68
 H        0.0000000000        1.6674498676       -1.9398038131
 N        0.0000000000       -0.1539508152       -1.1430180377
 O        0.0000000000        0.0282687377        1.1322322598
 }
 
 basis={
 default=aug-cc-pvtz
 s,C,8236.0,1235.0,280.8, 79.27,25.59, 8.997,3.319
 s,C,0.9059,0.3643,0.1285000
 p,C,56.0,18.71,4.133,0.2827,0.3827,0.1209
 d,C,30.0,10.0,3.3,1.097,0.318
 f,C,7.0,2.3,0.7610
 s,N,11420.0,1712.0,389.3,110.0,35.57,12.54,4.644
 s,N,1.293,0.5118,0.1787
 p,N,79.89,26.63,5.948,1.742,0.555,0.1725
 d,N,45.0,15.0,5.0,1.654,0.469
 f,N,9.9,3.3,1.093
 s,O,15330.0,2299.0,522.4,147.3,47.55,16.76,6.207
 s,O,1.752,0.6882,0.2384
 p,O,103.5,34.46,7.749,2.28,0.7156,0.214
 d,O,63.0,21.0,7.0,2.314,0.645
 f,O,12.9,4.3,1.428
 s,mg,164900.0,24710.0,5628.0,1596.0,521.0;
 s,mg,188.0,73.01,29.90,12.54,4.306,1.826;
 s,mg,0.7417,0.0761,0.145,0.033,0.0129;
 p,mg,950.70,316.90,74.86,23.72,8.669,3.363;
 p,mg,1.310,0.4911,0.2364,0.08733,0.03237,0.00745;
 d,mg,1.601,0.686,0.126,0.294,0.0468;
 f,mg,1.372,0.588,0.094,0.252;
 }
   {hf,maxit=500;accu,20;}
 {ccsd(t),nocheck,maxit=250;orbital,IGNORE_ERROR;}

 Variables initialized (889), CPU time= 0.01 sec
 Commands  initialized (702), CPU time= 0.01 sec, 572 directives.
 Default parameters read. Elapsed time= 0.04 sec

 Checking input...
 Passed
1


                                         ***  PROGRAM SYSTEM MOLPRO  ***
                                       Copyright, TTI GmbH Stuttgart, 2015
                                    Version 2015.1 linked Jul  9 2018 13:16:40


 **********************************************************************************************************************************
 LABEL *   hno CCSD(T)/TZ-F12 QFF                                                        
  64 bit serial version                                                                  DATE: 04-Mar-20          TIME: 13:47:37  
 **********************************************************************************************************************************

 SHA1:             d5ffa45e93fdbca01ffc919aa182cfdae0147319
 **********************************************************************************************************************************

 THRESHOLDS:

 ZERO    =  1.00D-22  ONEINT  =  1.00D-22  TWOINT  =  1.00D-22  PREFAC  =  1.00D-14  LOCALI  =  1.00D-09  EORDER  =  1.00D-04
 ENERGY  =  1.00D-12  ETEST   =  0.00D+00  EDENS   =  0.00D+00  THRDEDEF=  1.00D-06  GRADIENT=  1.00D-02  STEP    =  1.00D-03
 ORBITAL =  1.00D-05  CIVEC   =  1.00D-05  COEFF   =  1.00D-04  PRINTCI =  5.00D-02  PUNCHCI =  9.90D+01  OPTGRAD =  3.00D-04
 OPTENERG=  1.00D-06  OPTSTEP =  3.00D-04  THRGRAD =  1.00D-10  COMPRESS=  1.00D-11  VARMIN  =  1.00D-07  VARMAX  =  1.00D-03
 THRDOUB =  0.00D+00  THRDIV  =  1.00D-05  THRRED  =  1.00D-07  THRPSP  =  1.00D+00  THRDC   =  1.00D-10  THRCS   =  1.00D-10
 THRNRM  =  1.00D-08  THREQ   =  0.00D+00  THRDE   =  1.00D+00  THRREF  =  1.00D-05  SPARFAC =  1.00D+00  THRDLP  =  1.00D-07
 THRDIA  =  1.00D-10  THRDLS  =  1.00D-07  THRGPS  =  0.00D+00  THRKEX  =  0.00D+00  THRDIS  =  2.00D-01  THRVAR  =  1.00D-10
 THRLOC  =  1.00D-06  THRGAP  =  1.00D-06  THRLOCT = -1.00D+00  THRGAPT = -1.00D+00  THRORB  =  1.00D-06  THRMLTP =  0.00D+00
 THRCPQCI=  1.00D-10  KEXTA   =  0.00D+00  THRCOARS=  0.00D+00  SYMTOL  =  1.00D-06  GRADTOL =  1.00D-06  THROVL  =  1.00D-08
 THRORTH =  1.00D-08  GRID    =  1.00D-06  GRIDMAX =  1.00D-03  DTMAX   =  0.00D+00  THROCCDE=  1.00D-01  THROCCDE=  1.00D-01



 THRESHOLDS:

 ZERO    =  1.00D-22  ONEINT  =  1.00D-22  TWOINT  =  1.00D-22  PREFAC  =  1.00D-14  LOCALI  =  1.00D-09  EORDER  =  1.00D-04
 ENERGY  =  1.00D-12  ETEST   =  0.00D+00  EDENS   =  0.00D+00  THRDEDEF=  1.00D-06  GRADIENT=  1.00D-02  STEP    =  1.00D-03
 ORBITAL =  1.00D-05  CIVEC   =  1.00D-05  COEFF   =  1.00D-04  PRINTCI =  5.00D-02  PUNCHCI =  9.90D+01  OPTGRAD =  1.00D-08
 OPTENERG=  1.00D-06  OPTSTEP =  1.00D-08  THRGRAD =  1.00D-10  COMPRESS=  1.00D-11  VARMIN  =  1.00D-07  VARMAX  =  1.00D-03
 THRDOUB =  0.00D+00  THRDIV  =  1.00D-05  THRRED  =  1.00D-07  THRPSP  =  1.00D+00  THRDC   =  1.00D-10  THRCS   =  1.00D-10
 THRNRM  =  1.00D-08  THREQ   =  0.00D+00  THRDE   =  1.00D+00  THRREF  =  1.00D-05  SPARFAC =  1.00D+00  THRDLP  =  1.00D-07
 THRDIA  =  1.00D-10  THRDLS  =  1.00D-07  THRGPS  =  0.00D+00  THRKEX  =  0.00D+00  THRDIS  =  2.00D-01  THRVAR  =  1.00D-10
 THRLOC  =  1.00D-06  THRGAP  =  1.00D-06  THRLOCT = -1.00D+00  THRGAPT = -1.00D+00  THRORB  =  1.00D-06  THRMLTP =  0.00D+00
 THRCPQCI=  1.00D-10  KEXTA   =  0.00D+00  THRCOARS=  0.00D+00  SYMTOL  =  1.00D-06  GRADTOL =  1.00D-06  THROVL  =  1.00D-08
 THRORTH =  1.00D-08  GRID    =  1.00D-06  GRIDMAX =  1.00D-03  DTMAX   =  0.00D+00  THROCCDE=  1.00D-01  THROCCDE=  1.00D-01



 Input parameters for SORTINT:

 COMPRESS =    0.000000
 C_FINAL  =    1.000000
 DEBUG    =   -1.000000
 C_SORT1  =    0.000000
 C_SEWARD =    0.000000
 THRESH   =    0.000000
 IO       =  molpro                                                          
 SPRI     =    0.000000
 SETTING GEOMTYP        =    XYZ
 ZUNIT=BOHR
 

 Variable memory set to  995000000 words,  buffer space   230000 words

 SETTING BASIS          =    USERDEF


 Recomputing integrals since basis changed


 Using spherical harmonics

 Library entry H      S aug-cc-pVTZ          selected for orbital group  1
 Library entry H      P aug-cc-pVTZ          selected for orbital group  1
 Library entry H      D aug-cc-pVTZ          selected for orbital group  1


 PROGRAM * SEWARD (Integral evaluation for generally contracted gaussian basis sets)     Author: Roland Lindh, 1990

 Geometry written to block  1 of record 700


 Point group  Cs  



 ATOMIC COORDINATES

 NR  ATOM    CHARGE       X              Y              Z

   1  H       1.00    0.000000000    1.667449868   -1.939803813
   2  N       7.00    0.000000000   -0.153950815   -1.143018038
   3  O       8.00    0.000000000    0.028268738    1.132232260

 Bond lengths in Bohr (Angstrom)

 1-2  1.988056342  2-3  2.282535406
     ( 1.052034110)     ( 1.207865720)

 Bond angles

  1-2-3  109.04843018

 NUCLEAR CHARGE:                   16
 NUMBER OF PRIMITIVE AOS:         203
 NUMBER OF SYMMETRY AOS:          173
 NUMBER OF CONTRACTIONS:          171   ( 114A'  +  57A"  )
 NUMBER OF CORE ORBITALS:           2   (   2A'  +   0A"  )
 NUMBER OF VALENCE ORBITALS:        9   (   7A'  +   2A"  )


 NUCLEAR REPULSION ENERGY   30.35267853


 Eigenvalues of metric

         1 0.104E-02 0.248E-02 0.334E-02 0.636E-02 0.984E-02 0.137E-01 0.144E-01 0.231E-01
         2 0.363E-01 0.531E-01 0.696E-01 0.942E-01 0.131E+00 0.134E+00 0.140E+00 0.142E+00


 Contracted 2-electron integrals neglected if value below      1.0D-22

       46149372. INTEGRALS WRITTEN OUT IN   11270 BLOCKS ON RECORD 1290 OF FILE 1


 NUMBER OF SORTED TWO-ELECTRON INTEGRALS:   55360566.     BUFFER LENGTH:  32768
 NUMBER OF SEGMENTS:   4  SEGMENT LENGTH:   15997996      RECORD LENGTH: 524288

 Memory used in sort:      16.56 MW

 SORT1 READ    46149372. AND WROTE    46586831. INTEGRALS IN    136 RECORDS. CPU TIME:     0.81 SEC, REAL TIME:     1.05 SEC
 SORT2 READ    46586831. AND WROTE    55360566. INTEGRALS IN      4 RECORDS. CPU TIME:     0.66 SEC, REAL TIME:     0.85 SEC

 FILE SIZES:   FILE 1:   759.3 MBYTE,  FILE 4:   570.5 MBYTE,   TOTAL:   1329.8 MBYTE

 OPERATOR DM      FOR CENTER  0  COORDINATES:    0.000000    0.000000    0.000000


 **********************************************************************************************************************************
 DATASETS  * FILE   NREC   LENGTH (MB)   RECORD NAMES
              1      19      421.27       500      610      700      900      950      970     1000      129      960     1100   
                                          VAR    BASINP    GEOM    SYMINP    ZMAT    AOBASIS   BASIS     P2S    ABASIS      S 
                                         1400     1410     1200     1210     1080     1600     1650     1300     1700   
                                           T        V       H0       H01     AOSYM     SMH    MOLCAS    ERIS     OPER   

 PROGRAMS   *        TOTAL       INT
 CPU TIMES  *         4.20      4.12
 REAL TIME  *         5.44 SEC
 DISK USED  *         1.33 GB      
 **********************************************************************************************************************************


 PROGRAM * RHF-SCF (CLOSED SHELL)       Authors: W. Meyer, H.-J. Werner


 NUMBER OF ELECTRONS:       8+    8-
 CONVERGENCE THRESHOLDS:    1.00E-10 (Density)    1.00E-13 (Energy)
 MAX. NUMBER OF ITERATIONS:      500
 INTERPOLATION TYPE:            DIIS
 INTERPOLATION STEPS:              2 (START)      1 (STEP)
 LEVEL SHIFTS:                  0.00 (CLOSED)  0.00 (OPEN) 



 Orbital guess generated from atomic densities. Full valence occupancy:    9   2

 Molecular orbital dump at record        2100.2

 Initial occupancy:   7   1

 ITERATION    DDIFF          GRAD             ENERGY        2-EL.EN.            DIPOLE MOMENTS         DIIS   ORB.
    1      0.000D+00      0.000D+00      -129.78933735    154.028490    0.00000    0.57708   -1.01537    0    start
    2      0.000D+00      0.878D-02      -129.81623245    155.206879    0.00000    0.59717   -0.19990    1    diag
    3      0.364D-02      0.666D-02      -129.83891442    155.326640    0.00000    0.54992   -0.58689    2    diag
    4      0.141D-02      0.104D-02      -129.83969993    155.051780    0.00000    0.55760   -0.52427    3    diag
    5      0.332D-03      0.336D-03      -129.83981999    155.140067    0.00000    0.56370   -0.52675    4    diag
    6      0.153D-03      0.986D-04      -129.83983954    155.123996    0.00000    0.56429   -0.52263    5    diag
    7      0.607D-04      0.495D-04      -129.83984530    155.126532    0.00000    0.56562   -0.52013    6    diag
    8      0.412D-04      0.170D-04      -129.83984592    155.125713    0.00000    0.56568   -0.51922    7    diag
    9      0.143D-04      0.317D-05      -129.83984594    155.125599    0.00000    0.56563   -0.51904    8    diag
   10      0.289D-05      0.727D-06      -129.83984594    155.125585    0.00000    0.56559   -0.51901    9    orth
   11      0.868D-06      0.144D-06      -129.83984594    155.125580    0.00000    0.56558   -0.51901    9    diag
   12      0.205D-06      0.298D-07      -129.83984594    155.125580    0.00000    0.56558   -0.51901    9    diag
   13      0.497D-07      0.787D-08      -129.83984594    155.125579    0.00000    0.56558   -0.51901    9    diag
   14      0.115D-07      0.139D-08      -129.83984594    155.125579    0.00000    0.56558   -0.51901    9    diag
   15      0.147D-08      0.372D-09      -129.83984594    155.125579    0.00000    0.56558   -0.51901    9    diag
   16      0.327D-09      0.109D-09      -129.83984594    155.125579    0.00000    0.56558   -0.51901    9    diag
   17      0.734D-10      0.297D-10      -129.83984594    155.125579    0.00000    0.56558   -0.51901    9    diag
   18      0.231D-10      0.986D-11      -129.83984594    155.125579    0.00000    0.56558   -0.51901    0    orth

 Final occupancy:   7   1

 !RHF STATE 1.1 Energy               -129.839845944922
 Nuclear energy                        30.35267853
 One-electron energy                 -237.75531412
 Two-electron energy                   77.56278964
 Virial quotient                       -1.00165453
 !RHF STATE 1.1 Dipole moment           0.00000000     0.56557976    -0.51900719
 Dipole moment /Debye                   0.00000000     1.43746621    -1.31909829

 Orbital energies:

         1.1          2.1          3.1          4.1          5.1          6.1          7.1          8.1          9.1
    -20.651475   -15.710423    -1.527684    -0.993412    -0.745187    -0.664420    -0.428122     0.039619     0.192732

         1.2          2.2          3.2
     -0.594143     0.078919     0.239625

 HOMO      7.1    -0.428122 =     -11.6498eV
 LUMO      8.1     0.039619 =       1.0781eV
 LUMO-HOMO         0.467742 =      12.7279eV


 **********************************************************************************************************************************
 DATASETS  * FILE   NREC   LENGTH (MB)   RECORD NAMES
              1      19      421.27       500      610      700      900      950      970     1000      129      960     1100   
                                          VAR    BASINP    GEOM    SYMINP    ZMAT    AOBASIS   BASIS     P2S    ABASIS      S 
                                         1400     1410     1200     1210     1080     1600     1650     1300     1700   
                                           T        V       H0       H01     AOSYM     SMH    MOLCAS    ERIS     OPER   

              2       4        3.13       700     1000      520     2100   
                                         GEOM     BASIS   MCVARS     RHF  

 PROGRAMS   *        TOTAL        HF       INT
 CPU TIMES  *         8.79      4.59      4.12
 REAL TIME  *        11.00 SEC
 DISK USED  *         1.33 GB      
 **********************************************************************************************************************************


 PROGRAM * CCSD (Closed-shell coupled cluster)     Authors: C. Hampel, H.-J. Werner, 1991, M. Deegan, P.J. Knowles, 1992


 Convergence thresholds:  THRVAR = 1.00D-08  THRDEN = 1.00D-12

 CCSD(T)     terms to be evaluated (factor= 1.000)


 Number of core orbitals:           2 (   2   0 )
 Number of closed-shell orbitals:   6 (   5   1 )
 Number of external orbitals:     163 ( 107  56 )

 Molecular orbitals read from record     2100.2  Type=RHF/CANONICAL (state 1.1)

 Number of N-1 electron functions:               6
 Number of N-2 electron functions:              21
 Number of singly external CSFs:               591
 Number of doubly external CSFs:            250014
 Total number of CSFs:                      250606

 Length of J-op  integral file:               0.00 MB
 Length of K-op  integral file:               1.15 MB
 Length of 3-ext integral record:             0.00 MB

 Memory could be reduced to 19.93 Mwords without degradation in triples

 Integral transformation finished. Total CPU:   0.69 sec, npass=  1  Memory used:   5.10 MW

 Reference energy:                   -129.83984594

 MP2 singlet pair energy:              -0.28686068
 MP2 triplet pair energy:              -0.16718162
 MP2 correlation energy:               -0.45404229
 MP2 total energy:                   -130.29388824

 SCS-MP2 correlation energy:           -0.44825693   (PS=  1.200000  PT=  0.333333)
 SCS-MP2 total energy:               -130.28810287

 ITER.      SQ.NORM     CORR.ENERGY   TOTAL ENERGY   ENERGY CHANGE        DEN1      VAR(S)    VAR(P)  DIIS     TIME  TIME/IT
   1      1.11881020    -0.45618113  -130.29602708    -0.00213884     0.01463317  0.32D-02  0.31D-02  1  1     1.32     0.66
   2      1.12934064    -0.45609774  -130.29594369     0.00008339    -0.01251479  0.12D-03  0.50D-03  2  2     1.93     0.68
   3      1.13591493    -0.45647214  -130.29631809    -0.00037440    -0.00336815  0.45D-04  0.58D-04  3  3     2.53     0.68
   4      1.13879303    -0.45650370  -130.29634965    -0.00003156    -0.00094764  0.45D-05  0.98D-05  4  4     3.16     0.68
   5      1.13988101    -0.45653625  -130.29638220    -0.00003255    -0.00022157  0.14D-05  0.18D-05  5  5     3.78     0.69
   6      1.14028254    -0.45652045  -130.29636639     0.00001581    -0.00006636  0.12D-06  0.44D-06  6  6     4.42     0.69
   7      1.14035713    -0.45652196  -130.29636790    -0.00000151     0.00000845  0.17D-07  0.95D-07  6  1     5.04     0.69
   8      1.14039233    -0.45652154  -130.29636749     0.00000041    -0.00000469  0.50D-08  0.15D-07  6  2     5.67     0.69
   9      1.14039800    -0.45652141  -130.29636736     0.00000013     0.00000088  0.22D-08  0.17D-08  6  3     6.25     0.69
  10      1.14039836    -0.45652175  -130.29636769    -0.00000034    -0.00000021  0.51D-09  0.26D-09  6  4     6.91     0.70
  11      1.14039682    -0.45652189  -130.29636784    -0.00000014     0.00000035  0.12D-09  0.27D-10  6  5     7.55     0.70
  12      1.14039563    -0.45652204  -130.29636799    -0.00000015     0.00000048  0.16D-10  0.78D-11  6  6     8.17     0.70
  13      1.14039496    -0.45652206  -130.29636801    -0.00000002     0.00000013  0.62D-11  0.14D-11  6  1     8.81     0.70
  14      1.14039443    -0.45652209  -130.29636803    -0.00000003     0.00000012  0.57D-12  0.46D-12  6  3     9.41     0.70
  15      1.14039427    -0.45652209  -130.29636803    -0.00000000     0.00000001  0.14D-12  0.32D-13  6  2    10.05     0.70
  16      1.14039422    -0.45652209  -130.29636804    -0.00000000     0.00000001  0.33D-13  0.77D-14  6  4    10.68     0.70
  17      1.14039420    -0.45652209  -130.29636804    -0.00000000     0.00000001  0.42D-14  0.12D-14  6  5    11.30     0.70
  18      1.14039420    -0.45652209  -130.29636804     0.00000000     0.00000000  0.46D-15  0.33D-15  6  6    11.91     0.70
  19      1.14039420    -0.45652209  -130.29636804     0.00000000    -0.00000000  0.62D-16  0.40D-16  6  1    12.54     0.70
  20      1.14039421    -0.45652209  -130.29636804     0.00000000    -0.00000000  0.33D-17  0.91D-17  6  3    13.17     0.70
  21      1.14039421    -0.45652209  -130.29636804     0.00000000    -0.00000000  0.52D-18  0.19D-17  6  4    13.81     0.70
  22      1.14039421    -0.45652209  -130.29636804     0.00000000    -0.00000000  0.17D-19  0.67D-18  6  2    14.47     0.70
  23      1.14039421    -0.45652209  -130.29636804    -0.00000000     0.00000000  0.50D-19  0.14D-18  6  5    15.12     0.70
  24      1.14039421    -0.45652209  -130.29636804    -0.00000000     0.00000000  0.49D-20  0.14D-19  6  1    15.78     0.70
  25      1.14039421    -0.45652209  -130.29636804     0.00000000    -0.00000000  0.21D-20  0.93D-21  6  6    16.44     0.70

 Norm of t1 vector:      0.07744667      S-energy:     0.00000000      T1 diagnostic:  0.01580873
                                                                       D1 diagnostic:  0.04305477

 Doubles amplitudes (print threshold =  0.500E-01):

         I         J         SYM. A    SYM. B    A         B      T(IJ, AB)

         6         6         2         2         1         1     -0.13526345


 Total CPU time for triples:      7.56 sec


 RESULTS
 =======

  Reference energy                   -129.839845944921
  CCSD singlet pair energy             -0.313538030069
  CCSD triplet pair energy             -0.142984062429
  CCSD correlation energy              -0.456522092497

  Triples (T) contribution             -0.021203101073
  Total correlation energy             -0.477725193569

  CCSD total energy                  -130.296368037418
  CCSD[T] energy                     -130.318670911670
  CCSD-T energy                      -130.317156119506
 !CCSD(T) total energy               -130.317571138491

 Timing summary (sec):

 STEP                 CPU(USER)    SYS     CPU(TOT)    WALL
 Transformation          0.70      0.12      0.82      0.83
 CCSD iterations        15.74      1.83     17.57     17.57
 Triples                 7.56      0.23      7.79      7.78

 Program statistics:

 Available memory in ccsd:               994999756
 Min. memory needed in ccsd:                887758
 Max. memory used in ccsd:                 1088212
 Max. memory used in cckext:               1535578 (25 integral passes)



 **********************************************************************************************************************************
 DATASETS  * FILE   NREC   LENGTH (MB)   RECORD NAMES
              1      20      479.23       500      610      700      900      950      970     1000      129      960     1100   
                                          VAR    BASINP    GEOM    SYMINP    ZMAT    AOBASIS   BASIS     P2S    ABASIS      S 
                                         1400     1410     1200     1210     1080     1600     1650     1300     1700     1380   
                                           T        V       H0       H01     AOSYM     SMH    MOLCAS    ERIS     OPER     JKOP   

              2       4        3.13       700     1000      520     2100   
                                         GEOM     BASIS   MCVARS     RHF  

 PROGRAMS   *        TOTAL   CCSD(T)        HF       INT
 CPU TIMES  *        32.83     24.04      4.59      4.12
 REAL TIME  *        38.18 SEC
 DISK USED  *         1.33 GB      
 **********************************************************************************************************************************

 CCSD(T)/USERDEF energy=   -130.317571138491

        CCSD(T)         HF-SCF  
   -130.31757114   -129.83984594
 **********************************************************************************************************************************
 Molpro calculation terminated
 Variable memory released
