
 Primary working directories    : /tmp/r2666/282292.maple
 Secondary working directories  : /tmp/r2666/282292.maple
 Wavefunction directory         : /ddn/home4/r2666/wfu/
 Main file repository           : /tmp/r2666/282292.maple/

 SHA1      : d5ffa45e93fdbca01ffc919aa182cfdae0147319
 NAME      : 2015.1.35
 ARCHNAME  : linux/x86_64
 FC        : /opt/intel/composer_xe_2015.1.133/bin/intel64/ifort
 BLASLIB   : -Wl,-_start-group /opt/intel/mkl/lib/intel64/libmkl_intel_ilp64.a /opt/intel/mkl/lib/intel64/libmkl_intel_thread.a /opt/intel/mkl/lib/intel64/libmkl_core.a -Wl,-_end-group
 id        : olemiss

 Nodes     nprocs
 cn078        1

 Using customized tuning parameters: mindgm=1; mindgv=20; mindgc=4; mindgr=1; noblas=0; minvec=7
 default implementation of scratch files=df  

 ***,hno CCSD(T)/TZ-F12 QFF
 memory, 995, m;
 gthresh,energy=1.d-12,zero=1.d-22,oneint=1.d-22,twoint=1.d-22;
 gthresh,optgrad=1.d-8,optstep=1.d-8;
 nocompress;
 geomtyp=xyz
 bohr
 geometry={
 3
         60        60
 H        0.0000000000        1.6664471488       -1.9340934463
 N        0.0000000000       -0.1565134683       -1.1408831287
 O        0.0000000000        0.0318341095        1.1243869840
 }
 
 basis={
 default=aug-cc-pvtz
 s,C,8236.0,1235.0,280.8, 79.27,25.59, 8.997,3.319
 s,C,0.9059,0.3643,0.1285000
 p,C,56.0,18.71,4.133,0.2827,0.3827,0.1209
 d,C,30.0,10.0,3.3,1.097,0.318
 f,C,7.0,2.3,0.7610
 s,N,11420.0,1712.0,389.3,110.0,35.57,12.54,4.644
 s,N,1.293,0.5118,0.1787
 p,N,79.89,26.63,5.948,1.742,0.555,0.1725
 d,N,45.0,15.0,5.0,1.654,0.469
 f,N,9.9,3.3,1.093
 s,O,15330.0,2299.0,522.4,147.3,47.55,16.76,6.207
 s,O,1.752,0.6882,0.2384
 p,O,103.5,34.46,7.749,2.28,0.7156,0.214
 d,O,63.0,21.0,7.0,2.314,0.645
 f,O,12.9,4.3,1.428
 s,mg,164900.0,24710.0,5628.0,1596.0,521.0;
 s,mg,188.0,73.01,29.90,12.54,4.306,1.826;
 s,mg,0.7417,0.0761,0.145,0.033,0.0129;
 p,mg,950.70,316.90,74.86,23.72,8.669,3.363;
 p,mg,1.310,0.4911,0.2364,0.08733,0.03237,0.00745;
 d,mg,1.601,0.686,0.126,0.294,0.0468;
 f,mg,1.372,0.588,0.094,0.252;
 }
   {hf,maxit=500;accu,20;}
 {ccsd(t),nocheck,maxit=250;orbital,IGNORE_ERROR;}

 Variables initialized (889), CPU time= 0.01 sec
 Commands  initialized (702), CPU time= 0.01 sec, 572 directives.
 Default parameters read. Elapsed time= 0.04 sec

 Checking input...
 Passed
1


                                         ***  PROGRAM SYSTEM MOLPRO  ***
                                       Copyright, TTI GmbH Stuttgart, 2015
                                    Version 2015.1 linked Jul  9 2018 13:16:40


 **********************************************************************************************************************************
 LABEL *   hno CCSD(T)/TZ-F12 QFF                                                        
  64 bit serial version                                                                  DATE: 04-Mar-20          TIME: 13:47:34  
 **********************************************************************************************************************************

 SHA1:             d5ffa45e93fdbca01ffc919aa182cfdae0147319
 **********************************************************************************************************************************

 THRESHOLDS:

 ZERO    =  1.00D-22  ONEINT  =  1.00D-22  TWOINT  =  1.00D-22  PREFAC  =  1.00D-14  LOCALI  =  1.00D-09  EORDER  =  1.00D-04
 ENERGY  =  1.00D-12  ETEST   =  0.00D+00  EDENS   =  0.00D+00  THRDEDEF=  1.00D-06  GRADIENT=  1.00D-02  STEP    =  1.00D-03
 ORBITAL =  1.00D-05  CIVEC   =  1.00D-05  COEFF   =  1.00D-04  PRINTCI =  5.00D-02  PUNCHCI =  9.90D+01  OPTGRAD =  3.00D-04
 OPTENERG=  1.00D-06  OPTSTEP =  3.00D-04  THRGRAD =  1.00D-10  COMPRESS=  1.00D-11  VARMIN  =  1.00D-07  VARMAX  =  1.00D-03
 THRDOUB =  0.00D+00  THRDIV  =  1.00D-05  THRRED  =  1.00D-07  THRPSP  =  1.00D+00  THRDC   =  1.00D-10  THRCS   =  1.00D-10
 THRNRM  =  1.00D-08  THREQ   =  0.00D+00  THRDE   =  1.00D+00  THRREF  =  1.00D-05  SPARFAC =  1.00D+00  THRDLP  =  1.00D-07
 THRDIA  =  1.00D-10  THRDLS  =  1.00D-07  THRGPS  =  0.00D+00  THRKEX  =  0.00D+00  THRDIS  =  2.00D-01  THRVAR  =  1.00D-10
 THRLOC  =  1.00D-06  THRGAP  =  1.00D-06  THRLOCT = -1.00D+00  THRGAPT = -1.00D+00  THRORB  =  1.00D-06  THRMLTP =  0.00D+00
 THRCPQCI=  1.00D-10  KEXTA   =  0.00D+00  THRCOARS=  0.00D+00  SYMTOL  =  1.00D-06  GRADTOL =  1.00D-06  THROVL  =  1.00D-08
 THRORTH =  1.00D-08  GRID    =  1.00D-06  GRIDMAX =  1.00D-03  DTMAX   =  0.00D+00  THROCCDE=  1.00D-01  THROCCDE=  1.00D-01



 THRESHOLDS:

 ZERO    =  1.00D-22  ONEINT  =  1.00D-22  TWOINT  =  1.00D-22  PREFAC  =  1.00D-14  LOCALI  =  1.00D-09  EORDER  =  1.00D-04
 ENERGY  =  1.00D-12  ETEST   =  0.00D+00  EDENS   =  0.00D+00  THRDEDEF=  1.00D-06  GRADIENT=  1.00D-02  STEP    =  1.00D-03
 ORBITAL =  1.00D-05  CIVEC   =  1.00D-05  COEFF   =  1.00D-04  PRINTCI =  5.00D-02  PUNCHCI =  9.90D+01  OPTGRAD =  1.00D-08
 OPTENERG=  1.00D-06  OPTSTEP =  1.00D-08  THRGRAD =  1.00D-10  COMPRESS=  1.00D-11  VARMIN  =  1.00D-07  VARMAX  =  1.00D-03
 THRDOUB =  0.00D+00  THRDIV  =  1.00D-05  THRRED  =  1.00D-07  THRPSP  =  1.00D+00  THRDC   =  1.00D-10  THRCS   =  1.00D-10
 THRNRM  =  1.00D-08  THREQ   =  0.00D+00  THRDE   =  1.00D+00  THRREF  =  1.00D-05  SPARFAC =  1.00D+00  THRDLP  =  1.00D-07
 THRDIA  =  1.00D-10  THRDLS  =  1.00D-07  THRGPS  =  0.00D+00  THRKEX  =  0.00D+00  THRDIS  =  2.00D-01  THRVAR  =  1.00D-10
 THRLOC  =  1.00D-06  THRGAP  =  1.00D-06  THRLOCT = -1.00D+00  THRGAPT = -1.00D+00  THRORB  =  1.00D-06  THRMLTP =  0.00D+00
 THRCPQCI=  1.00D-10  KEXTA   =  0.00D+00  THRCOARS=  0.00D+00  SYMTOL  =  1.00D-06  GRADTOL =  1.00D-06  THROVL  =  1.00D-08
 THRORTH =  1.00D-08  GRID    =  1.00D-06  GRIDMAX =  1.00D-03  DTMAX   =  0.00D+00  THROCCDE=  1.00D-01  THROCCDE=  1.00D-01



 Input parameters for SORTINT:

 COMPRESS =    0.000000
 C_FINAL  =    1.000000
 DEBUG    =   -1.000000
 C_SORT1  =    0.000000
 C_SEWARD =    0.000000
 THRESH   =    0.000000
 IO       =  molpro                                                          
 SPRI     =    0.000000
 SETTING GEOMTYP        =    XYZ
 ZUNIT=BOHR
 

 Variable memory set to  995000000 words,  buffer space   230000 words

 SETTING BASIS          =    USERDEF


 Recomputing integrals since basis changed


 Using spherical harmonics

 Library entry H      S aug-cc-pVTZ          selected for orbital group  1
 Library entry H      P aug-cc-pVTZ          selected for orbital group  1
 Library entry H      D aug-cc-pVTZ          selected for orbital group  1


 PROGRAM * SEWARD (Integral evaluation for generally contracted gaussian basis sets)     Author: Roland Lindh, 1990

 Geometry written to block  1 of record 700


 Point group  Cs  



 ATOMIC COORDINATES

 NR  ATOM    CHARGE       X              Y              Z

   1  H       1.00    0.000000000    1.666447149   -1.934093446
   2  N       7.00    0.000000000   -0.156513468   -1.140883129
   3  O       8.00    0.000000000    0.031834109    1.124386984

 Bond lengths in Bohr (Angstrom)

 1-2  1.988056342  2-3  2.273086777
     ( 1.052034110)     ( 1.202865721)

 Bond angles

  1-2-3  108.76195128

 NUCLEAR CHARGE:                   16
 NUMBER OF PRIMITIVE AOS:         203
 NUMBER OF SYMMETRY AOS:          173
 NUMBER OF CONTRACTIONS:          171   ( 114A'  +  57A"  )
 NUMBER OF CORE ORBITALS:           2   (   2A'  +   0A"  )
 NUMBER OF VALENCE ORBITALS:        9   (   7A'  +   2A"  )


 NUCLEAR REPULSION ENERGY   30.46400811


 Eigenvalues of metric

         1 0.103E-02 0.244E-02 0.331E-02 0.633E-02 0.984E-02 0.137E-01 0.144E-01 0.230E-01
         2 0.363E-01 0.524E-01 0.694E-01 0.941E-01 0.131E+00 0.134E+00 0.140E+00 0.142E+00


 Contracted 2-electron integrals neglected if value below      1.0D-22

       46185221. INTEGRALS WRITTEN OUT IN   11279 BLOCKS ON RECORD 1290 OF FILE 1


 NUMBER OF SORTED TWO-ELECTRON INTEGRALS:   55360566.     BUFFER LENGTH:  32768
 NUMBER OF SEGMENTS:   4  SEGMENT LENGTH:   15997996      RECORD LENGTH: 524288

 Memory used in sort:      16.56 MW

 SORT1 READ    46185221. AND WROTE    46623100. INTEGRALS IN    136 RECORDS. CPU TIME:     0.74 SEC, REAL TIME:     0.99 SEC
 SORT2 READ    46623100. AND WROTE    55360566. INTEGRALS IN      4 RECORDS. CPU TIME:     0.62 SEC, REAL TIME:     0.83 SEC

 FILE SIZES:   FILE 1:   759.9 MBYTE,  FILE 4:   570.5 MBYTE,   TOTAL:   1330.4 MBYTE

 OPERATOR DM      FOR CENTER  0  COORDINATES:    0.000000    0.000000    0.000000


 **********************************************************************************************************************************
 DATASETS  * FILE   NREC   LENGTH (MB)   RECORD NAMES
              1      19      421.51       500      610      700      900      950      970     1000      129      960     1100   
                                          VAR    BASINP    GEOM    SYMINP    ZMAT    AOBASIS   BASIS     P2S    ABASIS      S 
                                         1400     1410     1200     1210     1080     1600     1650     1300     1700   
                                           T        V       H0       H01     AOSYM     SMH    MOLCAS    ERIS     OPER   

 PROGRAMS   *        TOTAL       INT
 CPU TIMES  *         4.00      3.91
 REAL TIME  *         5.28 SEC
 DISK USED  *         1.33 GB      
 **********************************************************************************************************************************


 PROGRAM * RHF-SCF (CLOSED SHELL)       Authors: W. Meyer, H.-J. Werner


 NUMBER OF ELECTRONS:       8+    8-
 CONVERGENCE THRESHOLDS:    1.00E-10 (Density)    1.00E-13 (Energy)
 MAX. NUMBER OF ITERATIONS:      500
 INTERPOLATION TYPE:            DIIS
 INTERPOLATION STEPS:              2 (START)      1 (STEP)
 LEVEL SHIFTS:                  0.00 (CLOSED)  0.00 (OPEN) 



 Orbital guess generated from atomic densities. Full valence occupancy:    9   2

 Molecular orbital dump at record        2100.2

 Initial occupancy:   7   1

 ITERATION    DDIFF          GRAD             ENERGY        2-EL.EN.            DIPOLE MOMENTS         DIIS   ORB.
    1      0.000D+00      0.000D+00      -129.79072237    154.228536    0.00000    0.57218   -0.99864    0    start
    2      0.000D+00      0.873D-02      -129.81777028    155.415255    0.00000    0.59409   -0.20116    1    diag
    3      0.362D-02      0.655D-02      -129.83966020    155.524477    0.00000    0.54629   -0.57840    2    diag
    4      0.139D-02      0.103D-02      -129.84043434    155.253426    0.00000    0.55423   -0.51675    3    diag
    5      0.330D-03      0.334D-03      -129.84055267    155.341194    0.00000    0.56030   -0.51931    4    diag
    6      0.152D-03      0.979D-04      -129.84057192    155.325184    0.00000    0.56091   -0.51527    5    diag
    7      0.605D-04      0.489D-04      -129.84057751    155.327773    0.00000    0.56226   -0.51284    6    diag
    8      0.409D-04      0.165D-04      -129.84057809    155.326974    0.00000    0.56232   -0.51197    7    diag
    9      0.138D-04      0.306D-05      -129.84057811    155.326865    0.00000    0.56227   -0.51179    8    diag
   10      0.277D-05      0.709D-06      -129.84057811    155.326851    0.00000    0.56223   -0.51177    9    orth
   11      0.849D-06      0.142D-06      -129.84057811    155.326847    0.00000    0.56222   -0.51176    9    diag
   12      0.202D-06      0.290D-07      -129.84057811    155.326846    0.00000    0.56222   -0.51176    9    diag
   13      0.491D-07      0.760D-08      -129.84057811    155.326846    0.00000    0.56222   -0.51176    9    diag
   14      0.113D-07      0.136D-08      -129.84057811    155.326846    0.00000    0.56222   -0.51176    9    diag
   15      0.149D-08      0.370D-09      -129.84057811    155.326846    0.00000    0.56222   -0.51176    9    diag
   16      0.329D-09      0.112D-09      -129.84057811    155.326846    0.00000    0.56222   -0.51176    9    diag
   17      0.812D-10      0.317D-10      -129.84057811    155.326846    0.00000    0.56222   -0.51176    9    diag
   18      0.267D-10      0.105D-10      -129.84057811    155.326846    0.00000    0.56222   -0.51176    0    orth

 Final occupancy:   7   1

 !RHF STATE 1.1 Energy               -129.840578112776
 Nuclear energy                        30.46400811
 One-electron energy                 -237.96800906
 Two-electron energy                   77.66342283
 Virial quotient                       -1.00149540
 !RHF STATE 1.1 Dipole moment           0.00000000     0.56221991    -0.51176116
 Dipole moment /Debye                   0.00000000     1.42892687    -1.30068193

 Orbital energies:

         1.1          2.1          3.1          4.1          5.1          6.1          7.1          8.1          9.1
    -20.650946   -15.709641    -1.531959    -0.992088    -0.746740    -0.665830    -0.426801     0.039729     0.193027

         1.2          2.2          3.2
     -0.596577     0.080737     0.239768

 HOMO      7.1    -0.426801 =     -11.6138eV
 LUMO      8.1     0.039729 =       1.0811eV
 LUMO-HOMO         0.466530 =      12.6949eV


 **********************************************************************************************************************************
 DATASETS  * FILE   NREC   LENGTH (MB)   RECORD NAMES
              1      19      421.51       500      610      700      900      950      970     1000      129      960     1100   
                                          VAR    BASINP    GEOM    SYMINP    ZMAT    AOBASIS   BASIS     P2S    ABASIS      S 
                                         1400     1410     1200     1210     1080     1600     1650     1300     1700   
                                           T        V       H0       H01     AOSYM     SMH    MOLCAS    ERIS     OPER   

              2       4        3.13       700     1000      520     2100   
                                         GEOM     BASIS   MCVARS     RHF  

 PROGRAMS   *        TOTAL        HF       INT
 CPU TIMES  *         8.41      4.41      3.91
 REAL TIME  *        10.57 SEC
 DISK USED  *         1.33 GB      
 **********************************************************************************************************************************


 PROGRAM * CCSD (Closed-shell coupled cluster)     Authors: C. Hampel, H.-J. Werner, 1991, M. Deegan, P.J. Knowles, 1992


 Convergence thresholds:  THRVAR = 1.00D-08  THRDEN = 1.00D-12

 CCSD(T)     terms to be evaluated (factor= 1.000)


 Number of core orbitals:           2 (   2   0 )
 Number of closed-shell orbitals:   6 (   5   1 )
 Number of external orbitals:     163 ( 107  56 )

 Molecular orbitals read from record     2100.2  Type=RHF/CANONICAL (state 1.1)

 Number of N-1 electron functions:               6
 Number of N-2 electron functions:              21
 Number of singly external CSFs:               591
 Number of doubly external CSFs:            250014
 Total number of CSFs:                      250606

 Length of J-op  integral file:               0.00 MB
 Length of K-op  integral file:               1.15 MB
 Length of 3-ext integral record:             0.00 MB

 Memory could be reduced to 19.93 Mwords without degradation in triples

 Integral transformation finished. Total CPU:   0.68 sec, npass=  1  Memory used:   5.10 MW

 Reference energy:                   -129.84057811

 MP2 singlet pair energy:              -0.28635780
 MP2 triplet pair energy:              -0.16684752
 MP2 correlation energy:               -0.45320532
 MP2 total energy:                   -130.29378343

 SCS-MP2 correlation energy:           -0.44744559   (PS=  1.200000  PT=  0.333333)
 SCS-MP2 total energy:               -130.28802371

 ITER.      SQ.NORM     CORR.ENERGY   TOTAL ENERGY   ENERGY CHANGE        DEN1      VAR(S)    VAR(P)  DIIS     TIME  TIME/IT
   1      1.11826841    -0.45552977  -130.29610788    -0.00232445     0.01422695  0.31D-02  0.30D-02  1  1     1.27     0.63
   2      1.12866987    -0.45548861  -130.29606673     0.00004115    -0.01238550  0.12D-03  0.49D-03  2  2     1.87     0.64
   3      1.13513946    -0.45585550  -130.29643361    -0.00036689    -0.00333566  0.43D-04  0.56D-04  3  3     2.46     0.65
   4      1.13795491    -0.45588666  -130.29646478    -0.00003116    -0.00093111  0.43D-05  0.95D-05  4  4     3.03     0.65
   5      1.13900715    -0.45591812  -130.29649623    -0.00003145    -0.00021460  0.13D-05  0.17D-05  5  5     3.61     0.65
   6      1.13939802    -0.45590289  -130.29648100     0.00001523    -0.00006458  0.12D-06  0.43D-06  6  6     4.19     0.65
   7      1.13947206    -0.45590434  -130.29648245    -0.00000145     0.00000813  0.17D-07  0.92D-07  6  1     4.81     0.65
   8      1.13950671    -0.45590398  -130.29648209     0.00000036    -0.00000453  0.50D-08  0.14D-07  6  2     5.39     0.65
   9      1.13951227    -0.45590386  -130.29648197     0.00000012     0.00000081  0.22D-08  0.16D-08  6  3     5.96     0.65
  10      1.13951258    -0.45590419  -130.29648230    -0.00000033    -0.00000018  0.49D-09  0.24D-09  6  4     6.55     0.65
  11      1.13951106    -0.45590432  -130.29648244    -0.00000014     0.00000034  0.12D-09  0.25D-10  6  5     7.14     0.65
  12      1.13950991    -0.45590447  -130.29648258    -0.00000015     0.00000047  0.15D-10  0.74D-11  6  6     7.73     0.66
  13      1.13950926    -0.45590449  -130.29648260    -0.00000002     0.00000012  0.60D-11  0.13D-11  6  1     8.34     0.66
  14      1.13950875    -0.45590452  -130.29648263    -0.00000003     0.00000011  0.56D-12  0.43D-12  6  3     8.94     0.66
  15      1.13950860    -0.45590452  -130.29648263    -0.00000000     0.00000001  0.14D-12  0.30D-13  6  2     9.52     0.66
  16      1.13950855    -0.45590452  -130.29648263    -0.00000000     0.00000001  0.32D-13  0.73D-14  6  4    10.11     0.66
  17      1.13950853    -0.45590452  -130.29648263    -0.00000000     0.00000001  0.39D-14  0.12D-14  6  5    10.70     0.66
  18      1.13950853    -0.45590452  -130.29648263     0.00000000     0.00000000  0.43D-15  0.31D-15  6  6    11.28     0.66
  19      1.13950854    -0.45590452  -130.29648263     0.00000000    -0.00000000  0.57D-16  0.36D-16  6  1    11.88     0.66
  20      1.13950854    -0.45590452  -130.29648263     0.00000000    -0.00000000  0.31D-17  0.81D-17  6  3    12.49     0.66
  21      1.13950854    -0.45590452  -130.29648263     0.00000000    -0.00000000  0.49D-18  0.17D-17  6  4    13.10     0.66
  22      1.13950854    -0.45590452  -130.29648263     0.00000000    -0.00000000  0.15D-19  0.58D-18  6  2    13.71     0.66
  23      1.13950854    -0.45590452  -130.29648263    -0.00000000     0.00000000  0.40D-19  0.13D-18  6  5    14.31     0.66
  24      1.13950854    -0.45590452  -130.29648263    -0.00000000     0.00000000  0.46D-20  0.12D-19  6  1    14.87     0.66
  25      1.13950854    -0.45590452  -130.29648263     0.00000000    -0.00000000  0.18D-20  0.81D-21  6  6    15.45     0.66

 Norm of t1 vector:      0.07658154      S-energy:     0.00000000      T1 diagnostic:  0.01563214
                                                                       D1 diagnostic:  0.04238538

 Doubles amplitudes (print threshold =  0.500E-01):

         I         J         SYM. A    SYM. B    A         B      T(IJ, AB)

         6         6         2         2         1         1     -0.13379222


 Total CPU time for triples:      6.27 sec


 RESULTS
 =======

  Reference energy                   -129.840578112777
  CCSD singlet pair energy             -0.312996249875
  CCSD triplet pair energy             -0.142908268505
  CCSD correlation energy              -0.455904518378

  Triples (T) contribution             -0.021047786353
  Total correlation energy             -0.476952304732

  CCSD total energy                  -130.296482631155
  CCSD[T] energy                     -130.318606917452
  CCSD-T energy                      -130.317121400536
 !CCSD(T) total energy               -130.317530417508

 Timing summary (sec):

 STEP                 CPU(USER)    SYS     CPU(TOT)    WALL
 Transformation          0.70      0.10      0.80      0.80
 CCSD iterations        14.75      1.70     16.45     16.47
 Triples                 6.27      0.19      6.46      6.45

 Program statistics:

 Available memory in ccsd:               994999756
 Min. memory needed in ccsd:                887758
 Max. memory used in ccsd:                 1088212
 Max. memory used in cckext:               1535578 (25 integral passes)



 **********************************************************************************************************************************
 DATASETS  * FILE   NREC   LENGTH (MB)   RECORD NAMES
              1      20      479.47       500      610      700      900      950      970     1000      129      960     1100   
                                          VAR    BASINP    GEOM    SYMINP    ZMAT    AOBASIS   BASIS     P2S    ABASIS      S 
                                         1400     1410     1200     1210     1080     1600     1650     1300     1700     1380   
                                           T        V       H0       H01     AOSYM     SMH    MOLCAS    ERIS     OPER     JKOP   

              2       4        3.13       700     1000      520     2100   
                                         GEOM     BASIS   MCVARS     RHF  

 PROGRAMS   *        TOTAL   CCSD(T)        HF       INT
 CPU TIMES  *        30.17     21.76      4.41      3.91
 REAL TIME  *        34.93 SEC
 DISK USED  *         1.33 GB      
 **********************************************************************************************************************************

 CCSD(T)/USERDEF energy=   -130.317530417508

        CCSD(T)         HF-SCF  
   -130.31753042   -129.84057811
 **********************************************************************************************************************************
 Molpro calculation terminated
 Variable memory released
