
 Primary working directories    : /tmp/r2666/282276.maple
 Secondary working directories  : /tmp/r2666/282276.maple
 Wavefunction directory         : /ddn/home4/r2666/wfu/
 Main file repository           : /tmp/r2666/282276.maple/

 SHA1      : d5ffa45e93fdbca01ffc919aa182cfdae0147319
 NAME      : 2015.1.35
 ARCHNAME  : linux/x86_64
 FC        : /opt/intel/composer_xe_2015.1.133/bin/intel64/ifort
 BLASLIB   : -Wl,-_start-group /opt/intel/mkl/lib/intel64/libmkl_intel_ilp64.a /opt/intel/mkl/lib/intel64/libmkl_intel_thread.a /opt/intel/mkl/lib/intel64/libmkl_core.a -Wl,-_end-group
 id        : olemiss

 Nodes     nprocs
 cn055        1

 Using customized tuning parameters: mindgm=1; mindgv=20; mindgc=4; mindgr=1; noblas=0; minvec=7
 default implementation of scratch files=df  

 ***,hno CCSD(T)/TZ-F12 QFF
 memory, 995, m;
 gthresh,energy=1.d-12,zero=1.d-22,oneint=1.d-22,twoint=1.d-22;
 gthresh,optgrad=1.d-8,optstep=1.d-8;
 nocompress;
 geomtyp=xyz
 bohr
 geometry={
 3
         44        44
 H        0.0000000000        1.6641219726       -1.9334943166
 N        0.0000000000       -0.1550806876       -1.1554260937
 O        0.0000000000        0.0327265049        1.1383308193
 }
 
 basis={
 default=aug-cc-pvtz
 s,C,8236.0,1235.0,280.8, 79.27,25.59, 8.997,3.319
 s,C,0.9059,0.3643,0.1285000
 p,C,56.0,18.71,4.133,0.2827,0.3827,0.1209
 d,C,30.0,10.0,3.3,1.097,0.318
 f,C,7.0,2.3,0.7610
 s,N,11420.0,1712.0,389.3,110.0,35.57,12.54,4.644
 s,N,1.293,0.5118,0.1787
 p,N,79.89,26.63,5.948,1.742,0.555,0.1725
 d,N,45.0,15.0,5.0,1.654,0.469
 f,N,9.9,3.3,1.093
 s,O,15330.0,2299.0,522.4,147.3,47.55,16.76,6.207
 s,O,1.752,0.6882,0.2384
 p,O,103.5,34.46,7.749,2.28,0.7156,0.214
 d,O,63.0,21.0,7.0,2.314,0.645
 f,O,12.9,4.3,1.428
 s,mg,164900.0,24710.0,5628.0,1596.0,521.0;
 s,mg,188.0,73.01,29.90,12.54,4.306,1.826;
 s,mg,0.7417,0.0761,0.145,0.033,0.0129;
 p,mg,950.70,316.90,74.86,23.72,8.669,3.363;
 p,mg,1.310,0.4911,0.2364,0.08733,0.03237,0.00745;
 d,mg,1.601,0.686,0.126,0.294,0.0468;
 f,mg,1.372,0.588,0.094,0.252;
 }
   {hf,maxit=500;accu,20;}
 {ccsd(t),nocheck,maxit=250;orbital,IGNORE_ERROR;}

 Variables initialized (889), CPU time= 0.00 sec
 Commands  initialized (702), CPU time= 0.01 sec, 572 directives.
 Default parameters read. Elapsed time= 0.05 sec

 Checking input...
 Passed
1


                                         ***  PROGRAM SYSTEM MOLPRO  ***
                                       Copyright, TTI GmbH Stuttgart, 2015
                                    Version 2015.1 linked Jul  9 2018 13:16:40


 **********************************************************************************************************************************
 LABEL *   hno CCSD(T)/TZ-F12 QFF                                                        
  64 bit serial version                                                                  DATE: 04-Mar-20          TIME: 13:47:25  
 **********************************************************************************************************************************

 SHA1:             d5ffa45e93fdbca01ffc919aa182cfdae0147319
 **********************************************************************************************************************************

 THRESHOLDS:

 ZERO    =  1.00D-22  ONEINT  =  1.00D-22  TWOINT  =  1.00D-22  PREFAC  =  1.00D-14  LOCALI  =  1.00D-09  EORDER  =  1.00D-04
 ENERGY  =  1.00D-12  ETEST   =  0.00D+00  EDENS   =  0.00D+00  THRDEDEF=  1.00D-06  GRADIENT=  1.00D-02  STEP    =  1.00D-03
 ORBITAL =  1.00D-05  CIVEC   =  1.00D-05  COEFF   =  1.00D-04  PRINTCI =  5.00D-02  PUNCHCI =  9.90D+01  OPTGRAD =  3.00D-04
 OPTENERG=  1.00D-06  OPTSTEP =  3.00D-04  THRGRAD =  1.00D-10  COMPRESS=  1.00D-11  VARMIN  =  1.00D-07  VARMAX  =  1.00D-03
 THRDOUB =  0.00D+00  THRDIV  =  1.00D-05  THRRED  =  1.00D-07  THRPSP  =  1.00D+00  THRDC   =  1.00D-10  THRCS   =  1.00D-10
 THRNRM  =  1.00D-08  THREQ   =  0.00D+00  THRDE   =  1.00D+00  THRREF  =  1.00D-05  SPARFAC =  1.00D+00  THRDLP  =  1.00D-07
 THRDIA  =  1.00D-10  THRDLS  =  1.00D-07  THRGPS  =  0.00D+00  THRKEX  =  0.00D+00  THRDIS  =  2.00D-01  THRVAR  =  1.00D-10
 THRLOC  =  1.00D-06  THRGAP  =  1.00D-06  THRLOCT = -1.00D+00  THRGAPT = -1.00D+00  THRORB  =  1.00D-06  THRMLTP =  0.00D+00
 THRCPQCI=  1.00D-10  KEXTA   =  0.00D+00  THRCOARS=  0.00D+00  SYMTOL  =  1.00D-06  GRADTOL =  1.00D-06  THROVL  =  1.00D-08
 THRORTH =  1.00D-08  GRID    =  1.00D-06  GRIDMAX =  1.00D-03  DTMAX   =  0.00D+00  THROCCDE=  1.00D-01  THROCCDE=  1.00D-01



 THRESHOLDS:

 ZERO    =  1.00D-22  ONEINT  =  1.00D-22  TWOINT  =  1.00D-22  PREFAC  =  1.00D-14  LOCALI  =  1.00D-09  EORDER  =  1.00D-04
 ENERGY  =  1.00D-12  ETEST   =  0.00D+00  EDENS   =  0.00D+00  THRDEDEF=  1.00D-06  GRADIENT=  1.00D-02  STEP    =  1.00D-03
 ORBITAL =  1.00D-05  CIVEC   =  1.00D-05  COEFF   =  1.00D-04  PRINTCI =  5.00D-02  PUNCHCI =  9.90D+01  OPTGRAD =  1.00D-08
 OPTENERG=  1.00D-06  OPTSTEP =  1.00D-08  THRGRAD =  1.00D-10  COMPRESS=  1.00D-11  VARMIN  =  1.00D-07  VARMAX  =  1.00D-03
 THRDOUB =  0.00D+00  THRDIV  =  1.00D-05  THRRED  =  1.00D-07  THRPSP  =  1.00D+00  THRDC   =  1.00D-10  THRCS   =  1.00D-10
 THRNRM  =  1.00D-08  THREQ   =  0.00D+00  THRDE   =  1.00D+00  THRREF  =  1.00D-05  SPARFAC =  1.00D+00  THRDLP  =  1.00D-07
 THRDIA  =  1.00D-10  THRDLS  =  1.00D-07  THRGPS  =  0.00D+00  THRKEX  =  0.00D+00  THRDIS  =  2.00D-01  THRVAR  =  1.00D-10
 THRLOC  =  1.00D-06  THRGAP  =  1.00D-06  THRLOCT = -1.00D+00  THRGAPT = -1.00D+00  THRORB  =  1.00D-06  THRMLTP =  0.00D+00
 THRCPQCI=  1.00D-10  KEXTA   =  0.00D+00  THRCOARS=  0.00D+00  SYMTOL  =  1.00D-06  GRADTOL =  1.00D-06  THROVL  =  1.00D-08
 THRORTH =  1.00D-08  GRID    =  1.00D-06  GRIDMAX =  1.00D-03  DTMAX   =  0.00D+00  THROCCDE=  1.00D-01  THROCCDE=  1.00D-01



 Input parameters for SORTINT:

 COMPRESS =    0.000000
 C_FINAL  =    1.000000
 DEBUG    =   -1.000000
 C_SORT1  =    0.000000
 C_SEWARD =    0.000000
 THRESH   =    0.000000
 IO       =  molpro                                                          
 SPRI     =    0.000000
 SETTING GEOMTYP        =    XYZ
 ZUNIT=BOHR
 

 Variable memory set to  995000000 words,  buffer space   230000 words

 SETTING BASIS          =    USERDEF


 Recomputing integrals since basis changed


 Using spherical harmonics

 Library entry H      S aug-cc-pVTZ          selected for orbital group  1
 Library entry H      P aug-cc-pVTZ          selected for orbital group  1
 Library entry H      D aug-cc-pVTZ          selected for orbital group  1


 PROGRAM * SEWARD (Integral evaluation for generally contracted gaussian basis sets)     Author: Roland Lindh, 1990

 Geometry written to block  1 of record 700


 Point group  Cs  



 ATOMIC COORDINATES

 NR  ATOM    CHARGE       X              Y              Z

   1  H       1.00    0.000000000    1.664121973   -1.933494317
   2  N       7.00    0.000000000   -0.155080688   -1.155426094
   3  O       8.00    0.000000000    0.032726505    1.138330819

 Bond lengths in Bohr (Angstrom)

 1-2  1.978607712  2-3  2.301432666
     ( 1.047034111)     ( 1.217865719)

 Bond angles

  1-2-3  108.47547239

 NUCLEAR CHARGE:                   16
 NUMBER OF PRIMITIVE AOS:         203
 NUMBER OF SYMMETRY AOS:          173
 NUMBER OF CONTRACTIONS:          171   ( 114A'  +  57A"  )
 NUMBER OF CORE ORBITALS:           2   (   2A'  +   0A"  )
 NUMBER OF VALENCE ORBITALS:        9   (   7A'  +   2A"  )


 NUCLEAR REPULSION ENERGY   30.17058070


 Eigenvalues of metric

         1 0.105E-02 0.257E-02 0.336E-02 0.638E-02 0.968E-02 0.137E-01 0.145E-01 0.230E-01
         2 0.358E-01 0.545E-01 0.701E-01 0.943E-01 0.131E+00 0.134E+00 0.140E+00 0.142E+00


 Contracted 2-electron integrals neglected if value below      1.0D-22

       46095762. INTEGRALS WRITTEN OUT IN   11257 BLOCKS ON RECORD 1290 OF FILE 1


 NUMBER OF SORTED TWO-ELECTRON INTEGRALS:   55360566.     BUFFER LENGTH:  32768
 NUMBER OF SEGMENTS:   4  SEGMENT LENGTH:   15997996      RECORD LENGTH: 524288

 Memory used in sort:      16.56 MW

 SORT1 READ    46095762. AND WROTE    46532686. INTEGRALS IN    135 RECORDS. CPU TIME:     1.30 SEC, REAL TIME:     1.69 SEC
 SORT2 READ    46532686. AND WROTE    55360566. INTEGRALS IN      4 RECORDS. CPU TIME:     0.85 SEC, REAL TIME:     1.06 SEC

 FILE SIZES:   FILE 1:   758.5 MBYTE,  FILE 4:   566.3 MBYTE,   TOTAL:   1324.7 MBYTE

 OPERATOR DM      FOR CENTER  0  COORDINATES:    0.000000    0.000000    0.000000


 **********************************************************************************************************************************
 DATASETS  * FILE   NREC   LENGTH (MB)   RECORD NAMES
              1      19      420.90       500      610      700      900      950      970     1000      129      960     1100   
                                          VAR    BASINP    GEOM    SYMINP    ZMAT    AOBASIS   BASIS     P2S    ABASIS      S 
                                         1400     1410     1200     1210     1080     1600     1650     1300     1700   
                                           T        V       H0       H01     AOSYM     SMH    MOLCAS    ERIS     OPER   

 PROGRAMS   *        TOTAL       INT
 CPU TIMES  *         5.82      5.73
 REAL TIME  *         7.72 SEC
 DISK USED  *         1.33 GB      
 **********************************************************************************************************************************


 PROGRAM * RHF-SCF (CLOSED SHELL)       Authors: W. Meyer, H.-J. Werner


 NUMBER OF ELECTRONS:       8+    8-
 CONVERGENCE THRESHOLDS:    1.00E-10 (Density)    1.00E-13 (Energy)
 MAX. NUMBER OF ITERATIONS:      500
 INTERPOLATION TYPE:            DIIS
 INTERPOLATION STEPS:              2 (START)      1 (STEP)
 LEVEL SHIFTS:                  0.00 (CLOSED)  0.00 (OPEN) 



 Orbital guess generated from atomic densities. Full valence occupancy:    9   2

 Molecular orbital dump at record        2100.2

 Initial occupancy:   7   1

 ITERATION    DDIFF          GRAD             ENERGY        2-EL.EN.            DIPOLE MOMENTS         DIIS   ORB.
    1      0.000D+00      0.000D+00      -129.78671052    153.708910    0.00000    0.57980   -1.04547    0    start
    2      0.000D+00      0.886D-02      -129.81327056    154.858508    0.00000    0.60405   -0.19356    1    diag
    3      0.371D-02      0.687D-02      -129.83749610    155.002252    0.00000    0.55405   -0.59951    2    diag
    4      0.145D-02      0.105D-02      -129.83829988    154.721090    0.00000    0.56180   -0.53531    3    diag
    5      0.336D-03      0.341D-03      -129.83842283    154.809697    0.00000    0.56778   -0.53754    4    diag
    6      0.154D-03      0.997D-04      -129.83844287    154.793551    0.00000    0.56831   -0.53326    5    diag
    7      0.610D-04      0.506D-04      -129.83844895    154.795960    0.00000    0.56960   -0.53061    6    diag
    8      0.417D-04      0.178D-04      -129.83844966    154.795092    0.00000    0.56965   -0.52963    7    diag
    9      0.152D-04      0.336D-05      -129.83844970    154.794972    0.00000    0.56959   -0.52943    8    diag
   10      0.315D-05      0.751D-06      -129.83844970    154.794958    0.00000    0.56956   -0.52940    9    orth
   11      0.900D-06      0.148D-06      -129.83844970    154.794954    0.00000    0.56955   -0.52940    9    diag
   12      0.209D-06      0.313D-07      -129.83844970    154.794953    0.00000    0.56955   -0.52940    9    diag
   13      0.510D-07      0.848D-08      -129.83844970    154.794953    0.00000    0.56955   -0.52940    9    diag
   14      0.119D-07      0.149D-08      -129.83844970    154.794953    0.00000    0.56955   -0.52940    9    diag
   15      0.140D-08      0.392D-09      -129.83844970    154.794953    0.00000    0.56955   -0.52940    9    diag
   16      0.334D-09      0.112D-09      -129.83844970    154.794953    0.00000    0.56955   -0.52940    9    diag
   17      0.632D-10      0.290D-10      -129.83844970    154.794953    0.00000    0.56955   -0.52940    9    diag
   18      0.176D-10      0.922D-11      -129.83844970    154.794953    0.00000    0.56955   -0.52940    9    diag
   19      0.624D-11      0.212D-11      -129.83844970    154.794953    0.00000    0.56955   -0.52940    9    fixocc
   20      0.129D-11      0.517D-12      -129.83844970    154.794953    0.00000    0.56955   -0.52940    9    orth
   21      0.228D-12      0.507D-12      -129.83844970    154.794953    0.00000    0.56955   -0.52940    0    orth

 Final occupancy:   7   1

 !RHF STATE 1.1 Energy               -129.838449696783
 Nuclear energy                        30.17058070
 One-electron energy                 -237.40650685
 Two-electron energy                   77.39747644
 Virial quotient                       -1.00187069
 !RHF STATE 1.1 Dipole moment           0.00000000     0.56954710    -0.52939913
 Dipole moment /Debye                   0.00000000     1.44754951    -1.34551023

 Orbital energies:

         1.1          2.1          3.1          4.1          5.1          6.1          7.1          8.1          9.1
    -20.652181   -15.711553    -1.519926    -0.996656    -0.742739    -0.661439    -0.431835     0.039553     0.192730

         1.2          2.2          3.2
     -0.589449     0.075557     0.239285

 HOMO      7.1    -0.431835 =     -11.7508eV
 LUMO      8.1     0.039553 =       1.0763eV
 LUMO-HOMO         0.471388 =      12.8271eV


 **********************************************************************************************************************************
 DATASETS  * FILE   NREC   LENGTH (MB)   RECORD NAMES
              1      19      420.90       500      610      700      900      950      970     1000      129      960     1100   
                                          VAR    BASINP    GEOM    SYMINP    ZMAT    AOBASIS   BASIS     P2S    ABASIS      S 
                                         1400     1410     1200     1210     1080     1600     1650     1300     1700   
                                           T        V       H0       H01     AOSYM     SMH    MOLCAS    ERIS     OPER   

              2       4        3.13       700     1000      520     2100   
                                         GEOM     BASIS   MCVARS     RHF  

 PROGRAMS   *        TOTAL        HF       INT
 CPU TIMES  *        12.28      6.46      5.73
 REAL TIME  *        15.45 SEC
 DISK USED  *         1.33 GB      
 **********************************************************************************************************************************


 PROGRAM * CCSD (Closed-shell coupled cluster)     Authors: C. Hampel, H.-J. Werner, 1991, M. Deegan, P.J. Knowles, 1992


 Convergence thresholds:  THRVAR = 1.00D-08  THRDEN = 1.00D-12

 CCSD(T)     terms to be evaluated (factor= 1.000)


 Number of core orbitals:           2 (   2   0 )
 Number of closed-shell orbitals:   6 (   5   1 )
 Number of external orbitals:     163 ( 107  56 )

 Molecular orbitals read from record     2100.2  Type=RHF/CANONICAL (state 1.1)

 Number of N-1 electron functions:               6
 Number of N-2 electron functions:              21
 Number of singly external CSFs:               591
 Number of doubly external CSFs:            250014
 Total number of CSFs:                      250606

 Length of J-op  integral file:               0.00 MB
 Length of K-op  integral file:               1.15 MB
 Length of 3-ext integral record:             0.00 MB

 Memory could be reduced to 19.93 Mwords without degradation in triples

 Integral transformation finished. Total CPU:   0.87 sec, npass=  1  Memory used:   5.10 MW

 Reference energy:                   -129.83844970

 MP2 singlet pair energy:              -0.28776815
 MP2 triplet pair energy:              -0.16779462
 MP2 correlation energy:               -0.45556277
 MP2 total energy:                   -130.29401246

 SCS-MP2 correlation energy:           -0.44972732   (PS=  1.200000  PT=  0.333333)
 SCS-MP2 total energy:               -130.28817701

 ITER.      SQ.NORM     CORR.ENERGY   TOTAL ENERGY   ENERGY CHANGE        DEN1      VAR(S)    VAR(P)  DIIS     TIME  TIME/IT
   1      1.11970935    -0.45733252  -130.29578222    -0.00176976     0.01538682  0.33D-02  0.32D-02  1  1     1.67     0.85
   2      1.13045259    -0.45716794  -130.29561764     0.00016458    -0.01273945  0.13D-03  0.51D-03  2  2     2.46     0.88
   3      1.13718754    -0.45755139  -130.29600109    -0.00038345    -0.00342025  0.46D-04  0.60D-04  3  3     3.31     0.90
   4      1.14016738    -0.45758500  -130.29603470    -0.00003361    -0.00097319  0.47D-05  0.10D-04  4  4     4.15     0.90
   5      1.14130745    -0.45761907  -130.29606877    -0.00003407    -0.00023272  0.14D-05  0.18D-05  5  5     4.98     0.91
   6      1.14172115    -0.45760232  -130.29605202     0.00001675    -0.00006873  0.12D-06  0.44D-06  6  6     5.77     0.91
   7      1.14179375    -0.45760400  -130.29605370    -0.00000168     0.00000920  0.16D-07  0.98D-07  6  1     6.58     0.91
   8      1.14182906    -0.45760348  -130.29605318     0.00000052    -0.00000491  0.50D-08  0.16D-07  6  2     7.39     0.91
   9      1.14183431    -0.45760336  -130.29605306     0.00000012     0.00000115  0.23D-08  0.18D-08  6  3     8.21     0.91
  10      1.14183482    -0.45760369  -130.29605339    -0.00000033    -0.00000032  0.53D-09  0.28D-09  6  4     9.04     0.91
  11      1.14183327    -0.45760384  -130.29605354    -0.00000014     0.00000035  0.13D-09  0.28D-10  6  5     9.89     0.91
  12      1.14183208    -0.45760400  -130.29605369    -0.00000016     0.00000049  0.16D-10  0.80D-11  6  6    10.69     0.91
  13      1.14183140    -0.45760402  -130.29605371    -0.00000002     0.00000013  0.60D-11  0.15D-11  6  1    11.49     0.91
  14      1.14183087    -0.45760404  -130.29605374    -0.00000003     0.00000012  0.54D-12  0.47D-12  6  3    12.31     0.91
  15      1.14183071    -0.45760404  -130.29605374     0.00000000     0.00000001  0.14D-12  0.34D-13  6  2    13.15     0.92
  16      1.14183065    -0.45760405  -130.29605374    -0.00000000     0.00000001  0.33D-13  0.79D-14  6  4    14.01     0.92
  17      1.14183063    -0.45760405  -130.29605374    -0.00000000     0.00000001  0.45D-14  0.12D-14  6  5    14.81     0.92
  18      1.14183063    -0.45760405  -130.29605374     0.00000000     0.00000000  0.52D-15  0.34D-15  6  6    15.63     0.92
  19      1.14183063    -0.45760405  -130.29605374     0.00000000    -0.00000000  0.71D-16  0.48D-16  6  1    16.50     0.92
  20      1.14183063    -0.45760405  -130.29605374     0.00000000    -0.00000000  0.36D-17  0.12D-16  6  3    17.32     0.92
  21      1.14183063    -0.45760405  -130.29605374     0.00000000    -0.00000000  0.58D-18  0.26D-17  6  4    18.21     0.92
  22      1.14183063    -0.45760405  -130.29605374     0.00000000    -0.00000000  0.39D-19  0.91D-18  6  2    19.06     0.92
  23      1.14183063    -0.45760405  -130.29605374    -0.00000000     0.00000000  0.81D-19  0.18D-18  6  5    19.85     0.92
  24      1.14183063    -0.45760405  -130.29605374    -0.00000000     0.00000000  0.51D-20  0.17D-19  6  1    20.64     0.92
  25      1.14183063    -0.45760405  -130.29605374     0.00000000    -0.00000000  0.25D-20  0.12D-20  6  6    21.46     0.92

 Norm of t1 vector:      0.07863453      S-energy:     0.00000000      T1 diagnostic:  0.01605121
                                                                       D1 diagnostic:  0.04429618

 Doubles amplitudes (print threshold =  0.500E-01):

         I         J         SYM. A    SYM. B    A         B      T(IJ, AB)

         6         6         2         2         1         1     -0.13842625


 Total CPU time for triples:      8.17 sec


 RESULTS
 =======

  Reference energy                   -129.838449696783
  CCSD singlet pair energy             -0.314487268266
  CCSD triplet pair energy             -0.143116779140
  CCSD correlation energy              -0.457604047406

  Triples (T) contribution             -0.021475032259
  Total correlation energy             -0.479079079664

  CCSD total energy                  -130.296053744188
  CCSD[T] energy                     -130.318664972120
  CCSD-T energy                      -130.317105271189
 !CCSD(T) total energy               -130.317528776447

 Timing summary (sec):

 STEP                 CPU(USER)    SYS     CPU(TOT)    WALL
 Transformation          0.88      0.17      1.05      1.05
 CCSD iterations        20.58      2.46     23.04     23.05
 Triples                 8.17      0.37      8.54      8.53

 Program statistics:

 Available memory in ccsd:               994999756
 Min. memory needed in ccsd:                887758
 Max. memory used in ccsd:                 1088212
 Max. memory used in cckext:               1535578 (25 integral passes)



 **********************************************************************************************************************************
 DATASETS  * FILE   NREC   LENGTH (MB)   RECORD NAMES
              1      20      478.85       500      610      700      900      950      970     1000      129      960     1100   
                                          VAR    BASINP    GEOM    SYMINP    ZMAT    AOBASIS   BASIS     P2S    ABASIS      S 
                                         1400     1410     1200     1210     1080     1600     1650     1300     1700     1380   
                                           T        V       H0       H01     AOSYM     SMH    MOLCAS    ERIS     OPER     JKOP   

              2       4        3.13       700     1000      520     2100   
                                         GEOM     BASIS   MCVARS     RHF  

 PROGRAMS   *        TOTAL   CCSD(T)        HF       INT
 CPU TIMES  *        41.93     29.65      6.46      5.73
 REAL TIME  *        48.12 SEC
 DISK USED  *         1.33 GB      
 **********************************************************************************************************************************

 CCSD(T)/USERDEF energy=   -130.317528776447

        CCSD(T)         HF-SCF  
   -130.31752878   -129.83844970
 **********************************************************************************************************************************
 Molpro calculation terminated
 Variable memory released
