
 Primary working directories    : /tmp/r2666/282302.maple
 Secondary working directories  : /tmp/r2666/282302.maple
 Wavefunction directory         : /ddn/home4/r2666/wfu/
 Main file repository           : /tmp/r2666/282302.maple/

 SHA1      : d5ffa45e93fdbca01ffc919aa182cfdae0147319
 NAME      : 2015.1.35
 ARCHNAME  : linux/x86_64
 FC        : /opt/intel/composer_xe_2015.1.133/bin/intel64/ifort
 BLASLIB   : -Wl,-_start-group /opt/intel/mkl/lib/intel64/libmkl_intel_ilp64.a /opt/intel/mkl/lib/intel64/libmkl_intel_thread.a /opt/intel/mkl/lib/intel64/libmkl_core.a -Wl,-_end-group
 id        : olemiss

 Nodes     nprocs
 cn076        1

 Using customized tuning parameters: mindgm=1; mindgv=20; mindgc=4; mindgr=1; noblas=0; minvec=7
 default implementation of scratch files=df  

 ***,hno CCSD(T)/TZ-F12 QFF
 memory, 995, m;
 gthresh,energy=1.d-12,zero=1.d-22,oneint=1.d-22,twoint=1.d-22;
 gthresh,optgrad=1.d-8,optstep=1.d-8;
 nocompress;
 geomtyp=xyz
 bohr
 geometry={
 3
         70        70
 H        0.0000000000        1.6669745688       -1.9206271242
 N        0.0000000000       -0.1681992819       -1.1560978853
 O        0.0000000000        0.0429925031        1.1261354185
 }
 
 basis={
 default=aug-cc-pvtz
 s,C,8236.0,1235.0,280.8, 79.27,25.59, 8.997,3.319
 s,C,0.9059,0.3643,0.1285000
 p,C,56.0,18.71,4.133,0.2827,0.3827,0.1209
 d,C,30.0,10.0,3.3,1.097,0.318
 f,C,7.0,2.3,0.7610
 s,N,11420.0,1712.0,389.3,110.0,35.57,12.54,4.644
 s,N,1.293,0.5118,0.1787
 p,N,79.89,26.63,5.948,1.742,0.555,0.1725
 d,N,45.0,15.0,5.0,1.654,0.469
 f,N,9.9,3.3,1.093
 s,O,15330.0,2299.0,522.4,147.3,47.55,16.76,6.207
 s,O,1.752,0.6882,0.2384
 p,O,103.5,34.46,7.749,2.28,0.7156,0.214
 d,O,63.0,21.0,7.0,2.314,0.645
 f,O,12.9,4.3,1.428
 s,mg,164900.0,24710.0,5628.0,1596.0,521.0;
 s,mg,188.0,73.01,29.90,12.54,4.306,1.826;
 s,mg,0.7417,0.0761,0.145,0.033,0.0129;
 p,mg,950.70,316.90,74.86,23.72,8.669,3.363;
 p,mg,1.310,0.4911,0.2364,0.08733,0.03237,0.00745;
 d,mg,1.601,0.686,0.126,0.294,0.0468;
 f,mg,1.372,0.588,0.094,0.252;
 }
   {hf,maxit=500;accu,20;}
 {ccsd(t),nocheck,maxit=250;orbital,IGNORE_ERROR;}

 Variables initialized (889), CPU time= 0.00 sec
 Commands  initialized (702), CPU time= 0.01 sec, 572 directives.
 Default parameters read. Elapsed time= 0.04 sec

 Checking input...
 Passed
1


                                         ***  PROGRAM SYSTEM MOLPRO  ***
                                       Copyright, TTI GmbH Stuttgart, 2015
                                    Version 2015.1 linked Jul  9 2018 13:16:40


 **********************************************************************************************************************************
 LABEL *   hno CCSD(T)/TZ-F12 QFF                                                        
  64 bit serial version                                                                  DATE: 04-Mar-20          TIME: 13:47:38  
 **********************************************************************************************************************************

 SHA1:             d5ffa45e93fdbca01ffc919aa182cfdae0147319
 **********************************************************************************************************************************

 THRESHOLDS:

 ZERO    =  1.00D-22  ONEINT  =  1.00D-22  TWOINT  =  1.00D-22  PREFAC  =  1.00D-14  LOCALI  =  1.00D-09  EORDER  =  1.00D-04
 ENERGY  =  1.00D-12  ETEST   =  0.00D+00  EDENS   =  0.00D+00  THRDEDEF=  1.00D-06  GRADIENT=  1.00D-02  STEP    =  1.00D-03
 ORBITAL =  1.00D-05  CIVEC   =  1.00D-05  COEFF   =  1.00D-04  PRINTCI =  5.00D-02  PUNCHCI =  9.90D+01  OPTGRAD =  3.00D-04
 OPTENERG=  1.00D-06  OPTSTEP =  3.00D-04  THRGRAD =  1.00D-10  COMPRESS=  1.00D-11  VARMIN  =  1.00D-07  VARMAX  =  1.00D-03
 THRDOUB =  0.00D+00  THRDIV  =  1.00D-05  THRRED  =  1.00D-07  THRPSP  =  1.00D+00  THRDC   =  1.00D-10  THRCS   =  1.00D-10
 THRNRM  =  1.00D-08  THREQ   =  0.00D+00  THRDE   =  1.00D+00  THRREF  =  1.00D-05  SPARFAC =  1.00D+00  THRDLP  =  1.00D-07
 THRDIA  =  1.00D-10  THRDLS  =  1.00D-07  THRGPS  =  0.00D+00  THRKEX  =  0.00D+00  THRDIS  =  2.00D-01  THRVAR  =  1.00D-10
 THRLOC  =  1.00D-06  THRGAP  =  1.00D-06  THRLOCT = -1.00D+00  THRGAPT = -1.00D+00  THRORB  =  1.00D-06  THRMLTP =  0.00D+00
 THRCPQCI=  1.00D-10  KEXTA   =  0.00D+00  THRCOARS=  0.00D+00  SYMTOL  =  1.00D-06  GRADTOL =  1.00D-06  THROVL  =  1.00D-08
 THRORTH =  1.00D-08  GRID    =  1.00D-06  GRIDMAX =  1.00D-03  DTMAX   =  0.00D+00  THROCCDE=  1.00D-01  THROCCDE=  1.00D-01



 THRESHOLDS:

 ZERO    =  1.00D-22  ONEINT  =  1.00D-22  TWOINT  =  1.00D-22  PREFAC  =  1.00D-14  LOCALI  =  1.00D-09  EORDER  =  1.00D-04
 ENERGY  =  1.00D-12  ETEST   =  0.00D+00  EDENS   =  0.00D+00  THRDEDEF=  1.00D-06  GRADIENT=  1.00D-02  STEP    =  1.00D-03
 ORBITAL =  1.00D-05  CIVEC   =  1.00D-05  COEFF   =  1.00D-04  PRINTCI =  5.00D-02  PUNCHCI =  9.90D+01  OPTGRAD =  1.00D-08
 OPTENERG=  1.00D-06  OPTSTEP =  1.00D-08  THRGRAD =  1.00D-10  COMPRESS=  1.00D-11  VARMIN  =  1.00D-07  VARMAX  =  1.00D-03
 THRDOUB =  0.00D+00  THRDIV  =  1.00D-05  THRRED  =  1.00D-07  THRPSP  =  1.00D+00  THRDC   =  1.00D-10  THRCS   =  1.00D-10
 THRNRM  =  1.00D-08  THREQ   =  0.00D+00  THRDE   =  1.00D+00  THRREF  =  1.00D-05  SPARFAC =  1.00D+00  THRDLP  =  1.00D-07
 THRDIA  =  1.00D-10  THRDLS  =  1.00D-07  THRGPS  =  0.00D+00  THRKEX  =  0.00D+00  THRDIS  =  2.00D-01  THRVAR  =  1.00D-10
 THRLOC  =  1.00D-06  THRGAP  =  1.00D-06  THRLOCT = -1.00D+00  THRGAPT = -1.00D+00  THRORB  =  1.00D-06  THRMLTP =  0.00D+00
 THRCPQCI=  1.00D-10  KEXTA   =  0.00D+00  THRCOARS=  0.00D+00  SYMTOL  =  1.00D-06  GRADTOL =  1.00D-06  THROVL  =  1.00D-08
 THRORTH =  1.00D-08  GRID    =  1.00D-06  GRIDMAX =  1.00D-03  DTMAX   =  0.00D+00  THROCCDE=  1.00D-01  THROCCDE=  1.00D-01



 Input parameters for SORTINT:

 COMPRESS =    0.000000
 C_FINAL  =    1.000000
 DEBUG    =   -1.000000
 C_SORT1  =    0.000000
 C_SEWARD =    0.000000
 THRESH   =    0.000000
 IO       =  molpro                                                          
 SPRI     =    0.000000
 SETTING GEOMTYP        =    XYZ
 ZUNIT=BOHR
 

 Variable memory set to  995000000 words,  buffer space   230000 words

 SETTING BASIS          =    USERDEF


 Recomputing integrals since basis changed


 Using spherical harmonics

 Library entry H      S aug-cc-pVTZ          selected for orbital group  1
 Library entry H      P aug-cc-pVTZ          selected for orbital group  1
 Library entry H      D aug-cc-pVTZ          selected for orbital group  1


 PROGRAM * SEWARD (Integral evaluation for generally contracted gaussian basis sets)     Author: Roland Lindh, 1990

 Geometry written to block  1 of record 700


 Point group  Cs  



 ATOMIC COORDINATES

 NR  ATOM    CHARGE       X              Y              Z

   1  H       1.00    0.000000000    1.666974569   -1.920627124
   2  N       7.00    0.000000000   -0.168199282   -1.156097885
   3  O       8.00    0.000000000    0.042992503    1.126135419

 Bond lengths in Bohr (Angstrom)

 1-2  1.988056342  2-3  2.291984036
     ( 1.052034110)     ( 1.212865720)

 Bond angles

  1-2-3  107.32955680

 NUCLEAR CHARGE:                   16
 NUMBER OF PRIMITIVE AOS:         203
 NUMBER OF SYMMETRY AOS:          173
 NUMBER OF CONTRACTIONS:          171   ( 114A'  +  57A"  )
 NUMBER OF CORE ORBITALS:           2   (   2A'  +   0A"  )
 NUMBER OF VALENCE ORBITALS:        9   (   7A'  +   2A"  )


 NUCLEAR REPULSION ENERGY   30.27113695


 Eigenvalues of metric

         1 0.105E-02 0.254E-02 0.335E-02 0.638E-02 0.986E-02 0.137E-01 0.145E-01 0.231E-01
         2 0.365E-01 0.539E-01 0.705E-01 0.941E-01 0.131E+00 0.134E+00 0.140E+00 0.142E+00


 Contracted 2-electron integrals neglected if value below      1.0D-22

       46132115. INTEGRALS WRITTEN OUT IN   11266 BLOCKS ON RECORD 1290 OF FILE 1


 NUMBER OF SORTED TWO-ELECTRON INTEGRALS:   55360566.     BUFFER LENGTH:  32768
 NUMBER OF SEGMENTS:   4  SEGMENT LENGTH:   15997996      RECORD LENGTH: 524288

 Memory used in sort:      16.56 MW

 SORT1 READ    46132115. AND WROTE    46569466. INTEGRALS IN    136 RECORDS. CPU TIME:     0.73 SEC, REAL TIME:     1.00 SEC
 SORT2 READ    46569466. AND WROTE    55360566. INTEGRALS IN      4 RECORDS. CPU TIME:     0.63 SEC, REAL TIME:     0.85 SEC

 FILE SIZES:   FILE 1:   759.1 MBYTE,  FILE 4:   570.5 MBYTE,   TOTAL:   1329.5 MBYTE

 OPERATOR DM      FOR CENTER  0  COORDINATES:    0.000000    0.000000    0.000000


 **********************************************************************************************************************************
 DATASETS  * FILE   NREC   LENGTH (MB)   RECORD NAMES
              1      19      421.15       500      610      700      900      950      970     1000      129      960     1100   
                                          VAR    BASINP    GEOM    SYMINP    ZMAT    AOBASIS   BASIS     P2S    ABASIS      S 
                                         1400     1410     1200     1210     1080     1600     1650     1300     1700   
                                           T        V       H0       H01     AOSYM     SMH    MOLCAS    ERIS     OPER   

 PROGRAMS   *        TOTAL       INT
 CPU TIMES  *         3.93      3.85
 REAL TIME  *         5.32 SEC
 DISK USED  *         1.33 GB      
 **********************************************************************************************************************************


 PROGRAM * RHF-SCF (CLOSED SHELL)       Authors: W. Meyer, H.-J. Werner


 NUMBER OF ELECTRONS:       8+    8-
 CONVERGENCE THRESHOLDS:    1.00E-10 (Density)    1.00E-13 (Energy)
 MAX. NUMBER OF ITERATIONS:      500
 INTERPOLATION TYPE:            DIIS
 INTERPOLATION STEPS:              2 (START)      1 (STEP)
 LEVEL SHIFTS:                  0.00 (CLOSED)  0.00 (OPEN) 



 Orbital guess generated from atomic densities. Full valence occupancy:    9   2

 Molecular orbital dump at record        2100.2

 Initial occupancy:   7   1

 ITERATION    DDIFF          GRAD             ENERGY        2-EL.EN.            DIPOLE MOMENTS         DIIS   ORB.
    1      0.000D+00      0.000D+00      -129.78772543    153.890277    0.00000    0.56425   -1.02745    0    start
    2      0.000D+00      0.884D-02      -129.81448901    155.050650    0.00000    0.60112   -0.18989    1    diag
    3      0.367D-02      0.680D-02      -129.83817836    155.183095    0.00000    0.54534   -0.58739    2    diag
    4      0.144D-02      0.104D-02      -129.83896969    154.905361    0.00000    0.55375   -0.52441    3    diag
    5      0.332D-03      0.340D-03      -129.83909221    154.993600    0.00000    0.55970   -0.52667    4    diag
    6      0.154D-03      0.999D-04      -129.83911227    154.977418    0.00000    0.56023   -0.52245    5    diag
    7      0.609D-04      0.504D-04      -129.83911828    154.979908    0.00000    0.56154   -0.51986    6    diag
    8      0.415D-04      0.175D-04      -129.83911895    154.979051    0.00000    0.56159   -0.51891    7    diag
    9      0.148D-04      0.327D-05      -129.83911898    154.978935    0.00000    0.56154   -0.51872    8    diag
   10      0.303D-05      0.732D-06      -129.83911898    154.978922    0.00000    0.56151   -0.51869    9    orth
   11      0.876D-06      0.145D-06      -129.83911898    154.978918    0.00000    0.56150   -0.51869    9    diag
   12      0.206D-06      0.306D-07      -129.83911898    154.978917    0.00000    0.56150   -0.51869    9    diag
   13      0.509D-07      0.818D-08      -129.83911898    154.978917    0.00000    0.56150   -0.51869    9    diag
   14      0.117D-07      0.143D-08      -129.83911898    154.978917    0.00000    0.56150   -0.51869    9    diag
   15      0.144D-08      0.379D-09      -129.83911898    154.978917    0.00000    0.56150   -0.51869    9    diag
   16      0.327D-09      0.109D-09      -129.83911898    154.978917    0.00000    0.56150   -0.51869    9    diag
   17      0.709D-10      0.293D-10      -129.83911898    154.978917    0.00000    0.56150   -0.51869    9    diag
   18      0.210D-10      0.964D-11      -129.83911898    154.978917    0.00000    0.56150   -0.51869    0    orth

 Final occupancy:   7   1

 !RHF STATE 1.1 Energy               -129.839118978087
 Nuclear energy                        30.27113695
 One-electron energy                 -237.59971425
 Two-electron energy                   77.48945832
 Virial quotient                       -1.00175352
 !RHF STATE 1.1 Dipole moment           0.00000000     0.56149617    -0.51868884
 Dipole moment /Debye                   0.00000000     1.42708744    -1.31828919

 Orbital energies:

         1.1          2.1          3.1          4.1          5.1          6.1          7.1          8.1          9.1
    -20.651535   -15.711596    -1.524497    -0.993528    -0.743751    -0.662670    -0.430810     0.039720     0.192626

         1.2          2.2          3.2
     -0.592012     0.077577     0.239296

 HOMO      7.1    -0.430810 =     -11.7229eV
 LUMO      8.1     0.039720 =       1.0808eV
 LUMO-HOMO         0.470530 =      12.8038eV


 **********************************************************************************************************************************
 DATASETS  * FILE   NREC   LENGTH (MB)   RECORD NAMES
              1      19      421.15       500      610      700      900      950      970     1000      129      960     1100   
                                          VAR    BASINP    GEOM    SYMINP    ZMAT    AOBASIS   BASIS     P2S    ABASIS      S 
                                         1400     1410     1200     1210     1080     1600     1650     1300     1700   
                                           T        V       H0       H01     AOSYM     SMH    MOLCAS    ERIS     OPER   

              2       4        3.13       700     1000      520     2100   
                                         GEOM     BASIS   MCVARS     RHF  

 PROGRAMS   *        TOTAL        HF       INT
 CPU TIMES  *         8.41      4.48      3.85
 REAL TIME  *        10.78 SEC
 DISK USED  *         1.33 GB      
 **********************************************************************************************************************************


 PROGRAM * CCSD (Closed-shell coupled cluster)     Authors: C. Hampel, H.-J. Werner, 1991, M. Deegan, P.J. Knowles, 1992


 Convergence thresholds:  THRVAR = 1.00D-08  THRDEN = 1.00D-12

 CCSD(T)     terms to be evaluated (factor= 1.000)


 Number of core orbitals:           2 (   2   0 )
 Number of closed-shell orbitals:   6 (   5   1 )
 Number of external orbitals:     163 ( 107  56 )

 Molecular orbitals read from record     2100.2  Type=RHF/CANONICAL (state 1.1)

 Number of N-1 electron functions:               6
 Number of N-2 electron functions:              21
 Number of singly external CSFs:               591
 Number of doubly external CSFs:            250014
 Total number of CSFs:                      250606

 Length of J-op  integral file:               0.00 MB
 Length of K-op  integral file:               1.15 MB
 Length of 3-ext integral record:             0.00 MB

 Memory could be reduced to 19.93 Mwords without degradation in triples

 Integral transformation finished. Total CPU:   0.66 sec, npass=  1  Memory used:   5.10 MW

 Reference energy:                   -129.83911898

 MP2 singlet pair energy:              -0.28737172
 MP2 triplet pair energy:              -0.16752198
 MP2 correlation energy:               -0.45489369
 MP2 total energy:                   -130.29401267

 SCS-MP2 correlation energy:           -0.44908196   (PS=  1.200000  PT=  0.333333)
 SCS-MP2 total energy:               -130.28820094

 ITER.      SQ.NORM     CORR.ENERGY   TOTAL ENERGY   ENERGY CHANGE        DEN1      VAR(S)    VAR(P)  DIIS     TIME  TIME/IT
   1      1.11930702    -0.45684031  -130.29595929    -0.00194662     0.01500804  0.33D-02  0.31D-02  1  1     1.26     0.64
   2      1.12993418    -0.45672034  -130.29583932     0.00011997    -0.01262380  0.12D-03  0.50D-03  2  2     1.82     0.65
   3      1.13657397    -0.45709720  -130.29621618    -0.00037686    -0.00339663  0.45D-04  0.59D-04  3  3     2.41     0.66
   4      1.13948622    -0.45713025  -130.29624922    -0.00003304    -0.00095699  0.45D-05  0.98D-05  4  4     3.00     0.66
   5      1.14058420    -0.45716326  -130.29628223    -0.00003301    -0.00022508  0.13D-05  0.17D-05  5  5     3.59     0.66
   6      1.14098347    -0.45714715  -130.29626612     0.00001611    -0.00006653  0.12D-06  0.42D-06  6  6     4.19     0.66
   7      1.14105462    -0.45714869  -130.29626766    -0.00000154     0.00000884  0.17D-07  0.92D-07  6  1     4.77     0.66
   8      1.14108916    -0.45714819  -130.29626716     0.00000050    -0.00000473  0.47D-08  0.15D-07  6  2     5.38     0.66
   9      1.14109428    -0.45714807  -130.29626705     0.00000011     0.00000108  0.21D-08  0.17D-08  6  3     5.97     0.66
  10      1.14109478    -0.45714839  -130.29626737    -0.00000032    -0.00000029  0.49D-09  0.26D-09  6  4     6.54     0.67
  11      1.14109328    -0.45714853  -130.29626751    -0.00000014     0.00000034  0.12D-09  0.26D-10  6  5     7.14     0.67
  12      1.14109214    -0.45714868  -130.29626766    -0.00000015     0.00000047  0.15D-10  0.73D-11  6  6     7.70     0.67
  13      1.14109150    -0.45714870  -130.29626768    -0.00000002     0.00000012  0.56D-11  0.13D-11  6  1     8.28     0.67
  14      1.14109100    -0.45714873  -130.29626770    -0.00000003     0.00000012  0.52D-12  0.43D-12  6  3     8.84     0.67
  15      1.14109084    -0.45714873  -130.29626770     0.00000000     0.00000001  0.13D-12  0.31D-13  6  2     9.47     0.67
  16      1.14109079    -0.45714873  -130.29626771    -0.00000000     0.00000001  0.31D-13  0.74D-14  6  4    10.06     0.67
  17      1.14109077    -0.45714873  -130.29626771    -0.00000000     0.00000001  0.42D-14  0.12D-14  6  5    10.66     0.67
  18      1.14109077    -0.45714873  -130.29626771     0.00000000     0.00000000  0.46D-15  0.33D-15  6  6    11.25     0.67
  19      1.14109077    -0.45714873  -130.29626771     0.00000000    -0.00000000  0.63D-16  0.43D-16  6  1    11.81     0.67
  20      1.14109077    -0.45714873  -130.29626771     0.00000000    -0.00000000  0.32D-17  0.11D-16  6  3    12.39     0.67
  21      1.14109077    -0.45714873  -130.29626771     0.00000000    -0.00000000  0.51D-18  0.23D-17  6  4    12.98     0.67
  22      1.14109077    -0.45714873  -130.29626771     0.00000000    -0.00000000  0.22D-19  0.82D-18  6  2    13.60     0.67
  23      1.14109077    -0.45714873  -130.29626771    -0.00000000     0.00000000  0.60D-19  0.16D-18  6  5    14.18     0.67
  24      1.14109077    -0.45714873  -130.29626771    -0.00000000     0.00000000  0.44D-20  0.15D-19  6  1    14.74     0.67
  25      1.14109077    -0.45714873  -130.29626771     0.00000000    -0.00000000  0.21D-20  0.10D-20  6  6    15.34     0.67

 Norm of t1 vector:      0.07771606      S-energy:     0.00000000      T1 diagnostic:  0.01586372
                                                                       D1 diagnostic:  0.04354109

 Doubles amplitudes (print threshold =  0.500E-01):

         I         J         SYM. A    SYM. B    A         B      T(IJ, AB)

         6         6         2         2         1         1     -0.13702711


 Total CPU time for triples:      6.95 sec


 RESULTS
 =======

  Reference energy                   -129.839118978087
  CCSD singlet pair energy             -0.314080673923
  CCSD triplet pair energy             -0.143068055201
  CCSD correlation energy              -0.457148729123

  Triples (T) contribution             -0.021341401933
  Total correlation energy             -0.478490131056

  CCSD total energy                  -130.296267707210
  CCSD[T] energy                     -130.318721562162
  CCSD-T energy                      -130.317190835967
 !CCSD(T) total energy               -130.317609109143

 Timing summary (sec):

 STEP                 CPU(USER)    SYS     CPU(TOT)    WALL
 Transformation          0.66      0.15      0.81      0.81
 CCSD iterations        14.69      2.08     16.77     16.75
 Triples                 6.95      0.20      7.15      7.17

 Program statistics:

 Available memory in ccsd:               994999756
 Min. memory needed in ccsd:                887758
 Max. memory used in ccsd:                 1088212
 Max. memory used in cckext:               1535578 (25 integral passes)



 **********************************************************************************************************************************
 DATASETS  * FILE   NREC   LENGTH (MB)   RECORD NAMES
              1      20      479.11       500      610      700      900      950      970     1000      129      960     1100   
                                          VAR    BASINP    GEOM    SYMINP    ZMAT    AOBASIS   BASIS     P2S    ABASIS      S 
                                         1400     1410     1200     1210     1080     1600     1650     1300     1700     1380   
                                           T        V       H0       H01     AOSYM     SMH    MOLCAS    ERIS     OPER     JKOP   

              2       4        3.13       700     1000      520     2100   
                                         GEOM     BASIS   MCVARS     RHF  

 PROGRAMS   *        TOTAL   CCSD(T)        HF       INT
 CPU TIMES  *        30.74     22.33      4.48      3.85
 REAL TIME  *        35.84 SEC
 DISK USED  *         1.33 GB      
 **********************************************************************************************************************************

 CCSD(T)/USERDEF energy=   -130.317609109143

        CCSD(T)         HF-SCF  
   -130.31760911   -129.83911898
 **********************************************************************************************************************************
 Molpro calculation terminated
 Variable memory released
